                         Program Version 3.0.3 - RELEASE   -
|  1> ! pbe0 def2-TZVP TIGHTSCF
|  2> % maxcore 2000
|  3> *xyz 0 3
|  4>  C       0.0000000     0.0000000     0.000000000
|  5> *
|  6>
|  7>                          ****END OF INPUT****

CARTESIAN COORDINATES (ANGSTROEM)
---------------------------------
  C      0.000000    0.000000    0.000000

 Total Charge           Charge          ....    0
 Multiplicity           Mult            ....    3
 Number of Electrons    NEL             ....    6
 Basis Dimension        Dim             ....   31

ORBITAL ENERGIES
----------------
                 SPIN UP ORBITALS
  NO   OCC          E(Eh)            E(eV)
   0   1.0000     -10.359563      -281.8980
   1   1.0000      -0.609151       -16.5759
   2   1.0000      -0.280282        -7.6269
   3   1.0000      -0.280282        -7.6269
   4   0.0000      -0.147056        -4.0016
   5   0.0000       0.145440         3.9576
   6   0.0000       0.224659         6.1133
   7   0.0000       0.224659         6.1133
   8   0.0000       0.240530         6.5451

                 SPIN DOWN ORBITALS
  NO   OCC          E(Eh)            E(eV)
   0   1.0000     -10.328282      -281.0468
   1   1.0000      -0.485119       -13.2008
   2   0.0000      -0.113503        -3.0886
   3   0.0000      -0.057830        -1.5736
   4   0.0000      -0.057830        -1.5736
   5   0.0000       0.181544         4.9401
   6   0.0000       0.260184         7.0800

MULLIKEN ATOMIC CHARGES AND SPIN POPULATIONS
--------------------------------------------
   0 C :   -0.000000    2.000000
Sum of atomic charges         :   -0.0000000

LOEWDIN ATOMIC CHARGES AND SPIN POPULATIONS
-------------------------------------------
   0 C :   -0.000000    2.000000

FINAL SINGLE POINT ENERGY       -37.805386893438

DIPOLE MOMENT
-------------
                                X             Y             Z
Electronic contribution:      0.00000      -0.00000       0.00000
Nuclear contribution   :      0.00000       0.00000       0.00000
                        -----------------------------------------
Total Dipole Moment    :      0.00000      -0.00000       0.00000
                        -----------------------------------------
Magnitude (a.u.)       :      0.00000
Magnitude (Debye)      :      0.00000

                             ****ORCA TERMINATED NORMALLY****
TOTAL RUN TIME: 0 days 0 hours 0 minutes 1 seconds 852 msec
