                         Program Version 3.0.3 - RELEASE   -
|  1> ! RI-MP2 RIJK def2-TZVP def2-TZVP/C def2-TZVP/JK TIGHTSCF
|  2> % maxcore 2000
|  3> % mp2 density relaxed end
|  4> *xyz 0 3
|  5>  C       0.0000000     0.0000000     0.000000000
|  6> *
|  7>
|  8>                          ****END OF INPUT****

CARTESIAN COORDINATES (ANGSTROEM)
---------------------------------
  C      0.000000    0.000000    0.000000

 Total Charge           Charge          ....    0
 Multiplicity           Mult            ....    3
 Number of Electrons    NEL             ....    6
 Basis Dimension        Dim             ....   31

ORBITAL ENERGIES
----------------
                 SPIN UP ORBITALS
  NO   OCC          E(Eh)            E(eV)
   0   1.0000     -11.345385      -308.7236
   1   1.0000      -0.828804       -22.5529
   2   1.0000      -0.438834       -11.9413
   3   1.0000      -0.438834       -11.9413
   4   0.0000       0.030122         0.8197
   5   0.0000       0.240711         6.5501
   6   0.0000       0.325257         8.8507
   7   0.0000       0.325257         8.8507
   8   0.0000       0.382324        10.4036

                 SPIN DOWN ORBITALS
  NO   OCC          E(Eh)            E(eV)
   0   1.0000     -11.299561      -307.4767
   1   1.0000      -0.583089       -15.8667
   2   0.0000       0.061222         1.6659
   3   0.0000       0.110163         2.9977
   4   0.0000       0.110163         2.9977
   5   0.0000       0.272007         7.4017
   6   0.0000       0.406731        11.0677

MULLIKEN ATOMIC CHARGES AND SPIN DENSITIES
------------------------------------------
   0 C :    0.000000    2.000000
Sum of atomic charges       :    0.0000000

LOEWDIN ATOMIC CHARGES AND SPIN DENSITIES
-----------------------------------------
   0 C :    0.000000    2.000000

MP2 TOTAL ENERGY:      -37.758577946 Eh
FINAL SINGLE POINT ENERGY       -37.758577946385

DIPOLE MOMENT
-------------
                                X             Y             Z
Electronic contribution:      0.00000      -0.00000       0.00000
Nuclear contribution   :      0.00000       0.00000       0.00000
                        -----------------------------------------
Total Dipole Moment    :      0.00000      -0.00000       0.00000
                        -----------------------------------------
Magnitude (a.u.)       :      0.00000
Magnitude (Debye)      :      0.00000

                             ****ORCA TERMINATED NORMALLY****
TOTAL RUN TIME: 0 days 0 hours 0 minutes 3 seconds 216 msec
