                         Program Version 3.0.3 - RELEASE   -
|  1> ! RI-MP2 RIJK def2-TZVP def2-TZVP/C def2-TZVP/JK TIGHTSCF
|  2> % maxcore 2000
|  3> % mp2 density relaxed end
|  4> *xyz 0 4
|  5>  N       0.0000000     0.0000000     0.000000000
|  6> *
|  7>
|  8>                          ****END OF INPUT****

CARTESIAN COORDINATES (ANGSTROEM)
---------------------------------
  N      0.000000    0.000000    0.000000

 Total Charge           Charge          ....    0
 Multiplicity           Mult            ....    4
 Number of Electrons    NEL             ....    7
 Basis Dimension        Dim             ....   31

ORBITAL ENERGIES
----------------
                 SPIN UP ORBITALS
  NO   OCC          E(Eh)            E(eV)
   0   1.0000     -15.670565      -426.4178
   1   1.0000      -1.162390       -31.6302
   2   1.0000      -0.570595       -15.5267
   3   1.0000      -0.570595       -15.5267
   4   1.0000      -0.570595       -15.5267
   5   0.0000       0.341233         9.2854
   6   0.0000       0.446794        12.1579
   7   0.0000       0.446794        12.1579
   8   0.0000       0.446794        12.1579
   9   0.0000       1.190214        32.3874

                 SPIN DOWN ORBITALS
  NO   OCC          E(Eh)            E(eV)
   0   1.0000     -15.579638      -423.9435
   1   1.0000      -0.725392       -19.7389
   2   0.0000       0.129417         3.5216
   3   0.0000       0.129417         3.5216
   4   0.0000       0.129417         3.5216
   5   0.0000       0.399244        10.8640
   6   0.0000       0.603469        16.4212

MULLIKEN ATOMIC CHARGES AND SPIN DENSITIES
------------------------------------------
   0 N :   -0.000000    3.000000
Sum of atomic charges       :   -0.0000000

LOEWDIN ATOMIC CHARGES AND SPIN DENSITIES
-----------------------------------------
   0 N :   -0.000000    3.000000

MP2 TOTAL ENERGY:      -54.497609443 Eh
FINAL SINGLE POINT ENERGY       -54.497609443022

DIPOLE MOMENT
-------------
                                X             Y             Z
Electronic contribution:      0.00000       0.00000      -0.00000
Nuclear contribution   :      0.00000       0.00000       0.00000
                        -----------------------------------------
Total Dipole Moment    :      0.00000       0.00000      -0.00000
                        -----------------------------------------
Magnitude (a.u.)       :      0.00000
Magnitude (Debye)      :      0.00000

                             ****ORCA TERMINATED NORMALLY****
TOTAL RUN TIME: 0 days 0 hours 0 minutes 2 seconds 713 msec
