                         Program Version 3.0.3 - RELEASE   -
|  1> ! RI-MP2 RIJK def2-TZVP def2-TZVP/C def2-TZVP/JK TIGHTSCF
|  2> % maxcore 2000
|  3> % mp2 density relaxed end
|  4> *xyz 0 3
|  5>  O       0.0000000     0.0000000     0.000000000
|  6> *
|  7>
|  8>                          ****END OF INPUT****

CARTESIAN COORDINATES (ANGSTROEM)
---------------------------------
  O      0.000000    0.000000    0.000000

 Total Charge           Charge          ....    0
 Multiplicity           Mult            ....    3
 Number of Electrons    NEL             ....    8
 Basis Dimension        Dim             ....   31

ORBITAL ENERGIES
----------------
                 SPIN UP ORBITALS
  NO   OCC          E(Eh)            E(eV)
   0   1.0000     -20.706006      -563.4391
   1   1.0000      -1.416249       -38.5381
   2   1.0000      -0.709255       -19.2998
   3   1.0000      -0.709255       -19.2998
   4   1.0000      -0.610028       -16.5997
   5   0.0000       0.471857        12.8399
   6   0.0000       0.526338        14.3224
   7   0.0000       0.526338        14.3224
   8   0.0000       0.561817        15.2878
   9   0.0000       1.610285        43.8181

                 SPIN DOWN ORBITALS
  NO   OCC          E(Eh)            E(eV)
   0   1.0000     -20.626705      -561.2812
   1   1.0000      -1.074503       -29.2387
   2   1.0000      -0.520887       -14.1740
   3   0.0000       0.099934         2.7193
   4   0.0000       0.099934         2.7193
   5   0.0000       0.515970        14.0403
   6   0.0000       0.584680        15.9099
   7   0.0000       0.675253        18.3746

MULLIKEN ATOMIC CHARGES AND SPIN DENSITIES
------------------------------------------
   0 O :   -0.000000    2.000000
Sum of atomic charges       :   -0.0000000

LOEWDIN ATOMIC CHARGES AND SPIN DENSITIES
-----------------------------------------
   0 O :   -0.000000    2.000000

MP2 TOTAL ENERGY:      -74.957264929 Eh
FINAL SINGLE POINT ENERGY       -74.957264928663

DIPOLE MOMENT
-------------
                                X             Y             Z
Electronic contribution:      0.00000       0.00000      -0.00000
Nuclear contribution   :      0.00000       0.00000       0.00000
                        -----------------------------------------
Total Dipole Moment    :      0.00000       0.00000      -0.00000
                        -----------------------------------------
Magnitude (a.u.)       :      0.00000
Magnitude (Debye)      :      0.00000

                             ****ORCA TERMINATED NORMALLY****
TOTAL RUN TIME: 0 days 0 hours 0 minutes 3 seconds 109 msec
