                         Program Version 3.0.3 - RELEASE   -
|  1> ! RI-MP2 RIJK def2-TZVP def2-TZVP/C def2-TZVP/JK TIGHTSCF
|  2> % maxcore 2000
|  3> % mp2 density relaxed end
|  4> *xyz 0 3
|  5>  S       0.0000000     0.0000000     0.000000000
|  6> *
|  7>
|  8>                          ****END OF INPUT****

CARTESIAN COORDINATES (ANGSTROEM)
---------------------------------
  S      0.000000    0.000000    0.000000

 Total Charge           Charge          ....    0
 Multiplicity           Mult            ....    3
 Number of Electrons    NEL             ....   16
 Basis Dimension        Dim             ....   37

ORBITAL ENERGIES
----------------
                 SPIN UP ORBITALS
  NO   OCC          E(Eh)            E(eV)
   0   1.0000     -92.009914     -2503.7170
   1   1.0000      -9.011634      -245.2190
   2   1.0000      -6.704834      -182.4478
   3   1.0000      -6.704834      -182.4478
   4   1.0000      -6.684353      -181.8905
   5   1.0000      -0.988360       -26.8946
   6   1.0000      -0.485386       -13.2080
   7   1.0000      -0.485386       -13.2080
   8   1.0000      -0.414254       -11.2724
   9   0.0000       0.379156        10.3174
  10   0.0000       0.379156        10.3174
  11   0.0000       0.410705        11.1758
  12   0.0000       0.453918        12.3517
  13   0.0000       0.453918        12.3517

                 SPIN DOWN ORBITALS
  NO   OCC          E(Eh)            E(eV)
   0   1.0000     -91.990206     -2503.1808
   1   1.0000      -8.992873      -244.7085
   2   1.0000      -6.674014      -181.6092
   3   1.0000      -6.657588      -181.1622
   4   1.0000      -6.657588      -181.1622
   5   1.0000      -0.773252       -21.0412
   6   1.0000      -0.378326       -10.2948
   7   0.0000       0.012940         0.3521
   8   0.0000       0.012940         0.3521
   9   0.0000       0.421651        11.4737
  10   0.0000       0.458375        12.4730
  11   0.0000       0.458375        12.4730

MULLIKEN ATOMIC CHARGES AND SPIN DENSITIES
------------------------------------------
   0 S :   -0.000000    2.000000
Sum of atomic charges       :   -0.0000000

LOEWDIN ATOMIC CHARGES AND SPIN DENSITIES
-----------------------------------------
   0 S :   -0.000000    2.000000

MP2 TOTAL ENERGY:     -397.616129888 Eh
FINAL SINGLE POINT ENERGY      -397.616129888347

DIPOLE MOMENT
-------------
                                X             Y             Z
Electronic contribution:     -0.00000       0.00000       0.00000
Nuclear contribution   :      0.00000       0.00000       0.00000
                        -----------------------------------------
Total Dipole Moment    :     -0.00000       0.00000       0.00000
                        -----------------------------------------
Magnitude (a.u.)       :      0.00000
Magnitude (Debye)      :      0.00000

                             ****ORCA TERMINATED NORMALLY****
TOTAL RUN TIME: 0 days 0 hours 0 minutes 3 seconds 381 msec
