                         Program Version 3.0.3 - RELEASE   -
|  1> ! RI-MP2 RIJK def2-TZVP def2-TZVP/C def2-TZVP/JK TIGHTSCF
|  2> % maxcore 2000
|  3> % mp2 density relaxed end
|  4> *xyz 0 1
|  5>  C       -0.2242971873     1.6369231317     0.2974288493
|  6>  N       -0.2272834013     0.1923536643     0.4799184144
|  7>  C        0.8148389323    -0.5869249467    -0.1490591327
|  8>  C        0.7762854249    -0.4405421387     1.3528555275
|  9>  C        1.8732056487     0.3478850938     2.0421888231
| 10>  C        0.2478981067    -1.6010701614     2.1730272603
| 11>  C       -1.0762842939    -2.2195066533     1.7714860613
| 12>  O        0.8765522655    -2.0032627464     3.1285233467
| 13>  H        0.7739456751     2.0781097060     0.1637920137
| 14>  H       -0.8188093299     1.8717208253    -0.5910018956
| 15>  H       -0.7009166663     2.1130470306     1.1596171908
| 16>  H        0.5084781974    -1.5084578100    -0.6381930689
| 17>  H        1.6278956730    -0.0596764648    -0.6485996509
| 18>  H        2.3486333551     1.0659677362     1.3720154365
| 19>  H        1.4819484147     0.8876310154     2.9108312697
| 20>  H        2.6337090592    -0.3433468272     2.4099704507
| 21>  H       -1.0689598553    -2.5509000305     0.7287443036
| 22>  H       -1.2827980366    -3.0657570688     2.4273829380
| 23>  H       -1.8715301421    -1.4726797256     1.8476998125
| 24> *
| 25>
| 26>                          ****END OF INPUT****

CARTESIAN COORDINATES (ANGSTROEM)
---------------------------------
  C     -0.224297    1.636923    0.297429
  N     -0.227283    0.192354    0.479918
  C      0.814839   -0.586925   -0.149059
  C      0.776285   -0.440542    1.352856
  C      1.873206    0.347885    2.042189
  C      0.247898   -1.601070    2.173027
  C     -1.076284   -2.219507    1.771486
  O      0.876552   -2.003263    3.128523
  H      0.773946    2.078110    0.163792
  H     -0.818809    1.871721   -0.591002
  H     -0.700917    2.113047    1.159617
  H      0.508478   -1.508458   -0.638193
  H      1.627896   -0.059676   -0.648600
  H      2.348633    1.065968    1.372015
  H      1.481948    0.887631    2.910831
  H      2.633709   -0.343347    2.409970
  H     -1.068960   -2.550900    0.728744
  H     -1.282798   -3.065757    2.427383
  H     -1.871530   -1.472680    1.847700

 Total Charge           Charge          ....    0
 Multiplicity           Mult            ....    1
 Number of Electrons    NEL             ....   62
 Basis Dimension        Dim             ....  314

ORBITAL ENERGIES
----------------

  NO   OCC          E(Eh)            E(eV)
   0   2.0000     -20.538989      -558.8943
   1   2.0000     -15.573444      -423.7749
   2   2.0000     -11.326071      -308.1981
   3   2.0000     -11.278126      -306.8934
   4   2.0000     -11.269838      -306.6679
   5   2.0000     -11.257491      -306.3319
   6   2.0000     -11.224149      -305.4246
   7   2.0000     -11.223315      -305.4019
   8   2.0000      -1.384203       -37.6661
   9   2.0000      -1.289227       -35.0816
  10   2.0000      -1.035169       -28.1684
  11   2.0000      -0.996630       -27.1197
  12   2.0000      -0.973070       -26.4786
  13   2.0000      -0.858544       -23.3622
  14   2.0000      -0.829058       -22.5598
  15   2.0000      -0.716836       -19.5061
  16   2.0000      -0.685556       -18.6549
  17   2.0000      -0.658758       -17.9257
  18   2.0000      -0.621111       -16.9013
  19   2.0000      -0.603447       -16.4206
  20   2.0000      -0.599456       -16.3120
  21   2.0000      -0.586008       -15.9461
  22   2.0000      -0.570355       -15.5201
  23   2.0000      -0.552665       -15.0388
  24   2.0000      -0.545266       -14.8374
  25   2.0000      -0.523871       -14.2552
  26   2.0000      -0.498279       -13.5589
  27   2.0000      -0.468814       -12.7571
  28   2.0000      -0.457057       -12.4371
  29   2.0000      -0.415634       -11.3100
  30   2.0000      -0.374149       -10.1811
  31   0.0000       0.132004         3.5920
  32   0.0000       0.143088         3.8936
  33   0.0000       0.155486         4.2310
  34   0.0000       0.173243         4.7142
  35   0.0000       0.182690         4.9712

MULLIKEN ATOMIC CHARGES
-----------------------
   0 C :   -0.302636
   1 N :   -0.234393
   2 C :   -0.198164
   3 C :    0.119273
   4 C :   -0.378490
   5 C :    0.161825
   6 C :   -0.383553
   7 O :   -0.297148
   8 H :    0.109009
   9 H :    0.146679
  10 H :    0.139988
  11 H :    0.129044
  12 H :    0.126241
  13 H :    0.126529
  14 H :    0.135778
  15 H :    0.165573
  16 H :    0.135267
  17 H :    0.149497
  18 H :    0.149680
Sum of atomic charges:    0.0000000

LOEWDIN ATOMIC CHARGES
----------------------
   0 C :   -0.323080
   1 N :    0.114308
   2 C :   -0.221465
   3 C :   -0.270218
   4 C :   -0.267306
   5 C :   -0.310552
   6 C :   -0.275635
   7 O :    0.147877
   8 H :    0.106626
   9 H :    0.121196
  10 H :    0.120659
  11 H :    0.125021
  12 H :    0.128565
  13 H :    0.123486
  14 H :    0.131961
  15 H :    0.141040
  16 H :    0.134736
  17 H :    0.131292
  18 H :    0.141488

  Mayer bond orders larger than 0.1
B(  0-C ,  1-N ) :   0.8796 B(  0-C ,  8-H ) :   0.9266 B(  0-C ,  9-H ) :   0.9372
B(  0-C , 10-H ) :   0.9394 B(  1-N ,  2-C ) :   0.9116 B(  1-N ,  3-C ) :   0.8074
B(  2-C ,  3-C ) :   0.8874 B(  2-C , 11-H ) :   0.9096 B(  2-C , 12-H ) :   0.9197
B(  3-C ,  4-C ) :   0.9365 B(  3-C ,  5-C ) :   0.8812 B(  4-C , 13-H ) :   0.9365
B(  4-C , 14-H ) :   0.9302 B(  4-C , 15-H ) :   0.9229 B(  5-C ,  6-C ) :   0.9539
B(  5-C ,  7-O ) :   1.9847 B(  6-C , 16-H ) :   0.9180 B(  6-C , 17-H ) :   0.9344
B(  6-C , 18-H ) :   0.9049

MP2 TOTAL ENERGY:     -364.430343282 Eh
FINAL SINGLE POINT ENERGY      -364.430343281895

DIPOLE MOMENT
-------------
                                X             Y             Z
Electronic contribution:      0.46943      -4.27159       3.02267
Nuclear contribution   :     -0.55313       4.96356      -3.93019
                        -----------------------------------------
Total Dipole Moment    :     -0.08370       0.69197      -0.90751
                        -----------------------------------------
Magnitude (a.u.)       :      1.14430
Magnitude (Debye)      :      2.90857

                             ****ORCA TERMINATED NORMALLY****
TOTAL RUN TIME: 0 days 0 hours 13 minutes 35 seconds 653 msec
