                         Program Version 3.0.3 - RELEASE   -
|  1> ! RI-MP2 RIJK def2-TZVP def2-TZVP/C def2-TZVP/JK TIGHTSCF
|  2> % maxcore 2000
|  3> % mp2 density relaxed end
|  4> *xyz 0 1
|  5>  C       -0.2089530509     1.5321967913    -0.0645931291
|  6>  C        0.0437235183     0.0362647521    -0.0171488138
|  7>  C        0.6864239800    -0.7029895784    -1.2508019971
|  8>  C        1.7559053691    -1.1745344831    -0.2744229366
|  9>  C        2.4254112545    -0.0265654812     0.3583818780
| 10>  N        1.1256269709    -0.4579170577     0.9097238140
| 11>  C       -0.2058723245    -1.7777320885    -1.8327128277
| 12>  C       -1.2540258452    -1.3076392209    -2.8267232213
| 13>  O       -0.0995297904    -2.9408260863    -1.5140734827
| 14>  H        0.6677100460     2.0943596255    -0.3987477614
| 15>  H       -1.0315521816     1.7604930493    -0.7510242547
| 16>  H       -0.4882398247     1.8956219854     0.9297267124
| 17>  H       -0.8734586713    -0.4772352269     0.2875120008
| 18>  H        1.0353385420    -0.0390894786    -2.0507073148
| 19>  H        2.0960464819    -2.2000091824    -0.1995709438
| 20>  H        3.2442789937    -0.2328848827     1.0405399640
| 21>  H        2.5134719976     0.9182304524    -0.1726561956
| 22>  H       -0.7639435569    -0.9598662479    -3.7437713944
| 23>  H       -1.9311299054    -2.1275324533    -3.0686376754
| 24>  H       -1.8210903331    -0.4585183081    -2.4293476708
| 25> *
| 26>
| 27>                          ****END OF INPUT****

CARTESIAN COORDINATES (ANGSTROEM)
---------------------------------
  C     -0.208953    1.532197   -0.064593
  C      0.043724    0.036265   -0.017149
  C      0.686424   -0.702990   -1.250802
  C      1.755905   -1.174534   -0.274423
  C      2.425411   -0.026565    0.358382
  N      1.125627   -0.457917    0.909724
  C     -0.205872   -1.777732   -1.832713
  C     -1.254026   -1.307639   -2.826723
  O     -0.099530   -2.940826   -1.514073
  H      0.667710    2.094360   -0.398748
  H     -1.031552    1.760493   -0.751024
  H     -0.488240    1.895622    0.929727
  H     -0.873459   -0.477235    0.287512
  H      1.035339   -0.039089   -2.050707
  H      2.096046   -2.200009   -0.199571
  H      3.244279   -0.232885    1.040540
  H      2.513472    0.918230   -0.172656
  H     -0.763944   -0.959866   -3.743771
  H     -1.931130   -2.127532   -3.068638
  H     -1.821090   -0.458518   -2.429348

 Total Charge           Charge          ....    0
 Multiplicity           Mult            ....    1
 Number of Electrons    NEL             ....   68
 Basis Dimension        Dim             ....  345

ORBITAL ENERGIES
----------------

  NO   OCC          E(Eh)            E(eV)
   0   2.0000     -20.547320      -559.1210
   1   2.0000     -15.562445      -423.4756
   2   2.0000     -11.334208      -308.4195
   3   2.0000     -11.277439      -306.8747
   4   2.0000     -11.264646      -306.5266
   5   2.0000     -11.259275      -306.3804
   6   2.0000     -11.249674      -306.1192
   7   2.0000     -11.240155      -305.8602
   8   2.0000     -11.229212      -305.5624
   9   2.0000      -1.391404       -37.8620
  10   2.0000      -1.294123       -35.2149
  11   2.0000      -1.062855       -28.9218
  12   2.0000      -1.021368       -27.7928
  13   2.0000      -0.977232       -26.5918
  14   2.0000      -0.913514       -24.8580
  15   2.0000      -0.818938       -22.2844
  16   2.0000      -0.782055       -21.2808
  17   2.0000      -0.739335       -20.1183
  18   2.0000      -0.685749       -18.6602
  19   2.0000      -0.656213       -17.8565
  20   2.0000      -0.636121       -17.3097
  21   2.0000      -0.611506       -16.6399
  22   2.0000      -0.599588       -16.3156
  23   2.0000      -0.592316       -16.1177
  24   2.0000      -0.584251       -15.8983
  25   2.0000      -0.559497       -15.2247
  26   2.0000      -0.551009       -14.9937
  27   2.0000      -0.525398       -14.2968
  28   2.0000      -0.505644       -13.7593
  29   2.0000      -0.472197       -12.8491
  30   2.0000      -0.467297       -12.7158
  31   2.0000      -0.425280       -11.5725
  32   2.0000      -0.411129       -11.1874
  33   2.0000      -0.373712       -10.1692
  34   0.0000       0.122893         3.3441
  35   0.0000       0.141826         3.8593
  36   0.0000       0.154492         4.2039
  37   0.0000       0.158138         4.3031
  38   0.0000       0.175289         4.7699

MULLIKEN ATOMIC CHARGES
-----------------------
   0 C :   -0.391890
   1 C :   -0.036741
   2 C :    0.001667
   3 C :   -0.106703
   4 C :   -0.149436
   5 N :   -0.238717
   6 C :    0.150869
   7 C :   -0.420350
   8 O :   -0.287293
   9 H :    0.119000
  10 H :    0.128966
  11 H :    0.149798
  12 H :    0.118876
  13 H :    0.112124
  14 H :    0.147342
  15 H :    0.134295
  16 H :    0.120411
  17 H :    0.147350
  18 H :    0.157202
  19 H :    0.143229
Sum of atomic charges:    0.0000000

LOEWDIN ATOMIC CHARGES
----------------------
   0 C :   -0.296535
   1 C :   -0.243684
   2 C :   -0.180432
   3 C :   -0.186927
   4 C :   -0.250196
   5 N :    0.116796
   6 C :   -0.335095
   7 C :   -0.275940
   8 O :    0.154852
   9 H :    0.121683
  10 H :    0.127062
  11 H :    0.133182
  12 H :    0.152627
  13 H :    0.156699
  14 H :    0.140439
  15 H :    0.134736
  16 H :    0.123501
  17 H :    0.138631
  18 H :    0.134154
  19 H :    0.134448

  Mayer bond orders larger than 0.1
B(  0-C ,  1-C ) :   0.9325 B(  0-C ,  9-H ) :   0.9230 B(  0-C , 10-H ) :   0.9343
B(  0-C , 11-H ) :   0.9374 B(  1-C ,  2-C ) :   0.9011 B(  1-C ,  5-N ) :   0.9357
B(  1-C , 12-H ) :   0.9091 B(  2-C ,  3-C ) :   0.9186 B(  2-C ,  6-C ) :   0.8657
B(  2-C ,  8-O ) :  -0.1280 B(  2-C , 13-H ) :   0.8852 B(  3-C ,  4-C ) :   0.9231
B(  3-C ,  5-N ) :   0.8871 B(  3-C , 14-H ) :   0.8911 B(  4-C ,  5-N ) :   0.8826
B(  4-C , 15-H ) :   0.9321 B(  4-C , 16-H ) :   0.9098 B(  6-C ,  7-C ) :   0.9363
B(  6-C ,  8-O ) :   2.0243 B(  7-C , 17-H ) :   0.9128 B(  7-C , 18-H ) :   0.9384
B(  7-C , 19-H ) :   0.9196

MP2 TOTAL ENERGY:     -402.427058577 Eh
FINAL SINGLE POINT ENERGY      -402.427058576527

DIPOLE MOMENT
-------------
                                X             Y             Z
Electronic contribution:      2.07881      -6.70351       1.41743
Nuclear contribution   :     -2.12026       7.91337      -2.23189
                        -----------------------------------------
Total Dipole Moment    :     -0.04145       1.20986      -0.81446
                        -----------------------------------------
Magnitude (a.u.)       :      1.45905
Magnitude (Debye)      :      3.70861

                             ****ORCA TERMINATED NORMALLY****
TOTAL RUN TIME: 0 days 0 hours 18 minutes 17 seconds 666 msec
