                         Program Version 3.0.3 - RELEASE   -
|  1> ! RI-MP2 RIJK def2-TZVP def2-TZVP/C def2-TZVP/JK TIGHTSCF
|  2> % maxcore 2000
|  3> % mp2 density relaxed end
|  4> *xyz 0 1
|  5>  C       -0.4203607991     1.4206241622     0.0445123669
|  6>  C        0.0172430640    -0.0384443480    -0.0112979234
|  7>  C        1.3084209590    -0.3341907990    -0.8915949562
|  8>  C        2.1225497816    -0.4834157878     0.4146180406
|  9>  O        2.6014742610     0.7261166673     1.1000802148
| 10>  C        1.9414270239    -0.0356339847     2.1477817601
| 11>  C        2.3954489624    -1.4547770317     1.6110524112
| 12>  N        0.9945881578    -1.9945780523     1.6585204189
| 13>  C        0.8132452903    -0.5607462507     1.2252463172
| 14>  H        0.4226649810     2.0649261133     0.3053026972
| 15>  H       -0.8147446693     1.7415475118    -0.9257362824
| 16>  H       -1.2061989711     1.5614590997     0.7935316814
| 17>  H       -0.8332788845    -0.6826167724    -0.2540668109
| 18>  H        1.2423853895    -1.2565567366    -1.4732143528
| 19>  H        1.6514151389     0.4715936889    -1.5444679599
| 20>  H        1.9557391765     0.3630543638     3.1660201376
| 21>  H        3.2723982215    -2.0492397872     1.8867700000
| 22>  H        0.8534404767    -2.6198949267     0.8591739096
| 23> *
| 24>
| 25>                          ****END OF INPUT****

CARTESIAN COORDINATES (ANGSTROEM)
---------------------------------
  C     -0.420361    1.420624    0.044512
  C      0.017243   -0.038444   -0.011298
  C      1.308421   -0.334191   -0.891595
  C      2.122550   -0.483416    0.414618
  O      2.601474    0.726117    1.100080
  C      1.941427   -0.035634    2.147782
  C      2.395449   -1.454777    1.611052
  N      0.994588   -1.994578    1.658520
  C      0.813245   -0.560746    1.225246
  H      0.422665    2.064926    0.305303
  H     -0.814745    1.741548   -0.925736
  H     -1.206199    1.561459    0.793532
  H     -0.833279   -0.682617   -0.254067
  H      1.242385   -1.256557   -1.473214
  H      1.651415    0.471594   -1.544468
  H      1.955739    0.363054    3.166020
  H      3.272398   -2.049240    1.886770
  H      0.853440   -2.619895    0.859174

 Total Charge           Charge          ....    0
 Multiplicity           Mult            ....    1
 Number of Electrons    NEL             ....   66
 Basis Dimension        Dim             ....  333

ORBITAL ENERGIES
----------------

  NO   OCC          E(Eh)            E(eV)
   0   2.0000     -20.554089      -559.3052
   1   2.0000     -15.563036      -423.4917
   2   2.0000     -11.316228      -307.9302
   3   2.0000     -11.297061      -307.4087
   4   2.0000     -11.289440      -307.2013
   5   2.0000     -11.266460      -306.5760
   6   2.0000     -11.259795      -306.3946
   7   2.0000     -11.254007      -306.2371
   8   2.0000     -11.221160      -305.3433
   9   2.0000      -1.415964       -38.5303
  10   2.0000      -1.252541       -34.0834
  11   2.0000      -1.104927       -30.0666
  12   2.0000      -0.992855       -27.0170
  13   2.0000      -0.970016       -26.3955
  14   2.0000      -0.889337       -24.2001
  15   2.0000      -0.843302       -22.9474
  16   2.0000      -0.804030       -21.8788
  17   2.0000      -0.698681       -19.0121
  18   2.0000      -0.687038       -18.6953
  19   2.0000      -0.648326       -17.6419
  20   2.0000      -0.628046       -17.0900
  21   2.0000      -0.609802       -16.5935
  22   2.0000      -0.587002       -15.9731
  23   2.0000      -0.565390       -15.3850
  24   2.0000      -0.550418       -14.9776
  25   2.0000      -0.535144       -14.5620
  26   2.0000      -0.510175       -13.8826
  27   2.0000      -0.500478       -13.6187
  28   2.0000      -0.466415       -12.6918
  29   2.0000      -0.454509       -12.3678
  30   2.0000      -0.418507       -11.3882
  31   2.0000      -0.396411       -10.7869
  32   2.0000      -0.334679        -9.1071
  33   0.0000       0.131595         3.5809
  34   0.0000       0.146722         3.9925
  35   0.0000       0.157869         4.2958
  36   0.0000       0.175811         4.7841
  37   0.0000       0.181152         4.9294

MULLIKEN ATOMIC CHARGES
-----------------------
   0 C :   -0.449175
   1 C :    0.004926
   2 C :   -0.288539
   3 C :    0.147091
   4 O :   -0.345037
   5 C :   -0.009558
   6 C :   -0.060887
   7 N :   -0.347980
   8 C :    0.060228
   9 H :    0.157284
  10 H :    0.132785
  11 H :    0.135513
  12 H :    0.123375
  13 H :    0.140296
  14 H :    0.143692
  15 H :    0.129330
  16 H :    0.128888
  17 H :    0.197769
Sum of atomic charges:   -0.0000000

LOEWDIN ATOMIC CHARGES
----------------------
   0 C :   -0.290591
   1 C :   -0.204191
   2 C :   -0.177304
   3 C :   -0.203520
   4 O :    0.143985
   5 C :   -0.172709
   6 C :   -0.163188
   7 N :    0.011141
   8 C :   -0.167532
   9 H :    0.132109
  10 H :    0.124800
  11 H :    0.127831
  12 H :    0.147942
  13 H :    0.140637
  14 H :    0.143137
  15 H :    0.124921
  16 H :    0.122718
  17 H :    0.159814

  Mayer bond orders larger than 0.1
B(  0-C ,  1-C ) :   0.8864 B(  0-C ,  9-H ) :   0.9321 B(  0-C , 10-H ) :   0.9336
B(  0-C , 11-H ) :   0.9364 B(  1-C ,  2-C ) :   0.9176 B(  1-C ,  8-C ) :   0.8282
B(  1-C , 12-H ) :   0.9259 B(  2-C ,  3-C ) :   0.8989 B(  2-C , 13-H ) :   0.9162
B(  2-C , 14-H ) :   0.9100 B(  3-C ,  4-O ) :   0.9023 B(  3-C ,  6-C ) :   0.9041
B(  3-C ,  8-C ) :   0.7535 B(  4-O ,  5-C ) :   0.9285 B(  5-C ,  6-C ) :   0.8659
B(  5-C ,  8-C ) :   0.9140 B(  5-C , 15-H ) :   0.8699 B(  6-C ,  7-N ) :   0.9173
B(  6-C , 16-H ) :   0.8885 B(  7-N ,  8-C ) :   0.9830 B(  7-N , 17-H ) :   0.8695

MP2 TOTAL ENERGY:     -401.074492343 Eh
FINAL SINGLE POINT ENERGY      -401.074492342653

DIPOLE MOMENT
-------------
                                X             Y             Z
Electronic contribution:      4.51780      -2.27265       3.46315
Nuclear contribution   :     -4.83857       1.99600      -4.08410
                        -----------------------------------------
Total Dipole Moment    :     -0.32076      -0.27665      -0.62095
                        -----------------------------------------
Magnitude (a.u.)       :      0.75166
Magnitude (Debye)      :      1.91058

                             ****ORCA TERMINATED NORMALLY****
TOTAL RUN TIME: 0 days 0 hours 18 minutes 51 seconds 863 msec
