                         Program Version 3.0.3 - RELEASE   -
|  1> ! RI-MP2 RIJK def2-TZVP def2-TZVP/C def2-TZVP/JK TIGHTSCF
|  2> % maxcore 2000
|  3> % mp2 density relaxed end
|  4> *xyz 0 1
|  5>  C        0.0762701114     1.5471186666    -0.0210477896
|  6>  C       -0.0323024452     0.0175866992     0.0176551228
|  7>  C       -1.4577548966    -0.5241843880     0.0397369482
|  8>  C       -2.3573062083    -0.1325058424    -1.1906357657
|  9>  C       -3.5187467266    -1.1700764437    -1.1375810359
| 10>  C       -3.1581258217    -2.0281594103     0.1221227587
| 11>  C       -1.6199368685    -2.0666214860    -0.0018951446
| 12>  C       -3.3052307980    -1.1057245087     1.3220344863
| 13>  C       -2.3093735487    -0.2161975573     1.2702924272
| 14>  H        1.1241677195     1.8628307536    -0.0242975265
| 15>  H       -0.3968852932     1.9599129211    -0.9176313346
| 16>  H       -0.4029340535     2.0096995855     0.8483125296
| 17>  H        0.4862144875    -0.3993723496    -0.8563765065
| 18>  H        0.5034897993    -0.3611419741     0.8977543211
| 19>  H       -2.7109165778     0.8988425604    -1.1252391885
| 20>  H       -1.7832209029    -0.2258420610    -2.1192625834
| 21>  H       -4.5025970619    -0.7035930972    -1.0460653647
| 22>  H       -3.5325441919    -1.7964878397    -2.0350443243
| 23>  H       -3.6818107937    -2.9831293513     0.1797410794
| 24>  H       -1.2663137795    -2.5096257788    -0.9405405745
| 25>  H       -1.1350312751    -2.5619733870     0.8438295733
| 26>  H       -4.1415326291    -1.1170565742     2.0106678884
| 27>  H       -2.1678784756     0.6460469629     1.9109811939
| 28> *
| 29>
| 30>                          ****END OF INPUT****

CARTESIAN COORDINATES (ANGSTROEM)
---------------------------------
  C      0.076270    1.547119   -0.021048
  C     -0.032302    0.017587    0.017655
  C     -1.457755   -0.524184    0.039737
  C     -2.357306   -0.132506   -1.190636
  C     -3.518747   -1.170076   -1.137581
  C     -3.158126   -2.028159    0.122123
  C     -1.619937   -2.066621   -0.001895
  C     -3.305231   -1.105725    1.322034
  C     -2.309374   -0.216198    1.270292
  H      1.124168    1.862831   -0.024298
  H     -0.396885    1.959913   -0.917631
  H     -0.402934    2.009700    0.848313
  H      0.486214   -0.399372   -0.856377
  H      0.503490   -0.361142    0.897754
  H     -2.710917    0.898843   -1.125239
  H     -1.783221   -0.225842   -2.119263
  H     -4.502597   -0.703593   -1.046065
  H     -3.532544   -1.796488   -2.035044
  H     -3.681811   -2.983129    0.179741
  H     -1.266314   -2.509626   -0.940541
  H     -1.135031   -2.561973    0.843830
  H     -4.141533   -1.117057    2.010668
  H     -2.167878    0.646047    1.910981

 Total Charge           Charge          ....    0
 Multiplicity           Mult            ....    1
 Number of Electrons    NEL             ....   68
 Basis Dimension        Dim             ....  363

ORBITAL ENERGIES
----------------

  NO   OCC          E(Eh)            E(eV)
   0   2.0000     -11.230096      -305.5865
   1   2.0000     -11.225004      -305.4479
   2   2.0000     -11.216954      -305.2288
   3   2.0000     -11.216348      -305.2123
   4   2.0000     -11.215984      -305.2024
   5   2.0000     -11.214708      -305.1677
   6   2.0000     -11.214200      -305.1539
   7   2.0000     -11.212899      -305.1185
   8   2.0000     -11.211320      -305.0755
   9   2.0000      -1.174436       -31.9580
  10   2.0000      -1.042319       -28.3629
  11   2.0000      -1.001814       -27.2608
  12   2.0000      -0.947736       -25.7892
  13   2.0000      -0.942162       -25.6375
  14   2.0000      -0.839434       -22.8421
  15   2.0000      -0.793630       -21.5958
  16   2.0000      -0.752589       -20.4790
  17   2.0000      -0.698231       -18.9998
  18   2.0000      -0.663302       -18.0494
  19   2.0000      -0.643368       -17.5069
  20   2.0000      -0.601918       -16.3790
  21   2.0000      -0.596779       -16.2392
  22   2.0000      -0.563544       -15.3348
  23   2.0000      -0.540468       -14.7069
  24   2.0000      -0.535346       -14.5675
  25   2.0000      -0.511388       -13.9156
  26   2.0000      -0.494705       -13.4616
  27   2.0000      -0.480359       -13.0712
  28   2.0000      -0.472766       -12.8646
  29   2.0000      -0.468717       -12.7544
  30   2.0000      -0.453045       -12.3280
  31   2.0000      -0.430973       -11.7274
  32   2.0000      -0.421136       -11.4597
  33   2.0000      -0.335456        -9.1282
  34   0.0000       0.137861         3.7514
  35   0.0000       0.147579         4.0158
  36   0.0000       0.158441         4.3114
  37   0.0000       0.167533         4.5588
  38   0.0000       0.179298         4.8789

MULLIKEN ATOMIC CHARGES
-----------------------
   0 C :   -0.410030
   1 C :   -0.212140
   2 C :    0.216549
   3 C :   -0.296525
   4 C :   -0.234192
   5 C :   -0.000065
   6 C :   -0.259386
   7 C :   -0.208900
   8 C :   -0.271610
   9 H :    0.135212
  10 H :    0.132107
  11 H :    0.123901
  12 H :    0.109350
  13 H :    0.114394
  14 H :    0.119166
  15 H :    0.117019
  16 H :    0.113256
  17 H :    0.115349
  18 H :    0.123926
  19 H :    0.112130
  20 H :    0.111874
  21 H :    0.126312
  22 H :    0.122302
Sum of atomic charges:   -0.0000000

LOEWDIN ATOMIC CHARGES
----------------------
   0 C :   -0.313622
   1 C :   -0.252852
   2 C :   -0.246020
   3 C :   -0.199944
   4 C :   -0.218825
   5 C :   -0.214424
   6 C :   -0.174672
   7 C :   -0.130775
   8 C :   -0.113505
   9 H :    0.121002
  10 H :    0.121455
  11 H :    0.119644
  12 H :    0.140671
  13 H :    0.141382
  14 H :    0.134065
  15 H :    0.135757
  16 H :    0.132278
  17 H :    0.133265
  18 H :    0.139763
  19 H :    0.136349
  20 H :    0.139334
  21 H :    0.133720
  22 H :    0.135954

  Mayer bond orders larger than 0.1
B(  0-C ,  1-C ) :   0.9215 B(  0-C ,  9-H ) :   0.9415 B(  0-C , 10-H ) :   0.9394
B(  0-C , 11-H ) :   0.9393 B(  1-C ,  2-C ) :   0.8688 B(  1-C , 12-H ) :   0.9376
B(  1-C , 13-H ) :   0.9364 B(  2-C ,  3-C ) :   0.8873 B(  2-C ,  6-C ) :   0.9020
B(  2-C ,  8-C ) :   0.9084 B(  3-C ,  4-C ) :   0.9835 B(  3-C , 14-H ) :   0.9247
B(  3-C , 15-H ) :   0.9209 B(  4-C ,  5-C ) :   0.8867 B(  4-C , 16-H ) :   0.9253
B(  4-C , 17-H ) :   0.9246 B(  5-C ,  6-C ) :   0.9549 B(  5-C ,  7-C ) :   0.9278
B(  5-C , 18-H ) :   0.9212 B(  6-C , 19-H ) :   0.9238 B(  6-C , 20-H ) :   0.9093
B(  7-C ,  8-C ) :   1.7766 B(  7-C , 21-H ) :   0.9317 B(  8-C , 22-H ) :   0.9290

MP2 TOTAL ENERGY:     -350.530546673 Eh
FINAL SINGLE POINT ENERGY      -350.530546673109

DIPOLE MOMENT
-------------
                                X             Y             Z
Electronic contribution:     -3.22096      -2.94516       2.39019
Nuclear contribution   :      3.23500       2.94822      -2.51240
                        -----------------------------------------
Total Dipole Moment    :      0.01404       0.00306      -0.12221
                        -----------------------------------------
Magnitude (a.u.)       :      0.12305
Magnitude (Debye)      :      0.31278

                             ****ORCA TERMINATED NORMALLY****
TOTAL RUN TIME: 0 days 0 hours 22 minutes 35 seconds 181 msec
