                         Program Version 3.0.3 - RELEASE   -
|  1> ! RI-MP2 RIJK def2-TZVP def2-TZVP/C def2-TZVP/JK TIGHTSCF
|  2> % maxcore 2000
|  3> % mp2 density relaxed end
|  4> *xyz 0 1
|  5>  C        1.4263784367    -0.4600277949     0.1275522699
|  6>  C        0.0299010955     0.1009076394     0.1056457237
|  7>  N       -0.1351301611     1.3667962875     0.1676786730
|  8>  N       -1.0134021689    -0.8127985089     0.0171896905
|  9>  C       -1.0154561406    -2.1945462179    -0.0560000054
| 10>  C       -0.0492776367    -3.1559840911    -0.0708747749
| 11>  O       -0.6890733948    -4.3747450384    -0.1594420842
| 12>  C       -1.9931716778    -4.0726492935    -0.1922070112
| 13>  N       -2.2612051362    -2.8085946955    -0.1351778141
| 14>  H        2.1242636027     0.3724376767     0.1979771550
| 15>  H        1.5712016771    -1.1257309020     0.9849175017
| 16>  H        1.6368571782    -1.0312759432    -0.7827231013
| 17>  H       -1.1256320498     1.6210602825     0.1443440986
| 18>  H       -1.9469194925    -0.4277647428     0.0038976262
| 19>  H        1.0213100641    -3.1848102355    -0.0324951740
| 20>  H       -2.6889128659    -4.8939305323    -0.2617709435
| 21> *
| 22>
| 23>                          ****END OF INPUT****

CARTESIAN COORDINATES (ANGSTROEM)
---------------------------------
  C      1.426378   -0.460028    0.127552
  C      0.029901    0.100908    0.105646
  N     -0.135130    1.366796    0.167679
  N     -1.013402   -0.812799    0.017190
  C     -1.015456   -2.194546   -0.056000
  C     -0.049278   -3.155984   -0.070875
  O     -0.689073   -4.374745   -0.159442
  C     -1.993172   -4.072649   -0.192207
  N     -2.261205   -2.808595   -0.135178
  H      2.124264    0.372438    0.197977
  H      1.571202   -1.125731    0.984918
  H      1.636857   -1.031276   -0.782723
  H     -1.125632    1.621060    0.144344
  H     -1.946919   -0.427765    0.003898
  H      1.021310   -3.184810   -0.032495
  H     -2.688913   -4.893931   -0.261771

 Total Charge           Charge          ....    0
 Multiplicity           Mult            ....    1
 Number of Electrons    NEL             ....   66
 Basis Dimension        Dim             ....  321

ORBITAL ENERGIES
----------------

  NO   OCC          E(Eh)            E(eV)
   0   2.0000     -20.646740      -561.8264
   1   2.0000     -15.603964      -424.6054
   2   2.0000     -15.579884      -423.9502
   3   2.0000     -15.528149      -422.5424
   4   2.0000     -11.352355      -308.9133
   5   2.0000     -11.328721      -308.2702
   6   2.0000     -11.325029      -308.1697
   7   2.0000     -11.289638      -307.2067
   8   2.0000     -11.236706      -305.7663
   9   2.0000      -1.497815       -40.7576
  10   2.0000      -1.307457       -35.5777
  11   2.0000      -1.242953       -33.8225
  12   2.0000      -1.165111       -31.7043
  13   2.0000      -1.032801       -28.1039
  14   2.0000      -1.001911       -27.2634
  15   2.0000      -0.865042       -23.5390
  16   2.0000      -0.851349       -23.1664
  17   2.0000      -0.792205       -21.5570
  18   2.0000      -0.749792       -20.4029
  19   2.0000      -0.703318       -19.1383
  20   2.0000      -0.676134       -18.3985
  21   2.0000      -0.672709       -18.3054
  22   2.0000      -0.630779       -17.1644
  23   2.0000      -0.612354       -16.6630
  24   2.0000      -0.592915       -16.1340
  25   2.0000      -0.558903       -15.2085
  26   2.0000      -0.554686       -15.0938
  27   2.0000      -0.543441       -14.7878
  28   2.0000      -0.483198       -13.1485
  29   2.0000      -0.461201       -12.5499
  30   2.0000      -0.432160       -11.7597
  31   2.0000      -0.402762       -10.9597
  32   2.0000      -0.317614        -8.6427
  33   0.0000       0.123218         3.3529
  34   0.0000       0.131957         3.5907
  35   0.0000       0.154455         4.2029
  36   0.0000       0.168995         4.5986
  37   0.0000       0.173481         4.7207

MULLIKEN ATOMIC CHARGES
-----------------------
   0 C :   -0.390336
   1 C :    0.144564
   2 N :   -0.373421
   3 N :   -0.309888
   4 C :    0.211456
   5 C :   -0.112748
   6 O :   -0.189906
   7 C :    0.115146
   8 N :   -0.313964
   9 H :    0.167963
  10 H :    0.145259
  11 H :    0.145279
  12 H :    0.189113
  13 H :    0.237700
  14 H :    0.169580
  15 H :    0.164203
Sum of atomic charges:   -0.0000000

LOEWDIN ATOMIC CHARGES
----------------------
   0 C :   -0.263034
   1 C :   -0.391107
   2 N :   -0.079573
   3 N :    0.151712
   4 C :   -0.321057
   5 C :   -0.249187
   6 O :    0.337166
   7 C :   -0.332924
   8 N :    0.113382
   9 H :    0.141683
  10 H :    0.134160
  11 H :    0.134165
  12 H :    0.152558
  13 H :    0.201580
  14 H :    0.135200
  15 H :    0.135276

  Mayer bond orders larger than 0.1
B(  0-C ,  1-C ) :   0.8957 B(  0-C ,  9-H ) :   0.9290 B(  0-C , 10-H ) :   0.9244
B(  0-C , 11-H ) :   0.9245 B(  1-C ,  2-N ) :   2.0378 B(  1-C ,  3-N ) :   1.0611
B(  2-N , 12-H ) :   0.8655 B(  3-N ,  4-C ) :   1.0291 B(  3-N , 13-H ) :   0.8558
B(  4-C ,  5-C ) :   1.5559 B(  4-C ,  8-N ) :   1.1647 B(  5-C ,  6-O ) :   1.0002
B(  5-C , 14-H ) :   0.9180 B(  6-O ,  7-C ) :   1.1172 B(  7-C ,  8-N ) :   1.6247
B(  7-C , 15-H ) :   0.9255

MP2 TOTAL ENERGY:     -433.371122616 Eh
FINAL SINGLE POINT ENERGY      -433.371122616271

DIPOLE MOMENT
-------------
                                X             Y             Z
Electronic contribution:     -4.67676      -4.74200      -0.42745
Nuclear contribution   :      4.60945       3.80181       0.37505
                        -----------------------------------------
Total Dipole Moment    :     -0.06732      -0.94019      -0.05239
                        -----------------------------------------
Magnitude (a.u.)       :      0.94405
Magnitude (Debye)      :      2.39958

                             ****ORCA TERMINATED NORMALLY****
TOTAL RUN TIME: 0 days 0 hours 14 minutes 17 seconds 227 msec
