                         Program Version 3.0.3 - RELEASE   -
|  1> ! RI-MP2 RIJK def2-TZVP def2-TZVP/C def2-TZVP/JK TIGHTSCF
|  2> % maxcore 2000
|  3> % mp2 density relaxed end
|  4> *xyz 0 1
|  5>  C       -0.3445604618     1.6174002360     0.0737203996
|  6>  C       -0.1275637044     0.1122500374     0.0352831729
|  7>  C       -1.3872876407    -0.6361519419    -0.3888327998
|  8>  O       -1.7236557286    -0.2156457847    -1.7017034136
|  9>  C        1.1337979420    -0.3948441873    -0.7007614775
| 10>  O        1.5810688450    -1.1280580569     0.4619393515
| 11>  C        0.5265559638    -0.5747850425     1.2851617446
| 12>  C        1.0154149528     0.2809860875     2.3549631204
| 13>  C        1.4118541435     0.9832462045     3.2467861585
| 14>  H        0.5671469723     2.1418365917     0.3694906846
| 15>  H       -0.6542497083     1.9719352540    -0.9127567447
| 16>  H       -1.1297658401     1.8819171110     0.7904514279
| 17>  H       -1.1957564809    -1.7204172060    -0.3574264392
| 18>  H       -2.2001130959    -0.4195792621     0.3243554350
| 19>  H       -2.4942412378    -0.7115018867    -1.9926405528
| 20>  H        0.9580676045    -1.0488109495    -1.5610231048
| 21>  H        1.8459443069     0.3908516190    -0.9817072295
| 22>  H       -0.0857673176    -1.3776520245     1.7195241147
| 23>  H        1.7667255854     1.5991387311     4.0360235723
| 24> *
| 25>
| 26>                          ****END OF INPUT****

CARTESIAN COORDINATES (ANGSTROEM)
---------------------------------
  C     -0.344560    1.617400    0.073720
  C     -0.127564    0.112250    0.035283
  C     -1.387288   -0.636152   -0.388833
  O     -1.723656   -0.215646   -1.701703
  C      1.133798   -0.394844   -0.700761
  O      1.581069   -1.128058    0.461939
  C      0.526556   -0.574785    1.285162
  C      1.015415    0.280986    2.354963
  C      1.411854    0.983246    3.246786
  H      0.567147    2.141837    0.369491
  H     -0.654250    1.971935   -0.912757
  H     -1.129766    1.881917    0.790451
  H     -1.195756   -1.720417   -0.357426
  H     -2.200113   -0.419579    0.324355
  H     -2.494241   -0.711502   -1.992641
  H      0.958068   -1.048811   -1.561023
  H      1.845944    0.390852   -0.981707
  H     -0.085767   -1.377652    1.719524
  H      1.766726    1.599139    4.036024

 Total Charge           Charge          ....    0
 Multiplicity           Mult            ....    1
 Number of Electrons    NEL             ....   68
 Basis Dimension        Dim             ....  339

ORBITAL ENERGIES
----------------

  NO   OCC          E(Eh)            E(eV)
   0   2.0000     -20.568037      -559.6847
   1   2.0000     -20.555085      -559.3323
   2   2.0000     -11.310613      -307.7774
   3   2.0000     -11.288359      -307.1719
   4   2.0000     -11.276176      -306.8404
   5   2.0000     -11.250791      -306.1496
   6   2.0000     -11.235720      -305.7395
   7   2.0000     -11.229918      -305.5816
   8   2.0000     -11.215628      -305.1927
   9   2.0000      -1.386113       -37.7181
  10   2.0000      -1.371883       -37.3308
  11   2.0000      -1.086705       -29.5707
  12   2.0000      -1.043874       -28.4053
  13   2.0000      -0.948411       -25.8076
  14   2.0000      -0.934642       -25.4329
  15   2.0000      -0.899701       -24.4821
  16   2.0000      -0.770933       -20.9782
  17   2.0000      -0.723290       -19.6817
  18   2.0000      -0.710602       -19.3365
  19   2.0000      -0.688751       -18.7419
  20   2.0000      -0.663023       -18.0418
  21   2.0000      -0.626847       -17.0574
  22   2.0000      -0.619103       -16.8467
  23   2.0000      -0.585524       -15.9329
  24   2.0000      -0.574662       -15.6373
  25   2.0000      -0.560037       -15.2394
  26   2.0000      -0.548346       -14.9213
  27   2.0000      -0.491642       -13.3783
  28   2.0000      -0.472714       -12.8632
  29   2.0000      -0.468914       -12.7598
  30   2.0000      -0.444412       -12.0931
  31   2.0000      -0.430246       -11.7076
  32   2.0000      -0.397152       -10.8071
  33   2.0000      -0.385832       -10.4990
  34   0.0000       0.123403         3.3580
  35   0.0000       0.150719         4.1013
  36   0.0000       0.153794         4.1849
  37   0.0000       0.161251         4.3879
  38   0.0000       0.168548         4.5864

MULLIKEN ATOMIC CHARGES
-----------------------
   0 C :   -0.423550
   1 C :    0.155068
   2 C :   -0.145515
   3 O :   -0.466622
   4 C :   -0.067881
   5 O :   -0.318592
   6 C :   -0.059135
   7 C :   -0.067101
   8 C :   -0.108050
   9 H :    0.146771
  10 H :    0.159502
  11 H :    0.126878
  12 H :    0.122944
  13 H :    0.108255
  14 H :    0.319117
  15 H :    0.111641
  16 H :    0.097781
  17 H :    0.114691
  18 H :    0.193798
Sum of atomic charges:    0.0000000

LOEWDIN ATOMIC CHARGES
----------------------
   0 C :   -0.265257
   1 C :   -0.265201
   2 C :   -0.312539
   3 O :   -0.037352
   4 C :   -0.220648
   5 O :    0.146677
   6 C :   -0.232851
   7 C :   -0.081485
   8 C :   -0.080319
   9 H :    0.131808
  10 H :    0.134924
  11 H :    0.129992
  12 H :    0.126256
  13 H :    0.122320
  14 H :    0.175220
  15 H :    0.122971
  16 H :    0.122512
  17 H :    0.154686
  18 H :    0.128287

  Mayer bond orders larger than 0.1
B(  0-C ,  1-C ) :   0.9275 B(  0-C ,  9-H ) :   0.9320 B(  0-C , 10-H ) :   0.9316
B(  0-C , 11-H ) :   0.9279 B(  1-C ,  2-C ) :   0.8924 B(  1-C ,  4-C ) :   0.9602
B(  1-C ,  6-C ) :   0.8994 B(  2-C ,  3-O ) :   1.0251 B(  2-C , 12-H ) :   0.9211
B(  2-C , 13-H ) :   0.9273 B(  3-O , 14-H ) :   0.8449 B(  4-C ,  5-O ) :   0.9517
B(  4-C , 15-H ) :   0.9070 B(  4-C , 16-H ) :   0.9079 B(  5-O ,  6-C ) :   0.9389
B(  6-C ,  7-C ) :   1.1410 B(  6-C ,  8-C ) :  -0.1018 B(  6-C , 17-H ) :   0.9190
B(  7-C ,  8-C ) :   2.5662 B(  8-C , 18-H ) :   0.8931

MP2 TOTAL ENERGY:     -422.255655061 Eh
FINAL SINGLE POINT ENERGY      -422.255655060671

DIPOLE MOMENT
-------------
                                X             Y             Z
Electronic contribution:      3.12414      -2.60779       2.56558
Nuclear contribution   :     -4.09122       2.67681      -2.59314
                        -----------------------------------------
Total Dipole Moment    :     -0.96708       0.06902      -0.02756
                        -----------------------------------------
Magnitude (a.u.)       :      0.96993
Magnitude (Debye)      :      2.46538

                             ****ORCA TERMINATED NORMALLY****
TOTAL RUN TIME: 0 days 0 hours 18 minutes 33 seconds 427 msec
