                         Program Version 3.0.3 - RELEASE   -
|  1> ! RI-MP2 RIJK def2-TZVP def2-TZVP/C def2-TZVP/JK TIGHTSCF
|  2> % maxcore 2000
|  3> % mp2 density relaxed end
|  4> *xyz 0 1
|  5>  O        0.0002772590     1.4026472115     0.0495529119
|  6>  C        0.0284103412     0.0060200530     0.0310208582
|  7>  C       -0.5285346828    -0.7757990300     1.2120854312
|  8>  C       -1.2952367716    -0.6634820860    -0.0900213720
|  9>  C       -2.5833863438     0.1398457030    -0.2214509293
| 10>  O       -3.5482576102    -0.8151981635    -0.6888634646
| 11>  C       -2.9135799019    -1.9461663744    -1.1225553844
| 12>  N       -3.4637433530    -2.9798219857    -1.5993723186
| 13>  N       -1.5460594724    -1.7711670724    -0.9674912827
| 14>  H        0.6768435029     1.7111093295     0.6619764455
| 15>  H        0.8659895246    -0.4387331273    -0.5081736388
| 16>  H       -0.0584886705    -1.7223673442     1.4611011476
| 17>  H       -0.8967388945    -0.2067501628     2.0603776653
| 18>  H       -2.9340645865     0.5611273799     0.7222254098
| 19>  H       -2.4804697226     0.9435155577    -0.9581397894
| 20>  H       -4.4721198149    -2.8536325135    -1.6439906987
| 21>  H       -1.0015413231    -2.6165713946    -0.9011238910
| 22> *
| 23>
| 24>                          ****END OF INPUT****

CARTESIAN COORDINATES (ANGSTROEM)
---------------------------------
  O      0.000277    1.402647    0.049553
  C      0.028410    0.006020    0.031021
  C     -0.528535   -0.775799    1.212085
  C     -1.295237   -0.663482   -0.090021
  C     -2.583386    0.139846   -0.221451
  O     -3.548258   -0.815198   -0.688863
  C     -2.913580   -1.946166   -1.122555
  N     -3.463743   -2.979822   -1.599372
  N     -1.546059   -1.771167   -0.967491
  H      0.676844    1.711109    0.661976
  H      0.865990   -0.438733   -0.508174
  H     -0.058489   -1.722367    1.461101
  H     -0.896739   -0.206750    2.060378
  H     -2.934065    0.561127    0.722225
  H     -2.480470    0.943516   -0.958140
  H     -4.472120   -2.853633   -1.643991
  H     -1.001541   -2.616571   -0.901124

 Total Charge           Charge          ....    0
 Multiplicity           Mult            ....    1
 Number of Electrons    NEL             ....   68
 Basis Dimension        Dim             ....  327

ORBITAL ENERGIES
----------------

  NO   OCC          E(Eh)            E(eV)
   0   2.0000     -20.596527      -560.4600
   1   2.0000     -20.584562      -560.1344
   2   2.0000     -15.584475      -424.0751
   3   2.0000     -15.510896      -422.0729
   4   2.0000     -11.362220      -309.1817
   5   2.0000     -11.303151      -307.5744
   6   2.0000     -11.301349      -307.5253
   7   2.0000     -11.294708      -307.3446
   8   2.0000     -11.246252      -306.0261
   9   2.0000      -1.445408       -39.3315
  10   2.0000      -1.394039       -37.9337
  11   2.0000      -1.253280       -34.1035
  12   2.0000      -1.188520       -32.3413
  13   2.0000      -1.118561       -30.4376
  14   2.0000      -0.973197       -26.4820
  15   2.0000      -0.855600       -23.2821
  16   2.0000      -0.830116       -22.5886
  17   2.0000      -0.810287       -22.0490
  18   2.0000      -0.729106       -19.8400
  19   2.0000      -0.708173       -19.2704
  20   2.0000      -0.686530       -18.6814
  21   2.0000      -0.674239       -18.3470
  22   2.0000      -0.651864       -17.7381
  23   2.0000      -0.619479       -16.8569
  24   2.0000      -0.590966       -16.0810
  25   2.0000      -0.580009       -15.7828
  26   2.0000      -0.549436       -14.9509
  27   2.0000      -0.545059       -14.8318
  28   2.0000      -0.528802       -14.3894
  29   2.0000      -0.494989       -13.4693
  30   2.0000      -0.439816       -11.9680
  31   2.0000      -0.425530       -11.5793
  32   2.0000      -0.407774       -11.0961
  33   2.0000      -0.353922        -9.6307
  34   0.0000       0.125721         3.4210
  35   0.0000       0.139894         3.8067
  36   0.0000       0.154715         4.2100
  37   0.0000       0.174176         4.7396
  38   0.0000       0.187579         5.1043

MULLIKEN ATOMIC CHARGES
-----------------------
   0 O :   -0.460473
   1 C :   -0.002993
   2 C :   -0.333389
   3 C :    0.155960
   4 C :   -0.029168
   5 O :   -0.268915
   6 C :    0.240910
   7 N :   -0.433942
   8 N :   -0.313810
   9 H :    0.328014
  10 H :    0.115593
  11 H :    0.135516
  12 H :    0.144118
  13 H :    0.120216
  14 H :    0.130388
  15 H :    0.227831
  16 H :    0.244143
Sum of atomic charges:   -0.0000000

LOEWDIN ATOMIC CHARGES
----------------------
   0 O :    0.003878
   1 C :   -0.302968
   2 C :   -0.199126
   3 C :   -0.281610
   4 C :   -0.210911
   5 O :    0.230318
   6 C :   -0.494345
   7 N :   -0.107264
   8 N :    0.134096
   9 H :    0.183701
  10 H :    0.135629
  11 H :    0.136166
  12 H :    0.139484
  13 H :    0.133900
  14 H :    0.136825
  15 H :    0.169218
  16 H :    0.193008

  Mayer bond orders larger than 0.1
B(  0-O ,  1-C ) :   1.0783 B(  0-O ,  3-C ) :  -0.1294 B(  0-O ,  9-H ) :   0.8369
B(  1-C ,  2-C ) :   0.8659 B(  1-C ,  3-C ) :   0.8254 B(  1-C , 10-H ) :   0.9593
B(  2-C ,  3-C ) :   0.8802 B(  2-C , 11-H ) :   0.9080 B(  2-C , 12-H ) :   0.9125
B(  3-C ,  4-C ) :   0.9368 B(  3-C ,  8-N ) :   0.9150 B(  4-C ,  5-O ) :   0.8941
B(  4-C , 13-H ) :   0.9185 B(  4-C , 14-H ) :   0.9271 B(  5-O ,  6-C ) :   1.0722
B(  6-C ,  7-N ) :   1.9841 B(  6-C ,  8-N ) :   1.0883 B(  7-N , 15-H ) :   0.8558
B(  8-N , 16-H ) :   0.8641

MP2 TOTAL ENERGY:     -454.403410279 Eh
FINAL SINGLE POINT ENERGY      -454.403410279102

DIPOLE MOMENT
-------------
                                X             Y             Z
Electronic contribution:     -2.35087      -0.83745      -2.43273
Nuclear contribution   :      3.50162       1.57759       3.61715
                        -----------------------------------------
Total Dipole Moment    :      1.15075       0.74014       1.18442
                        -----------------------------------------
Magnitude (a.u.)       :      1.80967
Magnitude (Debye)      :      4.59982

                             ****ORCA TERMINATED NORMALLY****
TOTAL RUN TIME: 0 days 0 hours 14 minutes 58 seconds 331 msec
