                         Program Version 3.0.3 - RELEASE   -
|  1> ! RI-MP2 RIJK def2-TZVP def2-TZVP/C def2-TZVP/JK TIGHTSCF
|  2> % maxcore 2000
|  3> % mp2 density relaxed end
|  4> *xyz 0 1
|  5>  C       -0.0728764362     1.5063409192     0.0497393310
|  6>  C        0.0507898662     0.0214816181     0.0792699951
|  7>  C        1.2344657672    -0.8154529810    -0.3401455765
|  8>  C        0.6339087482    -0.9878752249     1.0388830448
|  9>  O        1.3012710282    -0.8132368921     2.2244079267
| 10>  C       -0.7193767857    -1.7066572374     0.9116115956
| 11>  O       -1.1559284016    -0.7562755015    -0.0904381983
| 12>  C       -0.7284243000    -3.0947438740     0.4475189012
| 13>  N       -0.7000676314    -4.1954105026     0.0959241321
| 14>  H        0.8802495742     1.9692386627     0.3190897341
| 15>  H       -0.3480001520     1.8502666420    -0.9530434751
| 16>  H       -0.8388542910     1.8459796184     0.7528137834
| 17>  H        1.1320235923    -1.5788444451    -1.1065418773
| 18>  H        2.1830355530    -0.2867805714    -0.3245159352
| 19>  H        2.0317125973    -1.4412905776     2.2664617660
| 20>  H       -1.3193420087    -1.6121175227     1.8235746425
| 21> *
| 22>
| 23>                          ****END OF INPUT****

CARTESIAN COORDINATES (ANGSTROEM)
---------------------------------
  C     -0.072876    1.506341    0.049739
  C      0.050790    0.021482    0.079270
  C      1.234466   -0.815453   -0.340146
  C      0.633909   -0.987875    1.038883
  O      1.301271   -0.813237    2.224408
  C     -0.719377   -1.706657    0.911612
  O     -1.155928   -0.756276   -0.090438
  C     -0.728424   -3.094744    0.447519
  N     -0.700068   -4.195411    0.095924
  H      0.880250    1.969239    0.319090
  H     -0.348000    1.850267   -0.953043
  H     -0.838854    1.845980    0.752814
  H      1.132024   -1.578844   -1.106542
  H      2.183036   -0.286781   -0.324516
  H      2.031713   -1.441291    2.266462
  H     -1.319342   -1.612118    1.823575

 Total Charge           Charge          ....    0
 Multiplicity           Mult            ....    1
 Number of Electrons    NEL             ....   66
 Basis Dimension        Dim             ....  321

ORBITAL ENERGIES
----------------

  NO   OCC          E(Eh)            E(eV)
   0   2.0000     -20.602490      -560.6223
   1   2.0000     -20.588500      -560.2416
   2   2.0000     -15.582222      -424.0138
   3   2.0000     -11.346320      -308.7491
   4   2.0000     -11.324819      -308.1640
   5   2.0000     -11.317650      -307.9689
   6   2.0000     -11.279433      -306.9290
   7   2.0000     -11.255632      -306.2813
   8   2.0000     -11.242735      -305.9304
   9   2.0000      -1.437300       -39.1109
  10   2.0000      -1.403811       -38.1996
  11   2.0000      -1.225961       -33.3601
  12   2.0000      -1.140227       -31.0271
  13   2.0000      -1.039690       -28.2914
  14   2.0000      -0.978524       -26.6270
  15   2.0000      -0.868708       -23.6387
  16   2.0000      -0.780186       -21.2299
  17   2.0000      -0.733781       -19.9672
  18   2.0000      -0.724589       -19.7171
  19   2.0000      -0.701979       -19.1018
  20   2.0000      -0.665539       -18.1102
  21   2.0000      -0.614651       -16.7255
  22   2.0000      -0.601441       -16.3660
  23   2.0000      -0.579197       -15.7608
  24   2.0000      -0.574570       -15.6348
  25   2.0000      -0.568077       -15.4582
  26   2.0000      -0.556381       -15.1399
  27   2.0000      -0.540710       -14.7135
  28   2.0000      -0.501912       -13.6577
  29   2.0000      -0.475283       -12.9331
  30   2.0000      -0.470431       -12.8011
  31   2.0000      -0.429459       -11.6862
  32   2.0000      -0.394242       -10.7279
  33   0.0000       0.117286         3.1915
  34   0.0000       0.131919         3.5897
  35   0.0000       0.150064         4.0835
  36   0.0000       0.158771         4.3204
  37   0.0000       0.171677         4.6716

MULLIKEN ATOMIC CHARGES
-----------------------
   0 C :   -0.407452
   1 C :    0.178613
   2 C :   -0.305274
   3 C :    0.111697
   4 O :   -0.444835
   5 C :    0.197476
   6 O :   -0.304522
   7 C :   -0.206419
   8 N :   -0.046933
   9 H :    0.141065
  10 H :    0.152041
  11 H :    0.145092
  12 H :    0.156965
  13 H :    0.148551
  14 H :    0.343021
  15 H :    0.140915
Sum of atomic charges:    0.0000000

LOEWDIN ATOMIC CHARGES
----------------------
   0 C :   -0.261157
   1 C :   -0.273708
   2 C :   -0.165221
   3 C :   -0.312514
   4 O :    0.050221
   5 C :   -0.228089
   6 O :    0.205575
   7 C :   -0.161059
   8 N :    0.076688
   9 H :    0.139997
  10 H :    0.138302
  11 H :    0.136187
  12 H :    0.142839
  13 H :    0.150102
  14 H :    0.194172
  15 H :    0.167666

  Mayer bond orders larger than 0.1
B(  0-C ,  1-C ) :   0.8981 B(  0-C ,  9-H ) :   0.9261 B(  0-C , 10-H ) :   0.9361
B(  0-C , 11-H ) :   0.9335 B(  1-C ,  2-C ) :   0.8631 B(  1-C ,  3-C ) :   0.8654
B(  1-C ,  6-O ) :   0.9561 B(  2-C ,  3-C ) :   0.8932 B(  2-C , 12-H ) :   0.8835
B(  2-C , 13-H ) :   0.9215 B(  3-C ,  4-O ) :   1.0865 B(  3-C ,  5-C ) :   0.9179
B(  4-O , 14-H ) :   0.8256 B(  5-C ,  6-O ) :   0.9388 B(  5-C ,  7-C ) :   0.9242
B(  5-C , 15-H ) :   0.8846 B(  7-C ,  8-N ) :   2.8349

MP2 TOTAL ENERGY:     -437.129377079 Eh
FINAL SINGLE POINT ENERGY      -437.129377078900

DIPOLE MOMENT
-------------
                                X             Y             Z
Electronic contribution:     -2.48297      -7.07100       1.18771
Nuclear contribution   :      3.43335       8.25753      -0.76787
                        -----------------------------------------
Total Dipole Moment    :      0.95038       1.18652       0.41984
                        -----------------------------------------
Magnitude (a.u.)       :      1.57712
Magnitude (Debye)      :      4.00872

                             ****ORCA TERMINATED NORMALLY****
TOTAL RUN TIME: 0 days 0 hours 15 minutes 44 seconds 992 msec
