                         Program Version 3.0.3 - RELEASE   -
|  1> ! RI-MP2 RIJK def2-TZVP def2-TZVP/C def2-TZVP/JK TIGHTSCF
|  2> % maxcore 2000
|  3> % mp2 density relaxed end
|  4> *xyz 0 1
|  5>  C        0.0937921913     1.4710485841     0.0069710329
|  6>  C        1.3270094191     0.6627571059    -0.0271370378
|  7>  C        1.6867775904     0.0099594183     1.3179689152
|  8>  C        1.3778367687     0.8053954684     2.6211327019
|  9>  C       -0.0456242526     0.2020260869     2.5924186714
| 10>  C       -0.8267807513    -0.2630805032     3.7615262012
| 11>  N       -1.3165095727     0.8449777612     2.9204241566
| 12>  C        0.2552058554    -0.5805290556     1.3048907105
| 13>  N       -0.0528864572     0.0066010967    -0.0648857421
| 14>  H       -0.2214879210     2.0064836561     0.8946856274
| 15>  H       -0.1979377187     1.9514305460    -0.9227912522
| 16>  H        1.9745202212     0.6455227167    -0.8988443559
| 17>  H        2.5722586659    -0.6224550961     1.3060210855
| 18>  H        1.9735281077     0.4924711624     3.4832692685
| 19>  H        1.4384527248     1.8948579661     2.5310644009
| 20>  H       -1.4124258059    -1.1766907076     3.6970809808
| 21>  H       -0.4391502949    -0.0384950345     4.7526203448
| 22>  H       -1.1429444810     1.7341042826     3.3850939561
| 23>  H        0.0409068909    -1.6492125946     1.3079005244
| 24> *
| 25>
| 26>                          ****END OF INPUT****

CARTESIAN COORDINATES (ANGSTROEM)
---------------------------------
  C      0.093792    1.471049    0.006971
  C      1.327009    0.662757   -0.027137
  C      1.686778    0.009959    1.317969
  C      1.377837    0.805395    2.621133
  C     -0.045624    0.202026    2.592419
  C     -0.826781   -0.263081    3.761526
  N     -1.316510    0.844978    2.920424
  C      0.255206   -0.580529    1.304891
  N     -0.052886    0.006601   -0.064886
  H     -0.221488    2.006484    0.894686
  H     -0.197938    1.951431   -0.922791
  H      1.974520    0.645523   -0.898844
  H      2.572259   -0.622455    1.306021
  H      1.973528    0.492471    3.483269
  H      1.438453    1.894858    2.531064
  H     -1.412426   -1.176691    3.697081
  H     -0.439150   -0.038495    4.752620
  H     -1.142944    1.734104    3.385094
  H      0.040907   -1.649213    1.307901

 Total Charge           Charge          ....    0
 Multiplicity           Mult            ....    1
 Number of Electrons    NEL             ....   66
 Basis Dimension        Dim             ....  339

ORBITAL ENERGIES
----------------

  NO   OCC          E(Eh)            E(eV)
   0   2.0000     -15.561555      -423.4514
   1   2.0000     -15.555161      -423.2775
   2   2.0000     -11.268470      -306.6307
   3   2.0000     -11.260604      -306.4166
   4   2.0000     -11.257788      -306.3400
   5   2.0000     -11.256667      -306.3095
   6   2.0000     -11.251755      -306.1758
   7   2.0000     -11.237917      -305.7993
   8   2.0000     -11.235355      -305.7296
   9   2.0000      -1.291954       -35.1559
  10   2.0000      -1.258732       -34.2519
  11   2.0000      -1.089013       -29.6336
  12   2.0000      -0.946970       -25.7684
  13   2.0000      -0.911423       -24.8011
  14   2.0000      -0.884137       -24.0586
  15   2.0000      -0.831008       -22.6129
  16   2.0000      -0.775796       -21.1105
  17   2.0000      -0.711933       -19.3727
  18   2.0000      -0.702141       -19.1062
  19   2.0000      -0.676761       -18.4156
  20   2.0000      -0.648496       -17.6465
  21   2.0000      -0.605069       -16.4648
  22   2.0000      -0.573277       -15.5997
  23   2.0000      -0.562547       -15.3077
  24   2.0000      -0.536040       -14.5864
  25   2.0000      -0.506578       -13.7847
  26   2.0000      -0.489511       -13.3203
  27   2.0000      -0.473432       -12.8828
  28   2.0000      -0.450347       -12.2546
  29   2.0000      -0.436542       -11.8789
  30   2.0000      -0.417094       -11.3497
  31   2.0000      -0.374405       -10.1881
  32   2.0000      -0.353926        -9.6308
  33   0.0000       0.136343         3.7101
  34   0.0000       0.147291         4.0080
  35   0.0000       0.160091         4.3563
  36   0.0000       0.175396         4.7728
  37   0.0000       0.184337         5.0161

MULLIKEN ATOMIC CHARGES
-----------------------
   0 C :   -0.135580
   1 C :   -0.130417
   2 C :   -0.028255
   3 C :   -0.265035
   4 C :   -0.060121
   5 C :   -0.214506
   6 N :   -0.359776
   7 C :    0.081924
   8 N :   -0.236155
   9 H :    0.119286
  10 H :    0.127716
  11 H :    0.127680
  12 H :    0.126723
  13 H :    0.123751
  14 H :    0.131932
  15 H :    0.123051
  16 H :    0.126158
  17 H :    0.219372
  18 H :    0.122253
Sum of atomic charges:   -0.0000000

LOEWDIN ATOMIC CHARGES
----------------------
   0 C :   -0.246339
   1 C :   -0.194612
   2 C :   -0.170315
   3 C :   -0.185881
   4 C :   -0.281986
   5 C :   -0.240401
   6 N :    0.003090
   7 C :   -0.159670
   8 N :    0.116891
   9 H :    0.127863
  10 H :    0.134151
  11 H :    0.131335
  12 H :    0.140700
  13 H :    0.135367
  14 H :    0.132977
  15 H :    0.127886
  16 H :    0.122483
  17 H :    0.168208
  18 H :    0.138254

  Mayer bond orders larger than 0.1
B(  0-C ,  1-C ) :   0.9745 B(  0-C ,  8-N ) :   0.9078 B(  0-C ,  9-H ) :   0.8979
B(  0-C , 10-H ) :   0.9298 B(  1-C ,  2-C ) :   0.8853 B(  1-C ,  8-N ) :   0.8558
B(  1-C , 11-H ) :   0.9025 B(  2-C ,  3-C ) :   0.9223 B(  2-C ,  7-C ) :   0.9639
B(  2-C , 12-H ) :   0.9234 B(  3-C ,  4-C ) :   0.9203 B(  3-C , 13-H ) :   0.9048
B(  3-C , 14-H ) :   0.9151 B(  4-C ,  5-C ) :   0.9181 B(  4-C ,  6-N ) :   0.8741
B(  4-C ,  7-C ) :   0.8201 B(  5-C ,  6-N ) :   0.9740 B(  5-C , 15-H ) :   0.9165
B(  5-C , 16-H ) :   0.9191 B(  6-N , 17-H ) :   0.8612 B(  7-C ,  8-N ) :   0.9723
B(  7-C , 18-H ) :   0.9236

MP2 TOTAL ENERGY:     -381.284521153 Eh
FINAL SINGLE POINT ENERGY      -381.284521152650

DIPOLE MOMENT
-------------
                                X             Y             Z
Electronic contribution:     -0.95835      -1.15223      -2.21302
Nuclear contribution   :      1.84194       1.46499       3.06365
                        -----------------------------------------
Total Dipole Moment    :      0.88360       0.31277       0.85063
                        -----------------------------------------
Magnitude (a.u.)       :      1.26576
Magnitude (Debye)      :      3.21730

                             ****ORCA TERMINATED NORMALLY****
TOTAL RUN TIME: 0 days 0 hours 19 minutes 50 seconds 786 msec
