                         Program Version 3.0.3 - RELEASE   -
|  1> ! RI-MP2 RIJK def2-TZVP def2-TZVP/C def2-TZVP/JK TIGHTSCF
|  2> % maxcore 2000
|  3> % mp2 density relaxed end
|  4> *xyz 0 1
|  5>  C       -0.0171773636     1.5642593094     0.0284651730
|  6>  C        0.0578586831     0.0533603606     0.0459942881
|  7>  C        1.3676943011    -0.6587560878    -0.2004479614
|  8>  O        2.4925958259     0.1293333440    -0.4261066753
|  9>  C        3.6547303514    -0.3258470805     0.2585485409
| 10>  C        3.7137325455     0.1600400156     1.7080976375
| 11>  C        2.5872980963    -0.3517026053     2.6081115406
| 12>  O        1.3033863794     0.1005312114     2.1915060146
| 13>  C        0.7398153400    -0.6739423170     1.1815649080
| 14>  H        0.8872518593     2.0057889740     0.4453234171
| 15>  H       -0.1371821175     1.9313314917    -0.9958526721
| 16>  H       -0.8717368508     1.9135088699     0.6167891264
| 17>  H       -0.8175170656    -0.4491987962    -0.3572325664
| 18>  H        1.3543476401    -1.5891125798    -0.7717034515
| 19>  H        3.7152363783    -1.4246182906     0.2141800432
| 20>  H        4.5073720485     0.0752866246    -0.2995485825
| 21>  H        4.6752732993    -0.1487828917     2.1415408399
| 22>  H        3.6939595009     1.2559298806     1.7111726474
| 23>  H        2.6027925900    -1.4515634637     2.6628126881
| 24>  H        2.7245981497     0.0321016179     3.6245864791
| 25>  H        0.3084924387    -1.6143996070     1.5302382353
| 26> *
| 27>
| 28>                          ****END OF INPUT****

CARTESIAN COORDINATES (ANGSTROEM)
---------------------------------
  C     -0.017177    1.564259    0.028465
  C      0.057859    0.053360    0.045994
  C      1.367694   -0.658756   -0.200448
  O      2.492596    0.129333   -0.426107
  C      3.654730   -0.325847    0.258549
  C      3.713733    0.160040    1.708098
  C      2.587298   -0.351703    2.608112
  O      1.303386    0.100531    2.191506
  C      0.739815   -0.673942    1.181565
  H      0.887252    2.005789    0.445323
  H     -0.137182    1.931331   -0.995853
  H     -0.871737    1.913509    0.616789
  H     -0.817517   -0.449199   -0.357233
  H      1.354348   -1.589113   -0.771703
  H      3.715236   -1.424618    0.214180
  H      4.507372    0.075287   -0.299549
  H      4.675273   -0.148783    2.141541
  H      3.693960    1.255930    1.711173
  H      2.602793   -1.451563    2.662813
  H      2.724598    0.032102    3.624586
  H      0.308492   -1.614400    1.530238

 Total Charge           Charge          ....    0
 Multiplicity           Mult            ....    1
 Number of Electrons    NEL             ....   70
 Basis Dimension        Dim             ....  351

ORBITAL ENERGIES
----------------

  NO   OCC          E(Eh)            E(eV)
   0   2.0000     -20.557057      -559.3860
   1   2.0000     -20.557053      -559.3859
   2   2.0000     -11.277675      -306.8811
   3   2.0000     -11.277666      -306.8809
   4   2.0000     -11.275596      -306.8246
   5   2.0000     -11.274946      -306.8069
   6   2.0000     -11.227842      -305.5251
   7   2.0000     -11.225255      -305.4547
   8   2.0000     -11.205737      -304.9236
   9   2.0000      -1.394339       -37.9419
  10   2.0000      -1.366646       -37.1883
  11   2.0000      -1.131233       -30.7824
  12   2.0000      -1.038446       -28.2576
  13   2.0000      -0.953247       -25.9392
  14   2.0000      -0.937575       -25.5127
  15   2.0000      -0.815870       -22.2010
  16   2.0000      -0.784125       -21.3371
  17   2.0000      -0.774005       -21.0617
  18   2.0000      -0.703438       -19.1415
  19   2.0000      -0.682060       -18.5598
  20   2.0000      -0.657620       -17.8947
  21   2.0000      -0.636439       -17.3184
  22   2.0000      -0.609334       -16.5808
  23   2.0000      -0.580112       -15.7857
  24   2.0000      -0.564564       -15.3626
  25   2.0000      -0.553963       -15.0741
  26   2.0000      -0.549015       -14.9394
  27   2.0000      -0.536986       -14.6121
  28   2.0000      -0.501661       -13.6509
  29   2.0000      -0.495945       -13.4953
  30   2.0000      -0.481663       -13.1067
  31   2.0000      -0.450994       -12.2722
  32   2.0000      -0.445886       -12.1332
  33   2.0000      -0.386299       -10.5117
  34   2.0000      -0.373490       -10.1632
  35   0.0000       0.140277         3.8171
  36   0.0000       0.151846         4.1319
  37   0.0000       0.160286         4.3616
  38   0.0000       0.177046         4.8177
  39   0.0000       0.187598         5.1048

MULLIKEN ATOMIC CHARGES
-----------------------
   0 C :   -0.408107
   1 C :   -0.078528
   2 C :    0.013494
   3 O :   -0.311920
   4 C :   -0.056709
   5 C :   -0.215615
   6 C :   -0.056703
   7 O :   -0.311937
   8 C :    0.013474
   9 H :    0.150281
  10 H :    0.130231
  11 H :    0.130222
  12 H :    0.120737
  13 H :    0.104980
  14 H :    0.092156
  15 H :    0.130696
  16 H :    0.111203
  17 H :    0.114210
  18 H :    0.092160
  19 H :    0.130697
  20 H :    0.104977
Sum of atomic charges:   -0.0000000

LOEWDIN ATOMIC CHARGES
----------------------
   0 C :   -0.288061
   1 C :   -0.212100
   2 C :   -0.289829
   3 O :    0.195448
   4 C :   -0.309764
   5 C :   -0.280185
   6 C :   -0.309763
   7 O :    0.195438
   8 C :   -0.289826
   9 H :    0.130889
  10 H :    0.126331
  11 H :    0.126323
  12 H :    0.149399
  13 H :    0.131124
  14 H :    0.122834
  15 H :    0.130038
  16 H :    0.144605
  17 H :    0.143099
  18 H :    0.122835
  19 H :    0.130039
  20 H :    0.131125

  Mayer bond orders larger than 0.1
B(  0-C ,  1-C ) :   0.9105 B(  0-C ,  9-H ) :   0.9333 B(  0-C , 10-H ) :   0.9363
B(  0-C , 11-H ) :   0.9363 B(  1-C ,  2-C ) :   0.8795 B(  1-C ,  8-C ) :   0.8795
B(  1-C , 12-H ) :   0.9188 B(  2-C ,  3-O ) :   0.9773 B(  2-C ,  8-C ) :   0.8647
B(  2-C , 13-H ) :   0.9356 B(  3-O ,  4-C ) :   0.8998 B(  4-C ,  5-C ) :   0.9353
B(  4-C , 14-H ) :   0.9354 B(  4-C , 15-H ) :   0.9331 B(  5-C ,  6-C ) :   0.9353
B(  5-C , 16-H ) :   0.9137 B(  5-C , 17-H ) :   0.9194 B(  6-C ,  7-O ) :   0.8998
B(  6-C , 18-H ) :   0.9354 B(  6-C , 19-H ) :   0.9331 B(  7-O ,  8-C ) :   0.9773
B(  8-C , 20-H ) :   0.9356

MP2 TOTAL ENERGY:     -423.494295403 Eh
FINAL SINGLE POINT ENERGY      -423.494295403351

DIPOLE MOMENT
-------------
                                X             Y             Z
Electronic contribution:     -0.75572      -0.99835      -0.35416
Nuclear contribution   :      1.13730       0.38106       0.52072
                        -----------------------------------------
Total Dipole Moment    :      0.38158      -0.61729       0.16656
                        -----------------------------------------
Magnitude (a.u.)       :      0.74458
Magnitude (Debye)      :      1.89256

                             ****ORCA TERMINATED NORMALLY****
TOTAL RUN TIME: 0 days 0 hours 18 minutes 43 seconds 584 msec
