                         Program Version 3.0.3 - RELEASE   -
|  1> ! RI-MP2 RIJK def2-TZVP def2-TZVP/C def2-TZVP/JK TIGHTSCF
|  2> % maxcore 2000
|  3> % mp2 density relaxed end
|  4> *xyz 0 1
|  5>  C       -0.0395396946     1.5271319301    -0.0077061554
|  6>  C        0.0004169803     0.0204370396    -0.0204598073
|  7>  C       -0.0209842906    -0.6975892687    -1.2192300828
|  8>  C        0.0160163581    -2.0821173461    -1.2230155067
|  9>  C        0.0750018928    -2.7155927171     0.0178274371
| 10>  O        0.1128202625    -4.0661610163     0.0678322815
| 11>  N        0.0968768513    -2.0654745685     1.1748150634
| 12>  C        0.0607347534    -0.7246162881     1.1672610399
| 13>  C        0.0882874702    -0.0514749934     2.5148786135
| 14>  H        0.8477542742     1.9568977465     0.4725668051
| 15>  H       -0.0892595919     1.9240747557    -1.0252213135
| 16>  H       -0.9090163912     1.9097343224     0.5401536416
| 17>  H       -0.0674331943    -0.1592976456    -2.1618270954
| 18>  H        0.0006567994    -2.6637818383    -2.1359409300
| 19>  H        0.1506649944    -4.2912174041     1.0076485233
| 20>  H        0.9505848331     0.6189822726     2.6105550740
| 21>  H       -0.8055934549     0.5633992047     2.6739148710
| 22>  H        0.1402040978    -0.8050328054     3.3014390508
| 23> *
| 24>
| 25>                          ****END OF INPUT****

CARTESIAN COORDINATES (ANGSTROEM)
---------------------------------
  C     -0.039540    1.527132   -0.007706
  C      0.000417    0.020437   -0.020460
  C     -0.020984   -0.697589   -1.219230
  C      0.016016   -2.082117   -1.223016
  C      0.075002   -2.715593    0.017827
  O      0.112820   -4.066161    0.067832
  N      0.096877   -2.065475    1.174815
  C      0.060735   -0.724616    1.167261
  C      0.088287   -0.051475    2.514879
  H      0.847754    1.956898    0.472567
  H     -0.089260    1.924075   -1.025221
  H     -0.909016    1.909734    0.540154
  H     -0.067433   -0.159298   -2.161827
  H      0.000657   -2.663782   -2.135941
  H      0.150665   -4.291217    1.007649
  H      0.950585    0.618982    2.610555
  H     -0.805593    0.563399    2.673915
  H      0.140204   -0.805033    3.301439

 Total Charge           Charge          ....    0
 Multiplicity           Mult            ....    1
 Number of Electrons    NEL             ....   66
 Basis Dimension        Dim             ....  333

ORBITAL ENERGIES
----------------

  NO   OCC          E(Eh)            E(eV)
   0   2.0000     -20.586333      -560.1826
   1   2.0000     -15.554441      -423.2579
   2   2.0000     -11.331014      -308.3326
   3   2.0000     -11.282169      -307.0034
   4   2.0000     -11.253414      -306.2210
   5   2.0000     -11.232255      -305.6452
   6   2.0000     -11.228855      -305.5527
   7   2.0000     -11.226632      -305.4922
   8   2.0000     -11.224763      -305.4413
   9   2.0000      -1.417462       -38.5711
  10   2.0000      -1.249891       -34.0113
  11   2.0000      -1.096497       -29.8372
  12   2.0000      -1.059562       -28.8321
  13   2.0000      -0.976509       -26.5722
  14   2.0000      -0.926290       -25.2056
  15   2.0000      -0.847772       -23.0691
  16   2.0000      -0.815270       -22.1846
  17   2.0000      -0.743482       -20.2312
  18   2.0000      -0.686925       -18.6922
  19   2.0000      -0.637312       -17.3422
  20   2.0000      -0.615500       -16.7486
  21   2.0000      -0.603536       -16.4230
  22   2.0000      -0.590380       -16.0650
  23   2.0000      -0.585985       -15.9455
  24   2.0000      -0.559803       -15.2330
  25   2.0000      -0.555673       -15.1206
  26   2.0000      -0.546518       -14.8715
  27   2.0000      -0.534458       -14.5433
  28   2.0000      -0.508798       -13.8451
  29   2.0000      -0.486279       -13.2323
  30   2.0000      -0.422937       -11.5087
  31   2.0000      -0.380202       -10.3458
  32   2.0000      -0.310554        -8.4506
  33   0.0000       0.111376         3.0307
  34   0.0000       0.132710         3.6112
  35   0.0000       0.144576         3.9341
  36   0.0000       0.160559         4.3690
  37   0.0000       0.167090         4.5467

MULLIKEN ATOMIC CHARGES
-----------------------
   0 C :   -0.414863
   1 C :    0.051601
   2 C :   -0.166941
   3 C :   -0.193002
   4 C :    0.291771
   5 O :   -0.418122
   6 N :   -0.293025
   7 C :    0.118689
   8 C :   -0.419246
   9 H :    0.144054
  10 H :    0.138007
  11 H :    0.143813
  12 H :    0.123523
  13 H :    0.139164
  14 H :    0.332633
  15 H :    0.135687
  16 H :    0.135956
  17 H :    0.150301
Sum of atomic charges:    0.0000000

LOEWDIN ATOMIC CHARGES
----------------------
   0 C :   -0.262916
   1 C :   -0.156339
   2 C :   -0.114160
   3 C :   -0.125551
   4 C :   -0.369922
   5 O :    0.075254
   6 N :    0.154191
   7 C :   -0.219659
   8 C :   -0.266495
   9 H :    0.131731
  10 H :    0.129928
  11 H :    0.131718
  12 H :    0.149871
  13 H :    0.153180
  14 H :    0.194427
  15 H :    0.131066
  16 H :    0.131141
  17 H :    0.132535

  Mayer bond orders larger than 0.1
B(  0-C ,  1-C ) :   0.8693 B(  0-C ,  9-H ) :   0.9351 B(  0-C , 10-H ) :   0.9417
B(  0-C , 11-H ) :   0.9351 B(  1-C ,  2-C ) :   1.3137 B(  1-C ,  7-C ) :   1.3006
B(  2-C ,  3-C ) :   1.3684 B(  2-C , 12-H ) :   0.9306 B(  3-C ,  4-C ) :   1.3129
B(  3-C , 13-H ) :   0.9235 B(  4-C ,  5-O ) :   1.1199 B(  4-C ,  6-N ) :   1.3609
B(  5-O , 14-H ) :   0.8133 B(  6-N ,  7-C ) :   1.4364 B(  7-C ,  8-C ) :   0.8834
B(  8-C , 15-H ) :   0.9325 B(  8-C , 16-H ) :   0.9326 B(  8-C , 17-H ) :   0.9439

MP2 TOTAL ENERGY:     -401.334551869 Eh
FINAL SINGLE POINT ENERGY      -401.334551869345

DIPOLE MOMENT
-------------
                                X             Y             Z
Electronic contribution:      0.15387      -8.75917      -2.40135
Nuclear contribution   :     -0.17372       9.46484       2.37767
                        -----------------------------------------
Total Dipole Moment    :     -0.01985       0.70567      -0.02368
                        -----------------------------------------
Magnitude (a.u.)       :      0.70635
Magnitude (Debye)      :      1.79539

                             ****ORCA TERMINATED NORMALLY****
TOTAL RUN TIME: 0 days 0 hours 17 minutes 40 seconds 889 msec
