                         Program Version 3.0.3 - RELEASE   -
|  1> ! RI-MP2 RIJK def2-TZVP def2-TZVP/C def2-TZVP/JK TIGHTSCF
|  2> % maxcore 2000
|  3> % mp2 density relaxed end
|  4> *xyz 0 1
|  5>  N       -0.1205114045     1.5059492401    -0.0055127727
|  6>  C       -0.0208237440     0.0466888692    -0.0314570543
|  7>  C       -1.3766541122    -0.5257174801     0.0559203550
|  8>  N       -2.4276641895    -1.0029568007     0.1028763177
|  9>  C        0.7208504851    -0.5147368542    -1.2685030795
| 10>  C        0.7803151691    -2.0544404103    -1.3980518011
| 11>  O        0.5766957615    -2.2730137924    -2.7855270490
| 12>  C       -0.3104344177    -1.2622220317    -3.1794649499
| 13>  O        0.0621376502    -0.0926405830    -2.4579013357
| 14>  H        0.8112181175     1.9017226588     0.0810047462
| 15>  H       -0.4908083064     1.8175736131    -0.9000206880
| 16>  H        0.5232013705    -0.2713564222     0.8678919246
| 17>  H        1.7291470454    -0.0787006814    -1.2591891183
| 18>  H        1.7487969936    -2.4740777799    -1.1202540583
| 19>  H       -0.0091226836    -2.5356209189    -0.8031112793
| 20>  H       -0.1910300916    -1.0787505731    -4.2506518858
| 21>  H       -1.3529926935    -1.5275542533    -2.9418318615
| 22> *
| 23>
| 24>                          ****END OF INPUT****

CARTESIAN COORDINATES (ANGSTROEM)
---------------------------------
  N     -0.120511    1.505949   -0.005513
  C     -0.020824    0.046689   -0.031457
  C     -1.376654   -0.525717    0.055920
  N     -2.427664   -1.002957    0.102876
  C      0.720850   -0.514737   -1.268503
  C      0.780315   -2.054440   -1.398052
  O      0.576696   -2.273014   -2.785527
  C     -0.310434   -1.262222   -3.179465
  O      0.062138   -0.092641   -2.457901
  H      0.811218    1.901723    0.081005
  H     -0.490808    1.817574   -0.900021
  H      0.523201   -0.271356    0.867892
  H      1.729147   -0.078701   -1.259189
  H      1.748797   -2.474078   -1.120254
  H     -0.009123   -2.535621   -0.803111
  H     -0.191030   -1.078751   -4.250652
  H     -1.352993   -1.527554   -2.941832

 Total Charge           Charge          ....    0
 Multiplicity           Mult            ....    1
 Number of Electrons    NEL             ....   68
 Basis Dimension        Dim             ....  327

ORBITAL ENERGIES
----------------

  NO   OCC          E(Eh)            E(eV)
   0   2.0000     -20.583711      -560.1113
   1   2.0000     -20.583387      -560.1024
   2   2.0000     -15.576242      -423.8511
   3   2.0000     -15.574191      -423.7953
   4   2.0000     -11.341624      -308.6213
   5   2.0000     -11.324735      -308.1617
   6   2.0000     -11.317735      -307.9712
   7   2.0000     -11.303187      -307.5753
   8   2.0000     -11.277085      -306.8651
   9   2.0000      -1.459291       -39.7093
  10   2.0000      -1.355009       -36.8717
  11   2.0000      -1.240349       -33.7516
  12   2.0000      -1.207124       -32.8475
  13   2.0000      -1.067926       -29.0597
  14   2.0000      -0.972028       -26.4502
  15   2.0000      -0.887156       -24.1408
  16   2.0000      -0.859359       -23.3844
  17   2.0000      -0.754820       -20.5397
  18   2.0000      -0.727630       -19.7998
  19   2.0000      -0.717139       -19.5143
  20   2.0000      -0.663049       -18.0425
  21   2.0000      -0.649962       -17.6864
  22   2.0000      -0.635962       -17.3054
  23   2.0000      -0.612926       -16.6786
  24   2.0000      -0.590873       -16.0785
  25   2.0000      -0.576897       -15.6982
  26   2.0000      -0.554198       -15.0805
  27   2.0000      -0.542899       -14.7730
  28   2.0000      -0.529618       -14.4116
  29   2.0000      -0.478032       -13.0079
  30   2.0000      -0.473010       -12.8713
  31   2.0000      -0.461838       -12.5673
  32   2.0000      -0.447666       -12.1816
  33   2.0000      -0.421126       -11.4594
  34   0.0000       0.111904         3.0451
  35   0.0000       0.143635         3.9085
  36   0.0000       0.157410         4.2833
  37   0.0000       0.163620         4.4523
  38   0.0000       0.189874         5.1667

MULLIKEN ATOMIC CHARGES
-----------------------
   0 N :   -0.512202
   1 C :    0.133121
   2 C :   -0.202619
   3 N :   -0.049765
   4 C :    0.035903
   5 C :   -0.090439
   6 O :   -0.307461
   7 C :    0.111146
   8 O :   -0.342382
   9 H :    0.230925
  10 H :    0.252599
  11 H :    0.138335
  12 H :    0.106642
  13 H :    0.131498
  14 H :    0.130314
  15 H :    0.128470
  16 H :    0.105916
Sum of atomic charges:   -0.0000000

LOEWDIN ATOMIC CHARGES
----------------------
   0 N :   -0.122050
   1 C :   -0.309315
   2 C :   -0.169980
   3 N :    0.068439
   4 C :   -0.295849
   5 C :   -0.278787
   6 O :    0.163710
   7 C :   -0.361040
   8 O :    0.162914
   9 H :    0.158875
  10 H :    0.167202
  11 H :    0.173344
  12 H :    0.142520
  13 H :    0.132507
  14 H :    0.133548
  15 H :    0.121129
  16 H :    0.112833

  Mayer bond orders larger than 0.1
B(  0-N ,  1-C ) :   0.9618 B(  0-N ,  9-H ) :   0.8925 B(  0-N , 10-H ) :   0.8826
B(  1-C ,  2-C ) :   0.8974 B(  1-C ,  4-C ) :   0.9307 B(  1-C , 11-H ) :   0.8999
B(  2-C ,  3-N ) :   2.8482 B(  4-C ,  5-C ) :   0.9228 B(  4-C ,  8-O ) :   0.8870
B(  4-C , 12-H ) :   0.9169 B(  5-C ,  6-O ) :   0.9263 B(  5-C , 13-H ) :   0.9157
B(  5-C , 14-H ) :   0.9281 B(  6-O ,  7-C ) :   0.9713 B(  7-C ,  8-O ) :   0.9388
B(  7-C , 15-H ) :   0.9244 B(  7-C , 16-H ) :   0.9215

MP2 TOTAL ENERGY:     -454.412790634 Eh
FINAL SINGLE POINT ENERGY      -454.412790634398

DIPOLE MOMENT
-------------
                                X             Y             Z
Electronic contribution:     -2.53774      -0.82641       0.05811
Nuclear contribution   :      4.07467       1.09877      -0.17364
                        -----------------------------------------
Total Dipole Moment    :      1.53693       0.27236      -0.11553
                        -----------------------------------------
Magnitude (a.u.)       :      1.56515
Magnitude (Debye)      :      3.97828

                             ****ORCA TERMINATED NORMALLY****
TOTAL RUN TIME: 0 days 0 hours 17 minutes 44 seconds 246 msec
