                         Program Version 3.0.3 - RELEASE   -
|  1> ! RI-MP2 RIJK def2-TZVP def2-TZVP/C def2-TZVP/JK TIGHTSCF
|  2> % maxcore 2000
|  3> % mp2 density relaxed end
|  4> *xyz 0 1
|  5>  O       -1.0945276229     0.3288173158     0.4502613173
|  6>  C       -0.6550018528     1.4302303803     0.3016436212
|  7>  C       -1.1394903797     2.6892286100    -0.3524522135
|  8>  C       -0.8167590222     3.8381909720     0.5443297366
|  9>  N        0.2614041570     3.2980882419    -0.2740338151
| 10>  C        0.7623082285     2.0593459481     0.4416419811
| 11>  C        1.4629557915     2.2110104474     1.7575894126
| 12>  C        2.3104615128     1.1262878005     2.2730291202
| 13>  O        2.8906152540     2.3025739995     1.7144189668
| 14>  H       -1.7856214626     2.7793014844    -1.2173670904
| 15>  H       -1.1644366086     4.8136499054     0.2189944932
| 16>  H       -0.8161406106     3.6992275262     1.6222476034
| 17>  H        1.4272019920     1.5232567502    -0.2447971943
| 18>  H        1.0033329272     2.8793106752     2.4844532985
| 19>  H        2.4258425558     1.0054128282     3.3486742973
| 20>  H        2.4326711506     0.2167534251     1.6868830350
| 21> *
| 22>
| 23>                          ****END OF INPUT****

CARTESIAN COORDINATES (ANGSTROEM)
---------------------------------
  O     -1.094528    0.328817    0.450261
  C     -0.655002    1.430230    0.301644
  C     -1.139490    2.689229   -0.352452
  C     -0.816759    3.838191    0.544330
  N      0.261404    3.298088   -0.274034
  C      0.762308    2.059346    0.441642
  C      1.462956    2.211010    1.757589
  C      2.310462    1.126288    2.273029
  O      2.890615    2.302574    1.714419
  H     -1.785621    2.779301   -1.217367
  H     -1.164437    4.813650    0.218994
  H     -0.816141    3.699228    1.622248
  H      1.427202    1.523257   -0.244797
  H      1.003333    2.879311    2.484453
  H      2.425843    1.005413    3.348674
  H      2.432671    0.216753    1.686883

 Total Charge           Charge          ....    0
 Multiplicity           Mult            ....    1
 Number of Electrons    NEL             ....   66
 Basis Dimension        Dim             ....  321

ORBITAL ENERGIES
----------------

  NO   OCC          E(Eh)            E(eV)
   0   2.0000     -20.583535      -560.1065
   1   2.0000     -20.569955      -559.7369
   2   2.0000     -15.599424      -424.4819
   3   2.0000     -11.354819      -308.9803
   4   2.0000     -11.307677      -307.6975
   5   2.0000     -11.298164      -307.4387
   6   2.0000     -11.293349      -307.3077
   7   2.0000     -11.293076      -307.3002
   8   2.0000     -11.290514      -307.2305
   9   2.0000      -1.427888       -38.8548
  10   2.0000      -1.415622       -38.5210
  11   2.0000      -1.323014       -36.0010
  12   2.0000      -1.045839       -28.4587
  13   2.0000      -0.950108       -25.8538
  14   2.0000      -0.935133       -25.4463
  15   2.0000      -0.889559       -24.2061
  16   2.0000      -0.825835       -22.4721
  17   2.0000      -0.772456       -21.0196
  18   2.0000      -0.700269       -19.0553
  19   2.0000      -0.695473       -18.9248
  20   2.0000      -0.679483       -18.4897
  21   2.0000      -0.675080       -18.3698
  22   2.0000      -0.603417       -16.4198
  23   2.0000      -0.603128       -16.4119
  24   2.0000      -0.582359       -15.8468
  25   2.0000      -0.557684       -15.1753
  26   2.0000      -0.541857       -14.7447
  27   2.0000      -0.511410       -13.9162
  28   2.0000      -0.489717       -13.3259
  29   2.0000      -0.466065       -12.6823
  30   2.0000      -0.446659       -12.1542
  31   2.0000      -0.435978       -11.8636
  32   2.0000      -0.397197       -10.8083
  33   0.0000       0.112514         3.0617
  34   0.0000       0.146376         3.9831
  35   0.0000       0.156035         4.2459
  36   0.0000       0.168284         4.5792
  37   0.0000       0.175358         4.7717

MULLIKEN ATOMIC CHARGES
-----------------------
   0 O :   -0.246246
   1 C :    0.131840
   2 C :   -0.089818
   3 C :   -0.167912
   4 N :   -0.208661
   5 C :   -0.021816
   6 C :    0.048345
   7 C :   -0.089774
   8 O :   -0.319440
   9 H :    0.158847
  10 H :    0.147786
  11 H :    0.135596
  12 H :    0.143994
  13 H :    0.127839
  14 H :    0.123047
  15 H :    0.126373
Sum of atomic charges:   -0.0000000

LOEWDIN ATOMIC CHARGES
----------------------
   0 O :    0.171082
   1 C :   -0.303235
   2 C :   -0.168782
   3 C :   -0.237609
   4 N :    0.143406
   5 C :   -0.202985
   6 C :   -0.275624
   7 C :   -0.254371
   8 O :    0.154931
   9 H :    0.142518
  10 H :    0.140257
  11 H :    0.128163
  12 H :    0.174543
  13 H :    0.140522
  14 H :    0.122303
  15 H :    0.124881

  Mayer bond orders larger than 0.1
B(  0-O ,  1-C ) :   2.0383 B(  1-C ,  2-C ) :   0.9509 B(  1-C ,  5-C ) :   0.8763
B(  2-C ,  3-C ) :   0.8946 B(  2-C ,  4-N ) :   0.8882 B(  2-C ,  9-H ) :   0.8933
B(  3-C ,  4-N ) :   0.9025 B(  3-C , 10-H ) :   0.9277 B(  3-C , 11-H ) :   0.9069
B(  4-N ,  5-C ) :   0.9165 B(  5-C ,  6-C ) :   0.9454 B(  5-C , 12-H ) :   0.8860
B(  6-C ,  7-C ) :   0.9791 B(  6-C ,  8-O ) :   0.9070 B(  6-C , 13-H ) :   0.8958
B(  7-C ,  8-O ) :   0.9011 B(  7-C , 14-H ) :   0.9188 B(  7-C , 15-H ) :   0.9066

MP2 TOTAL ENERGY:     -437.093961678 Eh
FINAL SINGLE POINT ENERGY      -437.093961677953

DIPOLE MOMENT
-------------
                                X             Y             Z
Electronic contribution:     -0.71572      -1.55778      -1.82381
Nuclear contribution   :      0.21660       1.90602       2.24914
                        -----------------------------------------
Total Dipole Moment    :     -0.49912       0.34823       0.42533
                        -----------------------------------------
Magnitude (a.u.)       :      0.74250
Magnitude (Debye)      :      1.88727

                             ****ORCA TERMINATED NORMALLY****
TOTAL RUN TIME: 0 days 0 hours 16 minutes 0 seconds 878 msec
