                         Program Version 3.0.3 - RELEASE   -
|  1> ! RI-MP2 RIJK def2-TZVP def2-TZVP/C def2-TZVP/JK TIGHTSCF
|  2> % maxcore 2000
|  3> % mp2 density relaxed end
|  4> *xyz 0 1
|  5>  C        0.0214142152     1.5126638203     0.0480037945
|  6>  C       -0.0321798691     0.0124426354     0.0763269441
|  7>  N        0.5367200724    -0.8026843136    -1.0923540195
|  8>  C       -0.3203387663    -1.9386224946    -0.5580799123
|  9>  C        0.3874054676    -2.2233915400     0.7735584671
| 10>  C        0.6894304117    -0.7492493483     1.2162479028
| 11>  O        2.0632510377    -0.4419613137     1.2588000953
| 12>  C       -1.3085195773    -0.8209470989    -0.1692410010
| 13>  O       -2.4734529433    -0.5874788443    -0.3075866402
| 14>  H        1.0553173395     1.8615512142     0.1164437603
| 15>  H       -0.4340185904     1.9150495089    -0.8618775174
| 16>  H       -0.5301731500     1.9176116852     0.9023247152
| 17>  H        0.1279698578    -0.4577478693    -1.9615210737
| 18>  H       -0.5658347765    -2.7593079299    -1.2291295696
| 19>  H       -0.2474977454    -2.7671064012     1.4775961113
| 20>  H        1.3210276055    -2.7748251511     0.6387359871
| 21>  H        0.2849844523    -0.5025184725     2.2003035451
| 22>  H        2.3866047584    -0.5766507064     0.3571020308
| 23> *
| 24>
| 25>                          ****END OF INPUT****

CARTESIAN COORDINATES (ANGSTROEM)
---------------------------------
  C      0.021414    1.512664    0.048004
  C     -0.032180    0.012443    0.076327
  N      0.536720   -0.802684   -1.092354
  C     -0.320339   -1.938622   -0.558080
  C      0.387405   -2.223392    0.773558
  C      0.689430   -0.749249    1.216248
  O      2.063251   -0.441961    1.258800
  C     -1.308520   -0.820947   -0.169241
  O     -2.473453   -0.587479   -0.307587
  H      1.055317    1.861551    0.116444
  H     -0.434019    1.915050   -0.861878
  H     -0.530173    1.917612    0.902325
  H      0.127970   -0.457748   -1.961521
  H     -0.565835   -2.759308   -1.229130
  H     -0.247498   -2.767106    1.477596
  H      1.321028   -2.774825    0.638736
  H      0.284984   -0.502518    2.200304
  H      2.386605   -0.576651    0.357102

 Total Charge           Charge          ....    0
 Multiplicity           Mult            ....    1
 Number of Electrons    NEL             ....   68
 Basis Dimension        Dim             ....  333

ORBITAL ENERGIES
----------------

  NO   OCC          E(Eh)            E(eV)
   0   2.0000     -20.563457      -559.5601
   1   2.0000     -20.561769      -559.5142
   2   2.0000     -15.585769      -424.1103
   3   2.0000     -11.342964      -308.6577
   4   2.0000     -11.299224      -307.4675
   5   2.0000     -11.288219      -307.1681
   6   2.0000     -11.288188      -307.1672
   7   2.0000     -11.244689      -305.9835
   8   2.0000     -11.233721      -305.6851
   9   2.0000      -1.409028       -38.3416
  10   2.0000      -1.376361       -37.4527
  11   2.0000      -1.280113       -34.8336
  12   2.0000      -1.047682       -28.5089
  13   2.0000      -1.035349       -28.1733
  14   2.0000      -0.918763       -25.0008
  15   2.0000      -0.907436       -24.6926
  16   2.0000      -0.806235       -21.9388
  17   2.0000      -0.756577       -20.5875
  18   2.0000      -0.691343       -18.8124
  19   2.0000      -0.673171       -18.3179
  20   2.0000      -0.663120       -18.0444
  21   2.0000      -0.645063       -17.5531
  22   2.0000      -0.617246       -16.7961
  23   2.0000      -0.585502       -15.9323
  24   2.0000      -0.578461       -15.7407
  25   2.0000      -0.564400       -15.3581
  26   2.0000      -0.551899       -15.0179
  27   2.0000      -0.535687       -14.5768
  28   2.0000      -0.524597       -14.2750
  29   2.0000      -0.508601       -13.8397
  30   2.0000      -0.486504       -13.2384
  31   2.0000      -0.443283       -12.0623
  32   2.0000      -0.418225       -11.3805
  33   2.0000      -0.396410       -10.7869
  34   0.0000       0.127969         3.4822
  35   0.0000       0.136324         3.7096
  36   0.0000       0.153027         4.1641
  37   0.0000       0.172577         4.6961
  38   0.0000       0.175618         4.7788

MULLIKEN ATOMIC CHARGES
-----------------------
   0 C :   -0.393342
   1 C :    0.043780
   2 N :   -0.345297
   3 C :   -0.014609
   4 C :   -0.233044
   5 C :    0.071233
   6 O :   -0.465781
   7 C :    0.072976
   8 O :   -0.247652
   9 H :    0.153749
  10 H :    0.136882
  11 H :    0.143348
  12 H :    0.221718
  13 H :    0.151124
  14 H :    0.131019
  15 H :    0.128022
  16 H :    0.119706
  17 H :    0.326170
Sum of atomic charges:    0.0000000

LOEWDIN ATOMIC CHARGES
----------------------
   0 C :   -0.265752
   1 C :   -0.270817
   2 N :    0.049955
   3 C :   -0.214671
   4 C :   -0.207811
   5 C :   -0.290553
   6 O :   -0.006062
   7 C :   -0.282334
   8 O :    0.159550
   9 H :    0.136675
  10 H :    0.131812
  11 H :    0.140910
  12 H :    0.172925
  13 H :    0.137040
  14 H :    0.141242
  15 H :    0.143326
  16 H :    0.145113
  17 H :    0.179451

  Mayer bond orders larger than 0.1
B(  0-C ,  1-C ) :   0.8852 B(  0-C ,  9-H ) :   0.9427 B(  0-C , 10-H ) :   0.9304
B(  0-C , 11-H ) :   0.9267 B(  1-C ,  2-N ) :   0.9158 B(  1-C ,  3-C ) :  -0.1610
B(  1-C ,  5-C ) :   0.9022 B(  1-C ,  7-C ) :   0.8998 B(  2-N ,  3-C ) :   0.9459
B(  2-N , 12-H ) :   0.8771 B(  3-C ,  4-C ) :   0.8809 B(  3-C ,  7-C ) :   0.9160
B(  3-C , 13-H ) :   0.9009 B(  4-C ,  5-C ) :   0.9260 B(  4-C , 14-H ) :   0.9232
B(  4-C , 15-H ) :   0.9018 B(  5-C ,  6-O ) :   0.9385 B(  5-C , 16-H ) :   0.9355
B(  6-O , 17-H ) :   0.8192 B(  7-C ,  8-O ) :   2.0792

MP2 TOTAL ENERGY:     -438.367143498 Eh
FINAL SINGLE POINT ENERGY      -438.367143498132

DIPOLE MOMENT
-------------
                                X             Y             Z
Electronic contribution:     -3.07560      -1.79965      -0.73650
Nuclear contribution   :      3.34382       1.58900       0.33109
                        -----------------------------------------
Total Dipole Moment    :      0.26821      -0.21065      -0.40542
                        -----------------------------------------
Magnitude (a.u.)       :      0.52979
Magnitude (Debye)      :      1.34661

                             ****ORCA TERMINATED NORMALLY****
TOTAL RUN TIME: 0 days 0 hours 19 minutes 14 seconds 304 msec
