                         Program Version 3.0.3 - RELEASE   -
|  1> ! RI-MP2 RIJK def2-TZVP def2-TZVP/C def2-TZVP/JK TIGHTSCF
|  2> % maxcore 2000
|  3> % mp2 density relaxed end
|  4> *xyz 0 1
|  5>  C        0.0789488415     1.5297992598     0.0214898543
|  6>  C        0.0097334024     0.0399166580     0.0091404691
|  7>  C        0.9251152498    -1.0163804424    -0.5593618577
|  8>  C        0.6808302880    -0.9970187449     0.9278553406
|  9>  C       -0.5012762599    -1.9637774539     0.6876512005
| 10>  C       -1.1100401105    -3.1008068996     1.3947756960
| 11>  O       -2.0441734288    -3.7328170966     0.9626545933
| 12>  C       -1.1481813743    -0.9692991541    -0.2371920077
| 13>  N       -0.2345369063    -1.9824304566    -0.8184856933
| 14>  H        1.1056963821     1.8639383245     0.2050817163
| 15>  H       -0.2425217850     1.9524300395    -0.9371378468
| 16>  H       -0.5547078989     1.9550837720     0.8077755257
| 17>  H        1.8272831482    -0.9729473139    -1.1560014860
| 18>  H        1.3561963667    -0.8423294426     1.7575168912
| 19>  H       -0.6550777653    -3.3320843135     2.3842099146
| 20>  H       -2.1912482896    -0.8912402556    -0.5214203602
| 21> *
| 22>
| 23>                          ****END OF INPUT****

CARTESIAN COORDINATES (ANGSTROEM)
---------------------------------
  C      0.078949    1.529799    0.021490
  C      0.009733    0.039917    0.009140
  C      0.925115   -1.016380   -0.559362
  C      0.680830   -0.997019    0.927855
  C     -0.501276   -1.963777    0.687651
  C     -1.110040   -3.100807    1.394776
  O     -2.044173   -3.732817    0.962655
  C     -1.148181   -0.969299   -0.237192
  N     -0.234537   -1.982430   -0.818486
  H      1.105696    1.863938    0.205082
  H     -0.242522    1.952430   -0.937138
  H     -0.554708    1.955084    0.807776
  H      1.827283   -0.972947   -1.156001
  H      1.356196   -0.842329    1.757517
  H     -0.655078   -3.332084    2.384210
  H     -2.191248   -0.891240   -0.521420

 Total Charge           Charge          ....    0
 Multiplicity           Mult            ....    1
 Number of Electrons    NEL             ....   64
 Basis Dimension        Dim             ....  321

ORBITAL ENERGIES
----------------

  NO   OCC          E(Eh)            E(eV)
   0   2.0000     -20.555490      -559.3433
   1   2.0000     -15.584175      -424.0670
   2   2.0000     -11.337672      -308.5137
   3   2.0000     -11.286249      -307.1144
   4   2.0000     -11.283671      -307.0443
   5   2.0000     -11.280787      -306.9658
   6   2.0000     -11.267772      -306.6117
   7   2.0000     -11.260956      -306.4262
   8   2.0000     -11.242175      -305.9151
   9   2.0000      -1.395151       -37.9640
  10   2.0000      -1.357655       -36.9437
  11   2.0000      -1.092985       -29.7416
  12   2.0000      -0.992990       -27.0206
  13   2.0000      -0.978280       -26.6203
  14   2.0000      -0.909518       -24.7492
  15   2.0000      -0.832204       -22.6454
  16   2.0000      -0.746524       -20.3140
  17   2.0000      -0.731774       -19.9126
  18   2.0000      -0.693425       -18.8690
  19   2.0000      -0.655772       -17.8445
  20   2.0000      -0.630788       -17.1646
  21   2.0000      -0.616672       -16.7805
  22   2.0000      -0.597671       -16.2635
  23   2.0000      -0.585435       -15.9305
  24   2.0000      -0.565143       -15.3783
  25   2.0000      -0.537969       -14.6389
  26   2.0000      -0.498488       -13.5645
  27   2.0000      -0.465166       -12.6578
  28   2.0000      -0.443697       -12.0736
  29   2.0000      -0.433794       -11.8041
  30   2.0000      -0.382653       -10.4125
  31   2.0000      -0.344827        -9.3832
  32   0.0000       0.101716         2.7678
  33   0.0000       0.132208         3.5976
  34   0.0000       0.159703         4.3457
  35   0.0000       0.171268         4.6604
  36   0.0000       0.178265         4.8508

MULLIKEN ATOMIC CHARGES
-----------------------
   0 C :   -0.403169
   1 C :   -0.007908
   2 C :   -0.083718
   3 C :   -0.104384
   4 C :    0.037331
   5 C :    0.026818
   6 O :   -0.263171
   7 C :   -0.003353
   8 N :   -0.172097
   9 H :    0.138391
  10 H :    0.145879
  11 H :    0.143201
  12 H :    0.151576
  13 H :    0.156669
  14 H :    0.082145
  15 H :    0.155791
Sum of atomic charges:    0.0000000

LOEWDIN ATOMIC CHARGES
----------------------
   0 C :   -0.273756
   1 C :   -0.176261
   2 C :   -0.132174
   3 C :   -0.101650
   4 C :   -0.184489
   5 C :   -0.275726
   6 O :    0.142838
   7 C :   -0.109367
   8 N :    0.179053
   9 H :    0.135854
  10 H :    0.133182
  11 H :    0.132095
  12 H :    0.134474
  13 H :    0.139935
  14 H :    0.115302
  15 H :    0.140689

  Mayer bond orders larger than 0.1
B(  0-C ,  1-C ) :   0.8467 B(  0-C ,  9-H ) :   0.9402 B(  0-C , 10-H ) :   0.9396
B(  0-C , 11-H ) :   0.9374 B(  1-C ,  2-C ) :   0.9197 B(  1-C ,  3-C ) :   0.8010
B(  1-C ,  7-C ) :   0.8849 B(  2-C ,  3-C ) :   0.8761 B(  2-C ,  8-N ) :   0.9450
B(  2-C , 12-H ) :   0.9029 B(  3-C ,  4-C ) :   0.8365 B(  3-C , 13-H ) :   0.9087
B(  4-C ,  5-C ) :   0.8088 B(  4-C ,  6-O ) :  -0.1106 B(  4-C ,  7-C ) :   0.9102
B(  4-C ,  8-N ) :   0.8833 B(  5-C ,  6-O ) :   2.0226 B(  5-C , 14-H ) :   0.9732
B(  7-C ,  8-N ) :   0.9160 B(  7-C , 15-H ) :   0.9107

MP2 TOTAL ENERGY:     -399.930207624 Eh
FINAL SINGLE POINT ENERGY      -399.930207624311

DIPOLE MOMENT
-------------
                                X             Y             Z
Electronic contribution:     -2.27929      -7.18501      -0.02943
Nuclear contribution   :      3.19145       8.68642       0.57348
                        -----------------------------------------
Total Dipole Moment    :      0.91216       1.50140       0.54405
                        -----------------------------------------
Magnitude (a.u.)       :      1.83909
Magnitude (Debye)      :      4.67459

                             ****ORCA TERMINATED NORMALLY****
TOTAL RUN TIME: 0 days 0 hours 15 minutes 21 seconds 358 msec
