                         Program Version 3.0.3 - RELEASE   -
|  1> ! RI-MP2 RIJK def2-TZVP def2-TZVP/C def2-TZVP/JK TIGHTSCF
|  2> % maxcore 2000
|  3> % mp2 density relaxed end
|  4> *xyz 0 1
|  5>  C        1.4384420894    -0.4829603986     0.1466178086
|  6>  C        0.0407627508     0.0264357090     0.0615782956
|  7>  N       -0.1792597170     1.3646909088     0.0795379614
|  8>  H       -1.1150754787     1.7323643773     0.1474064596
|  9>  H        0.5598363901     1.9722029215     0.3871354554
| 10>  N       -0.9569109081    -0.8070953522    -0.0723669513
| 11>  C       -0.9935544337    -2.2028254408    -0.1737785247
| 12>  C       -0.0580868325    -3.2375736077    -0.1939444172
| 13>  N       -0.7646577794    -4.3717145922    -0.3126585151
| 14>  N       -2.0687434797    -4.0404731355    -0.3629046372
| 15>  N       -2.2312337349    -2.7313581629    -0.2804627459
| 16>  H        2.1515318705     0.3308185783     0.2842639901
| 17>  H        1.5247893983    -1.1926881542     0.9759416277
| 18>  H        1.6897784454    -1.0306647700    -0.7680786254
| 19>  H       -1.9062590148    -0.4432461819    -0.1228839115
| 20>  H        1.0181143442    -3.2417647288    -0.1368121001
| 21> *
| 22>
| 23>                          ****END OF INPUT****

CARTESIAN COORDINATES (ANGSTROEM)
---------------------------------
  C      1.438442   -0.482960    0.146618
  C      0.040763    0.026436    0.061578
  N     -0.179260    1.364691    0.079538
  H     -1.115075    1.732364    0.147406
  H      0.559836    1.972203    0.387135
  N     -0.956911   -0.807095   -0.072367
  C     -0.993554   -2.202825   -0.173779
  C     -0.058087   -3.237574   -0.193944
  N     -0.764658   -4.371715   -0.312659
  N     -2.068743   -4.040473   -0.362905
  N     -2.231234   -2.731358   -0.280463
  H      2.151532    0.330819    0.284264
  H      1.524789   -1.192688    0.975942
  H      1.689778   -1.030665   -0.768079
  H     -1.906259   -0.443246   -0.122884
  H      1.018114   -3.241765   -0.136812

 Total Charge           Charge          ....    0
 Multiplicity           Mult            ....    1
 Number of Electrons    NEL             ....   66
 Basis Dimension        Dim             ....  321

ORBITAL ENERGIES
----------------

  NO   OCC          E(Eh)            E(eV)
   0   2.0000     -15.677423      -426.6044
   1   2.0000     -15.666757      -426.3141
   2   2.0000     -15.553499      -423.2322
   3   2.0000     -15.535973      -422.7553
   4   2.0000     -15.523908      -422.4270
   5   2.0000     -11.427158      -310.9488
   6   2.0000     -11.300566      -307.5040
   7   2.0000     -11.261189      -306.4325
   8   2.0000     -11.215879      -305.1996
   9   2.0000      -1.388335       -37.7785
  10   2.0000      -1.342755       -36.5382
  11   2.0000      -1.273275       -34.6476
  12   2.0000      -1.106692       -30.1146
  13   2.0000      -1.075774       -29.2733
  14   2.0000      -1.019138       -27.7322
  15   2.0000      -0.904019       -24.5996
  16   2.0000      -0.832306       -22.6482
  17   2.0000      -0.820088       -22.3157
  18   2.0000      -0.760058       -20.6822
  19   2.0000      -0.743711       -20.2374
  20   2.0000      -0.687756       -18.7148
  21   2.0000      -0.684209       -18.6183
  22   2.0000      -0.634749       -17.2724
  23   2.0000      -0.631842       -17.1933
  24   2.0000      -0.597737       -16.2652
  25   2.0000      -0.586358       -15.9556
  26   2.0000      -0.559882       -15.2352
  27   2.0000      -0.494387       -13.4530
  28   2.0000      -0.474805       -12.9201
  29   2.0000      -0.383170       -10.4266
  30   2.0000      -0.373657       -10.1677
  31   2.0000      -0.326145        -8.8749
  32   2.0000      -0.284879        -7.7520
  33   0.0000       0.069504         1.8913
  34   0.0000       0.082044         2.2325
  35   0.0000       0.110604         3.0097
  36   0.0000       0.128924         3.5082
  37   0.0000       0.155966         4.2441

MULLIKEN ATOMIC CHARGES
-----------------------
   0 C :   -0.422192
   1 C :    0.324795
   2 N :   -0.480980
   3 H :    0.272932
   4 H :    0.282844
   5 N :   -0.183773
   6 C :    0.097049
   7 C :   -0.265548
   8 N :   -0.146307
   9 N :   -0.174047
  10 N :   -0.196506
  11 H :    0.148705
  12 H :    0.190236
  13 H :    0.189766
  14 H :    0.253735
  15 H :    0.109290
Sum of atomic charges:    0.0000000

LOEWDIN ATOMIC CHARGES
----------------------
   0 C :   -0.243902
   1 C :   -0.300597
   2 N :    0.012364
   3 H :    0.182288
   4 H :    0.186981
   5 N :    0.262534
   6 C :   -0.405025
   7 C :   -0.342701
   8 N :   -0.022442
   9 N :   -0.090917
  10 N :   -0.036693
  11 H :    0.136519
  12 H :    0.156354
  13 H :    0.157136
  14 H :    0.224844
  15 H :    0.123256

  Mayer bond orders larger than 0.1
B(  0-C ,  1-C ) :   0.9479 B(  0-C , 11-H ) :   0.9260 B(  0-C , 12-H ) :   0.9091
B(  0-C , 13-H ) :   0.9077 B(  1-C ,  2-N ) :   1.1897 B(  1-C ,  5-N ) :   1.4447
B(  2-N ,  3-H ) :   0.8637 B(  2-N ,  4-H ) :   0.8605 B(  5-N ,  6-C ) :   0.9238
B(  5-N , 14-H ) :   0.8334 B(  6-C ,  7-C ) :   1.3300 B(  6-C , 10-N ) :   1.3771
B(  7-C ,  8-N ) :   1.5369 B(  7-C , 15-H ) :   0.9474 B(  8-N ,  9-N ) :   1.1599
B(  9-N , 10-N ) :   1.2134

MP2 TOTAL ENERGY:     -429.496937646 Eh
FINAL SINGLE POINT ENERGY      -429.496937646120

DIPOLE MOMENT
-------------
                                X             Y             Z
Electronic contribution:     -5.61059      -4.61462      -0.79103
Nuclear contribution   :      7.74437       9.83114       1.47500
                        -----------------------------------------
Total Dipole Moment    :      2.13378       5.21652       0.68397
                        -----------------------------------------
Magnitude (a.u.)       :      5.67741
Magnitude (Debye)      :     14.43083

                             ****ORCA TERMINATED NORMALLY****
TOTAL RUN TIME: 0 days 0 hours 15 minutes 33 seconds 70 msec
