                         Program Version 3.0.3 - RELEASE   -
|  1> ! RI-MP2 RIJK def2-TZVP def2-TZVP/C def2-TZVP/JK TIGHTSCF
|  2> % maxcore 2000
|  3> % mp2 density relaxed end
|  4> *xyz 0 1
|  5>  N       -0.1138682506    -1.2428770196    -0.1414641589
|  6>  C       -0.0794984405    -0.0880379935    -0.0837850373
|  7>  C       -0.0108978367     1.3616853468     0.0148908121
|  8>  C       -0.0701501509     2.0872133138     1.4029289118
|  9>  C        1.0327163616     1.3935591635     2.2189024468
| 10>  C        2.1570193140     1.4144273404     1.1307698693
| 11>  C        1.3641795701     2.1138265193     0.0147369033
| 12>  N        0.7127372749     3.2272110221     0.7983396264
| 13>  H       -0.7055139437     1.8186607964    -0.6940496178
| 14>  H       -1.0193480191     2.3126881666     1.8875046782
| 15>  H        1.2892057838     1.9798364039     3.1022923391
| 16>  H        0.7526736980     0.3846364090     2.5283208027
| 17>  H        3.0202063540     2.0119680632     1.4269775864
| 18>  H        2.4946571906     0.4169692034     0.8423844400
| 19>  H        1.8749398770     2.3663905494    -0.9136834969
| 20>  H        0.0900392973     3.7309356154     0.1646002147
| 21> *
| 22>
| 23>                          ****END OF INPUT****

CARTESIAN COORDINATES (ANGSTROEM)
---------------------------------
  N     -0.113868   -1.242877   -0.141464
  C     -0.079498   -0.088038   -0.083785
  C     -0.010898    1.361685    0.014891
  C     -0.070150    2.087213    1.402929
  C      1.032716    1.393559    2.218902
  C      2.157019    1.414427    1.130770
  C      1.364180    2.113827    0.014737
  N      0.712737    3.227211    0.798340
  H     -0.705514    1.818661   -0.694050
  H     -1.019348    2.312688    1.887505
  H      1.289206    1.979836    3.102292
  H      0.752674    0.384636    2.528321
  H      3.020206    2.011968    1.426978
  H      2.494657    0.416969    0.842384
  H      1.874940    2.366391   -0.913683
  H      0.090039    3.730936    0.164600

 Total Charge           Charge          ....    0
 Multiplicity           Mult            ....    1
 Number of Electrons    NEL             ....   58
 Basis Dimension        Dim             ....  296

ORBITAL ENERGIES
----------------

  NO   OCC          E(Eh)            E(eV)
   0   2.0000     -15.573295      -423.7709
   1   2.0000     -15.568581      -423.6426
   2   2.0000     -11.291833      -307.2664
   3   2.0000     -11.291800      -307.2655
   4   2.0000     -11.286487      -307.1209
   5   2.0000     -11.274525      -306.7954
   6   2.0000     -11.236716      -305.7666
   7   2.0000     -11.236183      -305.7521
   8   2.0000      -1.289726       -35.0952
   9   2.0000      -1.218764       -33.1643
  10   2.0000      -1.056483       -28.7484
  11   2.0000      -1.009084       -27.4586
  12   2.0000      -0.970120       -26.3983
  13   2.0000      -0.816240       -22.2110
  14   2.0000      -0.790269       -21.5043
  15   2.0000      -0.726150       -19.7595
  16   2.0000      -0.705269       -19.1913
  17   2.0000      -0.667604       -18.1664
  18   2.0000      -0.589407       -16.0386
  19   2.0000      -0.567034       -15.4298
  20   2.0000      -0.557924       -15.1819
  21   2.0000      -0.541096       -14.7240
  22   2.0000      -0.518091       -14.0980
  23   2.0000      -0.499088       -13.5809
  24   2.0000      -0.488420       -13.2906
  25   2.0000      -0.487565       -13.2673
  26   2.0000      -0.469897       -12.7865
  27   2.0000      -0.436805       -11.8861
  28   2.0000      -0.406327       -11.0567
  29   0.0000       0.119029         3.2389
  30   0.0000       0.144579         3.9342
  31   0.0000       0.154382         4.2010
  32   0.0000       0.167307         4.5526
  33   0.0000       0.185207         5.0397

MULLIKEN ATOMIC CHARGES
-----------------------
   0 N :   -0.048066
   1 C :   -0.229323
   2 C :   -0.026077
   3 C :   -0.017876
   4 C :   -0.246755
   5 C :   -0.246755
   6 C :   -0.017875
   7 N :   -0.331413
   8 H :    0.143620
   9 H :    0.140601
  10 H :    0.126077
  11 H :    0.140196
  12 H :    0.126077
  13 H :    0.140196
  14 H :    0.140601
  15 H :    0.206773
Sum of atomic charges:    0.0000000

LOEWDIN ATOMIC CHARGES
----------------------
   0 N :    0.065647
   1 C :   -0.174937
   2 C :   -0.198607
   3 C :   -0.215534
   4 C :   -0.220215
   5 C :   -0.220216
   6 C :   -0.215534
   7 N :    0.013596
   8 H :    0.170576
   9 H :    0.135006
  10 H :    0.139396
  11 H :    0.140349
  12 H :    0.139396
  13 H :    0.140349
  14 H :    0.135006
  15 H :    0.165722

  Mayer bond orders larger than 0.1
B(  0-N ,  1-C ) :   2.8512 B(  1-C ,  2-C ) :   0.9373 B(  2-C ,  3-C ) :   0.9191
B(  2-C ,  6-C ) :   0.9191 B(  2-C ,  8-H ) :   0.8892 B(  3-C ,  4-C ) :   0.9251
B(  3-C ,  7-N ) :   0.9684 B(  3-C ,  9-H ) :   0.9100 B(  4-C ,  5-C ) :   0.9900
B(  4-C , 10-H ) :   0.9211 B(  4-C , 11-H ) :   0.9226 B(  5-C ,  6-C ) :   0.9251
B(  5-C , 12-H ) :   0.9211 B(  5-C , 13-H ) :   0.9226 B(  6-C ,  7-N ) :   0.9684
B(  6-C , 14-H ) :   0.9100 B(  7-N , 15-H ) :   0.8749

MP2 TOTAL ENERGY:     -342.176673338 Eh
FINAL SINGLE POINT ENERGY      -342.176673337853

DIPOLE MOMENT
-------------
                                X             Y             Z
Electronic contribution:     -2.61226      -3.06617      -2.75788
Nuclear contribution   :      2.52123       4.20555       2.68568
                        -----------------------------------------
Total Dipole Moment    :     -0.09103       1.13938      -0.07220
                        -----------------------------------------
Magnitude (a.u.)       :      1.14529
Magnitude (Debye)      :      2.91110

                             ****ORCA TERMINATED NORMALLY****
TOTAL RUN TIME: 0 days 0 hours 12 minutes 13 seconds 853 msec
