                         Program Version 3.0.3 - RELEASE   -
|  1> ! RI-MP2 RIJK def2-TZVP def2-TZVP/C def2-TZVP/JK TIGHTSCF
|  2> % maxcore 2000
|  3> % mp2 density relaxed end
|  4> *xyz 0 1
|  5>  C        0.5519788569     1.4226741491     0.0656444266
|  6>  N        0.5499051421    -0.0242766929    -0.0274964099
|  7>  C        0.0795648714    -0.6907770306    -1.1214379804
|  8>  O       -0.3831786787    -0.1231116905    -2.0972386179
|  9>  C        0.1873659047    -2.2177640357    -1.0577136392
| 10>  C       -1.1967427173    -2.8264948137    -1.3322604748
| 11>  C        1.2594073995    -2.6611602189    -2.0764959285
| 12>  C        1.5685545983    -4.1598909238    -2.0708628247
| 13>  O        2.6746264723    -4.4815258403    -2.9008174489
| 14>  H        1.5696383535     1.8162514849     0.1676608467
| 15>  H        0.1125665246     1.8045110161    -0.8565588140
| 16>  H       -0.0442484973     1.7688448611     0.9172771378
| 17>  H        0.9172101852    -0.5597264750     0.7408269028
| 18>  H        0.5180822645    -2.5199030474    -0.0542028153
| 19>  H       -1.1684321497    -3.9187371073    -1.3083949489
| 20>  H       -1.9235953968    -2.4954581543    -0.5837318218
| 21>  H       -1.5554346839    -2.5008584247    -2.3120410326
| 22>  H        0.9321649892    -2.3493268974    -3.0766234240
| 23>  H        2.1976147897    -2.1306252381    -1.8736662613
| 24>  H        1.8558388979    -4.4813565631    -1.0627056484
| 25>  H        0.6809704754    -4.7442927276    -2.3551429069
| 26>  H        2.4426787286    -4.2395634402    -3.8032271563
| 27> *
| 28>
| 29>                          ****END OF INPUT****

CARTESIAN COORDINATES (ANGSTROEM)
---------------------------------
  C      0.551979    1.422674    0.065644
  N      0.549905   -0.024277   -0.027496
  C      0.079565   -0.690777   -1.121438
  O     -0.383179   -0.123112   -2.097239
  C      0.187366   -2.217764   -1.057714
  C     -1.196743   -2.826495   -1.332260
  C      1.259407   -2.661160   -2.076496
  C      1.568555   -4.159891   -2.070863
  O      2.674626   -4.481526   -2.900817
  H      1.569638    1.816251    0.167661
  H      0.112567    1.804511   -0.856559
  H     -0.044248    1.768845    0.917277
  H      0.917210   -0.559726    0.740827
  H      0.518082   -2.519903   -0.054203
  H     -1.168432   -3.918737   -1.308395
  H     -1.923595   -2.495458   -0.583732
  H     -1.555435   -2.500858   -2.312041
  H      0.932165   -2.349327   -3.076623
  H      2.197615   -2.130625   -1.873666
  H      1.855839   -4.481357   -1.062706
  H      0.680970   -4.744293   -2.355143
  H      2.442679   -4.239563   -3.803227

 Total Charge           Charge          ....    0
 Multiplicity           Mult            ....    1
 Number of Electrons    NEL             ....   72
 Basis Dimension        Dim             ....  357

ORBITAL ENERGIES
----------------

  NO   OCC          E(Eh)            E(eV)
   0   2.0000     -20.556536      -559.3718
   1   2.0000     -20.511169      -558.1373
   2   2.0000     -15.586090      -424.1191
   3   2.0000     -11.344194      -308.6912
   4   2.0000     -11.278209      -306.8957
   5   2.0000     -11.258887      -306.3699
   6   2.0000     -11.249654      -306.1187
   7   2.0000     -11.229772      -305.5776
   8   2.0000     -11.222267      -305.3734
   9   2.0000      -1.377950       -37.4959
  10   2.0000      -1.360564       -37.0228
  11   2.0000      -1.228944       -33.4413
  12   2.0000      -1.092732       -29.7347
  13   2.0000      -0.984540       -26.7907
  14   2.0000      -0.955347       -25.9963
  15   2.0000      -0.885384       -24.0925
  16   2.0000      -0.820002       -22.3134
  17   2.0000      -0.779696       -21.2166
  18   2.0000      -0.701456       -19.0876
  19   2.0000      -0.690678       -18.7943
  20   2.0000      -0.654469       -17.8090
  21   2.0000      -0.630779       -17.1644
  22   2.0000      -0.623324       -16.9615
  23   2.0000      -0.608437       -16.5564
  24   2.0000      -0.592226       -16.1153
  25   2.0000      -0.581663       -15.8278
  26   2.0000      -0.556595       -15.1457
  27   2.0000      -0.546060       -14.8591
  28   2.0000      -0.533744       -14.5239
  29   2.0000      -0.521104       -14.1799
  30   2.0000      -0.499199       -13.5839
  31   2.0000      -0.483083       -13.1454
  32   2.0000      -0.473381       -12.8814
  33   2.0000      -0.448876       -12.2145
  34   2.0000      -0.411328       -11.1928
  35   2.0000      -0.392777       -10.6880
  36   0.0000       0.119689         3.2569
  37   0.0000       0.139528         3.7967
  38   0.0000       0.154033         4.1915
  39   0.0000       0.161074         4.3830
  40   0.0000       0.181339         4.9345

MULLIKEN ATOMIC CHARGES
-----------------------
   0 C :   -0.286418
   1 N :   -0.319928
   2 C :    0.295259
   3 O :   -0.389504
   4 C :   -0.061487
   5 C :   -0.432850
   6 C :   -0.264416
   7 C :   -0.026414
   8 O :   -0.468928
   9 H :    0.134621
  10 H :    0.178038
  11 H :    0.134191
  12 H :    0.238582
  13 H :    0.076316
  14 H :    0.133390
  15 H :    0.132030
  16 H :    0.152090
  17 H :    0.126071
  18 H :    0.122360
  19 H :    0.105305
  20 H :    0.107403
  21 H :    0.314291
Sum of atomic charges:    0.0000000

LOEWDIN ATOMIC CHARGES
----------------------
   0 C :   -0.313431
   1 N :    0.083080
   2 C :   -0.438611
   3 O :    0.076745
   4 C :   -0.250943
   5 C :   -0.283542
   6 C :   -0.254497
   7 C :   -0.348069
   8 O :   -0.051634
   9 H :    0.115086
  10 H :    0.135234
  11 H :    0.114990
  12 H :    0.182690
  13 H :    0.147502
  14 H :    0.120794
  15 H :    0.126420
  16 H :    0.133855
  17 H :    0.144233
  18 H :    0.144218
  19 H :    0.127390
  20 H :    0.114806
  21 H :    0.173687

  Mayer bond orders larger than 0.1
B(  0-C ,  1-N ) :   0.8501 B(  0-C ,  9-H ) :   0.9356 B(  0-C , 10-H ) :   0.9263
B(  0-C , 11-H ) :   0.9340 B(  1-N ,  2-C ) :   1.1711 B(  1-N , 12-H ) :   0.8748
B(  2-C ,  3-O ) :   1.9171 B(  2-C ,  4-C ) :   0.8722 B(  4-C ,  5-C ) :   0.9000
B(  4-C ,  6-C ) :   0.9000 B(  4-C , 13-H ) :   0.9306 B(  5-C , 14-H ) :   0.9399
B(  5-C , 15-H ) :   0.9345 B(  5-C , 16-H ) :   0.9317 B(  6-C ,  7-C ) :   0.9221
B(  6-C , 17-H ) :   0.9206 B(  6-C , 18-H ) :   0.9184 B(  7-C ,  8-O ) :   0.9305
B(  7-C , 19-H ) :   0.9172 B(  7-C , 20-H ) :   0.9466 B(  8-O , 21-H ) :   0.8472

MP2 TOTAL ENERGY:     -440.799782258 Eh
FINAL SINGLE POINT ENERGY      -440.799782258264

DIPOLE MOMENT
-------------
                                X             Y             Z
Electronic contribution:      1.34477       1.48607      -1.84614
Nuclear contribution   :     -1.32699      -1.42318       2.87051
                        -----------------------------------------
Total Dipole Moment    :      0.01778       0.06289       1.02437
                        -----------------------------------------
Magnitude (a.u.)       :      1.02645
Magnitude (Debye)      :      2.60904

                             ****ORCA TERMINATED NORMALLY****
TOTAL RUN TIME: 0 days 0 hours 17 minutes 3 seconds 309 msec
