                         Program Version 3.0.3 - RELEASE   -
|  1> ! RI-MP2 RIJK def2-TZVP def2-TZVP/C def2-TZVP/JK TIGHTSCF
|  2> % maxcore 2000
|  3> % mp2 density relaxed end
|  4> *xyz 0 1
|  5>  O       -0.0858069225     1.4401207482    -0.0483598998
|  6>  C       -0.0161731894     0.0370439028     0.0119435749
|  7>  C        0.9026193575    -0.5190864242    -1.0982978322
|  8>  C        2.2593347258     0.0039994096    -0.9568243148
|  9>  N        3.3079646787     0.4640101520    -0.7979678446
| 10>  C        0.2080433630    -0.6420459724     1.3984209584
| 11>  N       -1.0940274069    -1.3932093015     1.2930557746
| 12>  C       -2.1309263597    -0.3487138761     1.2372609638
| 13>  C       -1.3814779600    -0.6357648982     0.0011774846
| 14>  H        0.8044139609     1.7987734477     0.0600352676
| 15>  H        0.9252204308    -1.6130378439    -1.0675080237
| 16>  H        0.5063721547    -0.2173596660    -2.0741512289
| 17>  H        1.0532296029    -1.3321265715     1.4381324307
| 18>  H        0.2533822518     0.0434279819     2.2496370724
| 19>  H       -3.1381459080    -0.7477998443     1.3029226597
| 20>  H       -1.9697641720     0.5912000806     1.7584942382
| 21>  H       -1.8278699877    -1.1194665648    -0.8622445807
| 22> *
| 23>
| 24>                          ****END OF INPUT****

CARTESIAN COORDINATES (ANGSTROEM)
---------------------------------
  O     -0.085807    1.440121   -0.048360
  C     -0.016173    0.037044    0.011944
  C      0.902619   -0.519086   -1.098298
  C      2.259335    0.003999   -0.956824
  N      3.307965    0.464010   -0.797968
  C      0.208043   -0.642046    1.398421
  N     -1.094027   -1.393209    1.293056
  C     -2.130926   -0.348714    1.237261
  C     -1.381478   -0.635765    0.001177
  H      0.804414    1.798773    0.060035
  H      0.925220   -1.613038   -1.067508
  H      0.506372   -0.217360   -2.074151
  H      1.053230   -1.332127    1.438132
  H      0.253382    0.043428    2.249637
  H     -3.138146   -0.747800    1.302923
  H     -1.969764    0.591200    1.758494
  H     -1.827870   -1.119467   -0.862245

 Total Charge           Charge          ....    0
 Multiplicity           Mult            ....    1
 Number of Electrons    NEL             ....   66
 Basis Dimension        Dim             ....  327

ORBITAL ENERGIES
----------------

  NO   OCC          E(Eh)            E(eV)
   0   2.0000     -20.582187      -560.0698
   1   2.0000     -15.585025      -424.0901
   2   2.0000     -15.579956      -423.9522
   3   2.0000     -11.327775      -308.2444
   4   2.0000     -11.294510      -307.3393
   5   2.0000     -11.288280      -307.1697
   6   2.0000     -11.278487      -306.9032
   7   2.0000     -11.272401      -306.7376
   8   2.0000     -11.270789      -306.6938
   9   2.0000      -1.398805       -38.0634
  10   2.0000      -1.303243       -35.4631
  11   2.0000      -1.234149       -33.5829
  12   2.0000      -1.086956       -29.5776
  13   2.0000      -0.992980       -27.0204
  14   2.0000      -0.936714       -25.4893
  15   2.0000      -0.848247       -23.0820
  16   2.0000      -0.774478       -21.0746
  17   2.0000      -0.720602       -19.6086
  18   2.0000      -0.712445       -19.3866
  19   2.0000      -0.703560       -19.1449
  20   2.0000      -0.655460       -17.8360
  21   2.0000      -0.642614       -17.4864
  22   2.0000      -0.601053       -16.3555
  23   2.0000      -0.592810       -16.1312
  24   2.0000      -0.571366       -15.5477
  25   2.0000      -0.559076       -15.2132
  26   2.0000      -0.527208       -14.3460
  27   2.0000      -0.489732       -13.3263
  28   2.0000      -0.480229       -13.0677
  29   2.0000      -0.473212       -12.8768
  30   2.0000      -0.455167       -12.3857
  31   2.0000      -0.441937       -12.0257
  32   2.0000      -0.394254       -10.7282
  33   0.0000       0.118051         3.2123
  34   0.0000       0.148860         4.0507
  35   0.0000       0.155172         4.2224
  36   0.0000       0.163501         4.4491
  37   0.0000       0.169982         4.6255

MULLIKEN ATOMIC CHARGES
-----------------------
   0 O :   -0.455126
   1 C :    0.260027
   2 C :   -0.188805
   3 C :   -0.219751
   4 N :   -0.045252
   5 C :   -0.199403
   6 N :   -0.229586
   7 C :   -0.146979
   8 C :   -0.125927
   9 H :    0.331438
  10 H :    0.183000
  11 H :    0.164487
  12 H :    0.135860
  13 H :    0.126445
  14 H :    0.136595
  15 H :    0.137217
  16 H :    0.135759
Sum of atomic charges:   -0.0000000

LOEWDIN ATOMIC CHARGES
----------------------
   0 O :    0.031220
   1 C :   -0.361101
   2 C :   -0.208571
   3 C :   -0.198999
   4 N :    0.062354
   5 C :   -0.205871
   6 N :    0.101149
   7 C :   -0.238491
   8 C :   -0.181733
   9 H :    0.185145
  10 H :    0.173870
  11 H :    0.170840
  12 H :    0.134230
  13 H :    0.129123
  14 H :    0.136452
  15 H :    0.133200
  16 H :    0.137182

  Mayer bond orders larger than 0.1
B(  0-O ,  1-C ) :   1.0243 B(  0-O ,  9-H ) :   0.8257 B(  1-C ,  2-C ) :   0.8910
B(  1-C ,  5-C ) :   0.9322 B(  1-C ,  8-C ) :   0.9134 B(  2-C ,  3-C ) :   0.9303
B(  2-C , 10-H ) :   0.9035 B(  2-C , 11-H ) :   0.8979 B(  3-C ,  4-N ) :   2.8576
B(  5-C ,  6-N ) :   0.9195 B(  5-C , 12-H ) :   0.9100 B(  5-C , 13-H ) :   0.9258
B(  6-N ,  7-C ) :   0.8918 B(  6-N ,  8-C ) :   0.8906 B(  7-C ,  8-C ) :   0.9567
B(  7-C , 14-H ) :   0.9303 B(  7-C , 15-H ) :   0.8986 B(  8-C , 16-H ) :   0.8998

MP2 TOTAL ENERGY:     -417.270545990 Eh
FINAL SINGLE POINT ENERGY      -417.270545989677

DIPOLE MOMENT
-------------
                                X             Y             Z
Electronic contribution:      3.80222       1.13563      -1.82893
Nuclear contribution   :     -4.64741      -1.33560       1.65600
                        -----------------------------------------
Total Dipole Moment    :     -0.84519      -0.19997      -0.17293
                        -----------------------------------------
Magnitude (a.u.)       :      0.88558
Magnitude (Debye)      :      2.25096

                             ****ORCA TERMINATED NORMALLY****
TOTAL RUN TIME: 0 days 0 hours 16 minutes 49 seconds 486 msec
