                         Program Version 3.0.3 - RELEASE   -
|  1> ! RI-MP2 RIJK def2-TZVP def2-TZVP/C def2-TZVP/JK TIGHTSCF
|  2> % maxcore 2000
|  3> % mp2 density relaxed end
|  4> *xyz 0 1
|  5>  C        0.0541167763     1.5405813531    -0.0766441061
|  6>  C       -0.0012408490     0.0186497411     0.0506892977
|  7>  N       -1.3611772983    -0.5171200193     0.0231039294
|  8>  C       -1.3838577279    -1.9629467244    -0.1327849389
|  9>  C       -2.8175459787    -2.4068634328    -0.3566030994
| 10>  O       -3.6928030918    -1.9904034597     0.7003132345
| 11>  C       -3.5256219272    -0.7432073560     1.2229892439
| 12>  N       -4.4663207495    -0.1295780012     1.8055656148
| 13>  C       -2.1300254991    -0.1543751902     1.2090898529
| 14>  H        1.0936225479     1.8672697002    -0.1758267709
| 15>  H       -0.4999046322     1.8705397833    -0.9601599424
| 16>  H       -0.3634835054     2.0469916888     0.7978431680
| 17>  H        0.5350378387    -0.4277762805    -0.7944683731
| 18>  H        0.5350645271    -0.2991961497     0.9672165618
| 19>  H       -0.7882425124    -2.2453073775    -1.0075564712
| 20>  H       -0.9577666625    -2.4885262087     0.7455816906
| 21>  H       -3.1870494324    -1.9909920074    -1.3022071732
| 22>  H       -2.8957499741    -3.4962512540    -0.3931479456
| 23>  H       -5.3198227297    -0.6918924888     1.7734504125
| 24>  H       -1.6220533017    -0.5001856593     2.1347199305
| 25>  H       -2.2402751080     0.9265599328     1.2858654142
| 26> *
| 27>
| 28>                          ****END OF INPUT****

CARTESIAN COORDINATES (ANGSTROEM)
---------------------------------
  C      0.054117    1.540581   -0.076644
  C     -0.001241    0.018650    0.050689
  N     -1.361177   -0.517120    0.023104
  C     -1.383858   -1.962947   -0.132785
  C     -2.817546   -2.406863   -0.356603
  O     -3.692803   -1.990403    0.700313
  C     -3.525622   -0.743207    1.222989
  N     -4.466321   -0.129578    1.805566
  C     -2.130025   -0.154375    1.209090
  H      1.093623    1.867270   -0.175827
  H     -0.499905    1.870540   -0.960160
  H     -0.363484    2.046992    0.797843
  H      0.535038   -0.427776   -0.794468
  H      0.535065   -0.299196    0.967217
  H     -0.788243   -2.245307   -1.007556
  H     -0.957767   -2.488526    0.745582
  H     -3.187049   -1.990992   -1.302207
  H     -2.895750   -3.496251   -0.393148
  H     -5.319823   -0.691892    1.773450
  H     -1.622053   -0.500186    2.134720
  H     -2.240275    0.926560    1.285865

 Total Charge           Charge          ....    0
 Multiplicity           Mult            ....    1
 Number of Electrons    NEL             ....   70
 Basis Dimension        Dim             ....  351

ORBITAL ENERGIES
----------------

  NO   OCC          E(Eh)            E(eV)
   0   2.0000     -20.588883      -560.2520
   1   2.0000     -15.563042      -423.4919
   2   2.0000     -15.526797      -422.5056
   3   2.0000     -11.332962      -308.3856
   4   2.0000     -11.294046      -307.3266
   5   2.0000     -11.265927      -306.5615
   6   2.0000     -11.265001      -306.5363
   7   2.0000     -11.260837      -306.4230
   8   2.0000     -11.220766      -305.3326
   9   2.0000      -1.422758       -38.7152
  10   2.0000      -1.247945       -33.9583
  11   2.0000      -1.192595       -32.4522
  12   2.0000      -1.040640       -28.3172
  13   2.0000      -1.013624       -27.5821
  14   2.0000      -0.942211       -25.6389
  15   2.0000      -0.873357       -23.7653
  16   2.0000      -0.820505       -22.3271
  17   2.0000      -0.751252       -20.4426
  18   2.0000      -0.696952       -18.9650
  19   2.0000      -0.691731       -18.8230
  20   2.0000      -0.662119       -18.0172
  21   2.0000      -0.643677       -17.5153
  22   2.0000      -0.628881       -17.1127
  23   2.0000      -0.603970       -16.4349
  24   2.0000      -0.592195       -16.1145
  25   2.0000      -0.572226       -15.5711
  26   2.0000      -0.541265       -14.7286
  27   2.0000      -0.531798       -14.4710
  28   2.0000      -0.512827       -13.9547
  29   2.0000      -0.503931       -13.7127
  30   2.0000      -0.489088       -13.3088
  31   2.0000      -0.464713       -12.6455
  32   2.0000      -0.434685       -11.8284
  33   2.0000      -0.398751       -10.8506
  34   2.0000      -0.370450       -10.0805
  35   0.0000       0.130647         3.5551
  36   0.0000       0.149619         4.0713
  37   0.0000       0.159521         4.3408
  38   0.0000       0.166238         4.5236
  39   0.0000       0.181732         4.9452

MULLIKEN ATOMIC CHARGES
-----------------------
   0 C :   -0.396622
   1 C :   -0.127182
   2 N :   -0.153640
   3 C :   -0.184835
   4 C :   -0.015718
   5 O :   -0.266919
   6 C :    0.096145
   7 N :   -0.368498
   8 C :   -0.120859
   9 H :    0.132937
  10 H :    0.132624
  11 H :    0.135221
  12 H :    0.114729
  13 H :    0.089747
  14 H :    0.127926
  15 H :    0.098820
  16 H :    0.102851
  17 H :    0.125736
  18 H :    0.219672
  19 H :    0.112713
  20 H :    0.145152
Sum of atomic charges:    0.0000000

LOEWDIN ATOMIC CHARGES
----------------------
   0 C :   -0.316141
   1 C :   -0.312390
   2 N :    0.080415
   3 C :   -0.295953
   4 C :   -0.283917
   5 O :    0.230969
   6 C :   -0.410879
   7 N :   -0.053413
   8 C :   -0.243674
   9 H :    0.125009
  10 H :    0.125248
  11 H :    0.120302
  12 H :    0.133651
  13 H :    0.118810
  14 H :    0.141560
  15 H :    0.124541
  16 H :    0.129326
  17 H :    0.132189
  18 H :    0.166407
  19 H :    0.136374
  20 H :    0.151566

  Mayer bond orders larger than 0.1
B(  0-C ,  1-C ) :   0.9274 B(  0-C ,  9-H ) :   0.9352 B(  0-C , 10-H ) :   0.9336
B(  0-C , 11-H ) :   0.9409 B(  1-C ,  2-N ) :   0.9140 B(  1-C , 12-H ) :   0.9274
B(  1-C , 13-H ) :   0.9232 B(  2-N ,  3-C ) :   0.9103 B(  2-N ,  8-C ) :   0.8985
B(  3-C ,  4-C ) :   0.9616 B(  3-C , 14-H ) :   0.9162 B(  3-C , 15-H ) :   0.9140
B(  4-C ,  5-O ) :   0.8754 B(  4-C , 16-H ) :   0.9284 B(  4-C , 17-H ) :   0.9263
B(  5-O ,  6-C ) :   1.0998 B(  6-C ,  7-N ) :   2.0588 B(  6-C ,  8-C ) :   0.9220
B(  7-N , 18-H ) :   0.8576 B(  8-C , 19-H ) :   0.9031 B(  8-C , 20-H ) :   0.9112

MP2 TOTAL ENERGY:     -419.704946421 Eh
FINAL SINGLE POINT ENERGY      -419.704946421237

DIPOLE MOMENT
-------------
                                X             Y             Z
Electronic contribution:     -8.33325      -3.51133       2.02211
Nuclear contribution   :      9.32214       2.87747      -2.63875
                        -----------------------------------------
Total Dipole Moment    :      0.98889      -0.63385      -0.61664
                        -----------------------------------------
Magnitude (a.u.)       :      1.32662
Magnitude (Debye)      :      3.37200

                             ****ORCA TERMINATED NORMALLY****
TOTAL RUN TIME: 0 days 0 hours 19 minutes 30 seconds 255 msec
