                         Program Version 3.0.3 - RELEASE   -
|  1> ! RI-MP2 RIJK def2-TZVP def2-TZVP/C def2-TZVP/JK TIGHTSCF
|  2> % maxcore 2000
|  3> % mp2 density relaxed end
|  4> *xyz 0 1
|  5>  N        0.1114028642     1.4679171057    -0.0066191271
|  6>  C        0.0418898500     0.0219025944     0.0537848254
|  7>  C       -1.3946811429    -0.5346864887    -0.0012082455
|  8>  O       -2.3410837696     0.2149272902    -0.0751044320
|  9>  N       -1.5940507984    -1.9385235887     0.0260652026
| 10>  C       -2.9429318231    -2.3826052928    -0.1174088809
| 11>  N       -3.3174571107    -3.5269117658     0.2594293982
| 12>  C       -0.5077743231    -2.8399280955     0.1083571620
| 13>  O       -0.5739364433    -4.0258987763    -0.0365074539
| 14>  H       -0.3600808543     1.7898927619    -0.8472983650
| 15>  H       -0.4293327068     1.8608235856     0.7588263201
| 16>  H        0.6249933316    -0.4021000737    -0.7721510537
| 17>  H        0.5252698603    -0.3199160128     0.9767528409
| 18>  H       -3.5597618838    -1.6004739381    -0.5585085851
| 19>  H       -4.3103178917    -3.6429676886     0.0547474169
| 20>  H        0.4390344916    -2.3200663966     0.3179084470
| 21> *
| 22>
| 23>                          ****END OF INPUT****

CARTESIAN COORDINATES (ANGSTROEM)
---------------------------------
  N      0.111403    1.467917   -0.006619
  C      0.041890    0.021903    0.053785
  C     -1.394681   -0.534686   -0.001208
  O     -2.341084    0.214927   -0.075104
  N     -1.594051   -1.938524    0.026065
  C     -2.942932   -2.382605   -0.117409
  N     -3.317457   -3.526912    0.259429
  C     -0.507774   -2.839928    0.108357
  O     -0.573936   -4.025899   -0.036507
  H     -0.360081    1.789893   -0.847298
  H     -0.429333    1.860824    0.758826
  H      0.624993   -0.402100   -0.772151
  H      0.525270   -0.319916    0.976753
  H     -3.559762   -1.600474   -0.558509
  H     -4.310318   -3.642968    0.054747
  H      0.439034   -2.320066    0.317908

 Total Charge           Charge          ....    0
 Multiplicity           Mult            ....    1
 Number of Electrons    NEL             ....   68
 Basis Dimension        Dim             ....  321

ORBITAL ENERGIES
----------------

  NO   OCC          E(Eh)            E(eV)
   0   2.0000     -20.571077      -559.7675
   1   2.0000     -20.565493      -559.6155
   2   2.0000     -15.644530      -425.7093
   3   2.0000     -15.567072      -423.6016
   4   2.0000     -15.563406      -423.5018
   5   2.0000     -11.396062      -310.1026
   6   2.0000     -11.384221      -309.7804
   7   2.0000     -11.333032      -308.3875
   8   2.0000     -11.302332      -307.5521
   9   2.0000      -1.442770       -39.2598
  10   2.0000      -1.420746       -38.6605
  11   2.0000      -1.298559       -35.3356
  12   2.0000      -1.213678       -33.0259
  13   2.0000      -1.203432       -32.7470
  14   2.0000      -0.992219       -26.9997
  15   2.0000      -0.927944       -25.2506
  16   2.0000      -0.859427       -23.3862
  17   2.0000      -0.783173       -21.3112
  18   2.0000      -0.738757       -20.1026
  19   2.0000      -0.711667       -19.3655
  20   2.0000      -0.692066       -18.8321
  21   2.0000      -0.686527       -18.6814
  22   2.0000      -0.648525       -17.6473
  23   2.0000      -0.644746       -17.5444
  24   2.0000      -0.636041       -17.3076
  25   2.0000      -0.605271       -16.4702
  26   2.0000      -0.572129       -15.5684
  27   2.0000      -0.543766       -14.7966
  28   2.0000      -0.505248       -13.7485
  29   2.0000      -0.497288       -13.5319
  30   2.0000      -0.467274       -12.7152
  31   2.0000      -0.439309       -11.9542
  32   2.0000      -0.425085       -11.5672
  33   2.0000      -0.408706       -11.1215
  34   0.0000       0.105805         2.8791
  35   0.0000       0.114493         3.1155
  36   0.0000       0.121325         3.3014
  37   0.0000       0.147665         4.0182
  38   0.0000       0.151083         4.1112

MULLIKEN ATOMIC CHARGES
-----------------------
   0 N :   -0.495684
   1 C :   -0.179848
   2 C :    0.208282
   3 O :   -0.320825
   4 N :   -0.060250
   5 C :   -0.023955
   6 N :   -0.300136
   7 C :    0.120600
   8 O :   -0.232788
   9 H :    0.234332
  10 H :    0.235349
  11 H :    0.160337
  12 H :    0.154444
  13 H :    0.148106
  14 H :    0.231623
  15 H :    0.120413
Sum of atomic charges:    0.0000000

LOEWDIN ATOMIC CHARGES
----------------------
   0 N :   -0.154343
   1 C :   -0.328651
   2 C :   -0.382363
   3 O :    0.127727
   4 N :    0.200200
   5 C :   -0.280969
   6 N :   -0.030456
   7 C :   -0.351560
   8 O :    0.156166
   9 H :    0.159887
  10 H :    0.160219
  11 H :    0.146449
  12 H :    0.146104
  13 H :    0.133015
  14 H :    0.173122
  15 H :    0.125452

  Mayer bond orders larger than 0.1
B(  0-N ,  1-C ) :   1.0122 B(  0-N ,  9-H ) :   0.8927 B(  0-N , 10-H ) :   0.8920
B(  1-C ,  2-C ) :   0.9096 B(  1-C , 11-H ) :   0.9167 B(  1-C , 12-H ) :   0.9109
B(  2-C ,  3-O ) :   1.9350 B(  2-C ,  4-N ) :   1.0401 B(  4-N ,  5-C ) :   0.8984
B(  4-N ,  7-C ) :   0.9626 B(  5-C ,  6-N ) :   1.9677 B(  5-C , 13-H ) :   0.9178
B(  6-N , 14-H ) :   0.8520 B(  7-C ,  8-O ) :   2.0166 B(  7-C , 15-H ) :   0.9189

MP2 TOTAL ENERGY:     -470.476594423 Eh
FINAL SINGLE POINT ENERGY      -470.476594422595

DIPOLE MOMENT
-------------
                                X             Y             Z
Electronic contribution:     -2.58185      -4.44857      -0.01293
Nuclear contribution   :      2.44988       5.33178      -0.19732
                        -----------------------------------------
Total Dipole Moment    :     -0.13197       0.88321      -0.21025
                        -----------------------------------------
Magnitude (a.u.)       :      0.91743
Magnitude (Debye)      :      2.33192

                             ****ORCA TERMINATED NORMALLY****
TOTAL RUN TIME: 0 days 0 hours 13 minutes 42 seconds 98 msec
