                         Program Version 3.0.3 - RELEASE   -
|  1> ! RI-MP2 RIJK def2-TZVP def2-TZVP/C def2-TZVP/JK TIGHTSCF
|  2> % maxcore 2000
|  3> % mp2 density relaxed end
|  4> *xyz 0 1
|  5>  C        0.3571100594     1.4492939748     0.3744115878
|  6>  C        0.0398481545    -0.0253020044     0.1042422946
|  7>  O        0.5312095437    -0.7511918281     1.2268998830
|  8>  C       -1.4851129619    -0.1882147592     0.0903874381
|  9>  O       -2.1761487477    -0.3369468757    -0.8885619658
| 10>  C        0.6514879534    -0.4868885102    -1.2236364309
| 11>  O        0.1521457038     0.2152538032    -2.3249772972
| 12>  C        2.1011991307    -0.8397148084    -1.3019633867
| 13>  C        1.0528849582    -1.9281422596    -1.4421967693
| 14>  H        1.4269647230     1.5429244042     0.5789481290
| 15>  H        0.1050662487     2.0502648834    -0.5004609657
| 16>  H       -0.1923173796     1.8155677136     1.2466964449
| 17>  H        0.3341936447    -1.6857204808     1.0975009210
| 18>  H       -1.9258179062    -0.1725471500     1.1121193960
| 19>  H       -0.7969798868     0.0227566769    -2.3528287420
| 20>  H        2.6255196771    -0.5248796346    -2.1965081277
| 21>  H        2.6789320738    -0.8171700401    -0.3855129723
| 22>  H        0.9682203526    -2.6624874691    -0.6467603097
| 23>  H        0.8645659884    -2.3219014757    -2.4340658370
| 24> *
| 25>
| 26>                          ****END OF INPUT****

CARTESIAN COORDINATES (ANGSTROEM)
---------------------------------
  C      0.357110    1.449294    0.374412
  C      0.039848   -0.025302    0.104242
  O      0.531210   -0.751192    1.226900
  C     -1.485113   -0.188215    0.090387
  O     -2.176149   -0.336947   -0.888562
  C      0.651488   -0.486889   -1.223636
  O      0.152146    0.215254   -2.324977
  C      2.101199   -0.839715   -1.301963
  C      1.052885   -1.928142   -1.442197
  H      1.426965    1.542924    0.578948
  H      0.105066    2.050265   -0.500461
  H     -0.192317    1.815568    1.246696
  H      0.334194   -1.685720    1.097501
  H     -1.925818   -0.172547    1.112119
  H     -0.796980    0.022757   -2.352829
  H      2.625520   -0.524880   -2.196508
  H      2.678932   -0.817170   -0.385513
  H      0.968220   -2.662487   -0.646760
  H      0.864566   -2.321901   -2.434066

 Total Charge           Charge          ....    0
 Multiplicity           Mult            ....    1
 Number of Electrons    NEL             ....   70
 Basis Dimension        Dim             ....  339

ORBITAL ENERGIES
----------------

  NO   OCC          E(Eh)            E(eV)
   0   2.0000     -20.586370      -560.1836
   1   2.0000     -20.581645      -560.0550
   2   2.0000     -20.558243      -559.4182
   3   2.0000     -11.348973      -308.8213
   4   2.0000     -11.316107      -307.9269
   5   2.0000     -11.297918      -307.4320
   6   2.0000     -11.235182      -305.7249
   7   2.0000     -11.231253      -305.6179
   8   2.0000     -11.229710      -305.5760
   9   2.0000      -1.424465       -38.7617
  10   2.0000      -1.394079       -37.9348
  11   2.0000      -1.371969       -37.3332
  12   2.0000      -1.136000       -30.9121
  13   2.0000      -1.054776       -28.7019
  14   2.0000      -0.913476       -24.8569
  15   2.0000      -0.850659       -23.1476
  16   2.0000      -0.836788       -22.7702
  17   2.0000      -0.777717       -21.1628
  18   2.0000      -0.744000       -20.2453
  19   2.0000      -0.697722       -18.9860
  20   2.0000      -0.677008       -18.4223
  21   2.0000      -0.666792       -18.1443
  22   2.0000      -0.621100       -16.9010
  23   2.0000      -0.613223       -16.6866
  24   2.0000      -0.598185       -16.2774
  25   2.0000      -0.563802       -15.3418
  26   2.0000      -0.554760       -15.0958
  27   2.0000      -0.535815       -14.5803
  28   2.0000      -0.533020       -14.5042
  29   2.0000      -0.529020       -14.3954
  30   2.0000      -0.518725       -14.1152
  31   2.0000      -0.493251       -13.4220
  32   2.0000      -0.458751       -12.4832
  33   2.0000      -0.405800       -11.0424
  34   2.0000      -0.397439       -10.8149
  35   0.0000       0.102237         2.7820
  36   0.0000       0.136279         3.7083
  37   0.0000       0.162806         4.4302
  38   0.0000       0.171106         4.6560
  39   0.0000       0.184619         5.0237

MULLIKEN ATOMIC CHARGES
-----------------------
   0 C :   -0.403215
   1 C :    0.209868
   2 O :   -0.457343
   3 C :    0.061868
   4 O :   -0.296723
   5 C :    0.203813
   6 O :   -0.482397
   7 C :   -0.241816
   8 C :   -0.334480
   9 H :    0.143578
  10 H :    0.156698
  11 H :    0.139136
  12 H :    0.317797
  13 H :    0.116260
  14 H :    0.339465
  15 H :    0.140494
  16 H :    0.138069
  17 H :    0.110942
  18 H :    0.137985
Sum of atomic charges:   -0.0000000

LOEWDIN ATOMIC CHARGES
----------------------
   0 C :   -0.249287
   1 C :   -0.379357
   2 O :    0.034313
   3 C :   -0.245021
   4 O :    0.132937
   5 C :   -0.345559
   6 O :    0.035252
   7 C :   -0.197907
   8 C :   -0.216323
   9 H :    0.137139
  10 H :    0.138634
  11 H :    0.129866
  12 H :    0.177115
  13 H :    0.124056
  14 H :    0.181012
  15 H :    0.140837
  16 H :    0.139098
  17 H :    0.123985
  18 H :    0.139210

  Mayer bond orders larger than 0.1
B(  0-C ,  1-C ) :   0.8752 B(  0-C ,  9-H ) :   0.9298 B(  0-C , 10-H ) :   0.9281
B(  0-C , 11-H ) :   0.9296 B(  1-C ,  2-O ) :   0.8990 B(  1-C ,  3-C ) :   0.8652
B(  1-C ,  5-C ) :   0.9198 B(  2-O , 12-H ) :   0.8372 B(  3-C ,  4-O ) :   1.9133
B(  3-C , 13-H ) :   0.9412 B(  5-C ,  6-O ) :   0.9368 B(  5-C ,  7-C ) :   0.8619
B(  5-C ,  8-C ) :   0.8697 B(  6-O , 14-H ) :   0.8078 B(  7-C ,  8-C ) :   0.9099
B(  7-C , 15-H ) :   0.9164 B(  7-C , 16-H ) :   0.9201 B(  8-C , 17-H ) :   0.9198
B(  8-C , 18-H ) :   0.9223

MP2 TOTAL ENERGY:     -459.424613751 Eh
FINAL SINGLE POINT ENERGY      -459.424613751177

DIPOLE MOMENT
-------------
                                X             Y             Z
Electronic contribution:     -4.53235      -0.74757      -0.79711
Nuclear contribution   :      4.61120       0.37300       1.35274
                        -----------------------------------------
Total Dipole Moment    :      0.07885      -0.37457       0.55563
                        -----------------------------------------
Magnitude (a.u.)       :      0.67472
Magnitude (Debye)      :      1.71500

                             ****ORCA TERMINATED NORMALLY****
TOTAL RUN TIME: 0 days 0 hours 21 minutes 0 seconds 851 msec
