                         Program Version 3.0.3 - RELEASE   -
|  1> ! RI-MP2 RIJK def2-TZVP def2-TZVP/C def2-TZVP/JK TIGHTSCF
|  2> % maxcore 2000
|  3> % mp2 density relaxed end
|  4> *xyz 0 1
|  5>  C        0.2552817308     1.5810632219    -0.0838703825
|  6>  C        0.0535813173     0.0798111622     0.0586946109
|  7>  O        0.6116605497    -0.5630255724    -1.0895863769
|  8>  C        1.1362475116    -1.8641111106    -0.7617408058
|  9>  C        0.0727265588    -2.9395441689    -1.0227940876
| 10>  C        2.3796459830    -2.0706275384    -1.6228055751
| 11>  C        1.4333887625    -1.7731760384     0.7322861281
| 12>  N        2.2229324224    -0.5767407517     1.0868518221
| 13>  C        0.7522727924    -0.5678245383     1.2425174064
| 14>  H        1.3233104326     1.8109914117    -0.0748193333
| 15>  H       -0.1740129955     1.9328414187    -1.0259102075
| 16>  H       -0.2338099997     2.1153929616     0.7373981713
| 17>  H       -1.0241451059    -0.1461937252     0.1347439197
| 18>  H       -0.2346022320    -2.9108269571    -2.0718369918
| 19>  H        0.4593928950    -3.9410276305    -0.8048020343
| 20>  H       -0.8140032497    -2.7757581974    -0.4022110240
| 21>  H        3.1247396417    -1.3111574295    -1.3781681782
| 22>  H        2.8105057710    -3.0627234483    -1.4521847262
| 23>  H        2.1234000973    -1.9856665689    -2.6828242010
| 24>  H        1.5361039638    -2.6829508569     1.3150848515
| 25>  H        2.6521263685    -0.7205662003     1.9978199081
| 26>  H        0.3109094743    -0.5114656932     2.2321573362
| 27> *
| 28>
| 29>                          ****END OF INPUT****

CARTESIAN COORDINATES (ANGSTROEM)
---------------------------------
  C      0.255282    1.581063   -0.083870
  C      0.053581    0.079811    0.058695
  O      0.611661   -0.563026   -1.089586
  C      1.136248   -1.864111   -0.761741
  C      0.072727   -2.939544   -1.022794
  C      2.379646   -2.070628   -1.622806
  C      1.433389   -1.773176    0.732286
  N      2.222932   -0.576741    1.086852
  C      0.752273   -0.567825    1.242517
  H      1.323310    1.810991   -0.074819
  H     -0.174013    1.932841   -1.025910
  H     -0.233810    2.115393    0.737398
  H     -1.024145   -0.146194    0.134744
  H     -0.234602   -2.910827   -2.071837
  H      0.459393   -3.941028   -0.804802
  H     -0.814003   -2.775758   -0.402211
  H      3.124740   -1.311157   -1.378168
  H      2.810506   -3.062723   -1.452185
  H      2.123400   -1.985667   -2.682824
  H      1.536104   -2.682951    1.315085
  H      2.652126   -0.720566    1.997820
  H      0.310909   -0.511466    2.232157

 Total Charge           Charge          ....    0
 Multiplicity           Mult            ....    1
 Number of Electrons    NEL             ....   70
 Basis Dimension        Dim             ....  357

ORBITAL ENERGIES
----------------

  NO   OCC          E(Eh)            E(eV)
   0   2.0000     -20.539687      -558.9133
   1   2.0000     -15.560296      -423.4172
   2   2.0000     -11.282596      -307.0151
   3   2.0000     -11.276190      -306.8407
   4   2.0000     -11.259291      -306.3809
   5   2.0000     -11.258276      -306.3533
   6   2.0000     -11.213188      -305.1264
   7   2.0000     -11.205055      -304.9050
   8   2.0000     -11.202952      -304.8478
   9   2.0000      -1.374176       -37.3932
  10   2.0000      -1.255596       -34.1665
  11   2.0000      -1.067459       -29.0470
  12   2.0000      -0.999610       -27.2008
  13   2.0000      -0.936671       -25.4881
  14   2.0000      -0.917186       -24.9579
  15   2.0000      -0.865428       -23.5495
  16   2.0000      -0.781542       -21.2668
  17   2.0000      -0.749531       -20.3958
  18   2.0000      -0.722068       -19.6485
  19   2.0000      -0.647635       -17.6231
  20   2.0000      -0.619514       -16.8578
  21   2.0000      -0.612566       -16.6688
  22   2.0000      -0.585939       -15.9442
  23   2.0000      -0.555465       -15.1150
  24   2.0000      -0.550982       -14.9930
  25   2.0000      -0.540306       -14.7025
  26   2.0000      -0.517568       -14.0838
  27   2.0000      -0.507720       -13.8158
  28   2.0000      -0.499861       -13.6019
  29   2.0000      -0.497348       -13.5335
  30   2.0000      -0.479042       -13.0354
  31   2.0000      -0.469718       -12.7817
  32   2.0000      -0.453274       -12.3342
  33   2.0000      -0.409657       -11.1473
  34   2.0000      -0.374649       -10.1947
  35   0.0000       0.129175         3.5150
  36   0.0000       0.150774         4.1028
  37   0.0000       0.157649         4.2898
  38   0.0000       0.171299         4.6613
  39   0.0000       0.192738         5.2447

MULLIKEN ATOMIC CHARGES
-----------------------
   0 C :   -0.411861
   1 C :    0.126715
   2 O :   -0.324242
   3 C :    0.273256
   4 C :   -0.446655
   5 C :   -0.421887
   6 C :   -0.071797
   7 N :   -0.401149
   8 C :   -0.085004
   9 H :    0.148223
  10 H :    0.137911
  11 H :    0.115233
  12 H :    0.068404
  13 H :    0.141937
  14 H :    0.123753
  15 H :    0.133294
  16 H :    0.153925
  17 H :    0.116573
  18 H :    0.134612
  19 H :    0.136496
  20 H :    0.215996
  21 H :    0.136268
Sum of atomic charges:    0.0000000

LOEWDIN ATOMIC CHARGES
----------------------
   0 C :   -0.290163
   1 C :   -0.318708
   2 O :    0.218197
   3 C :   -0.370746
   4 C :   -0.267829
   5 C :   -0.266391
   6 C :   -0.218484
   7 N :    0.014701
   8 C :   -0.233657
   9 H :    0.130873
  10 H :    0.126888
  11 H :    0.123273
  12 H :    0.137541
  13 H :    0.130014
  14 H :    0.125594
  15 H :    0.126250
  16 H :    0.133070
  17 H :    0.124992
  18 H :    0.128274
  19 H :    0.140317
  20 H :    0.168883
  21 H :    0.137113

  Mayer bond orders larger than 0.1
B(  0-C ,  1-C ) :   0.8957 B(  0-C ,  9-H ) :   0.9429 B(  0-C , 10-H ) :   0.9375
B(  0-C , 11-H ) :   0.9312 B(  1-C ,  2-O ) :   0.9550 B(  1-C ,  8-C ) :   0.9424
B(  1-C , 12-H ) :   0.9198 B(  2-O ,  3-C ) :   0.9081 B(  3-C ,  4-C ) :   0.9086
B(  3-C ,  5-C ) :   0.8812 B(  3-C ,  6-C ) :   0.9063 B(  4-C , 13-H ) :   0.9389
B(  4-C , 14-H ) :   0.9333 B(  4-C , 15-H ) :   0.9332 B(  5-C , 16-H ) :   0.9439
B(  5-C , 17-H ) :   0.9339 B(  5-C , 18-H ) :   0.9357 B(  6-C ,  7-N ) :   0.9470
B(  6-C ,  8-C ) :   0.9125 B(  6-C , 19-H ) :   0.9140 B(  7-N ,  8-C ) :   0.9322
B(  7-N , 20-H ) :   0.8660 B(  8-C , 21-H ) :   0.9097

MP2 TOTAL ENERGY:     -403.658395362 Eh
FINAL SINGLE POINT ENERGY      -403.658395361580

DIPOLE MOMENT
-------------
                                X             Y             Z
Electronic contribution:      0.69679       1.05028       1.95714
Nuclear contribution   :     -0.94903      -1.59303      -1.04041
                        -----------------------------------------
Total Dipole Moment    :     -0.25224      -0.54275       0.91673
                        -----------------------------------------
Magnitude (a.u.)       :      1.09480
Magnitude (Debye)      :      2.78277

                             ****ORCA TERMINATED NORMALLY****
TOTAL RUN TIME: 0 days 0 hours 20 minutes 24 seconds 800 msec
