                         Program Version 3.0.3 - RELEASE   -
|  1> ! RI-MP2 RIJK def2-TZVP def2-TZVP/C def2-TZVP/JK TIGHTSCF
|  2> % maxcore 2000
|  3> % mp2 density relaxed end
|  4> *xyz 0 1
|  5>  O        0.3274107012     0.1263153004    -0.6012996843
|  6>  C        0.1621703924     1.2147444357    -0.1375571344
|  7>  C       -1.0402375079     1.9244194540     0.5176131235
|  8>  C       -0.1844024576     3.2175393617     0.6202803916
|  9>  C        0.6230953048     3.3492297947     1.9412244914
| 10>  C        1.7916173903     2.6152558615     1.2696400030
| 11>  C        3.2322449660     2.7665267206     1.4819631329
| 12>  O        2.5354197759     1.5737971108     1.8671366984
| 13>  C        1.0377847967     2.4766556622    -0.0662116474
| 14>  H       -1.8791293051     1.9989833337    -0.1826394670
| 15>  H       -1.4104351061     1.4918538144     1.4517133133
| 16>  H       -0.6151585906     4.1253656066     0.2038337087
| 17>  H        0.8599417988     4.3783738335     2.2235599918
| 18>  H        0.1949024067     2.8380852496     2.8079925486
| 19>  H        3.9178339918     2.6556548587     0.6428311360
| 20>  H        3.5938727102     3.3825534747     2.3047809144
| 21>  H        1.5542601125     2.7837279971    -0.9766528503
| 22> *
| 23>
| 24>                          ****END OF INPUT****

CARTESIAN COORDINATES (ANGSTROEM)
---------------------------------
  O      0.327411    0.126315   -0.601300
  C      0.162170    1.214744   -0.137557
  C     -1.040238    1.924419    0.517613
  C     -0.184402    3.217539    0.620280
  C      0.623095    3.349230    1.941224
  C      1.791617    2.615256    1.269640
  C      3.232245    2.766527    1.481963
  O      2.535420    1.573797    1.867137
  C      1.037785    2.476656   -0.066212
  H     -1.879129    1.998983   -0.182639
  H     -1.410435    1.491854    1.451713
  H     -0.615159    4.125366    0.203834
  H      0.859942    4.378374    2.223560
  H      0.194902    2.838085    2.807993
  H      3.917834    2.655655    0.642831
  H      3.593873    3.382553    2.304781
  H      1.554260    2.783728   -0.976653

 Total Charge           Charge          ....    0
 Multiplicity           Mult            ....    1
 Number of Electrons    NEL             ....   66
 Basis Dimension        Dim             ....  327

ORBITAL ENERGIES
----------------

  NO   OCC          E(Eh)            E(eV)
   0   2.0000     -20.577151      -559.9327
   1   2.0000     -20.553139      -559.2793
   2   2.0000     -11.334600      -308.4301
   3   2.0000     -11.308847      -307.7294
   4   2.0000     -11.291810      -307.2658
   5   2.0000     -11.256471      -306.3042
   6   2.0000     -11.250655      -306.1459
   7   2.0000     -11.245527      -306.0064
   8   2.0000     -11.244209      -305.9705
   9   2.0000      -1.424708       -38.7683
  10   2.0000      -1.396109       -37.9901
  11   2.0000      -1.180131       -32.1130
  12   2.0000      -1.017384       -27.6844
  13   2.0000      -0.945374       -25.7249
  14   2.0000      -0.918618       -24.9969
  15   2.0000      -0.838900       -22.8276
  16   2.0000      -0.785636       -21.3782
  17   2.0000      -0.717234       -19.5169
  18   2.0000      -0.702276       -19.1099
  19   2.0000      -0.681914       -18.5558
  20   2.0000      -0.664005       -18.0685
  21   2.0000      -0.636968       -17.3328
  22   2.0000      -0.609506       -16.5855
  23   2.0000      -0.591005       -16.0821
  24   2.0000      -0.577379       -15.7113
  25   2.0000      -0.526560       -14.3284
  26   2.0000      -0.512003       -13.9323
  27   2.0000      -0.504865       -13.7381
  28   2.0000      -0.479483       -13.0474
  29   2.0000      -0.459219       -12.4960
  30   2.0000      -0.443381       -12.0650
  31   2.0000      -0.434324       -11.8186
  32   2.0000      -0.392082       -10.6691
  33   0.0000       0.120357         3.2751
  34   0.0000       0.137720         3.7475
  35   0.0000       0.154169         4.1951
  36   0.0000       0.162886         4.4323
  37   0.0000       0.170051         4.6273

MULLIKEN ATOMIC CHARGES
-----------------------
   0 O :   -0.240738
   1 C :    0.092958
   2 C :   -0.250202
   3 C :   -0.075035
   4 C :   -0.238907
   5 C :    0.058164
   6 C :   -0.076938
   7 O :   -0.319612
   8 C :    0.006738
   9 H :    0.142022
  10 H :    0.137023
  11 H :    0.132392
  12 H :    0.130670
  13 H :    0.121318
  14 H :    0.120586
  15 H :    0.118608
  16 H :    0.140952
Sum of atomic charges:   -0.0000000

LOEWDIN ATOMIC CHARGES
----------------------
   0 O :    0.175662
   1 C :   -0.290802
   2 C :   -0.188811
   3 C :   -0.163198
   4 C :   -0.175767
   5 C :   -0.295015
   6 C :   -0.233149
   7 O :    0.179879
   8 C :   -0.109687
   9 H :    0.150108
  10 H :    0.142152
  11 H :    0.136050
  12 H :    0.139863
  13 H :    0.139979
  14 H :    0.123418
  15 H :    0.122267
  16 H :    0.147050

  Mayer bond orders larger than 0.1
B(  0-O ,  1-C ) :   2.0402 B(  1-C ,  2-C ) :   0.9137 B(  1-C ,  8-C ) :   0.8094
B(  2-C ,  3-C ) :   0.9263 B(  2-C ,  8-C ) :  -0.1117 B(  2-C ,  9-H ) :   0.8981
B(  2-C , 10-H ) :   0.8966 B(  3-C ,  4-C ) :   0.9496 B(  3-C ,  8-C ) :   0.9105
B(  3-C , 11-H ) :   0.9171 B(  4-C ,  5-C ) :   0.9256 B(  4-C , 12-H ) :   0.9153
B(  4-C , 13-H ) :   0.8998 B(  5-C ,  6-C ) :   0.9781 B(  5-C ,  7-O ) :   0.9157
B(  5-C ,  8-C ) :   0.8631 B(  6-C ,  7-O ) :   0.9047 B(  6-C , 14-H ) :   0.9129
B(  6-C , 15-H ) :   0.9120 B(  8-C , 16-H ) :   0.8971

MP2 TOTAL ENERGY:     -421.075319435 Eh
FINAL SINGLE POINT ENERGY      -421.075319435014

DIPOLE MOMENT
-------------
                                X             Y             Z
Electronic contribution:      1.19961      -4.67096      -1.95853
Nuclear contribution   :     -1.38520       6.31387       2.12004
                        -----------------------------------------
Total Dipole Moment    :     -0.18558       1.64291       0.16151
                        -----------------------------------------
Magnitude (a.u.)       :      1.66123
Magnitude (Debye)      :      4.22251

                             ****ORCA TERMINATED NORMALLY****
TOTAL RUN TIME: 0 days 0 hours 18 minutes 15 seconds 727 msec
