                         Program Version 3.0.3 - RELEASE   -
|  1> ! RI-MP2 RIJK def2-TZVP def2-TZVP/C def2-TZVP/JK TIGHTSCF
|  2> % maxcore 2000
|  3> % mp2 density relaxed end
|  4> *xyz 0 1
|  5>  N       -0.1041131509     1.2941055667     0.0124548765
|  6>  C       -0.0197272171     0.0241234334     0.0045038688
|  7>  N        1.0909035178    -0.8241197988    -0.0075327270
|  8>  C        0.6447305094    -2.1406596323    -0.0123057935
|  9>  N       -0.6260702529    -2.2872954017    -0.0050879365
| 10>  C       -1.1590307403    -0.9474331410     0.0060925065
| 11>  C       -2.4380198390    -0.6421779659     0.7625085036
| 12>  C       -2.4474982264    -0.6334942066    -0.7304225769
| 13>  H        0.8108887669     1.7446265148     0.0092475533
| 14>  H        2.0512319846    -0.5254516561    -0.0117741496
| 15>  H        1.3601416789    -2.9552898944    -0.0215908971
| 16>  H       -2.8929278116    -1.4799710154     1.2771108102
| 17>  H       -2.4550636148     0.3105834663     1.2797548723
| 18>  H       -2.4710354356     0.3252188540    -1.2362924582
| 19>  H       -2.9089675291    -1.4652754429    -1.2489203326
| 20> *
| 21>
| 22>                          ****END OF INPUT****

CARTESIAN COORDINATES (ANGSTROEM)
---------------------------------
  N     -0.104113    1.294106    0.012455
  C     -0.019727    0.024123    0.004504
  N      1.090904   -0.824120   -0.007533
  C      0.644731   -2.140660   -0.012306
  N     -0.626070   -2.287295   -0.005088
  C     -1.159031   -0.947433    0.006093
  C     -2.438020   -0.642178    0.762509
  C     -2.447498   -0.633494   -0.730423
  H      0.810889    1.744627    0.009248
  H      2.051232   -0.525452   -0.011774
  H      1.360142   -2.955290   -0.021591
  H     -2.892928   -1.479971    1.277111
  H     -2.455064    0.310583    1.279755
  H     -2.471035    0.325219   -1.236292
  H     -2.908968   -1.465275   -1.248920

 Total Charge           Charge          ....    0
 Multiplicity           Mult            ....    1
 Number of Electrons    NEL             ....   58
 Basis Dimension        Dim             ....  290

ORBITAL ENERGIES
----------------

  NO   OCC          E(Eh)            E(eV)
   0   2.0000     -15.609727      -424.7623
   1   2.0000     -15.554833      -423.2685
   2   2.0000     -15.529102      -422.5684
   3   2.0000     -11.325414      -308.1802
   4   2.0000     -11.323011      -308.1148
   5   2.0000     -11.268582      -306.6337
   6   2.0000     -11.232027      -305.6390
   7   2.0000     -11.231312      -305.6195
   8   2.0000      -1.344249       -36.5789
   9   2.0000      -1.209179       -32.9034
  10   2.0000      -1.176953       -32.0265
  11   2.0000      -1.108265       -30.1574
  12   2.0000      -0.928654       -25.2700
  13   2.0000      -0.832550       -22.6548
  14   2.0000      -0.827438       -22.5157
  15   2.0000      -0.763140       -20.7661
  16   2.0000      -0.736824       -20.0500
  17   2.0000      -0.665380       -18.1059
  18   2.0000      -0.655936       -17.8489
  19   2.0000      -0.612853       -16.6766
  20   2.0000      -0.608582       -16.5603
  21   2.0000      -0.566325       -15.4105
  22   2.0000      -0.523016       -14.2320
  23   2.0000      -0.469250       -12.7689
  24   2.0000      -0.459535       -12.5046
  25   2.0000      -0.445662       -12.1271
  26   2.0000      -0.439629       -11.9629
  27   2.0000      -0.411347       -11.1933
  28   2.0000      -0.329707        -8.9718
  29   0.0000       0.120771         3.2863
  30   0.0000       0.133204         3.6247
  31   0.0000       0.164350         4.4722
  32   0.0000       0.178362         4.8535
  33   0.0000       0.194092         5.2815

MULLIKEN ATOMIC CHARGES
-----------------------
   0 N :   -0.393844
   1 C :    0.013280
   2 N :   -0.305455
   3 C :    0.074529
   4 N :   -0.280308
   5 C :    0.255553
   6 C :   -0.272498
   7 C :   -0.272492
   8 H :    0.203994
   9 H :    0.240965
  10 H :    0.150730
  11 H :    0.141680
  12 H :    0.151093
  13 H :    0.151091
  14 H :    0.141681
Sum of atomic charges:    0.0000000

LOEWDIN ATOMIC CHARGES
----------------------
   0 N :   -0.080514
   1 C :   -0.322332
   2 N :    0.133058
   3 C :   -0.285718
   4 N :    0.117505
   5 C :   -0.251512
   6 C :   -0.177904
   7 C :   -0.177904
   8 H :    0.157915
   9 H :    0.184391
  10 H :    0.133518
  11 H :    0.140708
  12 H :    0.144042
  13 H :    0.144042
  14 H :    0.140707

  Mayer bond orders larger than 0.1
B(  0-N ,  1-C ) :   2.0491 B(  0-N ,  5-C ) :  -0.1055 B(  0-N ,  8-H ) :   0.8576
B(  1-C ,  2-N ) :   1.0637 B(  1-C ,  5-C ) :   0.9065 B(  2-N ,  3-C ) :   1.0421
B(  2-N ,  9-H ) :   0.8665 B(  3-C ,  4-N ) :   1.7755 B(  3-C , 10-H ) :   0.9187
B(  4-N ,  5-C ) :   1.0118 B(  5-C ,  6-C ) :   0.7945 B(  5-C ,  7-C ) :   0.7945
B(  6-C ,  7-C ) :   0.9771 B(  6-C , 11-H ) :   0.9256 B(  6-C , 12-H ) :   0.9155
B(  7-C , 13-H ) :   0.9155 B(  7-C , 14-H ) :   0.9256

MP2 TOTAL ENERGY:     -358.230810886 Eh
FINAL SINGLE POINT ENERGY      -358.230810885750

DIPOLE MOMENT
-------------
                                X             Y             Z
Electronic contribution:      3.29310      -1.24732      -0.02820
Nuclear contribution   :     -2.08371       1.12074       0.01983
                        -----------------------------------------
Total Dipole Moment    :      1.20939      -0.12658      -0.00837
                        -----------------------------------------
Magnitude (a.u.)       :      1.21602
Magnitude (Debye)      :      3.09088

                             ****ORCA TERMINATED NORMALLY****
TOTAL RUN TIME: 0 days 0 hours 11 minutes 52 seconds 239 msec
