                         Program Version 3.0.3 - RELEASE   -
|  1> ! RI-MP2 RIJK def2-TZVP def2-TZVP/C def2-TZVP/JK TIGHTSCF
|  2> % maxcore 2000
|  3> % mp2 density relaxed end
|  4> *xyz 0 1
|  5>  C        0.0938439631     1.6698555969    -0.2154788132
|  6>  C        0.0353059293     0.1551419258     0.0113380372
|  7>  C        0.6872231320    -0.6785225141    -1.1265051793
|  8>  C        1.3522124242    -1.8916790651    -0.4337130691
|  9>  C        1.5043518896    -1.4267322207     0.9996150540
| 10>  C        2.3474388916    -2.1772894874     2.0009028020
| 11>  C        1.9290272173    -3.5684385296     2.1747903496
| 12>  C        1.5738702348    -4.7094456461     2.3031555002
| 13>  C        0.7868574125    -0.3278201878     1.2324689993
| 14>  H        1.1312019009     2.0106154827    -0.3076615561
| 15>  H       -0.4360734608     1.9511157047    -1.1319364839
| 16>  H       -0.3662175852     2.2161795061     0.6150364016
| 17>  H       -1.0245841053    -0.1259531696     0.1166415621
| 18>  H       -0.0275027916    -0.9666289370    -1.9020357502
| 19>  H        1.4587690375    -0.0682123363    -1.6099451507
| 20>  H        0.7223848050    -2.7904854906    -0.4736070244
| 21>  H        2.3084848364    -2.1712209674    -0.8925088985
| 22>  H        3.3985844476    -2.1677841755     1.6754962867
| 23>  H        2.3202965932    -1.6615862390     2.9680834792
| 24>  H        1.2642606791    -5.7177095020     2.4241616746
| 25>  H        0.7051074588     0.1651410219     2.1968490388
| 26> *
| 27>
| 28>                          ****END OF INPUT****

CARTESIAN COORDINATES (ANGSTROEM)
---------------------------------
  C      0.093844    1.669856   -0.215479
  C      0.035306    0.155142    0.011338
  C      0.687223   -0.678523   -1.126505
  C      1.352212   -1.891679   -0.433713
  C      1.504352   -1.426732    0.999615
  C      2.347439   -2.177289    2.000903
  C      1.929027   -3.568439    2.174790
  C      1.573870   -4.709446    2.303156
  C      0.786857   -0.327820    1.232469
  H      1.131202    2.010615   -0.307662
  H     -0.436073    1.951116   -1.131936
  H     -0.366218    2.216180    0.615036
  H     -1.024584   -0.125953    0.116642
  H     -0.027503   -0.966629   -1.902036
  H      1.458769   -0.068212   -1.609945
  H      0.722385   -2.790485   -0.473607
  H      2.308485   -2.171221   -0.892509
  H      3.398584   -2.167784    1.675496
  H      2.320297   -1.661586    2.968083
  H      1.264261   -5.717710    2.424162
  H      0.705107    0.165141    2.196849

 Total Charge           Charge          ....    0
 Multiplicity           Mult            ....    1
 Number of Electrons    NEL             ....   66
 Basis Dimension        Dim             ....  351

ORBITAL ENERGIES
----------------

  NO   OCC          E(Eh)            E(eV)
   0   2.0000     -11.257397      -306.3293
   1   2.0000     -11.233342      -305.6748
   2   2.0000     -11.233191      -305.6707
   3   2.0000     -11.228062      -305.5311
   4   2.0000     -11.220998      -305.3389
   5   2.0000     -11.218482      -305.2704
   6   2.0000     -11.217756      -305.2507
   7   2.0000     -11.217208      -305.2357
   8   2.0000     -11.212774      -305.1151
   9   2.0000      -1.144784       -31.1512
  10   2.0000      -1.069776       -29.1101
  11   2.0000      -1.008666       -27.4472
  12   2.0000      -0.977137       -26.5893
  13   2.0000      -0.936969       -25.4962
  14   2.0000      -0.875207       -23.8156
  15   2.0000      -0.774709       -21.0809
  16   2.0000      -0.723386       -19.6843
  17   2.0000      -0.709052       -19.2943
  18   2.0000      -0.657167       -17.8824
  19   2.0000      -0.638232       -17.3672
  20   2.0000      -0.623282       -16.9604
  21   2.0000      -0.594907       -16.1883
  22   2.0000      -0.573691       -15.6109
  23   2.0000      -0.564197       -15.3526
  24   2.0000      -0.520925       -14.1751
  25   2.0000      -0.512638       -13.9496
  26   2.0000      -0.483281       -13.1507
  27   2.0000      -0.480260       -13.0685
  28   2.0000      -0.470049       -12.7907
  29   2.0000      -0.456173       -12.4131
  30   2.0000      -0.385971       -10.5028
  31   2.0000      -0.384318       -10.4578
  32   2.0000      -0.339614        -9.2414
  33   0.0000       0.130677         3.5559
  34   0.0000       0.150153         4.0859
  35   0.0000       0.153773         4.1844
  36   0.0000       0.165849         4.5130
  37   0.0000       0.171527         4.6675

MULLIKEN ATOMIC CHARGES
-----------------------
   0 C :   -0.415464
   1 C :    0.055046
   2 C :   -0.265235
   3 C :   -0.194511
   4 C :    0.065054
   5 C :   -0.354741
   6 C :   -0.012135
   7 C :   -0.180979
   8 C :   -0.259866
   9 H :    0.124104
  10 H :    0.131706
  11 H :    0.127684
  12 H :    0.092989
  13 H :    0.123257
  14 H :    0.107753
  15 H :    0.125850
  16 H :    0.118716
  17 H :    0.151876
  18 H :    0.149558
  19 H :    0.187452
  20 H :    0.121886
Sum of atomic charges:    0.0000000

LOEWDIN ATOMIC CHARGES
----------------------
   0 C :   -0.296646
   1 C :   -0.256989
   2 C :   -0.214223
   3 C :   -0.209494
   4 C :   -0.154052
   5 C :   -0.211924
   6 C :   -0.102081
   7 C :   -0.108360
   8 C :   -0.116020
   9 H :    0.122312
  10 H :    0.123240
  11 H :    0.121981
  12 H :    0.153841
  13 H :    0.131468
  14 H :    0.139489
  15 H :    0.145285
  16 H :    0.137879
  17 H :    0.164986
  18 H :    0.163708
  19 H :    0.125828
  20 H :    0.139772

  Mayer bond orders larger than 0.1
B(  0-C ,  1-C ) :   0.8992 B(  0-C ,  9-H ) :   0.9342 B(  0-C , 10-H ) :   0.9396
B(  0-C , 11-H ) :   0.9399 B(  1-C ,  2-C ) :   0.9346 B(  1-C ,  8-C ) :   0.9151
B(  1-C , 12-H ) :   0.9147 B(  2-C ,  3-C ) :   0.9457 B(  2-C , 13-H ) :   0.9343
B(  2-C , 14-H ) :   0.9278 B(  3-C ,  4-C ) :   0.9252 B(  3-C , 15-H ) :   0.9038
B(  3-C , 16-H ) :   0.9268 B(  4-C ,  5-C ) :   0.9015 B(  4-C ,  8-C ) :   1.7494
B(  5-C ,  6-C ) :   1.0380 B(  5-C , 17-H ) :   0.9305 B(  5-C , 18-H ) :   0.9305
B(  6-C ,  7-C ) :   2.6331 B(  7-C , 19-H ) :   0.9093 B(  8-C , 20-H ) :   0.9146

MP2 TOTAL ENERGY:     -349.280813882 Eh
FINAL SINGLE POINT ENERGY      -349.280813882278

DIPOLE MOMENT
-------------
                                X             Y             Z
Electronic contribution:      1.92285      -6.52817       4.60409
Nuclear contribution   :     -1.93401       6.70513      -4.71116
                        -----------------------------------------
Total Dipole Moment    :     -0.01116       0.17696      -0.10707
                        -----------------------------------------
Magnitude (a.u.)       :      0.20713
Magnitude (Debye)      :      0.52649

                             ****ORCA TERMINATED NORMALLY****
TOTAL RUN TIME: 0 days 0 hours 17 minutes 57 seconds 752 msec
