                         Program Version 3.0.3 - RELEASE   -
|  1> ! RI-MP2 RIJK def2-TZVP def2-TZVP/C def2-TZVP/JK TIGHTSCF
|  2> % maxcore 2000
|  3> % mp2 density relaxed end
|  4> *xyz 0 1
|  5>  N        0.0858382585     1.3109961321    -0.3229503859
|  6>  C       -0.0186175894     0.1086049960     0.0001549894
|  7>  O        1.0127128297    -0.8301452217     0.3120459390
|  8>  C       -0.0483766059    -1.6942561281     0.8235467989
|  9>  C       -0.9046390413    -2.9933248795     0.7921827931
| 10>  C       -1.8293907505    -1.7558986042     1.2504672683
| 11>  C       -0.6846643900    -1.3276426377     2.1878852832
| 12>  C       -1.1303592280    -0.9532201683     0.0817016809
| 13>  H        1.0632076218     1.6087427461    -0.3466393968
| 14>  H       -1.1181924908    -3.4204031223    -0.1884851190
| 15>  H       -0.7212854572    -3.7580977290     1.5511148788
| 16>  H       -2.8910789006    -1.8262073665     1.4865634917
| 17>  H       -0.4627446582    -1.9819430849     3.0323559604
| 18>  H       -0.6540364950    -0.2713406735     2.4607503490
| 19>  H       -1.3561126929    -1.3203468585    -0.9220783411
| 20> *
| 21>
| 22>                          ****END OF INPUT****

CARTESIAN COORDINATES (ANGSTROEM)
---------------------------------
  N      0.085838    1.310996   -0.322950
  C     -0.018618    0.108605    0.000155
  O      1.012713   -0.830145    0.312046
  C     -0.048377   -1.694256    0.823547
  C     -0.904639   -2.993325    0.792183
  C     -1.829391   -1.755899    1.250467
  C     -0.684664   -1.327643    2.187885
  C     -1.130359   -0.953220    0.081702
  H      1.063208    1.608743   -0.346639
  H     -1.118192   -3.420403   -0.188485
  H     -0.721285   -3.758098    1.551115
  H     -2.891079   -1.826207    1.486563
  H     -0.462745   -1.981943    3.032356
  H     -0.654036   -0.271341    2.460750
  H     -1.356113   -1.320347   -0.922078

 Total Charge           Charge          ....    0
 Multiplicity           Mult            ....    1
 Number of Electrons    NEL             ....   58
 Basis Dimension        Dim             ....  290

ORBITAL ENERGIES
----------------

  NO   OCC          E(Eh)            E(eV)
   0   2.0000     -20.593292      -560.3720
   1   2.0000     -15.548034      -423.0835
   2   2.0000     -11.353120      -308.9341
   3   2.0000     -11.320401      -308.0438
   4   2.0000     -11.290445      -307.2286
   5   2.0000     -11.273514      -306.7679
   6   2.0000     -11.248977      -306.1002
   7   2.0000     -11.245800      -306.0138
   8   2.0000      -1.424839       -38.7718
   9   2.0000      -1.229697       -33.4618
  10   2.0000      -1.201991       -32.7078
  11   2.0000      -0.970955       -26.4210
  12   2.0000      -0.939570       -25.5670
  13   2.0000      -0.854414       -23.2498
  14   2.0000      -0.800087       -21.7715
  15   2.0000      -0.725503       -19.7419
  16   2.0000      -0.699521       -19.0349
  17   2.0000      -0.690786       -18.7972
  18   2.0000      -0.655354       -17.8331
  19   2.0000      -0.617910       -16.8142
  20   2.0000      -0.589558       -16.0427
  21   2.0000      -0.538616       -14.6565
  22   2.0000      -0.504263       -13.7217
  23   2.0000      -0.498072       -13.5532
  24   2.0000      -0.488240       -13.2857
  25   2.0000      -0.464298       -12.6342
  26   2.0000      -0.437217       -11.8973
  27   2.0000      -0.410577       -11.1724
  28   2.0000      -0.395256       -10.7555
  29   0.0000       0.135309         3.6820
  30   0.0000       0.144521         3.9326
  31   0.0000       0.163043         4.4366
  32   0.0000       0.170520         4.6401
  33   0.0000       0.179341         4.8801

MULLIKEN ATOMIC CHARGES
-----------------------
   0 N :   -0.337856
   1 C :    0.070638
   2 O :   -0.278586
   3 C :    0.152221
   4 C :   -0.192260
   5 C :   -0.132610
   6 C :   -0.227847
   7 C :   -0.086394
   8 H :    0.238100
   9 H :    0.133072
  10 H :    0.128347
  11 H :    0.154849
  12 H :    0.125320
  13 H :    0.136797
  14 H :    0.116210
Sum of atomic charges:    0.0000000

LOEWDIN ATOMIC CHARGES
----------------------
   0 N :   -0.030624
   1 C :   -0.336235
   2 O :    0.200778
   3 C :   -0.260165
   4 C :   -0.149228
   5 C :   -0.141988
   6 C :   -0.169051
   7 C :   -0.117742
   8 H :    0.177539
   9 H :    0.133731
  10 H :    0.130042
  11 H :    0.131235
  12 H :    0.132794
  13 H :    0.141041
  14 H :    0.157873

  Mayer bond orders larger than 0.1
B(  0-N ,  1-C ) :   2.0758 B(  0-N ,  8-H ) :   0.8421 B(  1-C ,  2-O ) :   1.0109
B(  1-C ,  7-C ) :   0.9026 B(  2-O ,  3-C ) :   0.8810 B(  3-C ,  4-C ) :   0.9098
B(  3-C ,  6-C ) :   0.9057 B(  3-C ,  7-C ) :   0.8360 B(  4-C ,  5-C ) :   0.8844
B(  4-C ,  9-H ) :   0.9216 B(  4-C , 10-H ) :   0.9276 B(  5-C ,  6-C ) :   0.8969
B(  5-C ,  7-C ) :   0.8703 B(  5-C , 11-H ) :   0.8805 B(  6-C , 12-H ) :   0.9282
B(  6-C , 13-H ) :   0.9119 B(  7-C , 14-H ) :   0.9298

MP2 TOTAL ENERGY:     -361.909157053 Eh
FINAL SINGLE POINT ENERGY      -361.909157053429

DIPOLE MOMENT
-------------
                                X             Y             Z
Electronic contribution:      2.77450       2.74428      -2.04973
Nuclear contribution   :     -3.07535      -3.68894       2.45660
                        -----------------------------------------
Total Dipole Moment    :     -0.30085      -0.94466       0.40687
                        -----------------------------------------
Magnitude (a.u.)       :      1.07165
Magnitude (Debye)      :      2.72392

                             ****ORCA TERMINATED NORMALLY****
TOTAL RUN TIME: 0 days 0 hours 11 minutes 35 seconds 597 msec
