                         Program Version 3.0.3 - RELEASE   -
|  1> ! RI-MP2 RIJK def2-TZVP def2-TZVP/C def2-TZVP/JK TIGHTSCF
|  2> % maxcore 2000
|  3> % mp2 density relaxed end
|  4> *xyz 0 1
|  5>  N       -0.1695211016     1.1355801935    -0.8553726093
|  6>  C       -0.0363243615     0.0734370148    -0.1944497158
|  7>  N        0.9657096621    -0.5998348737     0.4847820260
|  8>  C        0.1848824068    -1.8208747557     0.7431467815
|  9>  C        0.1202338737    -2.2589400841     2.1234315387
| 10>  C        0.0647430204    -2.6424460903     3.2600592900
| 11>  C       -1.0546781348    -1.0434148462     0.1256389801
| 12>  C       -2.1396189843    -0.7032760639     1.0246575877
| 13>  N       -3.0090911759    -0.4402094233     1.7383267655
| 14>  H        0.7017275864     1.6618344009    -0.9304902981
| 15>  H        1.9658518506    -0.5259303692     0.3701303328
| 16>  H        0.4660100289    -2.6590844615     0.0939710993
| 17>  H        0.0049606885    -2.9677009188     4.2698441558
| 18>  H       -1.4479114094    -1.5216258326    -0.7736994642
| 19> *
| 20>
| 21>                          ****END OF INPUT****

CARTESIAN COORDINATES (ANGSTROEM)
---------------------------------
  N     -0.169521    1.135580   -0.855373
  C     -0.036324    0.073437   -0.194450
  N      0.965710   -0.599835    0.484782
  C      0.184882   -1.820875    0.743147
  C      0.120234   -2.258940    2.123432
  C      0.064743   -2.642446    3.260059
  C     -1.054678   -1.043415    0.125639
  C     -2.139619   -0.703276    1.024658
  N     -3.009091   -0.440209    1.738327
  H      0.701728    1.661834   -0.930490
  H      1.965852   -0.525930    0.370130
  H      0.466010   -2.659084    0.093971
  H      0.004961   -2.967701    4.269844
  H     -1.447911   -1.521626   -0.773699

 Total Charge           Charge          ....    0
 Multiplicity           Mult            ....    1
 Number of Electrons    NEL             ....   62
 Basis Dimension        Dim             ....  309

ORBITAL ENERGIES
----------------

  NO   OCC          E(Eh)            E(eV)
   0   2.0000     -15.610951      -424.7956
   1   2.0000     -15.576801      -423.8663
   2   2.0000     -15.549972      -423.1363
   3   2.0000     -11.349792      -308.8435
   4   2.0000     -11.342122      -308.6348
   5   2.0000     -11.313736      -307.8624
   6   2.0000     -11.279948      -306.9430
   7   2.0000     -11.254989      -306.2638
   8   2.0000     -11.250884      -306.1521
   9   2.0000      -1.331104       -36.2212
  10   2.0000      -1.222326       -33.2612
  11   2.0000      -1.198788       -32.6207
  12   2.0000      -1.078833       -29.3565
  13   2.0000      -1.048803       -28.5394
  14   2.0000      -0.946440       -25.7539
  15   2.0000      -0.847109       -23.0510
  16   2.0000      -0.765230       -20.8230
  17   2.0000      -0.742301       -20.1990
  18   2.0000      -0.717846       -19.5336
  19   2.0000      -0.683618       -18.6022
  20   2.0000      -0.643263       -17.5041
  21   2.0000      -0.598499       -16.2860
  22   2.0000      -0.585319       -15.9273
  23   2.0000      -0.561030       -15.2664
  24   2.0000      -0.534590       -14.5469
  25   2.0000      -0.476801       -12.9744
  26   2.0000      -0.463824       -12.6213
  27   2.0000      -0.442122       -12.0307
  28   2.0000      -0.416275       -11.3274
  29   2.0000      -0.411345       -11.1933
  30   2.0000      -0.392361       -10.6767
  31   0.0000       0.104233         2.8363
  32   0.0000       0.127118         3.4591
  33   0.0000       0.141871         3.8605
  34   0.0000       0.149187         4.0596
  35   0.0000       0.153653         4.1811

MULLIKEN ATOMIC CHARGES
-----------------------
   0 N :   -0.356875
   1 C :    0.057327
   2 N :   -0.339390
   3 C :   -0.156447
   4 C :    0.007275
   5 C :   -0.092688
   6 C :    0.202981
   7 C :   -0.246373
   8 N :   -0.045058
   9 H :    0.219210
  10 H :    0.240259
  11 H :    0.145502
  12 H :    0.203257
  13 H :    0.161021
Sum of atomic charges:    0.0000000

LOEWDIN ATOMIC CHARGES
----------------------
   0 N :   -0.054480
   1 C :   -0.349478
   2 N :    0.134218
   3 C :   -0.199966
   4 C :   -0.089919
   5 C :   -0.054892
   6 C :   -0.130016
   7 C :   -0.156296
   8 N :    0.081961
   9 H :    0.168963
  10 H :    0.175030
  11 H :    0.161306
  12 H :    0.132496
  13 H :    0.181073

  Mayer bond orders larger than 0.1
B(  0-N ,  1-C ) :   2.0969 B(  0-N ,  9-H ) :   0.8453 B(  1-C ,  2-N ) :   1.1091
B(  1-C ,  6-C ) :   0.7769 B(  2-N ,  3-C ) :   0.9083 B(  2-N , 10-H ) :   0.8631
B(  3-C ,  4-C ) :   1.1154 B(  3-C ,  6-C ) :   0.8738 B(  3-C , 11-H ) :   0.9627
B(  4-C ,  5-C ) :   2.6111 B(  5-C , 12-H ) :   0.8847 B(  6-C ,  7-C ) :   0.9382
B(  6-C , 13-H ) :   0.8863 B(  7-C ,  8-N ) :   2.8506

MP2 TOTAL ENERGY:     -394.987015680 Eh
FINAL SINGLE POINT ENERGY      -394.987015679923

DIPOLE MOMENT
-------------
                                X             Y             Z
Electronic contribution:     -2.10368       0.39515       0.95887
Nuclear contribution   :      4.08922      -1.46894      -1.38926
                        -----------------------------------------
Total Dipole Moment    :      1.98554      -1.07379      -0.43039
                        -----------------------------------------
Magnitude (a.u.)       :      2.29796
Magnitude (Debye)      :      5.84096

                             ****ORCA TERMINATED NORMALLY****
TOTAL RUN TIME: 0 days 0 hours 14 minutes 11 seconds 311 msec
