                         Program Version 3.0.3 - RELEASE   -
|  1> ! RI-MP2 RIJK def2-TZVP def2-TZVP/C def2-TZVP/JK TIGHTSCF
|  2> % maxcore 2000
|  3> % mp2 density relaxed end
|  4> *xyz 0 1
|  5>  C       -0.1344749325     1.5097158748    -0.1805257166
|  6>  C       -0.0441986896     0.0261737808     0.0487948902
|  7>  O        1.2318288671    -0.5926342798    -0.1138660578
|  8>  C        0.6653962362    -0.5989431309     1.1925035116
|  9>  C        1.3454536059     0.1616468748     2.2667219689
| 10>  N        2.2295034577     1.1038238994     2.0201463679
| 11>  O        2.6265230872     1.5822328498     3.2642196682
| 12>  C        1.9733295438     0.9093260390     4.2203691764
| 13>  C        1.1441463809    -0.0102549407     3.6696330632
| 14>  H        0.6871614379     2.0338608241     0.3104735978
| 15>  H       -0.0927001004     1.7222691407    -1.2538094461
| 16>  H       -1.0872159779     1.8933036005     0.2003467206
| 17>  H       -0.8658933297    -0.5612147700    -0.3679377286
| 18>  H        0.3083588623    -1.5753135142     1.5242452716
| 19>  H        2.2043418039     1.1906572549     5.2361485554
| 20>  H        0.4913458973    -0.7061900933     4.1695234873
| 21> *
| 22>
| 23>                          ****END OF INPUT****

CARTESIAN COORDINATES (ANGSTROEM)
---------------------------------
  C     -0.134475    1.509716   -0.180526
  C     -0.044199    0.026174    0.048795
  O      1.231829   -0.592634   -0.113866
  C      0.665396   -0.598943    1.192504
  C      1.345454    0.161647    2.266722
  N      2.229503    1.103824    2.020146
  O      2.626523    1.582233    3.264220
  C      1.973330    0.909326    4.220369
  C      1.144146   -0.010255    3.669633
  H      0.687161    2.033861    0.310474
  H     -0.092700    1.722269   -1.253809
  H     -1.087216    1.893304    0.200347
  H     -0.865893   -0.561215   -0.367938
  H      0.308359   -1.575314    1.524245
  H      2.204342    1.190657    5.236149
  H      0.491346   -0.706190    4.169523

 Total Charge           Charge          ....    0
 Multiplicity           Mult            ....    1
 Number of Electrons    NEL             ....   66
 Basis Dimension        Dim             ....  321

ORBITAL ENERGIES
----------------

  NO   OCC          E(Eh)            E(eV)
   0   2.0000     -20.649859      -561.9112
   1   2.0000     -20.576631      -559.9186
   2   2.0000     -15.622787      -425.1176
   3   2.0000     -11.321868      -308.0837
   4   2.0000     -11.305479      -307.6377
   5   2.0000     -11.300330      -307.4976
   6   2.0000     -11.292145      -307.2749
   7   2.0000     -11.246154      -306.0234
   8   2.0000     -11.222405      -305.3772
   9   2.0000      -1.499523       -40.8041
  10   2.0000      -1.423989       -38.7487
  11   2.0000      -1.174990       -31.9731
  12   2.0000      -1.079593       -29.3772
  13   2.0000      -1.014582       -27.6082
  14   2.0000      -0.949702       -25.8427
  15   2.0000      -0.846588       -23.0368
  16   2.0000      -0.836446       -22.7609
  17   2.0000      -0.773327       -21.0433
  18   2.0000      -0.730741       -19.8845
  19   2.0000      -0.704215       -19.1627
  20   2.0000      -0.661908       -18.0114
  21   2.0000      -0.639831       -17.4107
  22   2.0000      -0.613904       -16.7052
  23   2.0000      -0.593753       -16.1569
  24   2.0000      -0.575325       -15.6554
  25   2.0000      -0.565856       -15.3977
  26   2.0000      -0.537068       -14.6144
  27   2.0000      -0.519328       -14.1316
  28   2.0000      -0.482793       -13.1375
  29   2.0000      -0.470345       -12.7987
  30   2.0000      -0.457651       -12.4533
  31   2.0000      -0.399015       -10.8578
  32   2.0000      -0.373726       -10.1696
  33   0.0000       0.109192         2.9713
  34   0.0000       0.145033         3.9465
  35   0.0000       0.159609         4.3432
  36   0.0000       0.164700         4.4817
  37   0.0000       0.177872         4.8401

MULLIKEN ATOMIC CHARGES
-----------------------
   0 C :   -0.399526
   1 C :    0.081772
   2 O :   -0.314917
   3 C :   -0.060490
   4 C :    0.190928
   5 N :   -0.126595
   6 O :   -0.098342
   7 C :    0.008302
   8 C :   -0.285111
   9 H :    0.169637
  10 H :    0.140297
  11 H :    0.125206
  12 H :    0.111356
  13 H :    0.137802
  14 H :    0.164874
  15 H :    0.154809
Sum of atomic charges:   -0.0000000

LOEWDIN ATOMIC CHARGES
----------------------
   0 C :   -0.292637
   1 C :   -0.279947
   2 O :    0.187014
   3 C :   -0.242203
   4 C :   -0.267658
   5 N :    0.070821
   6 O :    0.283078
   7 C :   -0.260977
   8 C :   -0.169227
   9 H :    0.135950
  10 H :    0.132044
  11 H :    0.130418
  12 H :    0.136597
  13 H :    0.147547
  14 H :    0.139338
  15 H :    0.149844

  Mayer bond orders larger than 0.1
B(  0-C ,  1-C ) :   0.8965 B(  0-C ,  9-H ) :   0.9271 B(  0-C , 10-H ) :   0.9338
B(  0-C , 11-H ) :   0.9255 B(  1-C ,  2-O ) :   0.8734 B(  1-C ,  3-C ) :   0.9768
B(  1-C , 12-H ) :   0.9275 B(  2-O ,  3-C ) :   0.9639 B(  3-C ,  4-C ) :   0.8710
B(  3-C , 13-H ) :   0.9253 B(  4-C ,  5-N ) :   1.5385 B(  4-C ,  8-C ) :   1.1601
B(  5-N ,  6-O ) :   0.8782 B(  5-N ,  7-C ) :   0.1033 B(  6-O ,  7-C ) :   1.1212
B(  7-C ,  8-C ) :   1.5653 B(  7-C , 14-H ) :   0.9192 B(  8-C , 15-H ) :   0.9123

MP2 TOTAL ENERGY:     -437.126639809 Eh
FINAL SINGLE POINT ENERGY      -437.126639808500

DIPOLE MOMENT
-------------
                                X             Y             Z
Electronic contribution:      5.37987      -0.92775       3.51965
Nuclear contribution   :     -6.51634       0.64109      -2.51431
                        -----------------------------------------
Total Dipole Moment    :     -1.13647      -0.28666       1.00533
                        -----------------------------------------
Magnitude (a.u.)       :      1.54416
Magnitude (Debye)      :      3.92494

                             ****ORCA TERMINATED NORMALLY****
TOTAL RUN TIME: 0 days 0 hours 15 minutes 53 seconds 568 msec
