                         Program Version 3.0.3 - RELEASE   -
|  1> ! RI-MP2 RIJK def2-TZVP def2-TZVP/C def2-TZVP/JK TIGHTSCF
|  2> % maxcore 2000
|  3> % mp2 density relaxed end
|  4> *xyz 0 1
|  5>  N       -0.0037316316    -0.7115424018    -1.1636120114
|  6>  C       -0.0208113633     0.2685433426    -0.5520353153
|  7>  C       -0.0137251178     1.5037954254     0.2322108214
|  8>  C        1.3860461514     2.0909602345     0.3469009685
|  9>  N        1.8779675583     2.8757316353    -0.7908110926
| 10>  C        1.6381237603     3.5522641303     0.4916493064
| 11>  C        0.5426734499     4.5804258692     0.4997229485
| 12>  C        0.6428924104     5.7703597606    -0.3812160666
| 13>  N       -0.3439780869     4.7141745866    -0.6643418697
| 14>  H       -0.6972027557     2.2251477161    -0.2231264930
| 15>  H       -0.4024109981     1.2816300768     1.2331919442
| 16>  H        2.0977846280     1.4271317720     0.8333379261
| 17>  H        2.8652459402     2.7107306974    -0.9581772984
| 18>  H        2.5065992284     3.8157737863     1.0945409674
| 19>  H        0.0382276008     4.6917128130     1.4580514238
| 20>  H        0.2282850867     6.7216928330    -0.0610226915
| 21>  H        1.5114560061     5.8417682571    -1.0310385189
| 22>  H        0.0407476327     4.1253765556    -1.4039063487
| 23> *
| 24>
| 25>                          ****END OF INPUT****

CARTESIAN COORDINATES (ANGSTROEM)
---------------------------------
  N     -0.003732   -0.711542   -1.163612
  C     -0.020811    0.268543   -0.552035
  C     -0.013725    1.503795    0.232211
  C      1.386046    2.090960    0.346901
  N      1.877968    2.875732   -0.790811
  C      1.638124    3.552264    0.491649
  C      0.542673    4.580426    0.499723
  C      0.642892    5.770360   -0.381216
  N     -0.343978    4.714175   -0.664342
  H     -0.697203    2.225148   -0.223126
  H     -0.402411    1.281630    1.233192
  H      2.097785    1.427132    0.833338
  H      2.865246    2.710731   -0.958177
  H      2.506599    3.815774    1.094541
  H      0.038228    4.691713    1.458051
  H      0.228285    6.721693   -0.061023
  H      1.511456    5.841768   -1.031039
  H      0.040748    4.125377   -1.403906

 Total Charge           Charge          ....    0
 Multiplicity           Mult            ....    1
 Number of Electrons    NEL             ....   66
 Basis Dimension        Dim             ....  333

ORBITAL ENERGIES
----------------

  NO   OCC          E(Eh)            E(eV)
   0   2.0000     -15.586168      -424.1212
   1   2.0000     -15.567514      -423.6136
   2   2.0000     -15.563215      -423.4966
   3   2.0000     -11.296402      -307.3907
   4   2.0000     -11.290728      -307.2363
   5   2.0000     -11.286241      -307.1142
   6   2.0000     -11.273976      -306.7805
   7   2.0000     -11.272442      -306.7387
   8   2.0000     -11.263015      -306.4822
   9   2.0000      -1.305759       -35.5315
  10   2.0000      -1.259635       -34.2764
  11   2.0000      -1.216587       -33.1050
  12   2.0000      -1.060500       -28.8577
  13   2.0000      -0.961364       -26.1600
  14   2.0000      -0.890937       -24.2436
  15   2.0000      -0.862920       -23.4812
  16   2.0000      -0.795239       -21.6395
  17   2.0000      -0.746403       -20.3107
  18   2.0000      -0.699549       -19.0357
  19   2.0000      -0.692632       -18.8475
  20   2.0000      -0.656009       -17.8509
  21   2.0000      -0.622609       -16.9421
  22   2.0000      -0.598141       -16.2762
  23   2.0000      -0.556176       -15.1343
  24   2.0000      -0.540976       -14.7207
  25   2.0000      -0.519400       -14.1336
  26   2.0000      -0.506534       -13.7835
  27   2.0000      -0.482821       -13.1382
  28   2.0000      -0.473810       -12.8930
  29   2.0000      -0.461865       -12.5680
  30   2.0000      -0.455635       -12.3985
  31   2.0000      -0.432987       -11.7822
  32   2.0000      -0.389912       -10.6100
  33   0.0000       0.115618         3.1461
  34   0.0000       0.136668         3.7189
  35   0.0000       0.150134         4.0854
  36   0.0000       0.160995         4.3809
  37   0.0000       0.180460         4.9106

MULLIKEN ATOMIC CHARGES
-----------------------
   0 N :   -0.059034
   1 C :   -0.179435
   2 C :   -0.154191
   3 C :   -0.017784
   4 N :   -0.426534
   5 C :   -0.040577
   6 C :   -0.046723
   7 C :   -0.178406
   8 N :   -0.386365
   9 H :    0.190968
  10 H :    0.158126
  11 H :    0.141864
  12 H :    0.228787
  13 H :    0.137333
  14 H :    0.128567
  15 H :    0.126846
  16 H :    0.129475
  17 H :    0.247083
Sum of atomic charges:   -0.0000000

LOEWDIN ATOMIC CHARGES
----------------------
   0 N :    0.057745
   1 C :   -0.186703
   2 C :   -0.222764
   3 C :   -0.239470
   4 N :    0.015266
   5 C :   -0.246455
   6 C :   -0.276199
   7 C :   -0.258434
   8 N :   -0.016996
   9 H :    0.174758
  10 H :    0.169213
  11 H :    0.146248
  12 H :    0.171796
  13 H :    0.146639
  14 H :    0.146147
  15 H :    0.125345
  16 H :    0.125045
  17 H :    0.168819

  Mayer bond orders larger than 0.1
B(  0-N ,  1-C ) :   2.8694 B(  1-C ,  2-C ) :   0.9386 B(  2-C ,  3-C ) :   0.8748
B(  2-C ,  9-H ) :   0.9113 B(  2-C , 10-H ) :   0.9101 B(  3-C ,  4-N ) :   0.8968
B(  3-C ,  5-C ) :   0.9079 B(  3-C , 11-H ) :   0.9200 B(  4-N ,  5-C ) :   0.8773
B(  4-N , 12-H ) :   0.8657 B(  5-C ,  6-C ) :   0.9281 B(  5-C , 13-H ) :   0.9200
B(  6-C ,  7-C ) :   0.9423 B(  6-C ,  8-N ) :   0.9423 B(  6-C , 14-H ) :   0.9176
B(  7-C ,  8-N ) :   0.9157 B(  7-C , 15-H ) :   0.9282 B(  7-C , 16-H ) :   0.9145
B(  8-N , 17-H ) :   0.8595

MP2 TOTAL ENERGY:     -397.399093562 Eh
FINAL SINGLE POINT ENERGY      -397.399093562353

DIPOLE MOMENT
-------------
                                X             Y             Z
Electronic contribution:     -1.06423      -6.12582      -1.58526
Nuclear contribution   :      2.20670       7.29790       2.79794
                        -----------------------------------------
Total Dipole Moment    :      1.14247       1.17208       1.21268
                        -----------------------------------------
Magnitude (a.u.)       :      2.03706
Magnitude (Debye)      :      5.17780

                             ****ORCA TERMINATED NORMALLY****
TOTAL RUN TIME: 0 days 0 hours 17 minutes 19 seconds 580 msec
