                         Program Version 3.0.3 - RELEASE   -
|  1> ! RI-MP2 RIJK def2-TZVP def2-TZVP/C def2-TZVP/JK TIGHTSCF
|  2> % maxcore 2000
|  3> % mp2 density relaxed end
|  4> *xyz 0 1
|  5>  N       -0.0024641658    -1.1453099302    -0.0624063305
|  6>  C        0.0050057571     0.0089161026     0.0085032343
|  7>  C        0.0314827525     1.4616999876     0.0733726185
|  8>  C       -0.3617998370     2.0815486097     1.4412091841
|  9>  C        0.6649060250     1.4352306714     2.4068645984
| 10>  C        1.6961330696     2.2731361580     1.6337965280
| 11>  C        0.6279320162     3.3474580050     1.3484521981
| 12>  O        1.0492010670     3.5258648665    -0.0081743616
| 13>  C        1.4421870594     2.1319709212     0.0801617793
| 14>  H       -0.5429604763     1.8722490324    -0.7603028203
| 15>  H       -1.4204743963     2.1615611550     1.6758656390
| 16>  H        0.5582746092     1.8103554649     3.4281434154
| 17>  H        0.7423831145     0.3464362075     2.4188283420
| 18>  H        2.7089385785     2.4929503702     1.9633127013
| 19>  H        0.4190200501     4.2543389815     1.9119996338
| 20>  H        2.1859499661     1.8196772667    -0.6495225399
| 21> *
| 22>
| 23>                          ****END OF INPUT****

CARTESIAN COORDINATES (ANGSTROEM)
---------------------------------
  N     -0.002464   -1.145310   -0.062406
  C      0.005006    0.008916    0.008503
  C      0.031483    1.461700    0.073373
  C     -0.361800    2.081549    1.441209
  C      0.664906    1.435231    2.406865
  C      1.696133    2.273136    1.633797
  C      0.627932    3.347458    1.348452
  O      1.049201    3.525865   -0.008174
  C      1.442187    2.131971    0.080162
  H     -0.542960    1.872249   -0.760303
  H     -1.420474    2.161561    1.675866
  H      0.558275    1.810355    3.428143
  H      0.742383    0.346436    2.418828
  H      2.708939    2.492950    1.963313
  H      0.419020    4.254339    1.912000
  H      2.185950    1.819677   -0.649523

 Total Charge           Charge          ....    0
 Multiplicity           Mult            ....    1
 Number of Electrons    NEL             ....   64
 Basis Dimension        Dim             ....  321

ORBITAL ENERGIES
----------------

  NO   OCC          E(Eh)            E(eV)
   0   2.0000     -20.574749      -559.8674
   1   2.0000     -15.572825      -423.7581
   2   2.0000     -11.321331      -308.0691
   3   2.0000     -11.311493      -307.8014
   4   2.0000     -11.288302      -307.1703
   5   2.0000     -11.276186      -306.8406
   6   2.0000     -11.270037      -306.6733
   7   2.0000     -11.259589      -306.3890
   8   2.0000     -11.248770      -306.0946
   9   2.0000      -1.424069       -38.7509
  10   2.0000      -1.224205       -33.3123
  11   2.0000      -1.176061       -32.0022
  12   2.0000      -1.041748       -28.3474
  13   2.0000      -0.959540       -26.1104
  14   2.0000      -0.905416       -24.6376
  15   2.0000      -0.842313       -22.9205
  16   2.0000      -0.753020       -20.4907
  17   2.0000      -0.740557       -20.1516
  18   2.0000      -0.705598       -19.2003
  19   2.0000      -0.661967       -18.0130
  20   2.0000      -0.652183       -17.7468
  21   2.0000      -0.591187       -16.0870
  22   2.0000      -0.572613       -15.5816
  23   2.0000      -0.559781       -15.2324
  24   2.0000      -0.535967       -14.5844
  25   2.0000      -0.528352       -14.3772
  26   2.0000      -0.493790       -13.4367
  27   2.0000      -0.479828       -13.0568
  28   2.0000      -0.472764       -12.8646
  29   2.0000      -0.462996       -12.5988
  30   2.0000      -0.438305       -11.9269
  31   2.0000      -0.415202       -11.2982
  32   0.0000       0.132917         3.6169
  33   0.0000       0.150879         4.1056
  34   0.0000       0.154158         4.1949
  35   0.0000       0.158676         4.3178
  36   0.0000       0.171556         4.6683

MULLIKEN ATOMIC CHARGES
-----------------------
   0 N :   -0.046726
   1 C :   -0.241701
   2 C :    0.008737
   3 C :   -0.049531
   4 C :   -0.274836
   5 C :   -0.132850
   6 C :   -0.024081
   7 O :   -0.305937
   8 C :    0.044857
   9 H :    0.151596
  10 H :    0.152203
  11 H :    0.130877
  12 H :    0.151936
  13 H :    0.140220
  14 H :    0.139709
  15 H :    0.155527
Sum of atomic charges:    0.0000000

LOEWDIN ATOMIC CHARGES
----------------------
   0 N :    0.063388
   1 C :   -0.172388
   2 C :   -0.191972
   3 C :   -0.144641
   4 C :   -0.198243
   5 C :   -0.156992
   6 C :   -0.207438
   7 O :    0.176635
   8 C :   -0.181800
   9 H :    0.180047
  10 H :    0.138475
  11 H :    0.145193
  12 H :    0.137648
  13 H :    0.138986
  14 H :    0.134271
  15 H :    0.138832

  Mayer bond orders larger than 0.1
B(  0-N ,  1-C ) :   2.8707 B(  1-C ,  2-C ) :   0.9181 B(  2-C ,  3-C ) :   0.8814
B(  2-C ,  8-C ) :   0.9140 B(  2-C ,  9-H ) :   0.9025 B(  3-C ,  4-C ) :   0.9204
B(  3-C ,  6-C ) :   0.8409 B(  3-C , 10-H ) :   0.9072 B(  4-C ,  5-C ) :   0.9313
B(  4-C , 11-H ) :   0.9254 B(  4-C , 12-H ) :   0.9122 B(  5-C ,  6-C ) :   0.9196
B(  5-C ,  8-C ) :   0.8898 B(  5-C , 13-H ) :   0.9198 B(  6-C ,  7-O ) :   0.9602
B(  6-C , 14-H ) :   0.9136 B(  7-O ,  8-C ) :   0.9005 B(  8-C , 15-H ) :   0.9031

MP2 TOTAL ENERGY:     -400.030639671 Eh
FINAL SINGLE POINT ENERGY      -400.030639671185

DIPOLE MOMENT
-------------
                                X             Y             Z
Electronic contribution:     -0.41590      -1.48519      -3.55643
Nuclear contribution   :      0.53142       2.56570       4.31037
                        -----------------------------------------
Total Dipole Moment    :      0.11552       1.08051       0.75394
                        -----------------------------------------
Magnitude (a.u.)       :      1.32260
Magnitude (Debye)      :      3.36179

                             ****ORCA TERMINATED NORMALLY****
TOTAL RUN TIME: 0 days 0 hours 17 minutes 59 seconds 961 msec
