                         Program Version 3.0.3 - RELEASE   -
|  1> ! RI-MP2 RIJK def2-TZVP def2-TZVP/C def2-TZVP/JK TIGHTSCF
|  2> % maxcore 2000
|  3> % mp2 density relaxed end
|  4> *xyz 0 1
|  5>  C       -0.0826681066     1.5785317777     0.0605280384
|  6>  C        0.0907675297     0.0734494115     0.0748436747
|  7>  C        1.3552567919    -0.6832150105    -0.2160546347
|  8>  C        2.6023907188    -0.0438574494     0.3783217032
|  9>  O        3.0061793405     1.1551980324    -0.2508037033
| 10>  C        1.9260158837     0.0122289959     1.7903305469
| 11>  C        0.7078590588    -0.7269383352     1.2044945034
| 12>  C        0.0369804160    -1.8061335951     1.8437670774
| 13>  C       -0.5220179473    -2.7163648666     2.4002752133
| 14>  H        0.8193352332     2.1036184264     0.3731277457
| 15>  H       -0.3138689913     1.9149016186    -0.9558145265
| 16>  H       -0.9137818339     1.8771291150     0.7089771156
| 17>  H       -0.7687847207    -0.4561364187    -0.3318197001
| 18>  H        1.3757477231    -1.4772703934    -0.9529598939
| 19>  H        3.4262544494    -0.7691813953     0.3899862151
| 20>  H        3.8338747155     1.4408560988     0.1491991140
| 21>  H        2.4592068753    -0.5737298235     2.5407826476
| 22>  H        1.7258175465     1.0106743882     2.1879404718
| 23>  H       -1.0192055526    -3.5180766068     2.8867660113
| 24> *
| 25>
| 26>                          ****END OF INPUT****

CARTESIAN COORDINATES (ANGSTROEM)
---------------------------------
  C     -0.082668    1.578532    0.060528
  C      0.090768    0.073449    0.074844
  C      1.355257   -0.683215   -0.216055
  C      2.602391   -0.043857    0.378322
  O      3.006179    1.155198   -0.250804
  C      1.926016    0.012229    1.790331
  C      0.707859   -0.726938    1.204495
  C      0.036980   -1.806134    1.843767
  C     -0.522018   -2.716365    2.400275
  H      0.819335    2.103618    0.373128
  H     -0.313869    1.914902   -0.955815
  H     -0.913782    1.877129    0.708977
  H     -0.768785   -0.456136   -0.331820
  H      1.375748   -1.477270   -0.952960
  H      3.426254   -0.769181    0.389986
  H      3.833875    1.440856    0.149199
  H      2.459207   -0.573730    2.540783
  H      1.725818    1.010674    2.187940
  H     -1.019206   -3.518077    2.886766

 Total Charge           Charge          ....    0
 Multiplicity           Mult            ....    1
 Number of Electrons    NEL             ....   66
 Basis Dimension        Dim             ....  339

ORBITAL ENERGIES
----------------

  NO   OCC          E(Eh)            E(eV)
   0   2.0000     -20.561107      -559.4962
   1   2.0000     -11.291814      -307.2659
   2   2.0000     -11.259852      -306.3961
   3   2.0000     -11.244718      -305.9843
   4   2.0000     -11.240722      -305.8756
   5   2.0000     -11.233791      -305.6870
   6   2.0000     -11.232310      -305.6467
   7   2.0000     -11.218073      -305.2593
   8   2.0000     -11.211358      -305.0766
   9   2.0000      -1.368936       -37.2506
  10   2.0000      -1.199716       -32.6459
  11   2.0000      -1.028295       -27.9813
  12   2.0000      -1.012493       -27.5513
  13   2.0000      -0.940489       -25.5920
  14   2.0000      -0.907765       -24.7016
  15   2.0000      -0.801431       -21.8080
  16   2.0000      -0.753703       -20.5093
  17   2.0000      -0.724113       -19.7041
  18   2.0000      -0.703168       -19.1342
  19   2.0000      -0.685094       -18.6424
  20   2.0000      -0.616031       -16.7631
  21   2.0000      -0.593970       -16.1628
  22   2.0000      -0.579924       -15.7805
  23   2.0000      -0.569993       -15.5103
  24   2.0000      -0.550567       -14.9817
  25   2.0000      -0.534866       -14.5544
  26   2.0000      -0.500161       -13.6101
  27   2.0000      -0.476726       -12.9724
  28   2.0000      -0.456631       -12.4256
  29   2.0000      -0.434963       -11.8360
  30   2.0000      -0.428308       -11.6549
  31   2.0000      -0.370603       -10.0846
  32   2.0000      -0.340624        -9.2689
  33   0.0000       0.127875         3.4796
  34   0.0000       0.152810         4.1582
  35   0.0000       0.159498         4.3402
  36   0.0000       0.166347         4.5265
  37   0.0000       0.170865         4.6495

MULLIKEN ATOMIC CHARGES
-----------------------
   0 C :   -0.378207
   1 C :   -0.141418
   2 C :   -0.079314
   3 C :    0.014528
   4 O :   -0.460567
   5 C :   -0.258570
   6 C :   -0.088458
   7 C :    0.002660
   8 C :   -0.137034
   9 H :    0.145477
  10 H :    0.131060
  11 H :    0.129278
  12 H :    0.125514
  13 H :    0.141207
  14 H :    0.096076
  15 H :    0.315017
  16 H :    0.128105
  17 H :    0.125951
  18 H :    0.188695
Sum of atomic charges:   -0.0000000

LOEWDIN ATOMIC CHARGES
----------------------
   0 C :   -0.285770
   1 C :   -0.174223
   2 C :   -0.107209
   3 C :   -0.306937
   4 O :   -0.017214
   5 C :   -0.163327
   6 C :   -0.168264
   7 C :   -0.078436
   8 C :   -0.097698
   9 H :    0.127830
  10 H :    0.129461
  11 H :    0.125522
  12 H :    0.165376
  13 H :    0.140596
  14 H :    0.136973
  15 H :    0.175395
  16 H :    0.138718
  17 H :    0.133423
  18 H :    0.125784

  Mayer bond orders larger than 0.1
B(  0-C ,  1-C ) :   0.8924 B(  0-C ,  9-H ) :   0.9328 B(  0-C , 10-H ) :   0.9342
B(  0-C , 11-H ) :   0.9329 B(  1-C ,  2-C ) :   0.9113 B(  1-C ,  6-C ) :   0.8696
B(  1-C , 12-H ) :   0.9362 B(  2-C ,  3-C ) :   0.9277 B(  2-C ,  6-C ) :   0.7443
B(  2-C , 13-H ) :   0.9110 B(  3-C ,  4-O ) :   1.0581 B(  3-C ,  5-C ) :   0.9536
B(  3-C , 14-H ) :   0.9372 B(  4-O , 15-H ) :   0.8441 B(  5-C ,  6-C ) :   0.9182
B(  5-C , 16-H ) :   0.9174 B(  5-C , 17-H ) :   0.9082 B(  6-C ,  7-C ) :   1.1757
B(  6-C ,  8-C ) :  -0.1472 B(  7-C ,  8-C ) :   2.5929 B(  8-C , 18-H ) :   0.8799

MP2 TOTAL ENERGY:     -385.145323375 Eh
FINAL SINGLE POINT ENERGY      -385.145323375045

DIPOLE MOMENT
-------------
                                X             Y             Z
Electronic contribution:      0.64126      -3.92493       0.86333
Nuclear contribution   :     -0.15971       3.91577      -0.63632
                        -----------------------------------------
Total Dipole Moment    :      0.48155      -0.00916       0.22701
                        -----------------------------------------
Magnitude (a.u.)       :      0.53245
Magnitude (Debye)      :      1.35339

                             ****ORCA TERMINATED NORMALLY****
TOTAL RUN TIME: 0 days 0 hours 20 minutes 4 seconds 477 msec
