                         Program Version 3.0.3 - RELEASE   -
|  1> ! RI-MP2 RIJK def2-TZVP def2-TZVP/C def2-TZVP/JK TIGHTSCF
|  2> % maxcore 2000
|  3> % mp2 density relaxed end
|  4> *xyz 0 1
|  5>  O        0.0228815902     1.3505673475     0.0181361921
|  6>  C       -0.0233429085    -0.0623455197     0.1354046201
|  7>  C       -1.4437275041    -0.5618590103     0.1483584242
|  8>  C       -2.5874262748    -0.3189386415     1.1762514538
|  9>  C       -3.1860542676    -1.1023793224    -0.0201027957
| 10>  N       -2.4033859659    -0.2410884643    -0.9949936990
| 11>  C       -1.9449415480    -2.0420164851     0.0351385545
| 12>  C       -1.5865524639    -2.8008036707    -1.1506735659
| 13>  N       -1.2781444086    -3.4514610208    -2.0549476588
| 14>  H       -0.1634931153     1.5700500227    -0.9005511204
| 15>  H        0.5274337782    -0.5595402243    -0.6754984306
| 16>  H        0.4674157558    -0.3178585200     1.0807877451
| 17>  H       -2.5261997892    -0.8146537461     2.1505205635
| 18>  H       -2.9134185866     0.7189129561     1.2691313868
| 19>  H       -4.2175611125    -1.3963080387    -0.2105436341
| 20>  H       -2.7150685350     0.7297742744    -0.8929024598
| 21>  H       -1.8451035842    -2.6494492670     0.9360006942
| 22> *
| 23>
| 24>                          ****END OF INPUT****

CARTESIAN COORDINATES (ANGSTROEM)
---------------------------------
  O      0.022882    1.350567    0.018136
  C     -0.023343   -0.062346    0.135405
  C     -1.443728   -0.561859    0.148358
  C     -2.587426   -0.318939    1.176251
  C     -3.186054   -1.102379   -0.020103
  N     -2.403386   -0.241088   -0.994994
  C     -1.944942   -2.042016    0.035139
  C     -1.586552   -2.800804   -1.150674
  N     -1.278144   -3.451461   -2.054948
  H     -0.163493    1.570050   -0.900551
  H      0.527434   -0.559540   -0.675498
  H      0.467416   -0.317859    1.080788
  H     -2.526200   -0.814654    2.150521
  H     -2.913419    0.718913    1.269131
  H     -4.217561   -1.396308   -0.210544
  H     -2.715069    0.729774   -0.892902
  H     -1.845104   -2.649449    0.936001

 Total Charge           Charge          ....    0
 Multiplicity           Mult            ....    1
 Number of Electrons    NEL             ....   66
 Basis Dimension        Dim             ....  327

ORBITAL ENERGIES
----------------

  NO   OCC          E(Eh)            E(eV)
   0   2.0000     -20.576101      -559.9042
   1   2.0000     -15.576867      -423.8681
   2   2.0000     -15.565922      -423.5703
   3   2.0000     -11.311724      -307.8077
   4   2.0000     -11.309947      -307.7593
   5   2.0000     -11.298104      -307.4371
   6   2.0000     -11.295449      -307.3648
   7   2.0000     -11.269781      -306.6663
   8   2.0000     -11.261349      -306.4369
   9   2.0000      -1.381693       -37.5978
  10   2.0000      -1.316726       -35.8299
  11   2.0000      -1.211753       -32.9735
  12   2.0000      -1.053268       -28.6609
  13   2.0000      -0.996115       -27.1057
  14   2.0000      -0.977853       -26.6087
  15   2.0000      -0.853815       -23.2335
  16   2.0000      -0.812046       -22.0969
  17   2.0000      -0.723740       -19.6940
  18   2.0000      -0.707921       -19.2635
  19   2.0000      -0.689266       -18.7559
  20   2.0000      -0.640593       -17.4314
  21   2.0000      -0.631137       -17.1741
  22   2.0000      -0.580034       -15.7835
  23   2.0000      -0.563220       -15.3260
  24   2.0000      -0.547179       -14.8895
  25   2.0000      -0.536579       -14.6011
  26   2.0000      -0.520980       -14.1766
  27   2.0000      -0.519852       -14.1459
  28   2.0000      -0.496812       -13.5189
  29   2.0000      -0.456374       -12.4186
  30   2.0000      -0.453434       -12.3386
  31   2.0000      -0.430021       -11.7015
  32   2.0000      -0.415487       -11.3060
  33   0.0000       0.120921         3.2904
  34   0.0000       0.135773         3.6946
  35   0.0000       0.140283         3.8173
  36   0.0000       0.164836         4.4854
  37   0.0000       0.179043         4.8720

MULLIKEN ATOMIC CHARGES
-----------------------
   0 O :   -0.471232
   1 C :   -0.040034
   2 C :   -0.040829
   3 C :   -0.148159
   4 C :   -0.100630
   5 N :   -0.338871
   6 C :    0.065397
   7 C :   -0.237208
   8 N :   -0.041087
   9 H :    0.325869
  10 H :    0.147159
  11 H :    0.119924
  12 H :    0.116234
  13 H :    0.135901
  14 H :    0.155620
  15 H :    0.200666
  16 H :    0.151279
Sum of atomic charges:   -0.0000000

LOEWDIN ATOMIC CHARGES
----------------------
   0 O :   -0.035965
   1 C :   -0.308680
   2 C :   -0.243506
   3 C :   -0.179076
   4 C :   -0.184786
   5 N :    0.033812
   6 C :   -0.158730
   7 C :   -0.169403
   8 N :    0.067028
   9 H :    0.179542
  10 H :    0.134721
  11 H :    0.139332
  12 H :    0.130464
  13 H :    0.134928
  14 H :    0.130192
  15 H :    0.160180
  16 H :    0.169945

  Mayer bond orders larger than 0.1
B(  0-O ,  1-C ) :   0.9272 B(  0-O ,  9-H ) :   0.8427 B(  1-C ,  2-C ) :   0.8458
B(  1-C , 10-H ) :   0.9638 B(  1-C , 11-H ) :   0.9145 B(  2-C ,  3-C ) :   0.8838
B(  2-C ,  5-N ) :   0.8834 B(  2-C ,  6-C ) :   0.7914 B(  3-C ,  4-C ) :   0.9327
B(  3-C , 12-H ) :   0.9298 B(  3-C , 13-H ) :   0.9201 B(  4-C ,  5-N ) :   0.9246
B(  4-C ,  6-C ) :   0.8648 B(  4-C , 14-H ) :   0.8957 B(  5-N , 15-H ) :   0.8791
B(  6-C ,  7-C ) :   0.9539 B(  6-C , 16-H ) :   0.9053 B(  7-C ,  8-N ) :   2.8820

MP2 TOTAL ENERGY:     -417.247325812 Eh
FINAL SINGLE POINT ENERGY      -417.247325812435

DIPOLE MOMENT
-------------
                                X             Y             Z
Electronic contribution:      0.22235      -3.63324      -3.43953
Nuclear contribution   :     -0.80454       4.46104       4.73909
                        -----------------------------------------
Total Dipole Moment    :     -0.58219       0.82781       1.29956
                        -----------------------------------------
Magnitude (a.u.)       :      1.64714
Magnitude (Debye)      :      4.18669

                             ****ORCA TERMINATED NORMALLY****
TOTAL RUN TIME: 0 days 0 hours 16 minutes 51 seconds 404 msec
