                         Program Version 3.0.3 - RELEASE   -
|  1> ! RI-MP2 RIJK def2-TZVP def2-TZVP/C def2-TZVP/JK TIGHTSCF
|  2> % maxcore 2000
|  3> % mp2 density relaxed end
|  4> *xyz 0 1
|  5>  C        0.0613831487     1.5008718729     0.0870198336
|  6>  C        0.0385489918     0.0064779584    -0.0099086203
|  7>  C       -0.9091787972    -0.9138314410     0.7793659884
|  8>  O       -1.0663240878    -2.1442568774     0.0613902585
|  9>  C        0.3611678827    -2.0522545953    -0.2061802432
| 10>  C        0.5604280690    -1.0413457419     0.9774296844
| 11>  C        0.4801027894    -0.8514146943    -1.2013867574
| 12>  C       -0.3537379064    -0.8799208016    -2.4703698277
| 13>  O        1.8415607658    -0.5391541990    -1.4620741801
| 14>  H        1.0475425611     1.8885320526    -0.1879887179
| 15>  H       -0.6809076420     1.9562466216    -0.5786138385
| 16>  H       -0.1598756853     1.8358266937     1.1061974159
| 17>  H       -1.7132480553    -0.5681374879     1.4163614378
| 18>  H        0.8491781450    -3.0104713618    -0.3803853542
| 19>  H        1.2173624716    -0.9870677362     1.8335628085
| 20>  H       -1.3790083383    -1.1788749163    -2.2438976234
| 21>  H       -0.3607481645     0.1042853445    -2.9492389118
| 22>  H        0.0574391277    -1.6003559130    -3.1898227803
| 23>  H        2.1422731241    -1.1159299582    -2.1724996922
| 24> *
| 25>
| 26>                          ****END OF INPUT****

CARTESIAN COORDINATES (ANGSTROEM)
---------------------------------
  C      0.061383    1.500872    0.087020
  C      0.038549    0.006478   -0.009909
  C     -0.909179   -0.913831    0.779366
  O     -1.066324   -2.144257    0.061390
  C      0.361168   -2.052255   -0.206180
  C      0.560428   -1.041346    0.977430
  C      0.480103   -0.851415   -1.201387
  C     -0.353738   -0.879921   -2.470370
  O      1.841561   -0.539154   -1.462074
  H      1.047543    1.888532   -0.187989
  H     -0.680908    1.956247   -0.578614
  H     -0.159876    1.835827    1.106197
  H     -1.713248   -0.568137    1.416361
  H      0.849178   -3.010471   -0.380385
  H      1.217362   -0.987068    1.833563
  H     -1.379008   -1.178875   -2.243898
  H     -0.360748    0.104285   -2.949239
  H      0.057439   -1.600356   -3.189823
  H      2.142273   -1.115930   -2.172500

 Total Charge           Charge          ....    0
 Multiplicity           Mult            ....    1
 Number of Electrons    NEL             ....   68
 Basis Dimension        Dim             ....  339

ORBITAL ENERGIES
----------------

  NO   OCC          E(Eh)            E(eV)
   0   2.0000     -20.560571      -559.4816
   1   2.0000     -20.553236      -559.2820
   2   2.0000     -11.291657      -307.2616
   3   2.0000     -11.290907      -307.2412
   4   2.0000     -11.288663      -307.1801
   5   2.0000     -11.242695      -305.9293
   6   2.0000     -11.235681      -305.7384
   7   2.0000     -11.222798      -305.3879
   8   2.0000     -11.215127      -305.1791
   9   2.0000      -1.406303       -38.2675
  10   2.0000      -1.365486       -37.1568
  11   2.0000      -1.151929       -31.3456
  12   2.0000      -1.012446       -27.5501
  13   2.0000      -0.982060       -26.7232
  14   2.0000      -0.926357       -25.2074
  15   2.0000      -0.845901       -23.0181
  16   2.0000      -0.760076       -20.6827
  17   2.0000      -0.740636       -20.1537
  18   2.0000      -0.696168       -18.9437
  19   2.0000      -0.666023       -18.1234
  20   2.0000      -0.639927       -17.4133
  21   2.0000      -0.622243       -16.9321
  22   2.0000      -0.596157       -16.2223
  23   2.0000      -0.567426       -15.4404
  24   2.0000      -0.556249       -15.1363
  25   2.0000      -0.549771       -14.9600
  26   2.0000      -0.540569       -14.7096
  27   2.0000      -0.534076       -14.5330
  28   2.0000      -0.523994       -14.2586
  29   2.0000      -0.491248       -13.3675
  30   2.0000      -0.449735       -12.2379
  31   2.0000      -0.420959       -11.4549
  32   2.0000      -0.381945       -10.3932
  33   2.0000      -0.369492       -10.0544
  34   0.0000       0.129434         3.5221
  35   0.0000       0.151129         4.1124
  36   0.0000       0.171630         4.6703
  37   0.0000       0.178384         4.8541
  38   0.0000       0.189112         5.1460

MULLIKEN ATOMIC CHARGES
-----------------------
   0 C :   -0.443944
   1 C :    0.038553
   2 C :   -0.019776
   3 O :   -0.335805
   4 C :    0.077259
   5 C :   -0.205891
   6 C :    0.205998
   7 C :   -0.449876
   8 O :   -0.460466
   9 H :    0.156138
  10 H :    0.138283
  11 H :    0.133689
  12 H :    0.139823
  13 H :    0.141271
  14 H :    0.156537
  15 H :    0.157730
  16 H :    0.141694
  17 H :    0.113900
  18 H :    0.314882
Sum of atomic charges:   -0.0000000

LOEWDIN ATOMIC CHARGES
----------------------
   0 C :   -0.269620
   1 C :   -0.176187
   2 C :   -0.209994
   3 O :    0.164398
   4 C :   -0.168770
   5 C :   -0.109894
   6 C :   -0.338814
   7 C :   -0.278092
   8 O :    0.022251
   9 H :    0.135744
  10 H :    0.130580
  11 H :    0.132023
  12 H :    0.135903
  13 H :    0.128742
  14 H :    0.134888
  15 H :    0.137383
  16 H :    0.129593
  17 H :    0.123391
  18 H :    0.176474

  Mayer bond orders larger than 0.1
B(  0-C ,  1-C ) :   0.8735 B(  0-C ,  9-H ) :   0.9404 B(  0-C , 10-H ) :   0.9378
B(  0-C , 11-H ) :   0.9328 B(  1-C ,  2-C ) :   0.8606 B(  1-C ,  5-C ) :   0.8255
B(  1-C ,  6-C ) :   0.8727 B(  1-C ,  8-O ) :  -0.1185 B(  2-C ,  3-O ) :   0.9479
B(  2-C ,  5-C ) :   0.9062 B(  2-C , 12-H ) :   0.9245 B(  3-O ,  4-C ) :   0.8761
B(  4-C ,  5-C ) :   0.9347 B(  4-C ,  6-C ) :   0.9154 B(  4-C , 13-H ) :   0.8994
B(  5-C , 14-H ) :   0.8868 B(  6-C ,  7-C ) :   0.9313 B(  6-C ,  8-O ) :   1.1041
B(  7-C , 15-H ) :   0.9309 B(  7-C , 16-H ) :   0.9370 B(  7-C , 17-H ) :   0.9203
B(  8-O , 18-H ) :   0.8396

MP2 TOTAL ENERGY:     -422.257972915 Eh
FINAL SINGLE POINT ENERGY      -422.257972915138

DIPOLE MOMENT
-------------
                                X             Y             Z
Electronic contribution:      0.46910      -4.49116       2.70241
Nuclear contribution   :     -0.24747       4.64532      -2.85712
                        -----------------------------------------
Total Dipole Moment    :      0.22163       0.15416      -0.15472
                        -----------------------------------------
Magnitude (a.u.)       :      0.31116
Magnitude (Debye)      :      0.79091

                             ****ORCA TERMINATED NORMALLY****
TOTAL RUN TIME: 0 days 0 hours 17 minutes 47 seconds 528 msec
