                         Program Version 3.0.3 - RELEASE   -
|  1> ! RI-MP2 RIJK def2-TZVP def2-TZVP/C def2-TZVP/JK TIGHTSCF
|  2> % maxcore 2000
|  3> % mp2 density relaxed end
|  4> *xyz 0 1
|  5>  O        0.0528055546     0.0124023222    -0.0786372622
|  6>  C        0.0154084003     1.2093723963    -0.0465350869
|  7>  N       -1.1830413041     1.9887170596    -0.1062827763
|  8>  C       -1.4375970768     2.7106971864     1.1726690802
|  9>  C       -0.7940924024     3.4133876441     0.0428834512
| 10>  C        0.7243954690     3.5680612893     0.0212540376
| 11>  C        1.2235793560     2.1340884230     0.0700508247
| 12>  C        2.4318925331     1.6445513863     0.7570153461
| 13>  O        2.3882174031     1.7610722084    -0.6596975420
| 14>  H       -2.4891535739     2.8640465072     1.3919630016
| 15>  H       -0.8282639659     2.4403700897     2.0323181177
| 16>  H       -1.3859070699     4.1059440988    -0.5467266093
| 17>  H        1.0450290584     4.0307695806    -0.9167824842
| 18>  H        1.0972257159     4.1856641229     0.8430940465
| 19>  H        3.0684497554     2.3642214149     1.2707156498
| 20>  H        2.4418311372     0.6251729204     1.1378444554
| 21> *
| 22>
| 23>                          ****END OF INPUT****

CARTESIAN COORDINATES (ANGSTROEM)
---------------------------------
  O      0.052806    0.012402   -0.078637
  C      0.015408    1.209372   -0.046535
  N     -1.183041    1.988717   -0.106283
  C     -1.437597    2.710697    1.172669
  C     -0.794092    3.413388    0.042883
  C      0.724395    3.568061    0.021254
  C      1.223579    2.134088    0.070051
  C      2.431893    1.644551    0.757015
  O      2.388217    1.761072   -0.659698
  H     -2.489154    2.864047    1.391963
  H     -0.828264    2.440370    2.032318
  H     -1.385907    4.105944   -0.546727
  H      1.045029    4.030770   -0.916782
  H      1.097226    4.185664    0.843094
  H      3.068450    2.364221    1.270716
  H      2.441831    0.625173    1.137844

 Total Charge           Charge          ....    0
 Multiplicity           Mult            ....    1
 Number of Electrons    NEL             ....   66
 Basis Dimension        Dim             ....  321

ORBITAL ENERGIES
----------------

  NO   OCC          E(Eh)            E(eV)
   0   2.0000     -20.592033      -560.3377
   1   2.0000     -20.552634      -559.2656
   2   2.0000     -15.590175      -424.2302
   3   2.0000     -11.361456      -309.1609
   4   2.0000     -11.315192      -307.9020
   5   2.0000     -11.303465      -307.5829
   6   2.0000     -11.292539      -307.2856
   7   2.0000     -11.291347      -307.2532
   8   2.0000     -11.260275      -306.4077
   9   2.0000      -1.442246       -39.2455
  10   2.0000      -1.404807       -38.2267
  11   2.0000      -1.307390       -35.5759
  12   2.0000      -1.058251       -28.7965
  13   2.0000      -0.992784       -27.0150
  14   2.0000      -0.933682       -25.4068
  15   2.0000      -0.873818       -23.7778
  16   2.0000      -0.827621       -22.5207
  17   2.0000      -0.763422       -20.7738
  18   2.0000      -0.710408       -19.3312
  19   2.0000      -0.686704       -18.6862
  20   2.0000      -0.674589       -18.3565
  21   2.0000      -0.660455       -17.9719
  22   2.0000      -0.606892       -16.5144
  23   2.0000      -0.586302       -15.9541
  24   2.0000      -0.580428       -15.7942
  25   2.0000      -0.572504       -15.5786
  26   2.0000      -0.537890       -14.6367
  27   2.0000      -0.525805       -14.3079
  28   2.0000      -0.488733       -13.2991
  29   2.0000      -0.473908       -12.8957
  30   2.0000      -0.450202       -12.2506
  31   2.0000      -0.424352       -11.5472
  32   2.0000      -0.408052       -11.1037
  33   0.0000       0.118146         3.2149
  34   0.0000       0.134786         3.6677
  35   0.0000       0.151593         4.1251
  36   0.0000       0.162878         4.4321
  37   0.0000       0.175113         4.7651

MULLIKEN ATOMIC CHARGES
-----------------------
   0 O :   -0.246873
   1 C :    0.176331
   2 N :   -0.174747
   3 C :   -0.175901
   4 C :   -0.061776
   5 C :   -0.189895
   6 C :    0.086581
   7 C :   -0.080201
   8 O :   -0.314785
   9 H :    0.146356
  10 H :    0.135911
  11 H :    0.145155
  12 H :    0.146842
  13 H :    0.139559
  14 H :    0.123450
  15 H :    0.143992
Sum of atomic charges:    0.0000000

LOEWDIN ATOMIC CHARGES
----------------------
   0 O :    0.179267
   1 C :   -0.362391
   2 N :    0.159203
   3 C :   -0.206105
   4 C :   -0.224472
   5 C :   -0.193873
   6 C :   -0.291357
   7 C :   -0.227287
   8 O :    0.196483
   9 H :    0.133538
  10 H :    0.133875
  11 H :    0.144964
  12 H :    0.156546
  13 H :    0.147511
  14 H :    0.123460
  15 H :    0.130639

  Mayer bond orders larger than 0.1
B(  0-O ,  1-C ) :   2.0785 B(  1-C ,  2-N ) :   1.0154 B(  1-C ,  6-C ) :   0.8914
B(  2-N ,  3-C ) :   0.8420 B(  2-N ,  4-C ) :   0.8559 B(  3-C ,  4-C ) :   0.9490
B(  3-C ,  9-H ) :   0.9242 B(  3-C , 10-H ) :   0.9072 B(  4-C ,  5-C ) :   0.9222
B(  4-C , 11-H ) :   0.9151 B(  5-C ,  6-C ) :   0.9029 B(  5-C , 12-H ) :   0.9156
B(  5-C , 13-H ) :   0.9178 B(  6-C ,  7-C ) :   0.9498 B(  6-C ,  8-O ) :   0.8805
B(  7-C ,  8-O ) :   0.8991 B(  7-C , 14-H ) :   0.9228 B(  7-C , 15-H ) :   0.9019

MP2 TOTAL ENERGY:     -437.137932363 Eh
FINAL SINGLE POINT ENERGY      -437.137932363316

DIPOLE MOMENT
-------------
                                X             Y             Z
Electronic contribution:      0.00072      -4.43617      -2.92891
Nuclear contribution   :      0.08209       6.01163       4.02477
                        -----------------------------------------
Total Dipole Moment    :      0.08282       1.57546       1.09586
                        -----------------------------------------
Magnitude (a.u.)       :      1.92089
Magnitude (Debye)      :      4.88252

                             ****ORCA TERMINATED NORMALLY****
TOTAL RUN TIME: 0 days 0 hours 17 minutes 3 seconds 589 msec
