                         Program Version 3.0.3 - RELEASE   -
|  1> ! RI-MP2 RIJK def2-TZVP def2-TZVP/C def2-TZVP/JK TIGHTSCF
|  2> % maxcore 2000
|  3> % mp2 density relaxed end
|  4> *xyz 0 1
|  5>  C       -0.0308863803     1.6078956374     0.0426882008
|  6>  C        1.4677926083     1.2090273805    -0.0500680841
|  7>  C        1.1405652646     0.1892187822     1.0870941697
|  8>  O        2.0225774007    -0.8453632197     1.4252544645
|  9>  C        1.9148758903    -2.0873440071     0.7528185844
| 10>  C        2.2625797015    -2.0244337753    -0.7107436911
| 11>  C        1.8806292624    -1.0246728307    -1.5022570464
| 12>  C        1.0214854360     0.1354212661    -1.1089551528
| 13>  C       -0.0281483647     0.0518528953     0.0614377233
| 14>  H       -0.3545213108     2.1108564880     0.9571879810
| 15>  H       -0.4616809117     2.0718643411    -0.8463123584
| 16>  H        2.3313353441     1.8717367952    -0.1155520105
| 17>  H        0.8580851910     0.6631201735     2.0335467325
| 18>  H        2.6064707130    -2.7541946444     1.2769579280
| 19>  H        0.9043014602    -2.5078775759     0.8875626045
| 20>  H        2.8585590287    -2.8395587021    -1.1132832201
| 21>  H        2.1893794825    -1.0387626310    -2.5453304777
| 22>  H        0.6053358596     0.5966990938    -2.0109975448
| 23>  H       -0.9009422955    -0.6007542272     0.1143923272
| 24> *
| 25>
| 26>                          ****END OF INPUT****

CARTESIAN COORDINATES (ANGSTROEM)
---------------------------------
  C     -0.030886    1.607896    0.042688
  C      1.467793    1.209027   -0.050068
  C      1.140565    0.189219    1.087094
  O      2.022577   -0.845363    1.425254
  C      1.914876   -2.087344    0.752819
  C      2.262580   -2.024434   -0.710744
  C      1.880629   -1.024673   -1.502257
  C      1.021485    0.135421   -1.108955
  C     -0.028148    0.051853    0.061438
  H     -0.354521    2.110856    0.957188
  H     -0.461681    2.071864   -0.846312
  H      2.331335    1.871737   -0.115552
  H      0.858085    0.663120    2.033547
  H      2.606471   -2.754195    1.276958
  H      0.904301   -2.507878    0.887563
  H      2.858559   -2.839559   -1.113283
  H      2.189379   -1.038763   -2.545330
  H      0.605336    0.596699   -2.010998
  H     -0.900942   -0.600754    0.114392

 Total Charge           Charge          ....    0
 Multiplicity           Mult            ....    1
 Number of Electrons    NEL             ....   66
 Basis Dimension        Dim             ....  339

ORBITAL ENERGIES
----------------

  NO   OCC          E(Eh)            E(eV)
   0   2.0000     -20.550181      -559.1989
   1   2.0000     -11.284677      -307.0717
   2   2.0000     -11.278048      -306.8913
   3   2.0000     -11.247516      -306.0605
   4   2.0000     -11.242342      -305.9197
   5   2.0000     -11.241491      -305.8965
   6   2.0000     -11.232877      -305.6621
   7   2.0000     -11.226914      -305.4999
   8   2.0000     -11.224351      -305.4301
   9   2.0000      -1.375439       -37.4276
  10   2.0000      -1.205924       -32.8149
  11   2.0000      -1.072879       -29.1945
  12   2.0000      -0.956594       -26.0303
  13   2.0000      -0.909196       -24.7405
  14   2.0000      -0.866125       -23.5685
  15   2.0000      -0.857738       -23.3402
  16   2.0000      -0.750030       -20.4093
  17   2.0000      -0.723846       -19.6969
  18   2.0000      -0.682407       -18.5692
  19   2.0000      -0.678107       -18.4522
  20   2.0000      -0.642330       -17.4787
  21   2.0000      -0.602263       -16.3884
  22   2.0000      -0.587193       -15.9783
  23   2.0000      -0.565472       -15.3873
  24   2.0000      -0.544766       -14.8238
  25   2.0000      -0.503530       -13.7018
  26   2.0000      -0.492787       -13.4094
  27   2.0000      -0.473788       -12.8924
  28   2.0000      -0.451122       -12.2757
  29   2.0000      -0.445561       -12.1243
  30   2.0000      -0.436289       -11.8720
  31   2.0000      -0.395930       -10.7738
  32   2.0000      -0.344010        -9.3610
  33   0.0000       0.131846         3.5877
  34   0.0000       0.150020         4.0823
  35   0.0000       0.163525         4.4497
  36   0.0000       0.167175         4.5491
  37   0.0000       0.177755         4.8370

MULLIKEN ATOMIC CHARGES
-----------------------
   0 C :   -0.224801
   1 C :   -0.097037
   2 C :    0.041175
   3 O :   -0.312480
   4 C :   -0.027438
   5 C :   -0.149760
   6 C :   -0.256714
   7 C :   -0.018163
   8 C :   -0.138306
   9 H :    0.119371
  10 H :    0.117119
  11 H :    0.137618
  12 H :    0.096769
  13 H :    0.133585
  14 H :    0.104946
  15 H :    0.123161
  16 H :    0.118553
  17 H :    0.097828
  18 H :    0.134574
Sum of atomic charges:    0.0000000

LOEWDIN ATOMIC CHARGES
----------------------
   0 C :   -0.196405
   1 C :   -0.140196
   2 C :   -0.262391
   3 O :    0.188320
   4 C :   -0.303132
   5 C :   -0.173421
   6 C :   -0.155997
   7 C :   -0.168488
   8 C :   -0.147141
   9 H :    0.129524
  10 H :    0.131204
  11 H :    0.126071
  12 H :    0.139417
  13 H :    0.135813
  14 H :    0.130324
  15 H :    0.143225
  16 H :    0.146572
  17 H :    0.150921
  18 H :    0.125780

  Mayer bond orders larger than 0.1
B(  0-C ,  1-C ) :   0.8896 B(  0-C ,  8-C ) :   0.9040 B(  0-C ,  9-H ) :   0.9258
B(  0-C , 10-H ) :   0.9227 B(  1-C ,  2-C ) :   0.8332 B(  1-C ,  7-C ) :   0.8598
B(  1-C , 11-H ) :   0.8853 B(  2-C ,  3-O ) :   0.9928 B(  2-C ,  8-C ) :   0.8868
B(  2-C , 12-H ) :   0.9811 B(  3-O ,  4-C ) :   0.9283 B(  4-C ,  5-C ) :   0.9221
B(  4-C , 13-H ) :   0.9355 B(  4-C , 14-H ) :   0.9222 B(  5-C ,  6-C ) :   1.8038
B(  5-C , 15-H ) :   0.9178 B(  6-C ,  7-C ) :   0.9415 B(  6-C , 16-H ) :   0.9301
B(  7-C ,  8-C ) :   0.8582 B(  7-C , 17-H ) :   0.9197 B(  8-C , 18-H ) :   0.9002

MP2 TOTAL ENERGY:     -385.152036440 Eh
FINAL SINGLE POINT ENERGY      -385.152036439514

DIPOLE MOMENT
-------------
                                X             Y             Z
Electronic contribution:      1.84861      -0.79367       1.24129
Nuclear contribution   :     -2.20041       0.73414      -1.58563
                        -----------------------------------------
Total Dipole Moment    :     -0.35180      -0.05953      -0.34434
                        -----------------------------------------
Magnitude (a.u.)       :      0.49586
Magnitude (Debye)      :      1.26038

                             ****ORCA TERMINATED NORMALLY****
TOTAL RUN TIME: 0 days 0 hours 17 minutes 50 seconds 38 msec
