                         Program Version 3.0.3 - RELEASE   -
|  1> ! RI-MP2 RIJK def2-TZVP def2-TZVP/C def2-TZVP/JK TIGHTSCF
|  2> % maxcore 2000
|  3> % mp2 density relaxed end
|  4> *xyz 0 1
|  5>  N        0.0167188784     1.3427127425     0.0091858116
|  6>  C       -0.0487698695     0.0048606753     0.0015154485
|  7>  C       -1.2656355854    -0.6559099259     0.0050611733
|  8>  C       -1.5029523610    -2.0349612582    -0.0016602076
|  9>  C       -0.5923349928    -3.0658398085    -0.0123326250
| 10>  C        0.8150091094    -2.9470427352    -0.0186079033
| 11>  N        1.6332871537    -1.9279663791    -0.0182697126
| 12>  C        1.3507711816    -0.5904962704    -0.0112859865
| 13>  O        2.2622713696     0.2332365687    -0.0145945174
| 14>  H        0.9566941748     1.7226207504     0.0038606226
| 15>  H       -0.8005550213     1.9272216626     0.0173128640
| 16>  H       -2.1485413878    -0.0198887873     0.0139158092
| 17>  H       -2.5531018395    -2.3190908466     0.0024652194
| 18>  H       -0.9777700999    -4.0804048416    -0.0157655312
| 19>  H        1.3370311697    -3.9089570467    -0.0252409349
| 20> *
| 21>
| 22>                          ****END OF INPUT****

CARTESIAN COORDINATES (ANGSTROEM)
---------------------------------
  N      0.016719    1.342713    0.009186
  C     -0.048770    0.004861    0.001515
  C     -1.265636   -0.655910    0.005061
  C     -1.502952   -2.034961   -0.001660
  C     -0.592335   -3.065840   -0.012333
  C      0.815009   -2.947043   -0.018608
  N      1.633287   -1.927966   -0.018270
  C      1.350771   -0.590496   -0.011286
  O      2.262271    0.233237   -0.014595
  H      0.956694    1.722621    0.003861
  H     -0.800555    1.927222    0.017313
  H     -2.148541   -0.019889    0.013916
  H     -2.553102   -2.319091    0.002465
  H     -0.977770   -4.080405   -0.015766
  H      1.337031   -3.908957   -0.025241

 Total Charge           Charge          ....    0
 Multiplicity           Mult            ....    1
 Number of Electrons    NEL             ....   64
 Basis Dimension        Dim             ....  315

ORBITAL ENERGIES
----------------

  NO   OCC          E(Eh)            E(eV)
   0   2.0000     -20.525889      -558.5378
   1   2.0000     -15.597827      -424.4385
   2   2.0000     -15.554767      -423.2667
   3   2.0000     -11.359072      -309.0961
   4   2.0000     -11.333860      -308.4100
   5   2.0000     -11.307355      -307.6888
   6   2.0000     -11.286028      -307.1084
   7   2.0000     -11.249230      -306.1071
   8   2.0000     -11.237388      -305.7849
   9   2.0000      -1.388012       -37.7697
  10   2.0000      -1.260809       -34.3083
  11   2.0000      -1.229913       -33.4676
  12   2.0000      -1.110643       -30.2221
  13   2.0000      -1.033084       -28.1116
  14   2.0000      -0.921122       -25.0650
  15   2.0000      -0.904100       -24.6018
  16   2.0000      -0.808855       -22.0101
  17   2.0000      -0.756098       -20.5745
  18   2.0000      -0.720118       -19.5954
  19   2.0000      -0.688935       -18.7469
  20   2.0000      -0.661444       -17.9988
  21   2.0000      -0.628636       -17.1060
  22   2.0000      -0.622956       -16.9515
  23   2.0000      -0.594780       -16.1848
  24   2.0000      -0.564595       -15.3634
  25   2.0000      -0.540277       -14.7017
  26   2.0000      -0.513546       -13.9743
  27   2.0000      -0.483857       -13.1664
  28   2.0000      -0.449156       -12.2221
  29   2.0000      -0.408130       -11.1058
  30   2.0000      -0.400272       -10.8919
  31   2.0000      -0.303320        -8.2538
  32   0.0000       0.047284         1.2867
  33   0.0000       0.078536         2.1371
  34   0.0000       0.125497         3.4149
  35   0.0000       0.144896         3.9428
  36   0.0000       0.171701         4.6722

MULLIKEN ATOMIC CHARGES
-----------------------
   0 N :   -0.425107
   1 C :    0.127017
   2 C :   -0.196666
   3 C :   -0.109794
   4 C :   -0.128637
   5 C :   -0.019919
   6 N :   -0.208497
   7 C :    0.275533
   8 O :   -0.365554
   9 H :    0.292595
  10 H :    0.250692
  11 H :    0.118217
  12 H :    0.130379
  13 H :    0.133546
  14 H :    0.126194
Sum of atomic charges:    0.0000000

LOEWDIN ATOMIC CHARGES
----------------------
   0 N :    0.045365
   1 C :   -0.198853
   2 C :   -0.141844
   3 C :   -0.137629
   4 C :   -0.166974
   5 C :   -0.213038
   6 N :    0.160302
   7 C :   -0.411102
   8 O :    0.087183
   9 H :    0.190347
  10 H :    0.173247
  11 H :    0.154038
  12 H :    0.157170
  13 H :    0.154833
  14 H :    0.146954

  Mayer bond orders larger than 0.1
B(  0-N ,  1-C ) :   1.2414 B(  0-N ,  9-H ) :   0.8123 B(  0-N , 10-H ) :   0.8706
B(  1-C ,  2-C ) :   1.3597 B(  1-C ,  7-C ) :   0.9359 B(  2-C ,  3-C ) :   1.3070
B(  2-C , 11-H ) :   0.9184 B(  3-C ,  4-C ) :   1.4356 B(  3-C , 12-H ) :   0.9244
B(  4-C ,  5-C ) :   1.1522 B(  4-C , 13-H ) :   0.9131 B(  5-C ,  6-N ) :   1.5578
B(  5-C , 14-H ) :   0.9548 B(  6-N ,  7-C ) :   1.2419 B(  7-C ,  8-O ) :   1.7747

MP2 TOTAL ENERGY:     -416.127598568 Eh
FINAL SINGLE POINT ENERGY      -416.127598567728

DIPOLE MOMENT
-------------
                                X             Y             Z
Electronic contribution:      3.65587       0.89138      -0.01900
Nuclear contribution   :     -5.74375      -0.58062       0.03411
                        -----------------------------------------
Total Dipole Moment    :     -2.08787       0.31077       0.01511
                        -----------------------------------------
Magnitude (a.u.)       :      2.11093
Magnitude (Debye)      :      5.36556

                             ****ORCA TERMINATED NORMALLY****
TOTAL RUN TIME: 0 days 0 hours 17 minutes 11 seconds 238 msec
