                         Program Version 3.0.3 - RELEASE   -
|  1> ! RI-MP2 RIJK def2-TZVP def2-TZVP/C def2-TZVP/JK TIGHTSCF
|  2> % maxcore 2000
|  3> % mp2 density relaxed end
|  4> *xyz 0 1
|  5>  C       -0.0025387627     1.5036622345     0.0312989450
|  6>  C       -0.0060058946    -0.0027699880    -0.0035235134
|  7>  C       -0.6356340894    -0.7348631444    -1.1974364261
|  8>  N       -1.3582238803    -1.8808827236    -0.6247109846
|  9>  C       -1.1951534751    -1.8384695908     0.6322309158
| 10>  N       -0.4585263203    -0.7397675688     1.1972123306
| 11>  C        0.9910037146    -0.7691041564     0.8156691611
| 12>  C        1.6168381231    -1.9653373174     0.3156928161
| 13>  N        2.1557005429    -2.9084050994    -0.0819397118
| 14>  H        0.6480767764     1.9050163290    -0.7525945310
| 15>  H       -1.0132989196     1.8895711716    -0.1354232045
| 16>  H        0.3497133540     1.8759446141     0.9964780074
| 17>  H       -1.3398240853    -0.0793445241    -1.7222213655
| 18>  H        0.0901858242    -1.0921571882    -1.9354601210
| 19>  H       -1.6089888674    -2.5701853660     1.3182897756
| 20>  H        1.6169535695    -0.2106674420     1.5062156564
| 21> *
| 22>
| 23>                          ****END OF INPUT****

CARTESIAN COORDINATES (ANGSTROEM)
---------------------------------
  C     -0.002539    1.503662    0.031299
  C     -0.006006   -0.002770   -0.003524
  C     -0.635634   -0.734863   -1.197436
  N     -1.358224   -1.880883   -0.624711
  C     -1.195153   -1.838470    0.632231
  N     -0.458526   -0.739768    1.197212
  C      0.991004   -0.769104    0.815669
  C      1.616838   -1.965337    0.315693
  N      2.155701   -2.908405   -0.081940
  H      0.648077    1.905016   -0.752595
  H     -1.013299    1.889571   -0.135423
  H      0.349713    1.875945    0.996478
  H     -1.339824   -0.079345   -1.722221
  H      0.090186   -1.092157   -1.935460
  H     -1.608989   -2.570185    1.318290
  H      1.616954   -0.210667    1.506216

 Total Charge           Charge          ....    0
 Multiplicity           Mult            ....    1
 Number of Electrons    NEL             ....   64
 Basis Dimension        Dim             ....  321

ORBITAL ENERGIES
----------------

  NO   OCC          E(Eh)            E(eV)
   0   2.0000     -15.610601      -424.7861
   1   2.0000     -15.585868      -424.1130
   2   2.0000     -15.574556      -423.8052
   3   2.0000     -11.330464      -308.3176
   4   2.0000     -11.319617      -308.0224
   5   2.0000     -11.311868      -307.8116
   6   2.0000     -11.287075      -307.1369
   7   2.0000     -11.280124      -306.9478
   8   2.0000     -11.251076      -306.1573
   9   2.0000      -1.361063       -37.0364
  10   2.0000      -1.232955       -33.5504
  11   2.0000      -1.215234       -33.0682
  12   2.0000      -1.061676       -28.8897
  13   2.0000      -0.993132       -27.0245
  14   2.0000      -0.957523       -26.0555
  15   2.0000      -0.846599       -23.0371
  16   2.0000      -0.788665       -21.4607
  17   2.0000      -0.744258       -20.2523
  18   2.0000      -0.687690       -18.7130
  19   2.0000      -0.638077       -17.3630
  20   2.0000      -0.618922       -16.8417
  21   2.0000      -0.596272       -16.2254
  22   2.0000      -0.587156       -15.9773
  23   2.0000      -0.582552       -15.8520
  24   2.0000      -0.564974       -15.3737
  25   2.0000      -0.549352       -14.9486
  26   2.0000      -0.520453       -14.1623
  27   2.0000      -0.489413       -13.3176
  28   2.0000      -0.472855       -12.8670
  29   2.0000      -0.451979       -12.2990
  30   2.0000      -0.436756       -11.8847
  31   2.0000      -0.391441       -10.6517
  32   0.0000       0.115637         3.1466
  33   0.0000       0.121132         3.2962
  34   0.0000       0.154609         4.2071
  35   0.0000       0.157528         4.2866
  36   0.0000       0.166908         4.5418

MULLIKEN ATOMIC CHARGES
-----------------------
   0 C :   -0.419819
   1 C :    0.146865
   2 C :   -0.125460
   3 N :   -0.198705
   4 C :    0.005049
   5 N :   -0.206442
   6 C :   -0.020320
   7 C :   -0.176239
   8 N :   -0.040710
   9 H :    0.146059
  10 H :    0.145194
  11 H :    0.147178
  12 H :    0.136737
  13 H :    0.151532
  14 H :    0.151274
  15 H :    0.157807
Sum of atomic charges:   -0.0000000

LOEWDIN ATOMIC CHARGES
----------------------
   0 C :   -0.257419
   1 C :   -0.255119
   2 C :   -0.228301
   3 N :    0.111701
   4 C :   -0.266894
   5 N :    0.171986
   6 C :   -0.189450
   7 C :   -0.175527
   8 N :    0.083721
   9 H :    0.135488
  10 H :    0.135018
  11 H :    0.135462
  12 H :    0.143899
  13 H :    0.147075
  14 H :    0.138819
  15 H :    0.169539

  Mayer bond orders larger than 0.1
B(  0-C ,  1-C ) :   0.8796 B(  0-C ,  9-H ) :   0.9335 B(  0-C , 10-H ) :   0.9335
B(  0-C , 11-H ) :   0.9339 B(  1-C ,  2-C ) :   0.9590 B(  1-C ,  5-N ) :   0.8089
B(  1-C ,  6-C ) :   0.8882 B(  2-C ,  3-N ) :   0.9453 B(  2-C , 12-H ) :   0.9179
B(  2-C , 13-H ) :   0.9044 B(  3-N ,  4-C ) :   1.8480 B(  4-C ,  5-N ) :   0.9786
B(  4-C , 14-H ) :   0.9209 B(  5-N ,  6-C ) :   0.8919 B(  6-C ,  7-C ) :   0.9638
B(  6-C , 15-H ) :   0.9020 B(  7-C ,  8-N ) :   2.8173

MP2 TOTAL ENERGY:     -396.233130543 Eh
FINAL SINGLE POINT ENERGY      -396.233130542725

DIPOLE MOMENT
-------------
                                X             Y             Z
Electronic contribution:      1.66360      -6.57209       1.64306
Nuclear contribution   :     -1.86840       8.18130      -1.39864
                        -----------------------------------------
Total Dipole Moment    :     -0.20480       1.60920       0.24442
                        -----------------------------------------
Magnitude (a.u.)       :      1.64049
Magnitude (Debye)      :      4.16980

                             ****ORCA TERMINATED NORMALLY****
TOTAL RUN TIME: 0 days 0 hours 18 minutes 1 seconds 662 msec
