                         Program Version 3.0.3 - RELEASE   -
|  1> ! RI-MP2 RIJK def2-TZVP def2-TZVP/C def2-TZVP/JK TIGHTSCF
|  2> % maxcore 2000
|  3> % mp2 density relaxed end
|  4> *xyz 0 1
|  5>  C        0.4323478640     1.5642672904    -0.0726061071
|  6>  C       -0.0419222515     0.1049191631     0.0191333073
|  7>  C        0.4653653049    -0.7995310050    -1.1156350930
|  8>  C        1.7695163984    -1.3987020350    -0.5611650084
|  9>  N        1.5599609732    -1.4093801796     0.8887077235
| 10>  C        2.4108334267    -2.1442106903     1.7089364396
| 11>  N        2.3551601230    -2.1580884293     2.9758613367
| 12>  C        0.5292111562    -0.5419062203     1.2886513302
| 13>  O        0.1770053275    -0.3195657128     2.4168941025
| 14>  H        1.5217962605     1.6277250449    -0.1713327266
| 15>  H       -0.0139449980     2.0600509240    -0.9399672356
| 16>  H        0.1443698688     2.1116139662     0.8286046679
| 17>  H       -1.1318287316     0.0936828372     0.0988115496
| 18>  H       -0.2528342242    -1.6020850232    -1.3078181531
| 19>  H        0.6293567563    -0.2658702317    -2.0546697325
| 20>  H        1.9564873318    -2.4107869314    -0.9319593488
| 21>  H        2.6405799694    -0.7825911712    -0.8216083432
| 22>  H        3.1305511617    -2.7130287444     1.1048473056
| 23>  H        3.0764481231    -2.7799390317     3.3389262855
| 24> *
| 25>
| 26>                          ****END OF INPUT****

CARTESIAN COORDINATES (ANGSTROEM)
---------------------------------
  C      0.432348    1.564267   -0.072606
  C     -0.041922    0.104919    0.019133
  C      0.465365   -0.799531   -1.115635
  C      1.769516   -1.398702   -0.561165
  N      1.559961   -1.409380    0.888708
  C      2.410833   -2.144211    1.708936
  N      2.355160   -2.158088    2.975861
  C      0.529211   -0.541906    1.288651
  O      0.177005   -0.319566    2.416894
  H      1.521796    1.627725   -0.171333
  H     -0.013945    2.060051   -0.939967
  H      0.144370    2.111614    0.828605
  H     -1.131829    0.093683    0.098812
  H     -0.252834   -1.602085   -1.307818
  H      0.629357   -0.265870   -2.054670
  H      1.956487   -2.410787   -0.931959
  H      2.640580   -0.782591   -0.821608
  H      3.130551   -2.713029    1.104847
  H      3.076448   -2.779939    3.338926

 Total Charge           Charge          ....    0
 Multiplicity           Mult            ....    1
 Number of Electrons    NEL             ....   68
 Basis Dimension        Dim             ....  339

ORBITAL ENERGIES
----------------

  NO   OCC          E(Eh)            E(eV)
   0   2.0000     -20.523726      -558.4790
   1   2.0000     -15.601380      -424.5351
   2   2.0000     -15.538379      -422.8208
   3   2.0000     -11.349020      -308.8225
   4   2.0000     -11.320096      -308.0355
   5   2.0000     -11.286304      -307.1159
   6   2.0000     -11.250150      -306.1321
   7   2.0000     -11.247610      -306.0630
   8   2.0000     -11.231326      -305.6199
   9   2.0000      -1.389568       -37.8121
  10   2.0000      -1.287637       -35.0384
  11   2.0000      -1.191852       -32.4320
  12   2.0000      -1.091130       -29.6911
  13   2.0000      -1.001733       -27.2585
  14   2.0000      -0.931283       -25.3415
  15   2.0000      -0.876858       -23.8605
  16   2.0000      -0.821895       -22.3649
  17   2.0000      -0.715855       -19.4794
  18   2.0000      -0.701024       -19.0758
  19   2.0000      -0.684387       -18.6231
  20   2.0000      -0.663007       -18.0414
  21   2.0000      -0.630827       -17.1657
  22   2.0000      -0.599955       -16.3256
  23   2.0000      -0.596991       -16.2450
  24   2.0000      -0.570321       -15.5192
  25   2.0000      -0.568164       -15.4605
  26   2.0000      -0.548510       -14.9257
  27   2.0000      -0.536548       -14.6002
  28   2.0000      -0.491567       -13.3762
  29   2.0000      -0.483685       -13.1617
  30   2.0000      -0.473074       -12.8730
  31   2.0000      -0.446548       -12.1512
  32   2.0000      -0.396203       -10.7812
  33   2.0000      -0.367617       -10.0034
  34   0.0000       0.118499         3.2245
  35   0.0000       0.129459         3.5228
  36   0.0000       0.144648         3.9361
  37   0.0000       0.155069         4.2196
  38   0.0000       0.160994         4.3809

MULLIKEN ATOMIC CHARGES
-----------------------
   0 C :   -0.442972
   1 C :    0.011219
   2 C :   -0.244814
   3 C :   -0.202401
   4 N :   -0.041190
   5 C :   -0.036575
   6 N :   -0.321766
   7 C :    0.162173
   8 O :   -0.274984
   9 H :    0.129461
  10 H :    0.136436
  11 H :    0.158872
  12 H :    0.118051
  13 H :    0.129857
  14 H :    0.133612
  15 H :    0.136408
  16 H :    0.129693
  17 H :    0.099642
  18 H :    0.219281
Sum of atomic charges:   -0.0000000

LOEWDIN ATOMIC CHARGES
----------------------
   0 C :   -0.279572
   1 C :   -0.236268
   2 C :   -0.225719
   3 C :   -0.239658
   4 N :    0.206382
   5 C :   -0.321894
   6 N :   -0.059232
   7 C :   -0.371366
   8 O :    0.150524
   9 H :    0.125565
  10 H :    0.124528
  11 H :    0.134027
  12 H :    0.160404
  13 H :    0.142806
  14 H :    0.140027
  15 H :    0.132860
  16 H :    0.130223
  17 H :    0.120667
  18 H :    0.165695

  Mayer bond orders larger than 0.1
B(  0-C ,  1-C ) :   0.9029 B(  0-C ,  9-H ) :   0.9290 B(  0-C , 10-H ) :   0.9362
B(  0-C , 11-H ) :   0.9357 B(  1-C ,  2-C ) :   0.8948 B(  1-C ,  7-C ) :   0.8986
B(  1-C , 12-H ) :   0.9230 B(  2-C ,  3-C ) :   0.9455 B(  2-C , 13-H ) :   0.9272
B(  2-C , 14-H ) :   0.9364 B(  3-C ,  4-N ) :   0.8866 B(  3-C , 15-H ) :   0.9273
B(  3-C , 16-H ) :   0.9181 B(  4-N ,  5-C ) :   0.9888 B(  4-N ,  7-C ) :   1.0288
B(  5-C ,  6-N ) :   1.9659 B(  5-C , 17-H ) :   0.9255 B(  6-N , 18-H ) :   0.8508
B(  7-C ,  8-O ) :   2.0276

MP2 TOTAL ENERGY:     -418.543221950 Eh
FINAL SINGLE POINT ENERGY      -418.543221950462

DIPOLE MOMENT
-------------
                                X             Y             Z
Electronic contribution:     -0.13917      -3.33820       6.78467
Nuclear contribution   :      0.83717       2.94004      -8.73686
                        -----------------------------------------
Total Dipole Moment    :      0.69799      -0.39817      -1.95219
                        -----------------------------------------
Magnitude (a.u.)       :      2.11111
Magnitude (Debye)      :      5.36601

                             ****ORCA TERMINATED NORMALLY****
TOTAL RUN TIME: 0 days 0 hours 16 minutes 58 seconds 95 msec
