                         Program Version 3.0.3 - RELEASE   -
|  1> ! RI-MP2 RIJK def2-TZVP def2-TZVP/C def2-TZVP/JK TIGHTSCF
|  2> % maxcore 2000
|  3> % mp2 density relaxed end
|  4> *xyz 0 1
|  5>  C        0.0114076105     1.5342554697     0.0846116192
|  6>  C        1.5113673462     1.9384800713     0.1227723464
|  7>  C        2.0708804213     1.6634582436    -1.1958136199
|  8>  C        2.1384616094     1.2393446128    -2.3211369629
|  9>  C        1.7594754046     0.5444759558    -3.5481612234
| 10>  C        0.2934758817     0.1166395558    -3.4487572729
| 11>  C       -0.3636676771    -0.3208701578    -2.3702824081
| 12>  C        0.1949702403    -0.6673674328    -1.0063297330
| 13>  O       -0.2485826153     0.1440046839     0.0873908856
| 14>  H       -0.4808934447     1.9045455171     0.9903940711
| 15>  H       -0.4518231162     2.0220397516    -0.7842533579
| 16>  H        1.5807641790     3.0007061584     0.3891560664
| 17>  H        2.0249852879     1.3775920071     0.9125789330
| 18>  H        1.8810812455     1.1873937889    -4.4277145598
| 19>  H        2.4070228050    -0.3246930356    -3.7315517312
| 20>  H       -0.2659649780     0.2200938530    -4.3764223489
| 21>  H       -1.4284214568    -0.5189484659    -2.4828746108
| 22>  H       -0.1805248502    -1.6632899251    -0.7417407285
| 23>  H        1.2849364869    -0.7286855817    -1.0287538944
| 24> *
| 25>
| 26>                          ****END OF INPUT****

CARTESIAN COORDINATES (ANGSTROEM)
---------------------------------
  C      0.011408    1.534255    0.084612
  C      1.511367    1.938480    0.122772
  C      2.070880    1.663458   -1.195814
  C      2.138462    1.239345   -2.321137
  C      1.759475    0.544476   -3.548161
  C      0.293476    0.116640   -3.448757
  C     -0.363668   -0.320870   -2.370282
  C      0.194970   -0.667367   -1.006330
  O     -0.248583    0.144005    0.087391
  H     -0.480893    1.904546    0.990394
  H     -0.451823    2.022040   -0.784253
  H      1.580764    3.000706    0.389156
  H      2.024985    1.377592    0.912579
  H      1.881081    1.187394   -4.427715
  H      2.407023   -0.324693   -3.731552
  H     -0.265965    0.220094   -4.376422
  H     -1.428421   -0.518948   -2.482875
  H     -0.180525   -1.663290   -0.741741
  H      1.284936   -0.728686   -1.028754

 Total Charge           Charge          ....    0
 Multiplicity           Mult            ....    1
 Number of Electrons    NEL             ....   66
 Basis Dimension        Dim             ....  339

ORBITAL ENERGIES
----------------

  NO   OCC          E(Eh)            E(eV)
   0   2.0000     -20.552772      -559.2694
   1   2.0000     -11.279674      -306.9355
   2   2.0000     -11.275879      -306.8323
   3   2.0000     -11.261872      -306.4511
   4   2.0000     -11.250680      -306.1466
   5   2.0000     -11.245038      -305.9930
   6   2.0000     -11.232484      -305.6514
   7   2.0000     -11.220575      -305.3274
   8   2.0000     -11.216740      -305.2230
   9   2.0000      -1.365525       -37.1578
  10   2.0000      -1.107304       -30.1313
  11   2.0000      -1.074470       -29.2378
  12   2.0000      -1.002301       -27.2740
  13   2.0000      -0.978102       -26.6155
  14   2.0000      -0.894616       -24.3437
  15   2.0000      -0.841329       -22.8937
  16   2.0000      -0.741424       -20.1752
  17   2.0000      -0.689881       -18.7726
  18   2.0000      -0.678723       -18.4690
  19   2.0000      -0.656352       -17.8602
  20   2.0000      -0.629449       -17.1282
  21   2.0000      -0.612158       -16.6577
  22   2.0000      -0.600752       -16.3473
  23   2.0000      -0.581118       -15.8130
  24   2.0000      -0.570442       -15.5225
  25   2.0000      -0.552577       -15.0364
  26   2.0000      -0.522028       -14.2051
  27   2.0000      -0.502144       -13.6640
  28   2.0000      -0.467877       -12.7316
  29   2.0000      -0.430084       -11.7032
  30   2.0000      -0.375647       -10.2219
  31   2.0000      -0.369246       -10.0477
  32   2.0000      -0.349764        -9.5176
  33   0.0000       0.133042         3.6203
  34   0.0000       0.137565         3.7433
  35   0.0000       0.152393         4.1468
  36   0.0000       0.161282         4.3887
  37   0.0000       0.173710         4.7269

MULLIKEN ATOMIC CHARGES
-----------------------
   0 C :   -0.044842
   1 C :   -0.198018
   2 C :   -0.100397
   3 C :   -0.097207
   4 C :   -0.179771
   5 C :   -0.144014
   6 C :   -0.215748
   7 C :   -0.021715
   8 O :   -0.312671
   9 H :    0.128060
  10 H :    0.107410
  11 H :    0.138467
  12 H :    0.138303
  13 H :    0.147360
  14 H :    0.153156
  15 H :    0.129013
  16 H :    0.126525
  17 H :    0.123120
  18 H :    0.122971
Sum of atomic charges:   -0.0000000

LOEWDIN ATOMIC CHARGES
----------------------
   0 C :   -0.305628
   1 C :   -0.254050
   2 C :   -0.091558
   3 C :   -0.085427
   4 C :   -0.239207
   5 C :   -0.148851
   6 C :   -0.176511
   7 C :   -0.295835
   8 O :    0.149154
   9 H :    0.130592
  10 H :    0.127262
  11 H :    0.154666
  12 H :    0.153933
  13 H :    0.157508
  14 H :    0.161056
  15 H :    0.145224
  16 H :    0.146534
  17 H :    0.137339
  18 H :    0.133798

  Mayer bond orders larger than 0.1
B(  0-C ,  1-C ) :   0.9010 B(  0-C ,  8-O ) :   0.9510 B(  0-C ,  9-H ) :   0.9290
B(  0-C , 10-H ) :   0.9309 B(  1-C ,  2-C ) :   0.9151 B(  1-C , 11-H ) :   0.9261
B(  1-C , 12-H ) :   0.9259 B(  2-C ,  3-C ) :   2.6158 B(  3-C ,  4-C ) :   0.9273
B(  4-C ,  5-C ) :   0.9125 B(  4-C , 13-H ) :   0.9381 B(  4-C , 14-H ) :   0.9181
B(  5-C ,  6-C ) :   1.7962 B(  5-C , 15-H ) :   0.9199 B(  6-C ,  7-C ) :   0.9090
B(  6-C , 16-H ) :   0.9252 B(  7-C ,  8-O ) :   0.9268 B(  7-C , 17-H ) :   0.9223
B(  7-C , 18-H ) :   0.9480

MP2 TOTAL ENERGY:     -385.151657755 Eh
FINAL SINGLE POINT ENERGY      -385.151657754863

DIPOLE MOMENT
-------------
                                X             Y             Z
Electronic contribution:      1.19293       0.24200       0.22374
Nuclear contribution   :     -1.25073      -0.18862      -0.61702
                        -----------------------------------------
Total Dipole Moment    :     -0.05779       0.05338      -0.39328
                        -----------------------------------------
Magnitude (a.u.)       :      0.40107
Magnitude (Debye)      :      1.01944

                             ****ORCA TERMINATED NORMALLY****
TOTAL RUN TIME: 0 days 0 hours 18 minutes 35 seconds 734 msec
