                         Program Version 3.0.3 - RELEASE   -
|  1> ! RI-MP2 RIJK def2-TZVP def2-TZVP/C def2-TZVP/JK TIGHTSCF
|  2> % maxcore 2000
|  3> % mp2 density relaxed end
|  4> *xyz 0 1
|  5>  C        0.0979246367     1.4964406853     0.4435433037
|  6>  C        1.4956602503     1.5938484014    -0.2414290667
|  7>  C        1.3232661590     0.1686941882    -0.8421752510
|  8>  C        2.0125550657    -0.3410882183    -2.1064289697
|  9>  C        3.0907450727    -1.3120483432    -1.4789423182
| 10>  N        2.5155544500    -1.8198355008    -0.1955615103
| 11>  C        1.6305806048    -0.9611640972     0.0686530998
| 12>  O        0.5107126008    -0.9209164041     0.8520656979
| 13>  C       -0.0746225314     0.0694875007    -0.0863166165
| 14>  H        0.0744297023     1.5671568394     1.5321734481
| 15>  H       -0.6322053636     2.1927181674     0.0236890561
| 16>  H        1.5297724952     2.3624775923    -1.0170788917
| 17>  H        2.3576855047     1.7302644693     0.4165834545
| 18>  H        1.3275997774    -0.9185505986    -2.7355476823
| 19>  H        2.4481245488     0.4521799192    -2.7198294222
| 20>  H        3.3000660923    -2.1642303951    -2.1306443437
| 21>  H        4.0431238300    -0.7968484228    -1.3002525148
| 22>  H       -1.0215463058    -0.2997765530    -0.4794514030
| 23> *
| 24>
| 25>                          ****END OF INPUT****

CARTESIAN COORDINATES (ANGSTROEM)
---------------------------------
  C      0.097925    1.496441    0.443543
  C      1.495660    1.593848   -0.241429
  C      1.323266    0.168694   -0.842175
  C      2.012555   -0.341088   -2.106429
  C      3.090745   -1.312048   -1.478942
  N      2.515554   -1.819836   -0.195562
  C      1.630581   -0.961164    0.068653
  O      0.510713   -0.920916    0.852066
  C     -0.074623    0.069488   -0.086317
  H      0.074430    1.567157    1.532173
  H     -0.632205    2.192718    0.023689
  H      1.529772    2.362478   -1.017079
  H      2.357686    1.730264    0.416583
  H      1.327600   -0.918551   -2.735548
  H      2.448125    0.452180   -2.719829
  H      3.300066   -2.164230   -2.130644
  H      4.043124   -0.796848   -1.300253
  H     -1.021546   -0.299777   -0.479451

 Total Charge           Charge          ....    0
 Multiplicity           Mult            ....    1
 Number of Electrons    NEL             ....   66
 Basis Dimension        Dim             ....  333

ORBITAL ENERGIES
----------------

  NO   OCC          E(Eh)            E(eV)
   0   2.0000     -20.590618      -560.2992
   1   2.0000     -15.539135      -422.8414
   2   2.0000     -11.323258      -308.1215
   3   2.0000     -11.314109      -307.8726
   4   2.0000     -11.258217      -306.3516
   5   2.0000     -11.252253      -306.1894
   6   2.0000     -11.246413      -306.0304
   7   2.0000     -11.242804      -305.9323
   8   2.0000     -11.242215      -305.9162
   9   2.0000      -1.432978       -38.9933
  10   2.0000      -1.236005       -33.6334
  11   2.0000      -1.135496       -30.8984
  12   2.0000      -1.016814       -27.6689
  13   2.0000      -0.951408       -25.8891
  14   2.0000      -0.911212       -24.7953
  15   2.0000      -0.846421       -23.0323
  16   2.0000      -0.798033       -21.7156
  17   2.0000      -0.704630       -19.1740
  18   2.0000      -0.691781       -18.8243
  19   2.0000      -0.667747       -18.1703
  20   2.0000      -0.654217       -17.8022
  21   2.0000      -0.606783       -16.5114
  22   2.0000      -0.592861       -16.1326
  23   2.0000      -0.577204       -15.7065
  24   2.0000      -0.549842       -14.9620
  25   2.0000      -0.537511       -14.6264
  26   2.0000      -0.529266       -14.4021
  27   2.0000      -0.492006       -13.3882
  28   2.0000      -0.470543       -12.8041
  29   2.0000      -0.468215       -12.7408
  30   2.0000      -0.439020       -11.9464
  31   2.0000      -0.405053       -11.0221
  32   2.0000      -0.371426       -10.1070
  33   0.0000       0.129310         3.5187
  34   0.0000       0.145035         3.9466
  35   0.0000       0.154622         4.2075
  36   0.0000       0.172403         4.6913
  37   0.0000       0.178772         4.8646

MULLIKEN ATOMIC CHARGES
-----------------------
   0 C :   -0.205142
   1 C :   -0.277207
   2 C :    0.030516
   3 C :   -0.226152
   4 C :   -0.085002
   5 N :   -0.198927
   6 C :    0.089620
   7 O :   -0.266481
   8 C :    0.013347
   9 H :    0.129498
  10 H :    0.123328
  11 H :    0.127093
  12 H :    0.129411
  13 H :    0.124055
  14 H :    0.128237
  15 H :    0.121613
  16 H :    0.111262
  17 H :    0.130933
Sum of atomic charges:   -0.0000000

LOEWDIN ATOMIC CHARGES
----------------------
   0 C :   -0.216267
   1 C :   -0.185245
   2 C :   -0.180312
   3 C :   -0.210010
   4 C :   -0.244009
   5 N :    0.100938
   6 C :   -0.362385
   7 O :    0.242281
   8 C :   -0.156948
   9 H :    0.138008
  10 H :    0.138312
  11 H :    0.136487
  12 H :    0.134820
  13 H :    0.143778
  14 H :    0.135911
  15 H :    0.127410
  16 H :    0.125486
  17 H :    0.131745

  Mayer bond orders larger than 0.1
B(  0-C ,  1-C ) :   0.9739 B(  0-C ,  8-C ) :   0.9291 B(  0-C ,  9-H ) :   0.9131
B(  0-C , 10-H ) :   0.9123 B(  1-C ,  2-C ) :   0.9118 B(  1-C , 11-H ) :   0.9205
B(  1-C , 12-H ) :   0.9075 B(  2-C ,  3-C ) :   0.8729 B(  2-C ,  6-C ) :   0.9668
B(  2-C ,  8-C ) :   0.8847 B(  3-C ,  4-C ) :   0.9318 B(  3-C , 13-H ) :   0.9159
B(  3-C , 14-H ) :   0.9233 B(  4-C ,  5-N ) :   0.8888 B(  4-C , 15-H ) :   0.9256
B(  4-C , 16-H ) :   0.9221 B(  5-N ,  6-C ) :   1.8952 B(  6-C ,  7-O ) :   1.0929
B(  7-O ,  8-C ) :   0.8619 B(  8-C , 17-H ) :   0.9109

MP2 TOTAL ENERGY:     -401.218453686 Eh
FINAL SINGLE POINT ENERGY      -401.218453685936

DIPOLE MOMENT
-------------
                                X             Y             Z
Electronic contribution:     -1.17678      -4.44250       3.62969
Nuclear contribution   :      0.80036       5.73582      -4.54236
                        -----------------------------------------
Total Dipole Moment    :     -0.37642       1.29332      -0.91267
                        -----------------------------------------
Magnitude (a.u.)       :      1.62707
Magnitude (Debye)      :      4.13567

                             ****ORCA TERMINATED NORMALLY****
TOTAL RUN TIME: 0 days 0 hours 18 minutes 50 seconds 994 msec
