                         Program Version 3.0.3 - RELEASE   -
|  1> ! RI-MP2 RIJK def2-TZVP def2-TZVP/C def2-TZVP/JK TIGHTSCF
|  2> % maxcore 2000
|  3> % mp2 density relaxed end
|  4> *xyz 0 1
|  5>  C        0.5018956261     1.3039237744     0.2437914539
|  6>  C       -0.0159791577    -0.1024381502    -0.0203249826
|  7>  C       -1.5210810469    -0.2096355251     0.1975387521
|  8>  C        0.5074995235    -0.7973020939    -1.3056640328
|  9>  C        1.1161849003    -1.8365627526    -0.3440488189
| 10>  C        2.6184112994    -2.0536673317    -0.3787743359
| 11>  C        3.1150205582    -2.8667622804     0.8100988430
| 12>  O        4.5222835475    -3.0138851304     0.6804925858
| 13>  O        0.6871711496    -1.0755854053     0.8120322196
| 14>  H        1.5859832242     1.3501171049     0.1097974960
| 15>  H        0.0356209933     2.0235983600    -0.4381877073
| 16>  H        0.2721847421     1.6080282738     1.2704320273
| 17>  H       -2.0620413979     0.4621058733    -0.4781430265
| 18>  H       -1.8682961577    -1.2313850675     0.0183074544
| 19>  H       -1.7758948749     0.0607434230     1.2273240288
| 20>  H       -0.2574339485    -1.1635476485    -1.9925783906
| 21>  H        1.2457305575    -0.2166275169    -1.8638736279
| 22>  H        0.5993443080    -2.8078310792    -0.3697131344
| 23>  H        2.8864938906    -2.5723901589    -1.3082333371
| 24>  H        3.1328373917    -1.0858958976    -0.3853152029
| 25>  H        2.8460011144    -2.3448034906     1.7395910470
| 26>  H        2.6120492401    -3.8483757006     0.8248865451
| 27>  H        4.8486061872    -3.4614903701     1.4663155939
| 28> *
| 29>
| 30>                          ****END OF INPUT****

CARTESIAN COORDINATES (ANGSTROEM)
---------------------------------
  C      0.501896    1.303924    0.243791
  C     -0.015979   -0.102438   -0.020325
  C     -1.521081   -0.209636    0.197539
  C      0.507500   -0.797302   -1.305664
  C      1.116185   -1.836563   -0.344049
  C      2.618411   -2.053667   -0.378774
  C      3.115021   -2.866762    0.810099
  O      4.522284   -3.013885    0.680493
  O      0.687171   -1.075585    0.812032
  H      1.585983    1.350117    0.109797
  H      0.035621    2.023598   -0.438188
  H      0.272185    1.608028    1.270432
  H     -2.062041    0.462106   -0.478143
  H     -1.868296   -1.231385    0.018307
  H     -1.775895    0.060743    1.227324
  H     -0.257434   -1.163548   -1.992578
  H      1.245731   -0.216628   -1.863874
  H      0.599344   -2.807831   -0.369713
  H      2.886494   -2.572390   -1.308233
  H      3.132837   -1.085896   -0.385315
  H      2.846001   -2.344803    1.739591
  H      2.612049   -3.848376    0.824887
  H      4.848606   -3.461490    1.466316

 Total Charge           Charge          ....    0
 Multiplicity           Mult            ....    1
 Number of Electrons    NEL             ....   72
 Basis Dimension        Dim             ....  363

ORBITAL ENERGIES
----------------

  NO   OCC          E(Eh)            E(eV)
   0   2.0000     -20.550515      -559.2079
   1   2.0000     -20.537317      -558.8488
   2   2.0000     -11.286703      -307.1268
   3   2.0000     -11.278861      -306.9134
   4   2.0000     -11.268812      -306.6400
   5   2.0000     -11.224217      -305.4265
   6   2.0000     -11.216481      -305.2160
   7   2.0000     -11.214886      -305.1726
   8   2.0000     -11.214170      -305.1531
   9   2.0000      -1.370800       -37.3014
  10   2.0000      -1.353852       -36.8402
  11   2.0000      -1.057391       -28.7731
  12   2.0000      -1.044344       -28.4181
  13   2.0000      -0.971807       -26.4442
  14   2.0000      -0.939425       -25.5630
  15   2.0000      -0.863404       -23.4944
  16   2.0000      -0.796074       -21.6623
  17   2.0000      -0.727309       -19.7911
  18   2.0000      -0.693467       -18.8702
  19   2.0000      -0.672373       -18.2962
  20   2.0000      -0.638642       -17.3783
  21   2.0000      -0.627991       -17.0885
  22   2.0000      -0.622991       -16.9524
  23   2.0000      -0.581423       -15.8213
  24   2.0000      -0.567847       -15.4519
  25   2.0000      -0.555478       -15.1153
  26   2.0000      -0.545677       -14.8486
  27   2.0000      -0.530161       -14.4264
  28   2.0000      -0.517637       -14.0856
  29   2.0000      -0.509433       -13.8624
  30   2.0000      -0.494273       -13.4499
  31   2.0000      -0.486835       -13.2475
  32   2.0000      -0.448025       -12.1914
  33   2.0000      -0.437486       -11.9046
  34   2.0000      -0.431607       -11.7446
  35   2.0000      -0.405284       -11.0283
  36   0.0000       0.133900         3.6436
  37   0.0000       0.144142         3.9223
  38   0.0000       0.157611         4.2888
  39   0.0000       0.167083         4.5466
  40   0.0000       0.186381         5.0717

MULLIKEN ATOMIC CHARGES
-----------------------
   0 C :   -0.403531
   1 C :    0.261271
   2 C :   -0.416981
   3 C :   -0.291596
   4 C :    0.068461
   5 C :   -0.177101
   6 C :   -0.080455
   7 O :   -0.466982
   8 O :   -0.353294
   9 H :    0.131940
  10 H :    0.126283
  11 H :    0.133203
  12 H :    0.125678
  13 H :    0.131471
  14 H :    0.133220
  15 H :    0.133050
  16 H :    0.126025
  17 H :    0.081817
  18 H :    0.112820
  19 H :    0.106366
  20 H :    0.117862
  21 H :    0.085117
  22 H :    0.315355
Sum of atomic charges:   -0.0000000

LOEWDIN ATOMIC CHARGES
----------------------
   0 C :   -0.273044
   1 C :   -0.360193
   2 C :   -0.272639
   3 C :   -0.184595
   4 C :   -0.282348
   5 C :   -0.255889
   6 C :   -0.347863
   7 O :   -0.054827
   8 O :    0.166283
   9 H :    0.126172
  10 H :    0.128069
  11 H :    0.129581
  12 H :    0.127257
  13 H :    0.127381
  14 H :    0.129014
  15 H :    0.132181
  16 H :    0.136658
  17 H :    0.134715
  18 H :    0.145541
  19 H :    0.142696
  20 H :    0.120505
  21 H :    0.113782
  22 H :    0.171562

  Mayer bond orders larger than 0.1
B(  0-C ,  1-C ) :   0.9137 B(  0-C ,  9-H ) :   0.9369 B(  0-C , 10-H ) :   0.9306
B(  0-C , 11-H ) :   0.9354 B(  1-C ,  2-C ) :   0.9258 B(  1-C ,  3-C ) :   0.8913
B(  1-C ,  8-O ) :   0.8806 B(  2-C , 12-H ) :   0.9318 B(  2-C , 13-H ) :   0.9342
B(  2-C , 14-H ) :   0.9361 B(  3-C ,  4-C ) :   0.9288 B(  3-C , 15-H ) :   0.9314
B(  3-C , 16-H ) :   0.9337 B(  4-C ,  5-C ) :   0.9254 B(  4-C ,  8-O ) :   0.9127
B(  4-C , 17-H ) :   0.9116 B(  5-C ,  6-C ) :   0.9388 B(  5-C , 18-H ) :   0.9202
B(  5-C , 19-H ) :   0.9142 B(  6-C ,  7-O ) :   1.0143 B(  6-C , 20-H ) :   0.9316
B(  6-C , 21-H ) :   0.9293 B(  7-O , 22-H ) :   0.8497

MP2 TOTAL ENERGY:     -424.718196331 Eh
FINAL SINGLE POINT ENERGY      -424.718196330517

DIPOLE MOMENT
-------------
                                X             Y             Z
Electronic contribution:      3.79961      -3.50156       1.42901
Nuclear contribution   :     -4.23656       3.46374      -1.57406
                        -----------------------------------------
Total Dipole Moment    :     -0.43695      -0.03782      -0.14505
                        -----------------------------------------
Magnitude (a.u.)       :      0.46194
Magnitude (Debye)      :      1.17417

                             ****ORCA TERMINATED NORMALLY****
TOTAL RUN TIME: 0 days 0 hours 18 minutes 41 seconds 176 msec
