                         Program Version 3.0.3 - RELEASE   -
|  1> ! RI-MP2 RIJK def2-TZVP def2-TZVP/C def2-TZVP/JK TIGHTSCF
|  2> % maxcore 2000
|  3> % mp2 density relaxed end
|  4> *xyz 0 1
|  5>  C        0.1756617527     1.4750217153     0.1849379569
|  6>  N       -0.2189937243     0.1065915560    -0.1305678278
|  7>  C        0.5415771651    -0.5087394945    -1.1810645258
|  8>  C        2.0097073715    -1.0484574259    -1.0215969292
|  9>  N        1.6243302324    -2.4108491704    -1.5380923539
| 10>  C        0.6593468110    -2.9338480783    -0.5731096797
| 11>  C        0.1606750722    -1.9419037713    -1.5622267626
| 12>  C       -0.7594100996    -2.2895315167    -2.6025566608
| 13>  N       -1.5187361797    -2.5424962547    -3.4380651442
| 14>  H        1.2292260558     1.5883269499     0.4927124097
| 15>  H        0.0150835555     2.1097048627    -0.6933767386
| 16>  H       -0.4568434289     1.8571325358     0.9905101201
| 17>  H       -0.2134255233    -0.4662980356     0.7055748694
| 18>  H        0.4884136078     0.1376840828    -2.0617893088
| 19>  H        2.7369305658    -0.5831942586    -1.6879293062
| 20>  H        2.4106644904    -1.0759308925    -0.0027375225
| 21>  H        0.3878348083    -3.9694556605    -0.7500935024
| 22>  H        0.7467920274    -2.6577352737     0.4761953965
| 23> *
| 24>
| 25>                          ****END OF INPUT****

CARTESIAN COORDINATES (ANGSTROEM)
---------------------------------
  C      0.175662    1.475022    0.184938
  N     -0.218994    0.106592   -0.130568
  C      0.541577   -0.508739   -1.181065
  C      2.009707   -1.048457   -1.021597
  N      1.624330   -2.410849   -1.538092
  C      0.659347   -2.933848   -0.573110
  C      0.160675   -1.941904   -1.562227
  C     -0.759410   -2.289532   -2.602557
  N     -1.518736   -2.542496   -3.438065
  H      1.229226    1.588327    0.492712
  H      0.015084    2.109705   -0.693377
  H     -0.456843    1.857133    0.990510
  H     -0.213426   -0.466298    0.705575
  H      0.488414    0.137684   -2.061789
  H      2.736931   -0.583194   -1.687929
  H      2.410664   -1.075931   -0.002738
  H      0.387835   -3.969456   -0.750094
  H      0.746792   -2.657735    0.476195

 Total Charge           Charge          ....    0
 Multiplicity           Mult            ....    1
 Number of Electrons    NEL             ....   66
 Basis Dimension        Dim             ....  333

ORBITAL ENERGIES
----------------

  NO   OCC          E(Eh)            E(eV)
   0   2.0000     -15.599919      -424.4954
   1   2.0000     -15.574472      -423.8029
   2   2.0000     -15.566432      -423.5841
   3   2.0000     -11.316138      -307.9278
   4   2.0000     -11.294274      -307.3328
   5   2.0000     -11.294138      -307.3291
   6   2.0000     -11.277990      -306.8897
   7   2.0000     -11.275753      -306.8288
   8   2.0000     -11.263092      -306.4843
   9   2.0000      -1.330548       -36.2060
  10   2.0000      -1.225254       -33.3409
  11   2.0000      -1.216811       -33.1111
  12   2.0000      -1.024710       -27.8838
  13   2.0000      -0.994741       -27.0683
  14   2.0000      -0.919524       -25.0215
  15   2.0000      -0.862908       -23.4809
  16   2.0000      -0.821581       -22.3564
  17   2.0000      -0.750710       -20.4278
  18   2.0000      -0.676704       -18.4140
  19   2.0000      -0.667480       -18.1630
  20   2.0000      -0.634272       -17.2594
  21   2.0000      -0.608419       -16.5559
  22   2.0000      -0.595070       -16.1927
  23   2.0000      -0.573848       -15.6152
  24   2.0000      -0.565787       -15.3958
  25   2.0000      -0.544663       -14.8210
  26   2.0000      -0.529190       -14.4000
  27   2.0000      -0.515784       -14.0352
  28   2.0000      -0.494716       -13.4619
  29   2.0000      -0.455972       -12.4076
  30   2.0000      -0.447586       -12.1794
  31   2.0000      -0.413346       -11.2477
  32   2.0000      -0.376873       -10.2552
  33   0.0000       0.117514         3.1977
  34   0.0000       0.137751         3.7484
  35   0.0000       0.143141         3.8951
  36   0.0000       0.151451         4.1212
  37   0.0000       0.163893         4.4598

MULLIKEN ATOMIC CHARGES
-----------------------
   0 C :   -0.307225
   1 N :   -0.299084
   2 C :   -0.069935
   3 C :   -0.134482
   4 N :   -0.204919
   5 C :   -0.154039
   6 C :    0.261579
   7 C :   -0.303612
   8 N :   -0.043543
   9 H :    0.115571
  10 H :    0.136764
  11 H :    0.144996
  12 H :    0.195974
  13 H :    0.124229
  14 H :    0.137205
  15 H :    0.119210
  16 H :    0.155251
  17 H :    0.126061
Sum of atomic charges:    0.0000000

LOEWDIN ATOMIC CHARGES
----------------------
   0 C :   -0.343297
   1 N :   -0.014725
   2 C :   -0.257664
   3 C :   -0.222840
   4 N :    0.139784
   5 C :   -0.206044
   6 C :   -0.221103
   7 C :   -0.147889
   8 N :    0.079830
   9 H :    0.100344
  10 H :    0.119123
  11 H :    0.118956
  12 H :    0.168147
  13 H :    0.160051
  14 H :    0.130600
  15 H :    0.124176
  16 H :    0.144819
  17 H :    0.127732

  Mayer bond orders larger than 0.1
B(  0-C ,  1-N ) :   0.9210 B(  0-C ,  9-H ) :   0.9293 B(  0-C , 10-H ) :   0.9367
B(  0-C , 11-H ) :   0.9377 B(  1-N ,  2-C ) :   1.0304 B(  1-N , 12-H ) :   0.8728
B(  2-C ,  3-C ) :   0.9318 B(  2-C ,  6-C ) :   0.8434 B(  2-C , 13-H ) :   0.9170
B(  3-C ,  4-N ) :   0.9207 B(  3-C , 14-H ) :   0.9130 B(  3-C , 15-H ) :   0.9323
B(  4-N ,  5-C ) :   0.9132 B(  4-N ,  6-C ) :   0.8422 B(  5-C ,  6-C ) :   0.9142
B(  5-C , 16-H ) :   0.9184 B(  5-C , 17-H ) :   0.9022 B(  6-C ,  7-C ) :   0.9208
B(  7-C ,  8-N ) :   2.8657

MP2 TOTAL ENERGY:     -397.388878274 Eh
FINAL SINGLE POINT ENERGY      -397.388878274142

DIPOLE MOMENT
-------------
                                X             Y             Z
Electronic contribution:     -3.20016      -7.13699      -6.52279
Nuclear contribution   :      4.19061       7.95764       8.26007
                        -----------------------------------------
Total Dipole Moment    :      0.99045       0.82065       1.73728
                        -----------------------------------------
Magnitude (a.u.)       :      2.16162
Magnitude (Debye)      :      5.49440

                             ****ORCA TERMINATED NORMALLY****
TOTAL RUN TIME: 0 days 0 hours 28 minutes 6 seconds 405 msec
