                         Program Version 3.0.3 - RELEASE   -
|  1> ! RI-MP2 RIJK def2-TZVP def2-TZVP/C def2-TZVP/JK TIGHTSCF
|  2> % maxcore 2000
|  3> % mp2 density relaxed end
|  4> *xyz 0 1
|  5>  C        0.0667779450     1.6041938371    -0.1839266895
|  6>  C        0.0942520553     0.0989467357     0.0087630497
|  7>  C        1.0312491051    -0.7705049768    -0.8688029232
|  8>  C        1.3005296582    -1.6901863225     0.3608181259
|  9>  C        2.7040320333    -2.2130980836     0.5330982719
| 10>  O        2.9850034287    -3.3837478474     0.5590104401
| 11>  C        0.7829977045    -0.5226318996     1.2822675004
| 12>  C        1.8351457574     0.3102052319     1.8481678057
| 13>  N        2.6650167372     0.9861636218     2.2870553846
| 14>  H        1.0694628346     2.0354479561    -0.1086815204
| 15>  H       -0.3369362897     1.8516529027    -1.1713239698
| 16>  H       -0.5648914709     2.0904766036     0.5667958445
| 17>  H       -0.9220831776    -0.3053807627    -0.0324585413
| 18>  H        0.6152109137    -1.2462047739    -1.7581077704
| 19>  H        1.9337176723    -0.2173130001    -1.1513392970
| 20>  H        0.6060464881    -2.5309724691     0.4013218445
| 21>  H        3.4877544992    -1.4275960914     0.6090162669
| 22>  H        0.1145514554    -0.8336397319     2.0884236372
| 23> *
| 24>
| 25>                          ****END OF INPUT****

CARTESIAN COORDINATES (ANGSTROEM)
---------------------------------
  C      0.066778    1.604194   -0.183927
  C      0.094252    0.098947    0.008763
  C      1.031249   -0.770505   -0.868803
  C      1.300530   -1.690186    0.360818
  C      2.704032   -2.213098    0.533098
  O      2.985003   -3.383748    0.559010
  C      0.782998   -0.522632    1.282268
  C      1.835146    0.310205    1.848168
  N      2.665017    0.986164    2.287055
  H      1.069463    2.035448   -0.108682
  H     -0.336936    1.851653   -1.171324
  H     -0.564891    2.090477    0.566796
  H     -0.922083   -0.305381   -0.032459
  H      0.615211   -1.246205   -1.758108
  H      1.933718   -0.217313   -1.151339
  H      0.606046   -2.530972    0.401322
  H      3.487754   -1.427596    0.609016
  H      0.114551   -0.833640    2.088424

 Total Charge           Charge          ....    0
 Multiplicity           Mult            ....    1
 Number of Electrons    NEL             ....   66
 Basis Dimension        Dim             ....  333

ORBITAL ENERGIES
----------------

  NO   OCC          E(Eh)            E(eV)
   0   2.0000     -20.568335      -559.6928
   1   2.0000     -15.580967      -423.9797
   2   2.0000     -11.340970      -308.6035
   3   2.0000     -11.300746      -307.5089
   4   2.0000     -11.284016      -307.0537
   5   2.0000     -11.274215      -306.7870
   6   2.0000     -11.273169      -306.7585
   7   2.0000     -11.260276      -306.4077
   8   2.0000     -11.237081      -305.7765
   9   2.0000      -1.406217       -38.2651
  10   2.0000      -1.234520       -33.5930
  11   2.0000      -1.181761       -32.1573
  12   2.0000      -1.029219       -28.0065
  13   2.0000      -0.981887       -26.7185
  14   2.0000      -0.927584       -25.2408
  15   2.0000      -0.821585       -22.3565
  16   2.0000      -0.805927       -21.9304
  17   2.0000      -0.712607       -19.3910
  18   2.0000      -0.695590       -18.9280
  19   2.0000      -0.657971       -17.9043
  20   2.0000      -0.635876       -17.3031
  21   2.0000      -0.614245       -16.7145
  22   2.0000      -0.596905       -16.2426
  23   2.0000      -0.569667       -15.5014
  24   2.0000      -0.565344       -15.3838
  25   2.0000      -0.561871       -15.2893
  26   2.0000      -0.518131       -14.0991
  27   2.0000      -0.510264       -13.8850
  28   2.0000      -0.505645       -13.7593
  29   2.0000      -0.488818       -13.3014
  30   2.0000      -0.463707       -12.6181
  31   2.0000      -0.450247       -12.2518
  32   2.0000      -0.420014       -11.4292
  33   0.0000       0.108735         2.9588
  34   0.0000       0.109522         2.9802
  35   0.0000       0.134656         3.6642
  36   0.0000       0.148820         4.0496
  37   0.0000       0.168041         4.5726

MULLIKEN ATOMIC CHARGES
-----------------------
   0 C :   -0.415231
   1 C :   -0.043659
   2 C :   -0.312992
   3 C :   -0.008901
   4 C :    0.048028
   5 O :   -0.248539
   6 C :    0.083287
   7 C :   -0.282837
   8 N :   -0.040537
   9 H :    0.148275
  10 H :    0.142180
  11 H :    0.142077
  12 H :    0.116627
  13 H :    0.142344
  14 H :    0.139385
  15 H :    0.123620
  16 H :    0.104855
  17 H :    0.162016
Sum of atomic charges:    0.0000000

LOEWDIN ATOMIC CHARGES
----------------------
   0 C :   -0.291076
   1 C :   -0.218527
   2 C :   -0.179818
   3 C :   -0.184132
   4 C :   -0.275591
   5 O :    0.143763
   6 C :   -0.165314
   7 C :   -0.179585
   8 N :    0.066717
   9 H :    0.132019
  10 H :    0.130406
  11 H :    0.130514
  12 H :    0.157298
  13 H :    0.132236
  14 H :    0.146588
  15 H :    0.162251
  16 H :    0.122927
  17 H :    0.169321

  Mayer bond orders larger than 0.1
B(  0-C ,  1-C ) :   0.9042 B(  0-C ,  9-H ) :   0.9282 B(  0-C , 10-H ) :   0.9365
B(  0-C , 11-H ) :   0.9365 B(  1-C ,  2-C ) :   0.9212 B(  1-C ,  6-C ) :   0.8681
B(  1-C , 12-H ) :   0.9260 B(  2-C ,  3-C ) :   0.8965 B(  2-C , 13-H ) :   0.9270
B(  2-C , 14-H ) :   0.9145 B(  3-C ,  4-C ) :   0.8384 B(  3-C ,  6-C ) :   0.8481
B(  3-C , 15-H ) :   0.9072 B(  4-C ,  5-O ) :   1.9965 B(  4-C , 16-H ) :   0.9443
B(  6-C ,  7-C ) :   0.9179 B(  6-C , 17-H ) :   0.8941 B(  7-C ,  8-N ) :   2.8446

MP2 TOTAL ENERGY:     -401.268782384 Eh
FINAL SINGLE POINT ENERGY      -401.268782384305

DIPOLE MOMENT
-------------
                                X             Y             Z
Electronic contribution:      5.48726      -4.62251       4.90604
Nuclear contribution   :     -7.02385       4.84711      -5.73901
                        -----------------------------------------
Total Dipole Moment    :     -1.53659       0.22460      -0.83297
                        -----------------------------------------
Magnitude (a.u.)       :      1.76221
Magnitude (Debye)      :      4.47919

                             ****ORCA TERMINATED NORMALLY****
TOTAL RUN TIME: 0 days 0 hours 17 minutes 30 seconds 330 msec
