                         Program Version 3.0.3 - RELEASE   -
|  1> ! RI-MP2 RIJK def2-TZVP def2-TZVP/C def2-TZVP/JK TIGHTSCF
|  2> % maxcore 2000
|  3> % mp2 density relaxed end
|  4> *xyz 0 1
|  5>  C       -0.1289053197     1.5514860022    -0.0039111675
|  6>  C        0.0526945673     0.0205032402     0.0090986220
|  7>  C        0.7458908822    -0.4709322125    -1.2385472531
|  8>  C        1.9196297790    -1.0994132534    -1.2379041140
|  9>  C        2.7021755726    -1.3650000339     0.0208162198
| 10>  C        2.2158711755    -0.4646806912     1.1622008124
| 11>  N        0.7588659586    -0.4420583978     1.2017183535
| 12>  C        0.0907332517    -0.8921749943     2.2992642156
| 13>  O        0.6004075407    -1.2946873364     3.3252979412
| 14>  H        0.8395566713     2.0597453303     0.0068133637
| 15>  H       -0.6640705512     1.8666755422    -0.9053600133
| 16>  H       -0.7024697502     1.8763533960     0.8689398653
| 17>  H       -0.9484611186    -0.4308464559     0.0405239709
| 18>  H        0.2221898022    -0.2762044079    -2.1705855026
| 19>  H        2.3455592595    -1.4447387919    -2.1764456337
| 20>  H        2.6053554061    -2.4211235321     0.3076424740
| 21>  H        3.7713815877    -1.1942101306    -0.1534696989
| 22>  H        2.5541184722    -0.8156871913     2.1373708792
| 23>  H        2.5941524799     0.5548370977     1.0129362133
| 24>  H       -1.0076887868    -0.8539029493     2.1527244523
| 25> *
| 26>
| 27>                          ****END OF INPUT****

CARTESIAN COORDINATES (ANGSTROEM)
---------------------------------
  C     -0.128905    1.551486   -0.003911
  C      0.052695    0.020503    0.009099
  C      0.745891   -0.470932   -1.238547
  C      1.919630   -1.099413   -1.237904
  C      2.702176   -1.365000    0.020816
  C      2.215871   -0.464681    1.162201
  N      0.758866   -0.442058    1.201718
  C      0.090733   -0.892175    2.299264
  O      0.600408   -1.294687    3.325298
  H      0.839557    2.059745    0.006813
  H     -0.664071    1.866676   -0.905360
  H     -0.702470    1.876353    0.868940
  H     -0.948461   -0.430846    0.040524
  H      0.222190   -0.276204   -2.170586
  H      2.345559   -1.444739   -2.176446
  H      2.605355   -2.421124    0.307642
  H      3.771382   -1.194210   -0.153470
  H      2.554118   -0.815687    2.137371
  H      2.594152    0.554837    1.012936
  H     -1.007689   -0.853903    2.152724

 Total Charge           Charge          ....    0
 Multiplicity           Mult            ....    1
 Number of Electrons    NEL             ....   68
 Basis Dimension        Dim             ....  345

ORBITAL ENERGIES
----------------

  NO   OCC          E(Eh)            E(eV)
   0   2.0000     -20.515861      -558.2650
   1   2.0000     -15.584829      -424.0848
   2   2.0000     -11.342547      -308.6464
   3   2.0000     -11.287230      -307.1411
   4   2.0000     -11.262328      -306.4635
   5   2.0000     -11.240543      -305.8707
   6   2.0000     -11.237518      -305.7884
   7   2.0000     -11.235970      -305.7463
   8   2.0000     -11.230301      -305.5920
   9   2.0000      -1.377571       -37.4856
  10   2.0000      -1.259966       -34.2854
  11   2.0000      -1.092409       -29.7260
  12   2.0000      -1.059763       -28.8376
  13   2.0000      -0.975082       -26.5333
  14   2.0000      -0.902844       -24.5676
  15   2.0000      -0.862870       -23.4799
  16   2.0000      -0.796295       -21.6683
  17   2.0000      -0.731064       -19.8933
  18   2.0000      -0.700278       -19.0555
  19   2.0000      -0.654078       -17.7984
  20   2.0000      -0.646161       -17.5829
  21   2.0000      -0.627521       -17.0757
  22   2.0000      -0.603819       -16.4307
  23   2.0000      -0.592704       -16.1283
  24   2.0000      -0.578778       -15.7493
  25   2.0000      -0.547424       -14.8962
  26   2.0000      -0.544961       -14.8291
  27   2.0000      -0.532001       -14.4765
  28   2.0000      -0.513882       -13.9834
  29   2.0000      -0.502723       -13.6798
  30   2.0000      -0.477674       -12.9982
  31   2.0000      -0.425292       -11.5728
  32   2.0000      -0.371724       -10.1151
  33   2.0000      -0.363559        -9.8929
  34   0.0000       0.127195         3.4612
  35   0.0000       0.140727         3.8294
  36   0.0000       0.148018         4.0278
  37   0.0000       0.159075         4.3286
  38   0.0000       0.170730         4.6458

MULLIKEN ATOMIC CHARGES
-----------------------
   0 C :   -0.391962
   1 C :    0.018993
   2 C :   -0.182045
   3 C :   -0.199722
   4 C :   -0.138383
   5 C :   -0.212841
   6 N :   -0.059033
   7 C :    0.134588
   8 O :   -0.367588
   9 H :    0.133355
  10 H :    0.130823
  11 H :    0.137434
  12 H :    0.112092
  13 H :    0.128075
  14 H :    0.128406
  15 H :    0.129782
  16 H :    0.122955
  17 H :    0.175670
  18 H :    0.124154
  19 H :    0.075247
Sum of atomic charges:    0.0000000

LOEWDIN ATOMIC CHARGES
----------------------
   0 C :   -0.281788
   1 C :   -0.272680
   2 C :   -0.151535
   3 C :   -0.163991
   4 C :   -0.248742
   5 C :   -0.235272
   6 N :    0.199601
   7 C :   -0.417913
   8 O :    0.050433
   9 H :    0.125535
  10 H :    0.126627
  11 H :    0.124881
  12 H :    0.158943
  13 H :    0.147598
  14 H :    0.143969
  15 H :    0.149908
  16 H :    0.145518
  17 H :    0.149380
  18 H :    0.136165
  19 H :    0.113364

  Mayer bond orders larger than 0.1
B(  0-C ,  1-C ) :   0.9141 B(  0-C ,  9-H ) :   0.9293 B(  0-C , 10-H ) :   0.9338
B(  0-C , 11-H ) :   0.9313 B(  1-C ,  2-C ) :   0.9201 B(  1-C ,  6-N ) :   0.9074
B(  1-C , 12-H ) :   0.9237 B(  2-C ,  3-C ) :   1.8062 B(  2-C , 13-H ) :   0.9220
B(  3-C ,  4-C ) :   0.9292 B(  3-C , 14-H ) :   0.9259 B(  4-C ,  5-C ) :   0.9463
B(  4-C , 15-H ) :   0.9031 B(  4-C , 16-H ) :   0.9281 B(  5-C ,  6-N ) :   0.8400
B(  5-C , 17-H ) :   0.9170 B(  5-C , 18-H ) :   0.9292 B(  6-N ,  7-C ) :   1.1471
B(  7-C ,  8-O ) :   1.8882 B(  7-C , 19-H ) :   0.9275

MP2 TOTAL ENERGY:     -402.494240149 Eh
FINAL SINGLE POINT ENERGY      -402.494240148657

DIPOLE MOMENT
-------------
                                X             Y             Z
Electronic contribution:     -0.72730      -3.45497       4.31868
Nuclear contribution   :      0.72764       3.97757      -5.77435
                        -----------------------------------------
Total Dipole Moment    :      0.00034       0.52259      -1.45567
                        -----------------------------------------
Magnitude (a.u.)       :      1.54663
Magnitude (Debye)      :      3.93122

                             ****ORCA TERMINATED NORMALLY****
TOTAL RUN TIME: 0 days 0 hours 18 minutes 46 seconds 146 msec
