                         Program Version 3.0.3 - RELEASE   -
|  1> ! RI-MP2 RIJK def2-TZVP def2-TZVP/C def2-TZVP/JK TIGHTSCF
|  2> % maxcore 2000
|  3> % mp2 density relaxed end
|  4> *xyz 0 1
|  5>  O       -0.1109870981     1.4397580659    -0.0924325165
|  6>  C       -0.0201967755     0.0412946393     0.0337296201
|  7>  C        0.2652105644    -0.5660500237     1.4549287593
|  8>  C       -1.0912828038    -1.2868934311     1.3815545700
|  9>  C       -2.1948863022    -0.2699996787     1.1975375427
| 10>  C       -1.3799883178    -0.6474211856     0.0014276939
| 11>  C       -1.3350476940    -2.6248986472     1.8058548630
| 12>  N       -1.5148603438    -3.7146038802     2.1539136889
| 13>  H        0.7790045131     1.8064724005    -0.0820790163
| 14>  H        0.6607114240    -0.3863250919    -0.7124217462
| 15>  H        1.1198363869    -1.2440681890     1.4651611093
| 16>  H        0.3582467656     0.1577659079     2.2691932942
| 17>  H       -3.2014332432    -0.6721590649     1.2155450167
| 18>  H       -2.0817666997     0.7107676939     1.6486636035
| 19>  H       -1.8240217659    -1.1196721252    -0.8652304426
| 20> *
| 21>
| 22>                          ****END OF INPUT****

CARTESIAN COORDINATES (ANGSTROEM)
---------------------------------
  O     -0.110987    1.439758   -0.092433
  C     -0.020197    0.041295    0.033730
  C      0.265211   -0.566050    1.454929
  C     -1.091283   -1.286893    1.381555
  C     -2.194886   -0.270000    1.197538
  C     -1.379988   -0.647421    0.001428
  C     -1.335048   -2.624899    1.805855
  N     -1.514860   -3.714604    2.153914
  H      0.779005    1.806472   -0.082079
  H      0.660711   -0.386325   -0.712422
  H      1.119836   -1.244068    1.465161
  H      0.358247    0.157766    2.269193
  H     -3.201433   -0.672159    1.215545
  H     -2.081767    0.710768    1.648664
  H     -1.824022   -1.119672   -0.865230

 Total Charge           Charge          ....    0
 Multiplicity           Mult            ....    1
 Number of Electrons    NEL             ....   58
 Basis Dimension        Dim             ....  290

ORBITAL ENERGIES
----------------

  NO   OCC          E(Eh)            E(eV)
   0   2.0000     -20.576987      -559.9283
   1   2.0000     -15.565955      -423.5712
   2   2.0000     -11.310654      -307.7785
   3   2.0000     -11.289458      -307.2018
   4   2.0000     -11.272300      -306.7349
   5   2.0000     -11.267159      -306.5950
   6   2.0000     -11.260847      -306.4232
   7   2.0000     -11.255938      -306.2896
   8   2.0000      -1.386839       -37.7378
   9   2.0000      -1.233155       -33.5558
  10   2.0000      -1.200505       -32.6674
  11   2.0000      -1.009659       -27.4742
  12   2.0000      -0.947187       -25.7743
  13   2.0000      -0.864520       -23.5248
  14   2.0000      -0.794206       -21.6114
  15   2.0000      -0.741253       -20.1705
  16   2.0000      -0.714607       -19.4454
  17   2.0000      -0.653687       -17.7877
  18   2.0000      -0.615066       -16.7368
  19   2.0000      -0.606940       -16.5157
  20   2.0000      -0.568953       -15.4820
  21   2.0000      -0.562995       -15.3199
  22   2.0000      -0.545774       -14.8513
  23   2.0000      -0.511857       -13.9283
  24   2.0000      -0.505064       -13.7435
  25   2.0000      -0.484250       -13.1771
  26   2.0000      -0.453082       -12.3290
  27   2.0000      -0.426809       -11.6141
  28   2.0000      -0.392467       -10.6796
  29   0.0000       0.118235         3.2173
  30   0.0000       0.142678         3.8825
  31   0.0000       0.145309         3.9541
  32   0.0000       0.160803         4.3757
  33   0.0000       0.179621         4.8877

MULLIKEN ATOMIC CHARGES
-----------------------
   0 O :   -0.450253
   1 C :    0.010545
   2 C :   -0.221149
   3 C :    0.161737
   4 C :   -0.267577
   5 C :   -0.066713
   6 C :   -0.260463
   7 N :   -0.054583
   8 H :    0.319763
   9 H :    0.101807
  10 H :    0.138834
  11 H :    0.124482
  12 H :    0.156951
  13 H :    0.151848
  14 H :    0.154770
Sum of atomic charges:   -0.0000000

LOEWDIN ATOMIC CHARGES
----------------------
   0 O :   -0.009070
   1 C :   -0.306370
   2 C :   -0.158339
   3 C :   -0.194601
   4 C :   -0.147176
   5 C :   -0.118043
   6 C :   -0.163043
   7 N :    0.062952
   8 H :    0.178936
   9 H :    0.136708
  10 H :    0.141744
  11 H :    0.136438
  12 H :    0.150909
  13 H :    0.144215
  14 H :    0.144742

  Mayer bond orders larger than 0.1
B(  0-O ,  1-C ) :   1.0906 B(  0-O ,  8-H ) :   0.8418 B(  1-C ,  2-C ) :   0.9474
B(  1-C ,  5-C ) :   0.9253 B(  1-C ,  9-H ) :   0.9442 B(  2-C ,  3-C ) :   0.9169
B(  2-C , 10-H ) :   0.9198 B(  2-C , 11-H ) :   0.9026 B(  3-C ,  4-C ) :   0.8679
B(  3-C ,  5-C ) :   0.7624 B(  3-C ,  6-C ) :   0.9223 B(  4-C ,  5-C ) :   0.9052
B(  4-C , 12-H ) :   0.9307 B(  4-C , 13-H ) :   0.9032 B(  5-C , 14-H ) :   0.9130
B(  6-C ,  7-N ) :   2.8746

MP2 TOTAL ENERGY:     -362.027489271 Eh
FINAL SINGLE POINT ENERGY      -362.027489270748

DIPOLE MOMENT
-------------
                                X             Y             Z
Electronic contribution:     -1.08872      -3.66679       1.07338
Nuclear contribution   :      1.87608       4.97749      -1.64814
                        -----------------------------------------
Total Dipole Moment    :      0.78736       1.31070      -0.57476
                        -----------------------------------------
Magnitude (a.u.)       :      1.63347
Magnitude (Debye)      :      4.15195

                             ****ORCA TERMINATED NORMALLY****
TOTAL RUN TIME: 0 days 0 hours 12 minutes 0 seconds 898 msec
