                         Program Version 3.0.3 - RELEASE   -
|  1> ! RI-MP2 RIJK def2-TZVP def2-TZVP/C def2-TZVP/JK TIGHTSCF
|  2> % maxcore 2000
|  3> % mp2 density relaxed end
|  4> *xyz 0 1
|  5>  C        0.0730760124     1.5804201800     0.2692849476
|  6>  C       -0.0109408122     0.0793974696     0.0594342241
|  7>  C       -1.3425132531    -0.4467109505    -0.4525432841
|  8>  C       -1.7127207867     0.0507473656    -1.8555857170
|  9>  C       -2.8956635185    -0.7181358662    -2.4430081202
| 10>  N       -3.6667282241    -0.0060544032    -3.3185611330
| 11>  O       -3.1354226273    -1.8778749476    -2.1668791216
| 12>  C        1.2394742543    -0.6396523254    -0.3946782628
| 13>  C        0.7464317513    -0.7994067391     1.0255247873
| 14>  H        1.0442839389     1.8663309372     0.6851095635
| 15>  H       -0.0550618666     2.1324208289    -0.6690241558
| 16>  H       -0.7012127897     1.9250906547     0.9655240556
| 17>  H       -1.3270721578    -1.5399584839    -0.4853187453
| 18>  H       -2.1413903505    -0.1739281090     0.2498910350
| 19>  H       -1.9217607485     1.1262337614    -1.8598902252
| 20>  H       -0.8613541971    -0.1031985942    -2.5329873165
| 21>  H       -3.4223815732     0.9227447018    -3.6131095012
| 22>  H       -4.3947598658    -0.4941950243    -3.8143333502
| 23>  H        1.1304747412    -1.4852412596    -1.0663398347
| 24>  H        2.1391254684    -0.0558773627    -0.5604281340
| 25>  H        1.3118329472    -0.3207441475     1.8184134172
| 26>  H        0.3065159976    -1.7505287461     1.3066104312
| 27> *
| 28>
| 29>                          ****END OF INPUT****

CARTESIAN COORDINATES (ANGSTROEM)
---------------------------------
  C      0.073076    1.580420    0.269285
  C     -0.010941    0.079397    0.059434
  C     -1.342513   -0.446711   -0.452543
  C     -1.712721    0.050747   -1.855586
  C     -2.895664   -0.718136   -2.443008
  N     -3.666728   -0.006054   -3.318561
  O     -3.135423   -1.877875   -2.166879
  C      1.239474   -0.639652   -0.394678
  C      0.746432   -0.799407    1.025525
  H      1.044284    1.866331    0.685110
  H     -0.055062    2.132421   -0.669024
  H     -0.701213    1.925091    0.965524
  H     -1.327072   -1.539958   -0.485319
  H     -2.141390   -0.173928    0.249891
  H     -1.921761    1.126234   -1.859890
  H     -0.861354   -0.103199   -2.532987
  H     -3.422382    0.922745   -3.613110
  H     -4.394760   -0.494195   -3.814333
  H      1.130475   -1.485241   -1.066340
  H      2.139125   -0.055877   -0.560428
  H      1.311833   -0.320744    1.818413
  H      0.306516   -1.750529    1.306610

 Total Charge           Charge          ....    0
 Multiplicity           Mult            ....    1
 Number of Electrons    NEL             ....   70
 Basis Dimension        Dim             ....  357

ORBITAL ENERGIES
----------------

  NO   OCC          E(Eh)            E(eV)
   0   2.0000     -20.513644      -558.2046
   1   2.0000     -15.581391      -423.9912
   2   2.0000     -11.348114      -308.7979
   3   2.0000     -11.238205      -305.8071
   4   2.0000     -11.235785      -305.7413
   5   2.0000     -11.221944      -305.3646
   6   2.0000     -11.219853      -305.3077
   7   2.0000     -11.218822      -305.2797
   8   2.0000     -11.218574      -305.2729
   9   2.0000      -1.378615       -37.5140
  10   2.0000      -1.208297       -32.8794
  11   2.0000      -1.154342       -31.4112
  12   2.0000      -1.043995       -28.4086
  13   2.0000      -0.962474       -26.1903
  14   2.0000      -0.899256       -24.4700
  15   2.0000      -0.821502       -22.3542
  16   2.0000      -0.786325       -21.3970
  17   2.0000      -0.736910       -20.0524
  18   2.0000      -0.719107       -19.5679
  19   2.0000      -0.671796       -18.2805
  20   2.0000      -0.656247       -17.8574
  21   2.0000      -0.621191       -16.9035
  22   2.0000      -0.614954       -16.7337
  23   2.0000      -0.585971       -15.9451
  24   2.0000      -0.571436       -15.5496
  25   2.0000      -0.554830       -15.0977
  26   2.0000      -0.540274       -14.7016
  27   2.0000      -0.519936       -14.1482
  28   2.0000      -0.505133       -13.7454
  29   2.0000      -0.492460       -13.4005
  30   2.0000      -0.472964       -12.8700
  31   2.0000      -0.424104       -11.5405
  32   2.0000      -0.414458       -11.2780
  33   2.0000      -0.405823       -11.0430
  34   2.0000      -0.391513       -10.6536
  35   0.0000       0.121060         3.2942
  36   0.0000       0.144614         3.9352
  37   0.0000       0.163866         4.4590
  38   0.0000       0.168196         4.5769
  39   0.0000       0.178723         4.8633

MULLIKEN ATOMIC CHARGES
-----------------------
   0 C :   -0.428152
   1 C :    0.140153
   2 C :   -0.238480
   3 C :   -0.282728
   4 C :    0.283686
   5 N :   -0.479600
   6 O :   -0.354403
   7 C :   -0.305933
   8 C :   -0.287908
   9 H :    0.129703
  10 H :    0.128869
  11 H :    0.131116
  12 H :    0.148049
  13 H :    0.118485
  14 H :    0.123376
  15 H :    0.143874
  16 H :    0.257049
  17 H :    0.258422
  18 H :    0.132069
  19 H :    0.125503
  20 H :    0.125934
  21 H :    0.130916
Sum of atomic charges:    0.0000000

LOEWDIN ATOMIC CHARGES
----------------------
   0 C :   -0.267960
   1 C :   -0.281910
   2 C :   -0.215675
   3 C :   -0.232655
   4 C :   -0.475630
   5 N :   -0.025315
   6 O :    0.081993
   7 C :   -0.215031
   8 C :   -0.210822
   9 H :    0.128456
  10 H :    0.122535
  11 H :    0.127035
  12 H :    0.155343
  13 H :    0.145050
  14 H :    0.138597
  15 H :    0.155494
  16 H :    0.168334
  17 H :    0.171897
  18 H :    0.134154
  19 H :    0.131131
  20 H :    0.131355
  21 H :    0.133624

  Mayer bond orders larger than 0.1
B(  0-C ,  1-C ) :   0.9069 B(  0-C ,  9-H ) :   0.9309 B(  0-C , 10-H ) :   0.9425
B(  0-C , 11-H ) :   0.9377 B(  1-C ,  2-C ) :   0.9008 B(  1-C ,  7-C ) :   0.8759
B(  1-C ,  8-C ) :   0.8744 B(  2-C ,  3-C ) :   0.9286 B(  2-C , 12-H ) :   0.9325
B(  2-C , 13-H ) :   0.9307 B(  3-C ,  4-C ) :   0.8970 B(  3-C , 14-H ) :   0.9186
B(  3-C , 15-H ) :   0.9026 B(  4-C ,  5-N ) :   1.1601 B(  4-C ,  6-O ) :   1.9791
B(  5-N , 16-H ) :   0.8717 B(  5-N , 17-H ) :   0.8590 B(  7-C ,  8-C ) :   0.9087
B(  7-C , 18-H ) :   0.9254 B(  7-C , 19-H ) :   0.9284 B(  8-C , 20-H ) :   0.9317
B(  8-C , 21-H ) :   0.9239

MP2 TOTAL ENERGY:     -403.688867836 Eh
FINAL SINGLE POINT ENERGY      -403.688867836364

DIPOLE MOMENT
-------------
                                X             Y             Z
Electronic contribution:     -6.62718      -4.34461      -4.62287
Nuclear contribution   :      6.70567       5.62084       4.06195
                        -----------------------------------------
Total Dipole Moment    :      0.07849       1.27623      -0.56091
                        -----------------------------------------
Magnitude (a.u.)       :      1.39626
Magnitude (Debye)      :      3.54902

                             ****ORCA TERMINATED NORMALLY****
TOTAL RUN TIME: 0 days 0 hours 20 minutes 1 seconds 141 msec
