                         Program Version 3.0.3 - RELEASE   -
|  1> ! RI-MP2 RIJK def2-TZVP def2-TZVP/C def2-TZVP/JK TIGHTSCF
|  2> % maxcore 2000
|  3> % mp2 density relaxed end
|  4> *xyz 0 1
|  5>  C        0.1703734420     1.4998305632     0.0105434431
|  6>  N       -0.1060697687     0.0286313635    -0.0293677002
|  7>  H       -1.1192063531    -0.0916464010    -0.0687092383
|  8>  C        0.5266305147    -0.6865686546    -1.2296663637
|  9>  C        1.7840674659    -1.3606247553    -0.6625990952
| 10>  C        1.5140878839    -1.4318089454     0.8171287827
| 11>  C        0.4653156905    -0.6920919269     1.1511712315
| 12>  C        2.3886194631    -2.2690770134     1.8055927374
| 13>  O        2.0309566176    -2.1644897907     2.9869929288
| 14>  O        3.2883542700    -2.8922210023     1.2193383250
| 15>  H        1.2513674117     1.6378522418    -0.0041566990
| 16>  H       -0.2943552534     1.9855902220    -0.8500262319
| 17>  H       -0.2349629397     1.9046258568     0.9386706893
| 18>  H       -0.2070174380    -1.4219426949    -1.5643330861
| 19>  H        0.6868981416     0.0461889463    -2.0220675929
| 20>  H        1.9478949359    -2.3580251429    -1.0742388823
| 21>  H        2.6995798043    -0.7927919575    -0.8580807139
| 22>  H        0.0276734117    -0.4935110685     2.1172307259
| 23> *
| 24>
| 25>                          ****END OF INPUT****

CARTESIAN COORDINATES (ANGSTROEM)
---------------------------------
  C      0.170373    1.499831    0.010543
  N     -0.106070    0.028631   -0.029368
  H     -1.119206   -0.091646   -0.068709
  C      0.526631   -0.686569   -1.229666
  C      1.784067   -1.360625   -0.662599
  C      1.514088   -1.431809    0.817129
  C      0.465316   -0.692092    1.151171
  C      2.388619   -2.269077    1.805593
  O      2.030957   -2.164490    2.986993
  O      3.288354   -2.892221    1.219338
  H      1.251367    1.637852   -0.004157
  H     -0.294355    1.985590   -0.850026
  H     -0.234963    1.904626    0.938671
  H     -0.207017   -1.421943   -1.564333
  H      0.686898    0.046189   -2.022068
  H      1.947895   -2.358025   -1.074239
  H      2.699580   -0.792792   -0.858081
  H      0.027673   -0.493511    2.117231

 Total Charge           Charge          ....    0
 Multiplicity           Mult            ....    1
 Number of Electrons    NEL             ....   68
 Basis Dimension        Dim             ....  333

ORBITAL ENERGIES
----------------

  NO   OCC          E(Eh)            E(eV)
   0   2.0000     -20.438342      -556.1556
   1   2.0000     -20.434406      -556.0485
   2   2.0000     -15.738654      -428.2706
   3   2.0000     -11.341499      -308.6179
   4   2.0000     -11.338404      -308.5337
   5   2.0000     -11.292450      -307.2832
   6   2.0000     -11.288769      -307.1830
   7   2.0000     -11.263551      -306.4968
   8   2.0000     -11.259904      -306.3976
   9   2.0000      -1.374678       -37.4069
  10   2.0000      -1.322439       -35.9854
  11   2.0000      -1.228236       -33.4220
  12   2.0000      -1.127368       -30.6772
  13   2.0000      -1.045446       -28.4480
  14   2.0000      -1.016052       -27.6482
  15   2.0000      -0.887881       -24.1605
  16   2.0000      -0.834006       -22.6945
  17   2.0000      -0.794160       -21.6102
  18   2.0000      -0.742000       -20.1909
  19   2.0000      -0.700746       -19.0683
  20   2.0000      -0.668751       -18.1976
  21   2.0000      -0.646773       -17.5996
  22   2.0000      -0.633045       -17.2260
  23   2.0000      -0.603582       -16.4243
  24   2.0000      -0.595095       -16.1934
  25   2.0000      -0.570777       -15.5316
  26   2.0000      -0.569746       -15.5036
  27   2.0000      -0.558595       -15.2001
  28   2.0000      -0.530873       -14.4458
  29   2.0000      -0.510060       -13.8794
  30   2.0000      -0.393360       -10.7039
  31   2.0000      -0.365241        -9.9387
  32   2.0000      -0.352243        -9.5850
  33   2.0000      -0.338042        -9.1986
  34   0.0000       0.062698         1.7061
  35   0.0000       0.099597         2.7102
  36   0.0000       0.119824         3.2606
  37   0.0000       0.133055         3.6206
  38   0.0000       0.143876         3.9151

MULLIKEN ATOMIC CHARGES
-----------------------
   0 C :   -0.345296
   1 N :    0.020985
   2 H :    0.264080
   3 C :   -0.204772
   4 C :   -0.213698
   5 C :   -0.033450
   6 C :   -0.185070
   7 C :    0.246669
   8 O :   -0.463562
   9 O :   -0.459416
  10 H :    0.194564
  11 H :    0.168311
  12 H :    0.181769
  13 H :    0.161929
  14 H :    0.165760
  15 H :    0.169346
  16 H :    0.144458
  17 H :    0.187396
Sum of atomic charges:    0.0000000

LOEWDIN ATOMIC CHARGES
----------------------
   0 C :   -0.248546
   1 N :    0.232012
   2 H :    0.219699
   3 C :   -0.187569
   4 C :   -0.209821
   5 C :   -0.104150
   6 C :   -0.153487
   7 C :   -0.664620
   8 O :   -0.022829
   9 O :   -0.019358
  10 H :    0.141961
  11 H :    0.126512
  12 H :    0.134680
  13 H :    0.144709
  14 H :    0.138661
  15 H :    0.164536
  16 H :    0.155348
  17 H :    0.152262

  Mayer bond orders larger than 0.1
B(  0-C ,  1-N ) :   0.8519 B(  0-C , 10-H ) :   0.9231 B(  0-C , 11-H ) :   0.9203
B(  0-C , 12-H ) :   0.9240 B(  1-N ,  2-H ) :   0.8565 B(  1-N ,  3-C ) :   0.8079
B(  1-N ,  6-C ) :   0.8398 B(  3-C ,  4-C ) :   0.9362 B(  3-C , 13-H ) :   0.9167
B(  3-C , 14-H ) :   0.9324 B(  4-C ,  5-C ) :   0.9271 B(  4-C , 15-H ) :   0.9190
B(  4-C , 16-H ) :   0.8996 B(  5-C ,  6-C ) :   1.7214 B(  5-C ,  7-C ) :   0.8305
B(  5-C ,  8-O ) :  -0.1197 B(  6-C , 17-H ) :   0.8782 B(  7-C ,  8-O ) :   1.7927
B(  7-C ,  9-O ) :   1.7633

MP2 TOTAL ENERGY:     -438.339186157 Eh
FINAL SINGLE POINT ENERGY      -438.339186156834

DIPOLE MOMENT
-------------
                                X             Y             Z
Electronic contribution:      3.19062      -5.87643       5.42398
Nuclear contribution   :     -6.84007       9.61335      -8.86268
                        -----------------------------------------
Total Dipole Moment    :     -3.64944       3.73692      -3.43870
                        -----------------------------------------
Magnitude (a.u.)       :      6.25362
Magnitude (Debye)      :     15.89543

                             ****ORCA TERMINATED NORMALLY****
TOTAL RUN TIME: 0 days 0 hours 15 minutes 43 seconds 5 msec
