                         Program Version 3.0.3 - RELEASE   -
|  1> ! RI-MP2 RIJK def2-TZVP def2-TZVP/C def2-TZVP/JK TIGHTSCF
|  2> % maxcore 2000
|  3> % mp2 density relaxed end
|  4> *xyz 0 1
|  5>  N        0.0018889493     1.3488548352     0.1086407598
|  6>  C        0.0522016059    -0.0335812163     0.0265404712
|  7>  N       -1.0142004765    -0.7980993015     0.0645689408
|  8>  O       -0.5638920825    -2.1069046506     0.0383136241
|  9>  C        0.7982842247    -2.0926799935    -0.0210610367
| 10>  C        1.5025480574    -3.3115555607    -0.0455850463
| 11>  N        2.1342324127    -4.2837488027    -0.0629675879
| 12>  C        1.2578823541    -0.8048852950    -0.0302638874
| 13>  N        2.5359870066    -0.2859459147    -0.1354414334
| 14>  H        0.5880039576     1.8083572745    -0.5780861572
| 15>  H       -0.9461741532     1.7021525455     0.0677577562
| 16>  H        3.2734308611    -0.9693116957    -0.0231739311
| 17>  H        2.6919880429     0.5172047556     0.4614732479
| 18> *
| 19>
| 20>                          ****END OF INPUT****

CARTESIAN COORDINATES (ANGSTROEM)
---------------------------------
  N      0.001889    1.348855    0.108641
  C      0.052202   -0.033581    0.026540
  N     -1.014200   -0.798099    0.064569
  O     -0.563892   -2.106905    0.038314
  C      0.798284   -2.092680   -0.021061
  C      1.502548   -3.311556   -0.045585
  N      2.134232   -4.283749   -0.062968
  C      1.257882   -0.804885   -0.030264
  N      2.535987   -0.285946   -0.135441
  H      0.588004    1.808357   -0.578086
  H     -0.946174    1.702153    0.067758
  H      3.273431   -0.969312   -0.023174
  H      2.691988    0.517205    0.461473

 Total Charge           Charge          ....    0
 Multiplicity           Mult            ....    1
 Number of Electrons    NEL             ....   64
 Basis Dimension        Dim             ....  303

ORBITAL ENERGIES
----------------

  NO   OCC          E(Eh)            E(eV)
   0   2.0000     -20.656045      -562.0796
   1   2.0000     -15.636272      -425.4846
   2   2.0000     -15.607985      -424.7149
   3   2.0000     -15.604844      -424.6294
   4   2.0000     -15.596860      -424.4121
   5   2.0000     -11.343341      -308.6680
   6   2.0000     -11.339086      -308.5522
   7   2.0000     -11.321464      -308.0727
   8   2.0000     -11.297205      -307.4126
   9   2.0000      -1.507474       -41.0205
  10   2.0000      -1.285048       -34.9679
  11   2.0000      -1.252072       -34.0706
  12   2.0000      -1.234768       -33.5998
  13   2.0000      -1.142163       -31.0798
  14   2.0000      -1.080101       -29.3910
  15   2.0000      -0.917436       -24.9647
  16   2.0000      -0.836222       -22.7547
  17   2.0000      -0.791110       -21.5272
  18   2.0000      -0.739138       -20.1130
  19   2.0000      -0.711785       -19.3687
  20   2.0000      -0.699122       -19.0241
  21   2.0000      -0.671234       -18.2652
  22   2.0000      -0.631091       -17.1729
  23   2.0000      -0.603575       -16.4241
  24   2.0000      -0.577025       -15.7016
  25   2.0000      -0.550317       -14.9749
  26   2.0000      -0.533684       -14.5223
  27   2.0000      -0.512746       -13.9525
  28   2.0000      -0.500957       -13.6317
  29   2.0000      -0.478086       -13.0094
  30   2.0000      -0.387123       -10.5341
  31   2.0000      -0.351530        -9.5656
  32   0.0000       0.070402         1.9157
  33   0.0000       0.102116         2.7787
  34   0.0000       0.133513         3.6331
  35   0.0000       0.152536         4.1507
  36   0.0000       0.166438         4.5290

MULLIKEN ATOMIC CHARGES
-----------------------
   0 N :   -0.538001
   1 C :    0.180722
   2 N :   -0.135658
   3 O :   -0.111788
   4 C :    0.295411
   5 C :   -0.232765
   6 N :   -0.041625
   7 C :    0.054035
   8 N :   -0.542131
   9 H :    0.268592
  10 H :    0.266484
  11 H :    0.265684
  12 H :    0.271038
Sum of atomic charges:   -0.0000000

LOEWDIN ATOMIC CHARGES
----------------------
   0 N :   -0.066404
   1 C :   -0.362516
   2 N :    0.042252
   3 O :    0.288730
   4 C :   -0.268719
   5 C :   -0.158649
   6 N :    0.091698
   7 C :   -0.226835
   8 N :   -0.055864
   9 H :    0.177653
  10 H :    0.180112
  11 H :    0.179326
  12 H :    0.179216

  Mayer bond orders larger than 0.1
B(  0-N ,  1-C ) :   1.0523 B(  0-N ,  9-H ) :   0.8607 B(  0-N , 10-H ) :   0.8688
B(  1-C ,  2-N ) :   1.5844 B(  1-C ,  7-C ) :   1.2004 B(  2-N ,  3-O ) :   0.8755
B(  3-O ,  4-C ) :   1.0786 B(  4-C ,  5-C ) :   0.9143 B(  4-C ,  7-C ) :   1.4147
B(  5-C ,  6-N ) :   2.8247 B(  7-C ,  8-N ) :   1.0576 B(  8-N , 11-H ) :   0.8719
B(  8-N , 12-H ) :   0.8617

MP2 TOTAL ENERGY:     -448.187971506 Eh
FINAL SINGLE POINT ENERGY      -448.187971505604

DIPOLE MOMENT
-------------
                                X             Y             Z
Electronic contribution:     -1.87920      -5.72260       0.01764
Nuclear contribution   :      2.48643       7.75969      -0.04706
                        -----------------------------------------
Total Dipole Moment    :      0.60723       2.03709      -0.02942
                        -----------------------------------------
Magnitude (a.u.)       :      2.12587
Magnitude (Debye)      :      5.40353

                             ****ORCA TERMINATED NORMALLY****
TOTAL RUN TIME: 0 days 0 hours 14 minutes 58 seconds 307 msec
