                         Program Version 3.0.3 - RELEASE   -
|  1> ! RI-MP2 RIJK def2-TZVP def2-TZVP/C def2-TZVP/JK TIGHTSCF
|  2> % maxcore 2000
|  3> % mp2 density relaxed end
|  4> *xyz 0 1
|  5>  C        0.6367095667     1.3778330203    -0.0271810288
|  6>  N        0.0338114930     0.0381990932     0.0126431948
|  7>  C       -0.4222684644    -0.4808433207    -1.2099100725
|  8>  N       -1.0001199981    -1.5502597399    -1.5653669439
|  9>  C       -1.3487183062    -2.6430322081    -0.6880309213
| 10>  C       -0.4733825916    -2.8000928929     0.5521772415
| 11>  N       -0.6477901779    -1.7007011049     1.4854626643
| 12>  C       -0.2211712596    -0.4131757753     1.3226016005
| 13>  O       -0.0614476368     0.3381022248     2.2689279936
| 14>  H        0.9666474192     1.5849059232    -1.0455849475
| 15>  H       -0.0740105740     2.1455893641     0.2914691257
| 16>  H        1.4941470829     1.4159777900     0.6446864498
| 17>  H       -0.2094094012     0.2325331608    -2.0076037553
| 18>  H       -2.3955083546    -2.5356254040    -0.3738799882
| 19>  H       -1.2959724668    -3.5666903626    -1.2785951178
| 20>  H       -0.7506408486    -3.7169027992     1.0798241341
| 21>  H        0.5778907888    -2.9046699346     0.2490461275
| 22>  H       -0.7423333108    -1.9251481443     2.4633246935
| 23> *
| 24>
| 25>                          ****END OF INPUT****

CARTESIAN COORDINATES (ANGSTROEM)
---------------------------------
  C      0.636710    1.377833   -0.027181
  N      0.033811    0.038199    0.012643
  C     -0.422268   -0.480843   -1.209910
  N     -1.000120   -1.550260   -1.565367
  C     -1.348718   -2.643032   -0.688031
  C     -0.473383   -2.800093    0.552177
  N     -0.647790   -1.700701    1.485463
  C     -0.221171   -0.413176    1.322602
  O     -0.061448    0.338102    2.268928
  H      0.966647    1.584906   -1.045585
  H     -0.074011    2.145589    0.291469
  H      1.494147    1.415978    0.644686
  H     -0.209409    0.232533   -2.007604
  H     -2.395508   -2.535625   -0.373880
  H     -1.295972   -3.566690   -1.278595
  H     -0.750641   -3.716903    1.079824
  H      0.577891   -2.904670    0.249046
  H     -0.742333   -1.925148    2.463325

 Total Charge           Charge          ....    0
 Multiplicity           Mult            ....    1
 Number of Electrons    NEL             ....   68
 Basis Dimension        Dim             ....  333

ORBITAL ENERGIES
----------------

  NO   OCC          E(Eh)            E(eV)
   0   2.0000     -20.517551      -558.3110
   1   2.0000     -15.609974      -424.7690
   2   2.0000     -15.587111      -424.1468
   3   2.0000     -15.547775      -423.0765
   4   2.0000     -11.385635      -309.8189
   5   2.0000     -11.324940      -308.1673
   6   2.0000     -11.279443      -306.9292
   7   2.0000     -11.266042      -306.5646
   8   2.0000     -11.260778      -306.4214
   9   2.0000      -1.405102       -38.2348
  10   2.0000      -1.287191       -35.0262
  11   2.0000      -1.234570       -33.5944
  12   2.0000      -1.202972       -32.7345
  13   2.0000      -1.024144       -27.8684
  14   2.0000      -0.950488       -25.8641
  15   2.0000      -0.927343       -25.2343
  16   2.0000      -0.843578       -22.9549
  17   2.0000      -0.763218       -20.7682
  18   2.0000      -0.714725       -19.4486
  19   2.0000      -0.695515       -18.9259
  20   2.0000      -0.660741       -17.9797
  21   2.0000      -0.642991       -17.4967
  22   2.0000      -0.625828       -17.0296
  23   2.0000      -0.608932       -16.5699
  24   2.0000      -0.593302       -16.1446
  25   2.0000      -0.579092       -15.7579
  26   2.0000      -0.557285       -15.1645
  27   2.0000      -0.548639       -14.9292
  28   2.0000      -0.531607       -14.4658
  29   2.0000      -0.480264       -13.0687
  30   2.0000      -0.452317       -12.3082
  31   2.0000      -0.418170       -11.3790
  32   2.0000      -0.390097       -10.6151
  33   2.0000      -0.365103        -9.9350
  34   0.0000       0.124328         3.3831
  35   0.0000       0.144532         3.9329
  36   0.0000       0.150519         4.0958
  37   0.0000       0.167453         4.5566
  38   0.0000       0.172056         4.6819

MULLIKEN ATOMIC CHARGES
-----------------------
   0 C :   -0.288781
   1 N :   -0.114416
   2 C :   -0.008007
   3 N :   -0.262577
   4 C :   -0.087701
   5 C :   -0.157418
   6 N :   -0.331324
   7 C :    0.305753
   8 O :   -0.383976
   9 H :    0.132485
  10 H :    0.148587
  11 H :    0.156437
  12 H :    0.125832
  13 H :    0.117557
  14 H :    0.126496
  15 H :    0.136079
  16 H :    0.134895
  17 H :    0.250079
Sum of atomic charges:    0.0000000

LOEWDIN ATOMIC CHARGES
----------------------
   0 C :   -0.273716
   1 N :    0.174992
   2 C :   -0.300862
   3 N :    0.076538
   4 C :   -0.308615
   5 C :   -0.289983
   6 N :    0.101239
   7 C :   -0.509803
   8 O :    0.068179
   9 H :    0.119924
  10 H :    0.121890
  11 H :    0.127210
  12 H :    0.141644
  13 H :    0.139820
  14 H :    0.137822
  15 H :    0.141125
  16 H :    0.136195
  17 H :    0.196401

  Mayer bond orders larger than 0.1
B(  0-C ,  1-N ) :   0.8727 B(  0-C ,  9-H ) :   0.9263 B(  0-C , 10-H ) :   0.9348
B(  0-C , 11-H ) :   0.9327 B(  1-N ,  2-C ) :   1.0139 B(  1-N ,  7-C ) :   1.0273
B(  2-C ,  3-N ) :   1.8979 B(  2-C , 12-H ) :   0.9255 B(  3-N ,  4-C ) :   0.9261
B(  4-C ,  5-C ) :   0.9030 B(  4-C , 13-H ) :   0.9206 B(  4-C , 14-H ) :   0.9312
B(  5-C ,  6-N ) :   0.8825 B(  5-C , 15-H ) :   0.9212 B(  5-C , 16-H ) :   0.9375
B(  6-N ,  7-C ) :   1.1775 B(  6-N , 17-H ) :   0.8632 B(  7-C ,  8-O ) :   1.9110

MP2 TOTAL ENERGY:     -434.585071564 Eh
FINAL SINGLE POINT ENERGY      -434.585071563746

DIPOLE MOMENT
-------------
                                X             Y             Z
Electronic contribution:     -0.68862       0.82577       2.12950
Nuclear contribution   :      0.91103      -1.47747      -2.26354
                        -----------------------------------------
Total Dipole Moment    :      0.22241      -0.65169      -0.13405
                        -----------------------------------------
Magnitude (a.u.)       :      0.70152
Magnitude (Debye)      :      1.78313

                             ****ORCA TERMINATED NORMALLY****
TOTAL RUN TIME: 0 days 0 hours 17 minutes 34 seconds 618 msec
