                         Program Version 3.0.3 - RELEASE   -
|  1> ! RI-MP2 RIJK def2-TZVP def2-TZVP/C def2-TZVP/JK TIGHTSCF
|  2> % maxcore 2000
|  3> % mp2 density relaxed end
|  4> *xyz 0 1
|  5>  C        0.0750826318     1.4349126467    -0.1077295076
|  6>  O       -0.0059887763     0.0177698077    -0.0358449251
|  7>  C       -1.3187038223    -0.5155018552     0.0582291556
|  8>  C       -1.0534970281    -2.0501596141     0.2095417044
|  9>  O       -1.7036592024    -2.9113376484    -0.2997229803
| 10>  C       -1.9975014626    -0.1029804843     1.2982864762
| 11>  C       -2.5182319457     0.1771094446     2.3446978001
| 12>  C       -2.1414660661    -0.2265563275    -1.1184158342
| 13>  C       -2.7915981120     0.0088506520    -2.0996772844
| 14>  H        1.1385583655     1.6724726682    -0.1680730150
| 15>  H       -0.4366213777     1.8185982391    -0.9983474688
| 16>  H       -0.3541646743     1.9041590289     0.7860300809
| 17>  H       -0.1783438225    -2.2330741268     0.8647537691
| 18>  H       -2.9928231332     0.4375290175     3.2591922720
| 19>  H       -3.3754329441     0.2078768616    -2.9647854729
| 20> *
| 21>
| 22>                          ****END OF INPUT****

CARTESIAN COORDINATES (ANGSTROEM)
---------------------------------
  C      0.075083    1.434913   -0.107730
  O     -0.005989    0.017770   -0.035845
  C     -1.318704   -0.515502    0.058229
  C     -1.053497   -2.050160    0.209542
  O     -1.703659   -2.911338   -0.299723
  C     -1.997501   -0.102980    1.298286
  C     -2.518232    0.177109    2.344698
  C     -2.141466   -0.226556   -1.118416
  C     -2.791598    0.008851   -2.099677
  H      1.138558    1.672473   -0.168073
  H     -0.436621    1.818598   -0.998347
  H     -0.354165    1.904159    0.786030
  H     -0.178344   -2.233074    0.864754
  H     -2.992823    0.437529    3.259192
  H     -3.375433    0.207877   -2.964785

 Total Charge           Charge          ....    0
 Multiplicity           Mult            ....    1
 Number of Electrons    NEL             ....   64
 Basis Dimension        Dim             ....  315

ORBITAL ENERGIES
----------------

  NO   OCC          E(Eh)            E(eV)
   0   2.0000     -20.591919      -560.3346
   1   2.0000     -20.575760      -559.8949
   2   2.0000     -11.366423      -309.2961
   3   2.0000     -11.351021      -308.8770
   4   2.0000     -11.284658      -307.0712
   5   2.0000     -11.259641      -306.3904
   6   2.0000     -11.254705      -306.2561
   7   2.0000     -11.249934      -306.1263
   8   2.0000     -11.245012      -305.9923
   9   2.0000      -1.424306       -38.7573
  10   2.0000      -1.406750       -38.2796
  11   2.0000      -1.112196       -30.2644
  12   2.0000      -1.042325       -28.3631
  13   2.0000      -1.004877       -27.3441
  14   2.0000      -0.920817       -25.0567
  15   2.0000      -0.849727       -23.1222
  16   2.0000      -0.783261       -21.3136
  17   2.0000      -0.731316       -19.9001
  18   2.0000      -0.710131       -19.3237
  19   2.0000      -0.702568       -19.1179
  20   2.0000      -0.691383       -18.8135
  21   2.0000      -0.659453       -17.9446
  22   2.0000      -0.619483       -16.8570
  23   2.0000      -0.599234       -16.3060
  24   2.0000      -0.542276       -14.7561
  25   2.0000      -0.523795       -14.2532
  26   2.0000      -0.473092       -12.8735
  27   2.0000      -0.461449       -12.5567
  28   2.0000      -0.432384       -11.7658
  29   2.0000      -0.416296       -11.3280
  30   2.0000      -0.403977       -10.9928
  31   2.0000      -0.399970       -10.8837
  32   0.0000       0.108027         2.9396
  33   0.0000       0.133689         3.6379
  34   0.0000       0.139608         3.7989
  35   0.0000       0.152377         4.1464
  36   0.0000       0.156089         4.2474

MULLIKEN ATOMIC CHARGES
-----------------------
   0 C :   -0.237876
   1 O :   -0.306132
   2 C :    0.212105
   3 C :    0.083925
   4 O :   -0.219123
   5 C :   -0.096756
   6 C :   -0.152779
   7 C :   -0.053203
   8 C :   -0.153983
   9 H :    0.146853
  10 H :    0.135827
  11 H :    0.132489
  12 H :    0.108883
  13 H :    0.200835
  14 H :    0.198935
Sum of atomic charges:    0.0000000

LOEWDIN ATOMIC CHARGES
----------------------
   0 C :   -0.327969
   1 O :    0.198634
   2 C :   -0.352739
   3 C :   -0.215513
   4 O :    0.181749
   5 C :   -0.053234
   6 C :   -0.056330
   7 C :   -0.050167
   8 C :   -0.055370
   9 H :    0.117073
  10 H :    0.111815
  11 H :    0.111135
  12 H :    0.127423
  13 H :    0.132243
  14 H :    0.131250

  Mayer bond orders larger than 0.1
B(  0-C ,  1-O ) :   0.8955 B(  0-C ,  9-H ) :   0.9373 B(  0-C , 10-H ) :   0.9304
B(  0-C , 11-H ) :   0.9298 B(  1-O ,  2-C ) :   0.9335 B(  2-C ,  3-C ) :   0.7210
B(  2-C ,  4-O ) :  -0.1094 B(  2-C ,  5-C ) :   1.1422 B(  2-C ,  7-C ) :   1.1798
B(  3-C ,  4-O ) :   2.0581 B(  3-C , 12-H ) :   0.9333 B(  5-C ,  6-C ) :   2.5710
B(  6-C , 13-H ) :   0.8922 B(  7-C ,  8-C ) :   2.5763 B(  8-C , 14-H ) :   0.8862

MP2 TOTAL ENERGY:     -419.809499949 Eh
FINAL SINGLE POINT ENERGY      -419.809499949299

DIPOLE MOMENT
-------------
                                X             Y             Z
Electronic contribution:     -2.19807      -5.12665      -0.25896
Nuclear contribution   :      2.25308       6.20581       0.61252
                        -----------------------------------------
Total Dipole Moment    :      0.05501       1.07916       0.35356
                        -----------------------------------------
Magnitude (a.u.)       :      1.13693
Magnitude (Debye)      :      2.88985

                             ****ORCA TERMINATED NORMALLY****
TOTAL RUN TIME: 0 days 0 hours 14 minutes 20 seconds 624 msec
