                         Program Version 3.0.3 - RELEASE   -
|  1> ! RI-MP2 RIJK def2-TZVP def2-TZVP/C def2-TZVP/JK TIGHTSCF
|  2> % maxcore 2000
|  3> % mp2 density relaxed end
|  4> *xyz 0 1
|  5>  C       -0.3217086183    -0.6482459142     1.4877660134
|  6>  C       -0.0881228210     0.0324800632     0.5252700877
|  7>  C        0.2187392955     0.8706286460    -0.6279412379
|  8>  C        1.3166556299     1.8925453262    -0.3398486556
|  9>  C        2.7244917592     1.5397427782    -0.5621391999
| 10>  O        2.0071901904     2.3520873406    -1.5000691206
| 11>  C        0.9600193557     2.9423490393     0.6728206285
| 12>  C        1.3477151458     4.3438776472     0.4924330875
| 13>  O        0.0062661239     3.9154815973     0.2371736472
| 14>  H       -0.5392476919    -1.2553985811     2.3313766742
| 15>  H        0.5354294214     0.2543833204    -1.4764208471
| 16>  H       -0.6785087457     1.4156020990    -0.9465995059
| 17>  H        3.5040507594     2.0550158500    -0.0038116377
| 18>  H        2.9784526927     0.5390488934    -0.9078425524
| 19>  H        0.7828519250     2.5606233404     1.6783148743
| 20>  H        1.4759483801     4.9800860795     1.3668609385
| 21>  H        1.9194540178     4.6181499546    -0.3903504242
| 22> *
| 23>
| 24>                          ****END OF INPUT****

CARTESIAN COORDINATES (ANGSTROEM)
---------------------------------
  C     -0.321709   -0.648246    1.487766
  C     -0.088123    0.032480    0.525270
  C      0.218739    0.870629   -0.627941
  C      1.316656    1.892545   -0.339849
  C      2.724492    1.539743   -0.562139
  O      2.007190    2.352087   -1.500069
  C      0.960019    2.942349    0.672821
  C      1.347715    4.343878    0.492433
  O      0.006266    3.915482    0.237174
  H     -0.539248   -1.255399    2.331377
  H      0.535429    0.254383   -1.476421
  H     -0.678509    1.415602   -0.946600
  H      3.504051    2.055016   -0.003812
  H      2.978453    0.539049   -0.907843
  H      0.782852    2.560623    1.678315
  H      1.475948    4.980086    1.366861
  H      1.919454    4.618150   -0.390350

 Total Charge           Charge          ....    0
 Multiplicity           Mult            ....    1
 Number of Electrons    NEL             ....   66
 Basis Dimension        Dim             ....  327

ORBITAL ENERGIES
----------------

  NO   OCC          E(Eh)            E(eV)
   0   2.0000     -20.581440      -560.0495
   1   2.0000     -20.572692      -559.8114
   2   2.0000     -11.311406      -307.7990
   3   2.0000     -11.295971      -307.3790
   4   2.0000     -11.295437      -307.3645
   5   2.0000     -11.286686      -307.1263
   6   2.0000     -11.265038      -306.5373
   7   2.0000     -11.243841      -305.9605
   8   2.0000     -11.230722      -305.6035
   9   2.0000      -1.433881       -39.0179
  10   2.0000      -1.409554       -38.3559
  11   2.0000      -1.090729       -29.6802
  12   2.0000      -1.007256       -27.4088
  13   2.0000      -0.955950       -26.0127
  14   2.0000      -0.920345       -25.0439
  15   2.0000      -0.889399       -24.2018
  16   2.0000      -0.793777       -21.5998
  17   2.0000      -0.737123       -20.0581
  18   2.0000      -0.719004       -19.5651
  19   2.0000      -0.684066       -18.6144
  20   2.0000      -0.676289       -18.4028
  21   2.0000      -0.638851       -17.3840
  22   2.0000      -0.607123       -16.5207
  23   2.0000      -0.598649       -16.2901
  24   2.0000      -0.561660       -15.2836
  25   2.0000      -0.551854       -15.0167
  26   2.0000      -0.531397       -14.4600
  27   2.0000      -0.480867       -13.0850
  28   2.0000      -0.463889       -12.6231
  29   2.0000      -0.447064       -12.1652
  30   2.0000      -0.439122       -11.9491
  31   2.0000      -0.395656       -10.7664
  32   2.0000      -0.394695       -10.7402
  33   0.0000       0.142585         3.8799
  34   0.0000       0.156121         4.2483
  35   0.0000       0.160409         4.3649
  36   0.0000       0.170790         4.6474
  37   0.0000       0.176082         4.7914

MULLIKEN ATOMIC CHARGES
-----------------------
   0 C :   -0.179082
   1 C :   -0.076384
   2 C :   -0.259323
   3 C :    0.211000
   4 C :   -0.111322
   5 O :   -0.330524
   6 C :   -0.026793
   7 C :   -0.066052
   8 O :   -0.331824
   9 H :    0.191725
  10 H :    0.160505
  11 H :    0.165256
  12 H :    0.124410
  13 H :    0.124756
  14 H :    0.147613
  15 H :    0.115373
  16 H :    0.140667
Sum of atomic charges:    0.0000000

LOEWDIN ATOMIC CHARGES
----------------------
   0 C :   -0.099943
   1 C :   -0.104933
   2 C :   -0.197889
   3 C :   -0.311043
   4 C :   -0.226253
   5 O :    0.181030
   6 C :   -0.253993
   7 C :   -0.251049
   8 O :    0.151578
   9 H :    0.127531
  10 H :    0.167055
  11 H :    0.171132
  12 H :    0.125052
  13 H :    0.125818
  14 H :    0.148868
  15 H :    0.119445
  16 H :    0.127595

  Mayer bond orders larger than 0.1
B(  0-C ,  1-C ) :   2.6339 B(  0-C ,  9-H ) :   0.9045 B(  1-C ,  2-C ) :   1.0490
B(  2-C ,  3-C ) :   0.8418 B(  2-C , 10-H ) :   0.9382 B(  2-C , 11-H ) :   0.9048
B(  3-C ,  4-C ) :   0.9697 B(  3-C ,  5-O ) :   0.8895 B(  3-C ,  6-C ) :   0.9389
B(  4-C ,  5-O ) :   0.8976 B(  4-C , 12-H ) :   0.9049 B(  4-C , 13-H ) :   0.9114
B(  6-C ,  7-C ) :   0.9750 B(  6-C ,  8-O ) :   0.8736 B(  6-C , 14-H ) :   0.9121
B(  7-C ,  8-O ) :   0.9172 B(  7-C , 15-H ) :   0.9173 B(  7-C , 16-H ) :   0.9034

MP2 TOTAL ENERGY:     -421.026732974 Eh
FINAL SINGLE POINT ENERGY      -421.026732973782

DIPOLE MOMENT
-------------
                                X             Y             Z
Electronic contribution:     -1.61551       0.27075      -0.84132
Nuclear contribution   :      2.33621      -0.69206       1.45438
                        -----------------------------------------
Total Dipole Moment    :      0.72069      -0.42132       0.61306
                        -----------------------------------------
Magnitude (a.u.)       :      1.03574
Magnitude (Debye)      :      2.63264

                             ****ORCA TERMINATED NORMALLY****
TOTAL RUN TIME: 0 days 0 hours 16 minutes 4 seconds 786 msec
