                         Program Version 3.0.3 - RELEASE   -
|  1> ! RI-MP2 RIJK def2-TZVP def2-TZVP/C def2-TZVP/JK TIGHTSCF
|  2> % maxcore 2000
|  3> % mp2 density relaxed end
|  4> *xyz 0 1
|  5>  C        0.4085938332     1.4472535981     0.0163122164
|  6>  C        0.0812567101    -0.0447963493     0.0070522357
|  7>  C       -1.4132844154    -0.2519161279    -0.2429839157
|  8>  C        0.9808612373    -0.9104202266    -0.9603390505
|  9>  O        1.7948061982    -0.2815323209    -1.9194681056
| 10>  C        1.6169867026    -1.6342843929     0.2491905914
| 11>  C        2.7901537683    -0.8983369757     0.9602217475
| 12>  C        1.8024208693    -0.3419744367     2.0275521676
| 13>  C        0.6117524271    -0.9018010732     1.2142122765
| 14>  H        1.4722671171     1.6539432952     0.1728342927
| 15>  H        0.1269646065     1.9014813578    -0.9391228121
| 16>  H       -0.1411676042     1.9638624170     0.8109366999
| 17>  H       -1.7091577000     0.1631340899    -1.2135414338
| 18>  H       -1.6720709371    -1.3165461587    -0.2423872283
| 19>  H       -2.0177140905     0.2361840792     0.5307727617
| 20>  H        0.3553087222    -1.6008297455    -1.5350995069
| 21>  H        2.4233082851     0.2859463770    -1.4621734674
| 22>  H        1.7126883148    -2.7189447058     0.1829449527
| 23>  H        3.5653669578    -1.5596419584     1.3527313402
| 24>  H        3.2984094069    -0.1390707664     0.3547832765
| 25>  H        1.9113714044    -0.8551891314     2.9868121614
| 26>  H        1.8208532662     0.7337887407     2.2204105110
| 27>  H       -0.1663241300    -1.4281504756     1.7696202890
| 28> *
| 29>
| 30>                          ****END OF INPUT****

CARTESIAN COORDINATES (ANGSTROEM)
---------------------------------
  C      0.408594    1.447254    0.016312
  C      0.081257   -0.044796    0.007052
  C     -1.413284   -0.251916   -0.242984
  C      0.980861   -0.910420   -0.960339
  O      1.794806   -0.281532   -1.919468
  C      1.616987   -1.634284    0.249191
  C      2.790154   -0.898337    0.960222
  C      1.802421   -0.341974    2.027552
  C      0.611752   -0.901801    1.214212
  H      1.472267    1.653943    0.172834
  H      0.126965    1.901481   -0.939123
  H     -0.141168    1.963862    0.810937
  H     -1.709158    0.163134   -1.213541
  H     -1.672071   -1.316546   -0.242387
  H     -2.017714    0.236184    0.530773
  H      0.355309   -1.600830   -1.535100
  H      2.423308    0.285946   -1.462173
  H      1.712688   -2.718945    0.182945
  H      3.565367   -1.559642    1.352731
  H      3.298409   -0.139071    0.354783
  H      1.911371   -0.855189    2.986812
  H      1.820853    0.733789    2.220411
  H     -0.166324   -1.428150    1.769620

 Total Charge           Charge          ....    0
 Multiplicity           Mult            ....    1
 Number of Electrons    NEL             ....   70
 Basis Dimension        Dim             ....  363

ORBITAL ENERGIES
----------------

  NO   OCC          E(Eh)            E(eV)
   0   2.0000     -20.552041      -559.2495
   1   2.0000     -11.270840      -306.6951
   2   2.0000     -11.232166      -305.6428
   3   2.0000     -11.226803      -305.4968
   4   2.0000     -11.223699      -305.4124
   5   2.0000     -11.222411      -305.3773
   6   2.0000     -11.221792      -305.3605
   7   2.0000     -11.214879      -305.1724
   8   2.0000     -11.212976      -305.1206
   9   2.0000      -1.359928       -37.0055
  10   2.0000      -1.161249       -31.5992
  11   2.0000      -1.053212       -28.6594
  12   2.0000      -0.964421       -26.2432
  13   2.0000      -0.929452       -25.2917
  14   2.0000      -0.898609       -24.4524
  15   2.0000      -0.835230       -22.7278
  16   2.0000      -0.780989       -21.2518
  17   2.0000      -0.716091       -19.4858
  18   2.0000      -0.668793       -18.1988
  19   2.0000      -0.657019       -17.8784
  20   2.0000      -0.634554       -17.2671
  21   2.0000      -0.608009       -16.5448
  22   2.0000      -0.583083       -15.8665
  23   2.0000      -0.574708       -15.6386
  24   2.0000      -0.544112       -14.8060
  25   2.0000      -0.539964       -14.6932
  26   2.0000      -0.533367       -14.5137
  27   2.0000      -0.525691       -14.3048
  28   2.0000      -0.502552       -13.6751
  29   2.0000      -0.490800       -13.3554
  30   2.0000      -0.473280       -12.8786
  31   2.0000      -0.442291       -12.0353
  32   2.0000      -0.410446       -11.1688
  33   2.0000      -0.398436       -10.8420
  34   2.0000      -0.390297       -10.6205
  35   0.0000       0.130101         3.5402
  36   0.0000       0.142871         3.8877
  37   0.0000       0.156373         4.2551
  38   0.0000       0.165617         4.5067
  39   0.0000       0.190548         5.1851

MULLIKEN ATOMIC CHARGES
-----------------------
   0 C :   -0.460799
   1 C :    0.223077
   2 C :   -0.446685
   3 C :   -0.143086
   4 O :   -0.434242
   5 C :    0.090095
   6 C :   -0.325536
   7 C :   -0.232783
   8 C :   -0.174863
   9 H :    0.118582
  10 H :    0.150212
  11 H :    0.137256
  12 H :    0.138725
  13 H :    0.130689
  14 H :    0.129201
  15 H :    0.095499
  16 H :    0.314132
  17 H :    0.114841
  18 H :    0.124087
  19 H :    0.097972
  20 H :    0.118868
  21 H :    0.118146
  22 H :    0.116611
Sum of atomic charges:    0.0000000

LOEWDIN ATOMIC CHARGES
----------------------
   0 C :   -0.277600
   1 C :   -0.264089
   2 C :   -0.275853
   3 C :   -0.276403
   4 O :   -0.002633
   5 C :   -0.163745
   6 C :   -0.220776
   7 C :   -0.224694
   8 C :   -0.143181
   9 H :    0.119971
  10 H :    0.131876
  11 H :    0.128970
  12 H :    0.127761
  13 H :    0.125392
  14 H :    0.125013
  15 H :    0.145854
  16 H :    0.167688
  17 H :    0.132549
  18 H :    0.130446
  19 H :    0.119866
  20 H :    0.134109
  21 H :    0.124997
  22 H :    0.134482

  Mayer bond orders larger than 0.1
B(  0-C ,  1-C ) :   0.8814 B(  0-C ,  9-H ) :   0.9319 B(  0-C , 10-H ) :   0.9362
B(  0-C , 11-H ) :   0.9378 B(  1-C ,  2-C ) :   0.8681 B(  1-C ,  3-C ) :   0.8531
B(  1-C ,  8-C ) :   0.8778 B(  2-C , 12-H ) :   0.9414 B(  2-C , 13-H ) :   0.9297
B(  2-C , 14-H ) :   0.9391 B(  3-C ,  4-O ) :   1.0293 B(  3-C ,  5-C ) :   0.8586
B(  3-C ,  6-C ) :   0.1102 B(  3-C , 15-H ) :   0.9341 B(  4-O , 16-H ) :   0.8339
B(  5-C ,  6-C ) :   0.8546 B(  5-C ,  8-C ) :   0.8699 B(  5-C , 17-H ) :   0.9177
B(  6-C ,  7-C ) :   0.9501 B(  6-C , 18-H ) :   0.9180 B(  6-C , 19-H ) :   0.9374
B(  7-C ,  8-C ) :   0.8931 B(  7-C , 20-H ) :   0.9168 B(  7-C , 21-H ) :   0.9278
B(  8-C , 22-H ) :   0.9093

MP2 TOTAL ENERGY:     -387.594452026 Eh
FINAL SINGLE POINT ENERGY      -387.594452025502

DIPOLE MOMENT
-------------
                                X             Y             Z
Electronic contribution:      2.44185      -2.58169      -2.57372
Nuclear contribution   :     -2.42598       2.65787       3.23453
                        -----------------------------------------
Total Dipole Moment    :      0.01587       0.07618       0.66080
                        -----------------------------------------
Magnitude (a.u.)       :      0.66537
Magnitude (Debye)      :      1.69123

                             ****ORCA TERMINATED NORMALLY****
TOTAL RUN TIME: 0 days 0 hours 22 minutes 13 seconds 546 msec
