                         Program Version 3.0.3 - RELEASE   -
|  1> ! RI-MP2 RIJK def2-TZVP def2-TZVP/C def2-TZVP/JK TIGHTSCF
|  2> % maxcore 2000
|  3> % mp2 density relaxed end
|  4> *xyz 0 1
|  5>  O        0.0205620210     1.4114701271    -0.0829255522
|  6>  C       -0.0113413017    -0.0039912038    -0.0805951588
|  7>  C       -1.4415384047    -0.4661750788    -0.0234756274
|  8>  C       -2.4892110070     0.3557878626     0.0936933522
|  9>  C       -3.8857188500    -0.1895666122     0.1582947987
| 10>  C       -3.9259203581    -1.5461580275    -0.5308641958
| 11>  O       -2.8883654591    -2.4236981003    -0.0670143453
| 12>  C       -1.6224908409    -1.9408527995     0.0113430408
| 13>  O       -0.7028106024    -2.7079019996     0.1577088641
| 14>  H        0.9406560799     1.6871797522    -0.0603377527
| 15>  H        0.4646816155    -0.4247622423    -0.9804136324
| 16>  H        0.5307576939    -0.4277021997     0.7778303643
| 17>  H       -2.3245820983     1.4256845107     0.1630347826
| 18>  H       -4.2123302697    -0.2730830639     1.2046993165
| 19>  H       -4.5945485150     0.4860752533    -0.3334416903
| 20>  H       -4.8597571094    -2.0793799344    -0.3416325579
| 21>  H       -3.8147243739    -1.4162259639    -1.6153965164
| 22> *
| 23>
| 24>                          ****END OF INPUT****

CARTESIAN COORDINATES (ANGSTROEM)
---------------------------------
  O      0.020562    1.411470   -0.082926
  C     -0.011341   -0.003991   -0.080595
  C     -1.441538   -0.466175   -0.023476
  C     -2.489211    0.355788    0.093693
  C     -3.885719   -0.189567    0.158295
  C     -3.925920   -1.546158   -0.530864
  O     -2.888365   -2.423698   -0.067014
  C     -1.622491   -1.940853    0.011343
  O     -0.702811   -2.707902    0.157709
  H      0.940656    1.687180   -0.060338
  H      0.464682   -0.424762   -0.980414
  H      0.530758   -0.427702    0.777830
  H     -2.324582    1.425685    0.163035
  H     -4.212330   -0.273083    1.204699
  H     -4.594549    0.486075   -0.333442
  H     -4.859757   -2.079380   -0.341633
  H     -3.814724   -1.416226   -1.615397

 Total Charge           Charge          ....    0
 Multiplicity           Mult            ....    1
 Number of Electrons    NEL             ....   68
 Basis Dimension        Dim             ....  327

ORBITAL ENERGIES
----------------

  NO   OCC          E(Eh)            E(eV)
   0   2.0000     -20.596286      -560.4534
   1   2.0000     -20.568507      -559.6975
   2   2.0000     -20.534835      -558.7813
   3   2.0000     -11.377700      -309.6030
   4   2.0000     -11.303037      -307.5713
   5   2.0000     -11.289461      -307.2018
   6   2.0000     -11.262161      -306.4590
   7   2.0000     -11.253933      -306.2351
   8   2.0000     -11.251792      -306.1768
   9   2.0000      -1.451656       -39.5016
  10   2.0000      -1.375018       -37.4161
  11   2.0000      -1.357304       -36.9341
  12   2.0000      -1.123680       -30.5769
  13   2.0000      -1.046162       -28.4675
  14   2.0000      -0.949773       -25.8446
  15   2.0000      -0.870221       -23.6799
  16   2.0000      -0.855609       -23.2823
  17   2.0000      -0.736547       -20.0425
  18   2.0000      -0.711773       -19.3683
  19   2.0000      -0.690405       -18.7869
  20   2.0000      -0.673236       -18.3197
  21   2.0000      -0.652272       -17.7492
  22   2.0000      -0.640327       -17.4242
  23   2.0000      -0.618116       -16.8198
  24   2.0000      -0.597494       -16.2586
  25   2.0000      -0.588907       -16.0250
  26   2.0000      -0.559302       -15.2194
  27   2.0000      -0.544830       -14.8256
  28   2.0000      -0.513136       -13.9631
  29   2.0000      -0.497818       -13.5463
  30   2.0000      -0.469224       -12.7682
  31   2.0000      -0.448627       -12.2078
  32   2.0000      -0.438149       -11.9226
  33   2.0000      -0.374725       -10.1968
  34   0.0000       0.097696         2.6584
  35   0.0000       0.129285         3.5180
  36   0.0000       0.135520         3.6877
  37   0.0000       0.163669         4.4536
  38   0.0000       0.178075         4.8457

MULLIKEN ATOMIC CHARGES
-----------------------
   0 O :   -0.471558
   1 C :   -0.046573
   2 C :   -0.078976
   3 C :   -0.170036
   4 C :   -0.180854
   5 C :   -0.074449
   6 O :   -0.215232
   7 C :    0.283246
   8 O :   -0.300816
   9 H :    0.322360
  10 H :    0.117158
  11 H :    0.127867
  12 H :    0.166263
  13 H :    0.132225
  14 H :    0.135685
  15 H :    0.137883
  16 H :    0.115809
Sum of atomic charges:   -0.0000000

LOEWDIN ATOMIC CHARGES
----------------------
   0 O :   -0.038563
   1 C :   -0.301164
   2 C :   -0.156681
   3 C :   -0.099821
   4 C :   -0.253354
   5 C :   -0.273457
   6 O :    0.257428
   7 C :   -0.437646
   8 O :    0.137268
   9 H :    0.177100
  10 H :    0.132027
  11 H :    0.134257
  12 H :    0.154664
  13 H :    0.152134
  14 H :    0.151317
  15 H :    0.133287
  16 H :    0.131205

  Mayer bond orders larger than 0.1
B(  0-O ,  1-C ) :   1.0113 B(  0-O ,  9-H ) :   0.8457 B(  1-C ,  2-C ) :   0.9290
B(  1-C , 10-H ) :   0.9275 B(  1-C , 11-H ) :   0.9198 B(  2-C ,  3-C ) :   1.6984
B(  2-C ,  7-C ) :   0.9553 B(  3-C ,  4-C ) :   0.9231 B(  3-C , 12-H ) :   0.9092
B(  4-C ,  5-C ) :   0.9489 B(  4-C , 13-H ) :   0.8968 B(  4-C , 14-H ) :   0.9271
B(  5-C ,  6-O ) :   0.8579 B(  5-C , 15-H ) :   0.9326 B(  5-C , 16-H ) :   0.9307
B(  6-O ,  7-C ) :   1.1445 B(  7-C ,  8-O ) :   1.9863

MP2 TOTAL ENERGY:     -458.263866705 Eh
FINAL SINGLE POINT ENERGY      -458.263866704568

DIPOLE MOMENT
-------------
                                X             Y             Z
Electronic contribution:      2.40626      -3.99687       0.57048
Nuclear contribution   :     -2.92350       5.23676      -0.78614
                        -----------------------------------------
Total Dipole Moment    :     -0.51724       1.23989      -0.21566
                        -----------------------------------------
Magnitude (a.u.)       :      1.36065
Magnitude (Debye)      :      3.45850

                             ****ORCA TERMINATED NORMALLY****
TOTAL RUN TIME: 0 days 0 hours 16 minutes 29 seconds 266 msec
