                         Program Version 3.0.3 - RELEASE   -
|  1> ! RI-MP2 RIJK def2-TZVP def2-TZVP/C def2-TZVP/JK TIGHTSCF
|  2> % maxcore 2000
|  3> % mp2 density relaxed end
|  4> *xyz 0 1
|  5>  N       -0.0056178903     1.3875088780     0.1371991095
|  6>  C       -0.0070223363     0.0105634356     0.0433754041
|  7>  C       -1.1960240366    -0.7287303408     0.0303378447
|  8>  C       -1.1369266733    -2.1117487274    -0.0068579342
|  9>  C        0.1109099215    -2.7364643124    -0.0311462008
| 10>  N        1.2554758890    -2.0612682767    -0.0266264373
| 11>  C        1.2079596992    -0.7216204273     0.0069597386
| 12>  C        2.4438400843    -0.0044263982    -0.0012946216
| 13>  C        3.4485864677     0.6614763590    -0.0161559705
| 14>  H        0.8608156605     1.8393499380    -0.1172951396
| 15>  H       -0.8297342884     1.8620881569    -0.1970802036
| 16>  H       -2.1504088766    -0.2111112643     0.0545000504
| 17>  H       -2.0459677284    -2.7031913508    -0.0172394930
| 18>  H        0.1896173875    -3.8196717414    -0.0592806682
| 19>  H        4.3565100903     1.2126357918    -0.0194663083
| 20> *
| 21>
| 22>                          ****END OF INPUT****

CARTESIAN COORDINATES (ANGSTROEM)
---------------------------------
  N     -0.005618    1.387509    0.137199
  C     -0.007022    0.010563    0.043375
  C     -1.196024   -0.728730    0.030338
  C     -1.136927   -2.111749   -0.006858
  C      0.110910   -2.736464   -0.031146
  N      1.255476   -2.061268   -0.026626
  C      1.207960   -0.721620    0.006960
  C      2.443840   -0.004426   -0.001295
  C      3.448586    0.661476   -0.016156
  H      0.860816    1.839350   -0.117295
  H     -0.829734    1.862088   -0.197080
  H     -2.150409   -0.211111    0.054500
  H     -2.045968   -2.703191   -0.017239
  H      0.189617   -3.819672   -0.059281
  H      4.356510    1.212636   -0.019466

 Total Charge           Charge          ....    0
 Multiplicity           Mult            ....    1
 Number of Electrons    NEL             ....   62
 Basis Dimension        Dim             ....  315

ORBITAL ENERGIES
----------------

  NO   OCC          E(Eh)            E(eV)
   0   2.0000     -15.574211      -423.7958
   1   2.0000     -15.572994      -423.7627
   2   2.0000     -11.297242      -307.4136
   3   2.0000     -11.289054      -307.1908
   4   2.0000     -11.262351      -306.4642
   5   2.0000     -11.251905      -306.1799
   6   2.0000     -11.248878      -306.0975
   7   2.0000     -11.241463      -305.8958
   8   2.0000     -11.233953      -305.6914
   9   2.0000      -1.273693       -34.6590
  10   2.0000      -1.224352       -33.3163
  11   2.0000      -1.084790       -29.5186
  12   2.0000      -1.055111       -28.7110
  13   2.0000      -0.998919       -27.1820
  14   2.0000      -0.885309       -24.0905
  15   2.0000      -0.854200       -23.2440
  16   2.0000      -0.758092       -20.6287
  17   2.0000      -0.719980       -19.5916
  18   2.0000      -0.709315       -19.3014
  19   2.0000      -0.688774       -18.7425
  20   2.0000      -0.635976       -17.3058
  21   2.0000      -0.625524       -17.0214
  22   2.0000      -0.579560       -15.7706
  23   2.0000      -0.574673       -15.6376
  24   2.0000      -0.545456       -14.8426
  25   2.0000      -0.485818       -13.2198
  26   2.0000      -0.435762       -11.8577
  27   2.0000      -0.425947       -11.5906
  28   2.0000      -0.405161       -11.0250
  29   2.0000      -0.365387        -9.9427
  30   2.0000      -0.299667        -8.1544
  31   0.0000       0.080992         2.2039
  32   0.0000       0.124030         3.3750
  33   0.0000       0.135801         3.6953
  34   0.0000       0.156575         4.2606
  35   0.0000       0.165044         4.4911

MULLIKEN ATOMIC CHARGES
-----------------------
   0 N :   -0.496363
   1 C :    0.139554
   2 C :   -0.200332
   3 C :   -0.103850
   4 C :   -0.070178
   5 N :   -0.270649
   6 C :    0.026245
   7 C :    0.014177
   8 C :   -0.124554
   9 H :    0.263114
  10 H :    0.248767
  11 H :    0.123350
  12 H :    0.129464
  13 H :    0.126070
  14 H :    0.195186
Sum of atomic charges:   -0.0000000

LOEWDIN ATOMIC CHARGES
----------------------
   0 N :   -0.038286
   1 C :   -0.203815
   2 C :   -0.114790
   3 C :   -0.152725
   4 C :   -0.223255
   5 N :    0.168561
   6 C :   -0.204084
   7 C :   -0.065717
   8 C :   -0.078010
   9 H :    0.177107
  10 H :    0.169496
  11 H :    0.148835
  12 H :    0.149017
  13 H :    0.138688
  14 H :    0.128981

  Mayer bond orders larger than 0.1
B(  0-N ,  1-C ) :   1.1000 B(  0-N ,  9-H ) :   0.8589 B(  0-N , 10-H ) :   0.8700
B(  1-C ,  2-C ) :   1.2995 B(  1-C ,  6-C ) :   1.2485 B(  2-C ,  3-C ) :   1.3989
B(  2-C , 11-H ) :   0.9294 B(  3-C ,  4-C ) :   1.2895 B(  3-C , 12-H ) :   0.9205
B(  4-C ,  5-N ) :   1.4341 B(  4-C , 13-H ) :   0.9444 B(  5-N ,  6-C ) :   1.3464
B(  6-C ,  7-C ) :   1.1601 B(  6-C ,  8-C ) :  -0.1494 B(  7-C ,  8-C ) :   2.5684
B(  8-C , 14-H ) :   0.8840

MP2 TOTAL ENERGY:     -379.005088259 Eh
FINAL SINGLE POINT ENERGY      -379.005088258917

DIPOLE MOMENT
-------------
                                X             Y             Z
Electronic contribution:      2.39458      -1.11543       0.09971
Nuclear contribution   :     -3.28325       2.05591      -0.40453
                        -----------------------------------------
Total Dipole Moment    :     -0.88867       0.94048      -0.30482
                        -----------------------------------------
Magnitude (a.u.)       :      1.32934
Magnitude (Debye)      :      3.37891

                             ****ORCA TERMINATED NORMALLY****
TOTAL RUN TIME: 0 days 0 hours 16 minutes 28 seconds 533 msec
