                         Program Version 3.0.3 - RELEASE   -
|  1> ! RI-MP2 RIJK def2-TZVP def2-TZVP/C def2-TZVP/JK TIGHTSCF
|  2> % maxcore 2000
|  3> % mp2 density relaxed end
|  4> *xyz 0 1
|  5>  C       -0.0580609124     1.5843476765    -0.0488214928
|  6>  C        0.0704164554     0.0818192145     0.0613701797
|  7>  O       -1.0943443448    -0.5992933574    -0.3610981702
|  8>  C        1.3233904180    -0.7150067861    -0.2011613627
|  9>  C        2.5753689719    -0.0150801690     0.3314539257
| 10>  C        1.9493140959    -0.0585595634     1.7782210394
| 11>  C        2.6867348571    -1.0210241908     2.7054366298
| 12>  O        1.7239119298     1.1828669963     2.4299434587
| 13>  C        0.6768199210    -0.6784742341     1.2043901629
| 14>  H        0.7900591623     2.1061101357     0.3923531428
| 15>  H       -0.1499293728     1.8831011359    -1.1015678791
| 16>  H       -0.9614114119     1.9103552416     0.4756857220
| 17>  H       -1.2129184891    -0.4107693835    -1.2985805868
| 18>  H        1.3089536092    -1.5334878272    -0.9105643835
| 19>  H        3.4845892998    -0.6165021826     0.2509505778
| 20>  H        2.7785988945     0.9836230485    -0.0655788433
| 21>  H        3.6825222561    -0.6311524444     2.9524434700
| 22>  H        2.1256887616    -1.1518922242     3.6361780485
| 23>  H        2.8185822672    -2.0008478775     2.2378040989
| 24>  H        2.5549135514     1.4670635569     2.8261347801
| 25>  H        0.0873434099    -1.4399809257     1.7021527422
| 26> *
| 27>
| 28>                          ****END OF INPUT****

CARTESIAN COORDINATES (ANGSTROEM)
---------------------------------
  C     -0.058061    1.584348   -0.048821
  C      0.070416    0.081819    0.061370
  O     -1.094344   -0.599293   -0.361098
  C      1.323390   -0.715007   -0.201161
  C      2.575369   -0.015080    0.331454
  C      1.949314   -0.058560    1.778221
  C      2.686735   -1.021024    2.705437
  O      1.723912    1.182867    2.429943
  C      0.676820   -0.678474    1.204390
  H      0.790059    2.106110    0.392353
  H     -0.149929    1.883101   -1.101568
  H     -0.961411    1.910355    0.475686
  H     -1.212918   -0.410769   -1.298581
  H      1.308954   -1.533488   -0.910564
  H      3.484589   -0.616502    0.250951
  H      2.778599    0.983623   -0.065579
  H      3.682522   -0.631152    2.952443
  H      2.125689   -1.151892    3.636178
  H      2.818582   -2.000848    2.237804
  H      2.554914    1.467064    2.826135
  H      0.087343   -1.439981    1.702153

 Total Charge           Charge          ....    0
 Multiplicity           Mult            ....    1
 Number of Electrons    NEL             ....   70
 Basis Dimension        Dim             ....  351

ORBITAL ENERGIES
----------------

  NO   OCC          E(Eh)            E(eV)
   0   2.0000     -20.555154      -559.3342
   1   2.0000     -20.553659      -559.2935
   2   2.0000     -11.291805      -307.2656
   3   2.0000     -11.286771      -307.1287
   4   2.0000     -11.229178      -305.5615
   5   2.0000     -11.225510      -305.4617
   6   2.0000     -11.223160      -305.3977
   7   2.0000     -11.221382      -305.3493
   8   2.0000     -11.207768      -304.9789
   9   2.0000      -1.368967       -37.2515
  10   2.0000      -1.361719       -37.0543
  11   2.0000      -1.173556       -31.9341
  12   2.0000      -1.019598       -27.7447
  13   2.0000      -0.965400       -26.2699
  14   2.0000      -0.932350       -25.3705
  15   2.0000      -0.857776       -23.3413
  16   2.0000      -0.764313       -20.7980
  17   2.0000      -0.737236       -20.0612
  18   2.0000      -0.690837       -18.7986
  19   2.0000      -0.671277       -18.2664
  20   2.0000      -0.637346       -17.3431
  21   2.0000      -0.634413       -17.2633
  22   2.0000      -0.595591       -16.2069
  23   2.0000      -0.582477       -15.8500
  24   2.0000      -0.571049       -15.5390
  25   2.0000      -0.558284       -15.1917
  26   2.0000      -0.543180       -14.7807
  27   2.0000      -0.529356       -14.4045
  28   2.0000      -0.517772       -14.0893
  29   2.0000      -0.491358       -13.3705
  30   2.0000      -0.477867       -13.0034
  31   2.0000      -0.464470       -12.6389
  32   2.0000      -0.423926       -11.5356
  33   2.0000      -0.388959       -10.5841
  34   2.0000      -0.370299       -10.0763
  35   0.0000       0.128948         3.5088
  36   0.0000       0.141026         3.8375
  37   0.0000       0.163553         4.4505
  38   0.0000       0.180112         4.9011
  39   0.0000       0.188260         5.1228

MULLIKEN ATOMIC CHARGES
-----------------------
   0 C :   -0.388501
   1 C :    0.208914
   2 O :   -0.459455
   3 C :   -0.166840
   4 C :   -0.274465
   5 C :    0.286989
   6 C :   -0.489548
   7 O :   -0.470779
   8 C :   -0.182878
   9 H :    0.143783
  10 H :    0.107091
  11 H :    0.139674
  12 H :    0.317235
  13 H :    0.131032
  14 H :    0.119763
  15 H :    0.116528
  16 H :    0.128134
  17 H :    0.146437
  18 H :    0.141058
  19 H :    0.309941
  20 H :    0.135886
Sum of atomic charges:   -0.0000000

LOEWDIN ATOMIC CHARGES
----------------------
   0 C :   -0.273574
   1 C :   -0.343435
   2 O :    0.022736
   3 C :   -0.151895
   4 C :   -0.184320
   5 C :   -0.359591
   6 C :   -0.278013
   7 O :    0.007183
   8 C :   -0.109751
   9 H :    0.131794
  10 H :    0.121221
  11 H :    0.132695
  12 H :    0.178943
  13 H :    0.136443
  14 H :    0.135527
  15 H :    0.129791
  16 H :    0.122445
  17 H :    0.129318
  18 H :    0.132700
  19 H :    0.174310
  20 H :    0.145473

  Mayer bond orders larger than 0.1
B(  0-C ,  1-C ) :   0.9474 B(  0-C ,  9-H ) :   0.9240 B(  0-C , 10-H ) :   0.9188
B(  0-C , 11-H ) :   0.9392 B(  1-C ,  2-O ) :   0.9517 B(  1-C ,  3-C ) :   0.8669
B(  1-C ,  8-C ) :   0.8832 B(  2-O , 12-H ) :   0.8421 B(  3-C ,  4-C ) :   0.9162
B(  3-C ,  8-C ) :   0.8114 B(  3-C , 13-H ) :   0.9274 B(  4-C ,  5-C ) :   0.9167
B(  4-C , 14-H ) :   0.9094 B(  4-C , 15-H ) :   0.9128 B(  5-C ,  6-C ) :   0.8867
B(  5-C ,  7-O ) :   0.9811 B(  5-C ,  8-C ) :   0.8593 B(  6-C , 16-H ) :   0.9311
B(  6-C , 17-H ) :   0.9445 B(  6-C , 18-H ) :   0.9352 B(  7-O , 19-H ) :   0.8420
B(  8-C , 20-H ) :   0.9306

MP2 TOTAL ENERGY:     -423.498366666 Eh
FINAL SINGLE POINT ENERGY      -423.498366666467

DIPOLE MOMENT
-------------
                                X             Y             Z
Electronic contribution:     -3.17200      -0.51661      -0.67891
Nuclear contribution   :      4.06596       0.53629       0.37401
                        -----------------------------------------
Total Dipole Moment    :      0.89396       0.01968      -0.30490
                        -----------------------------------------
Magnitude (a.u.)       :      0.94473
Magnitude (Debye)      :      2.40131

                             ****ORCA TERMINATED NORMALLY****
TOTAL RUN TIME: 0 days 0 hours 21 minutes 43 seconds 573 msec
