                         Program Version 3.0.3 - RELEASE   -
|  1> ! RI-MP2 RIJK def2-TZVP def2-TZVP/C def2-TZVP/JK TIGHTSCF
|  2> % maxcore 2000
|  3> % mp2 density relaxed end
|  4> *xyz 0 1
|  5>  C       -0.0198730915     1.4856908606     0.0684144463
|  6>  C       -0.0004605770    -0.0064474376    -0.0438611811
|  7>  C       -0.0182726061    -0.7149792415    -1.1855168912
|  8>  C        0.0037607574    -2.1787691382    -1.1761562878
|  9>  N       -0.0137857652    -2.8331388604    -2.2782393468
| 10>  N        0.0444806582    -2.8053847549     0.0898753041
| 11>  C        0.0595833709    -2.0699609982     1.1380290110
| 12>  O        0.0981797006    -2.6030975448     2.3723707117
| 13>  N        0.0398943281    -0.7071979408     1.1618341613
| 14>  H        0.8718878662     1.8554957553     0.5892503504
| 15>  H       -0.0513195305     1.9398472931    -0.9225037654
| 16>  H       -0.8951937099     1.8291919430     0.6332866650
| 17>  H       -0.0495295332    -0.2175334056    -2.1455827330
| 18>  H        0.0064020594    -3.8325684594    -2.0647932578
| 19>  H        0.1092108126    -3.5616485849     2.2402818289
| 20>  H        0.0550107899    -0.2314241156     2.0490473543
| 21> *
| 22>
| 23>                          ****END OF INPUT****

CARTESIAN COORDINATES (ANGSTROEM)
---------------------------------
  C     -0.019873    1.485691    0.068414
  C     -0.000461   -0.006447   -0.043861
  C     -0.018273   -0.714979   -1.185517
  C      0.003761   -2.178769   -1.176156
  N     -0.013786   -2.833139   -2.278239
  N      0.044481   -2.805385    0.089875
  C      0.059583   -2.069961    1.138029
  O      0.098180   -2.603098    2.372371
  N      0.039894   -0.707198    1.161834
  H      0.871888    1.855496    0.589250
  H     -0.051320    1.939847   -0.922504
  H     -0.895194    1.829192    0.633287
  H     -0.049530   -0.217533   -2.145583
  H      0.006402   -3.832568   -2.064793
  H      0.109211   -3.561649    2.240282
  H      0.055011   -0.231424    2.049047

 Total Charge           Charge          ....    0
 Multiplicity           Mult            ....    1
 Number of Electrons    NEL             ....   66
 Basis Dimension        Dim             ....  321

ORBITAL ENERGIES
----------------

  NO   OCC          E(Eh)            E(eV)
   0   2.0000     -20.626087      -561.2644
   1   2.0000     -15.626638      -425.2224
   2   2.0000     -15.548705      -423.1018
   3   2.0000     -15.505423      -421.9240
   4   2.0000     -11.401856      -310.2603
   5   2.0000     -11.308575      -307.7220
   6   2.0000     -11.300763      -307.5094
   7   2.0000     -11.256183      -306.2963
   8   2.0000     -11.227063      -305.5039
   9   2.0000      -1.467349       -39.9286
  10   2.0000      -1.317330       -35.8464
  11   2.0000      -1.235198       -33.6114
  12   2.0000      -1.150196       -31.2984
  13   2.0000      -1.078742       -29.3541
  14   2.0000      -0.983859       -26.7722
  15   2.0000      -0.891969       -24.2717
  16   2.0000      -0.843094       -22.9417
  17   2.0000      -0.773447       -21.0466
  18   2.0000      -0.753309       -20.4986
  19   2.0000      -0.720360       -19.6020
  20   2.0000      -0.667095       -18.1526
  21   2.0000      -0.633929       -17.2501
  22   2.0000      -0.628161       -17.0931
  23   2.0000      -0.608140       -16.5483
  24   2.0000      -0.590843       -16.0777
  25   2.0000      -0.576201       -15.6792
  26   2.0000      -0.559665       -15.2293
  27   2.0000      -0.539854       -14.6902
  28   2.0000      -0.484128       -13.1738
  29   2.0000      -0.442331       -12.0364
  30   2.0000      -0.412785       -11.2324
  31   2.0000      -0.398077       -10.8322
  32   2.0000      -0.312474        -8.5029
  33   0.0000       0.113534         3.0894
  34   0.0000       0.128053         3.4845
  35   0.0000       0.145885         3.9697
  36   0.0000       0.161171         4.3857
  37   0.0000       0.163031         4.4363

MULLIKEN ATOMIC CHARGES
-----------------------
   0 C :   -0.451681
   1 C :    0.232028
   2 C :   -0.218477
   3 C :    0.072449
   4 N :   -0.361669
   5 N :   -0.324834
   6 C :    0.367802
   7 O :   -0.420642
   8 N :   -0.317425
   9 H :    0.152387
  10 H :    0.158351
  11 H :    0.152386
  12 H :    0.135825
  13 H :    0.208607
  14 H :    0.354420
  15 H :    0.260472
Sum of atomic charges:   -0.0000000

LOEWDIN ATOMIC CHARGES
----------------------
   0 C :   -0.262447
   1 C :   -0.229172
   2 C :   -0.116109
   3 C :   -0.373443
   4 N :   -0.074732
   5 N :    0.103251
   6 C :   -0.459675
   7 O :    0.088098
   8 N :    0.183295
   9 H :    0.134751
  10 H :    0.141129
  11 H :    0.134751
  12 H :    0.159522
  13 H :    0.157647
  14 H :    0.208263
  15 H :    0.204872

  Mayer bond orders larger than 0.1
B(  0-C ,  1-C ) :   0.8695 B(  0-C ,  9-H ) :   0.9299 B(  0-C , 10-H ) :   0.9474
B(  0-C , 11-H ) :   0.9299 B(  1-C ,  2-C ) :   1.6127 B(  1-C ,  8-N ) :   0.9960
B(  2-C ,  3-C ) :   1.0417 B(  2-C , 12-H ) :   0.9314 B(  3-C ,  4-N ) :   2.0344
B(  3-C ,  5-N ) :   1.0806 B(  4-N , 13-H ) :   0.8671 B(  5-N ,  6-C ) :   1.6757
B(  6-C ,  7-O ) :   1.1324 B(  6-C ,  8-N ) :   1.1199 B(  7-O , 14-H ) :   0.8054
B(  8-N , 15-H ) :   0.8622

MP2 TOTAL ENERGY:     -433.402443014 Eh
FINAL SINGLE POINT ENERGY      -433.402443013668

DIPOLE MOMENT
-------------
                                X             Y             Z
Electronic contribution:      0.13211      -5.91571       1.78081
Nuclear contribution   :     -0.10767       7.05332      -0.11896
                        -----------------------------------------
Total Dipole Moment    :      0.02444       1.13761       1.66185
                        -----------------------------------------
Magnitude (a.u.)       :      2.01407
Magnitude (Debye)      :      5.11937

                             ****ORCA TERMINATED NORMALLY****
TOTAL RUN TIME: 0 days 0 hours 13 minutes 58 seconds 205 msec
