                         Program Version 3.0.3 - RELEASE   -
|  1> ! RI-MP2 RIJK def2-TZVP def2-TZVP/C def2-TZVP/JK TIGHTSCF
|  2> % maxcore 2000
|  3> % mp2 density relaxed end
|  4> *xyz 0 1
|  5>  C        0.0187680384     1.5238155293     0.0074175514
|  6>  C       -0.0489034714     0.0258023857    -0.0084894241
|  7>  C       -1.1679011018    -0.6911462878     0.1598762578
|  8>  C       -1.1649661755    -2.1665535171     0.0620863861
|  9>  C       -0.7795096555    -2.8146952794    -1.2448204033
| 10>  C        0.2036436707    -2.8328777585    -0.0932363586
| 11>  C        1.4207801669    -1.9737782892    -0.1246535752
| 12>  O        2.5532710846    -2.4130524692    -0.0639501106
| 13>  N        1.1848438962    -0.6123520003    -0.2138131504
| 14>  H        0.7019695439     1.8818134433     0.7880037121
| 15>  H        0.3869036231     1.9144099877    -0.9493310511
| 16>  H       -0.9672912446     1.9522870177     0.1937553604
| 17>  H       -2.1051943584    -0.1792478385     0.3403585578
| 18>  H       -1.8968268794    -2.6938403694     0.6659291513
| 19>  H       -1.2336688881    -3.7647389328    -1.5015096885
| 20>  H       -0.5719656043    -2.1636820607    -2.0864898321
| 21>  H        0.3868127290    -3.7889518093     0.3814988514
| 22>  H        2.0261167164    -0.0536601615    -0.2108632946
| 23> *
| 24>
| 25>                          ****END OF INPUT****

CARTESIAN COORDINATES (ANGSTROEM)
---------------------------------
  C      0.018768    1.523816    0.007418
  C     -0.048903    0.025802   -0.008489
  C     -1.167901   -0.691146    0.159876
  C     -1.164966   -2.166554    0.062086
  C     -0.779510   -2.814695   -1.244820
  C      0.203644   -2.832878   -0.093236
  C      1.420780   -1.973778   -0.124654
  O      2.553271   -2.413052   -0.063950
  N      1.184844   -0.612352   -0.213813
  H      0.701970    1.881813    0.788004
  H      0.386904    1.914410   -0.949331
  H     -0.967291    1.952287    0.193755
  H     -2.105194   -0.179248    0.340359
  H     -1.896827   -2.693840    0.665929
  H     -1.233669   -3.764739   -1.501510
  H     -0.571966   -2.163682   -2.086490
  H      0.386813   -3.788952    0.381499
  H      2.026117   -0.053660   -0.210863

 Total Charge           Charge          ....    0
 Multiplicity           Mult            ....    1
 Number of Electrons    NEL             ....   66
 Basis Dimension        Dim             ....  333

ORBITAL ENERGIES
----------------

  NO   OCC          E(Eh)            E(eV)
   0   2.0000     -20.519036      -558.3514
   1   2.0000     -15.594247      -424.3410
   2   2.0000     -11.353307      -308.9392
   3   2.0000     -11.288370      -307.1722
   4   2.0000     -11.253577      -306.2254
   5   2.0000     -11.247965      -306.0727
   6   2.0000     -11.244470      -305.9776
   7   2.0000     -11.243177      -305.9424
   8   2.0000     -11.224208      -305.4262
   9   2.0000      -1.384693       -37.6794
  10   2.0000      -1.258061       -34.2336
  11   2.0000      -1.161253       -31.5993
  12   2.0000      -1.062818       -28.9207
  13   2.0000      -0.968332       -26.3496
  14   2.0000      -0.904953       -24.6250
  15   2.0000      -0.847041       -23.0491
  16   2.0000      -0.810934       -22.0666
  17   2.0000      -0.737651       -20.0725
  18   2.0000      -0.692223       -18.8363
  19   2.0000      -0.675524       -18.3819
  20   2.0000      -0.642343       -17.4790
  21   2.0000      -0.613852       -16.7038
  22   2.0000      -0.599676       -16.3180
  23   2.0000      -0.581750       -15.8302
  24   2.0000      -0.569493       -15.4967
  25   2.0000      -0.561777       -15.2867
  26   2.0000      -0.547539       -14.8993
  27   2.0000      -0.515495       -14.0273
  28   2.0000      -0.491066       -13.3626
  29   2.0000      -0.448663       -12.2088
  30   2.0000      -0.424899       -11.5621
  31   2.0000      -0.419146       -11.4055
  32   2.0000      -0.314348        -8.5538
  33   0.0000       0.128616         3.4998
  34   0.0000       0.137541         3.7427
  35   0.0000       0.152982         4.1629
  36   0.0000       0.172136         4.6841
  37   0.0000       0.182297         4.9606

MULLIKEN ATOMIC CHARGES
-----------------------
   0 C :   -0.450498
   1 C :    0.208818
   2 C :   -0.302061
   3 C :   -0.009313
   4 C :   -0.277434
   5 C :   -0.108007
   6 C :    0.196338
   7 O :   -0.337640
   8 N :   -0.293791
   9 H :    0.146874
  10 H :    0.149246
  11 H :    0.144667
  12 H :    0.127442
  13 H :    0.133471
  14 H :    0.141310
  15 H :    0.146477
  16 H :    0.145354
  17 H :    0.238748
Sum of atomic charges:   -0.0000000

LOEWDIN ATOMIC CHARGES
----------------------
   0 C :   -0.268899
   1 C :   -0.246115
   2 C :   -0.161027
   3 C :   -0.182799
   4 C :   -0.179560
   5 C :   -0.150450
   6 C :   -0.415828
   7 O :    0.092592
   8 N :    0.170520
   9 H :    0.131626
  10 H :    0.132346
  11 H :    0.136159
  12 H :    0.149958
  13 H :    0.152569
  14 H :    0.137646
  15 H :    0.141781
  16 H :    0.160124
  17 H :    0.199357

  Mayer bond orders larger than 0.1
B(  0-C ,  1-C ) :   0.8733 B(  0-C ,  9-H ) :   0.9290 B(  0-C , 10-H ) :   0.9301
B(  0-C , 11-H ) :   0.9448 B(  1-C ,  2-C ) :   1.7208 B(  1-C ,  8-N ) :   1.0160
B(  2-C ,  3-C ) :   0.9420 B(  2-C , 12-H ) :   0.9254 B(  3-C ,  4-C ) :   0.8630
B(  3-C ,  5-C ) :   0.7970 B(  3-C , 13-H ) :   0.9214 B(  4-C ,  5-C ) :   0.8537
B(  4-C , 14-H ) :   0.9257 B(  4-C , 15-H ) :   0.9220 B(  5-C ,  6-C ) :   0.9702
B(  5-C , 16-H ) :   0.9288 B(  6-C ,  7-O ) :   1.9884 B(  6-C ,  8-N ) :   1.1143
B(  8-N , 17-H ) :   0.8622

MP2 TOTAL ENERGY:     -401.297672469 Eh
FINAL SINGLE POINT ENERGY      -401.297672469261

DIPOLE MOMENT
-------------
                                X             Y             Z
Electronic contribution:      4.40578      -3.77319       0.71421
Nuclear contribution   :     -5.49462       4.58296      -0.76772
                        -----------------------------------------
Total Dipole Moment    :     -1.08885       0.80976      -0.05351
                        -----------------------------------------
Magnitude (a.u.)       :      1.35800
Magnitude (Debye)      :      3.45177

                             ****ORCA TERMINATED NORMALLY****
TOTAL RUN TIME: 0 days 0 hours 19 minutes 20 seconds 533 msec
