                         Program Version 3.0.3 - RELEASE   -
|  1> ! RI-MP2 RIJK def2-TZVP def2-TZVP/C def2-TZVP/JK TIGHTSCF
|  2> % maxcore 2000
|  3> % mp2 density relaxed end
|  4> *xyz 0 1
|  5>  N       -0.0484797225     1.3212738215     0.0106146782
|  6>  C        0.0721180029    -0.0280333540     0.0025326135
|  7>  O        1.1285365510    -0.6346461689    -0.0104340921
|  8>  C       -1.2384076291    -0.7520995571     0.0115444269
|  9>  C       -1.3992211392    -2.0773922338     0.0087814774
| 10>  C       -2.8595037555    -2.3944689816     0.0200497699
| 11>  O       -3.5178301155    -1.1258907427     0.0294216072
| 12>  C       -2.5880149295    -0.1276970836     0.0246868524
| 13>  O       -2.8930471353     1.0380357423     0.0307531609
| 14>  H        0.7900171593     1.8776284807     0.0025116830
| 15>  H       -0.9639434015     1.7522792173     0.0178609129
| 16>  H       -0.6090308277    -2.8159235100    -0.0001885129
| 17>  H       -3.1793776569    -2.9567868415    -0.8660139817
| 18>  H       -3.1645306304    -2.9622029086     0.9078916445
| 19> *
| 20>
| 21>                          ****END OF INPUT****

CARTESIAN COORDINATES (ANGSTROEM)
---------------------------------
  N     -0.048480    1.321274    0.010615
  C      0.072118   -0.028033    0.002533
  O      1.128537   -0.634646   -0.010434
  C     -1.238408   -0.752100    0.011544
  C     -1.399221   -2.077392    0.008781
  C     -2.859504   -2.394469    0.020050
  O     -3.517830   -1.125891    0.029422
  C     -2.588015   -0.127697    0.024687
  O     -2.893047    1.038036    0.030753
  H      0.790017    1.877628    0.002512
  H     -0.963943    1.752279    0.017861
  H     -0.609031   -2.815924   -0.000189
  H     -3.179378   -2.956787   -0.866014
  H     -3.164531   -2.962203    0.907892

 Total Charge           Charge          ....    0
 Multiplicity           Mult            ....    1
 Number of Electrons    NEL             ....   66
 Basis Dimension        Dim             ....  309

ORBITAL ENERGIES
----------------

  NO   OCC          E(Eh)            E(eV)
   0   2.0000     -20.625178      -561.2396
   1   2.0000     -20.561419      -559.5047
   2   2.0000     -20.525822      -558.5360
   3   2.0000     -15.585286      -424.0972
   4   2.0000     -11.404772      -310.3396
   5   2.0000     -11.370003      -309.3935
   6   2.0000     -11.332750      -308.3798
   7   2.0000     -11.303826      -307.5927
   8   2.0000     -11.277257      -306.8698
   9   2.0000      -1.483059       -40.3561
  10   2.0000      -1.391997       -37.8782
  11   2.0000      -1.388568       -37.7849
  12   2.0000      -1.220394       -33.2086
  13   2.0000      -1.137472       -30.9522
  14   2.0000      -1.016426       -27.6583
  15   2.0000      -0.884593       -24.0710
  16   2.0000      -0.841981       -22.9115
  17   2.0000      -0.788753       -21.4631
  18   2.0000      -0.742786       -20.2122
  19   2.0000      -0.710828       -19.3426
  20   2.0000      -0.709445       -19.3050
  21   2.0000      -0.682088       -18.5606
  22   2.0000      -0.637614       -17.3504
  23   2.0000      -0.629297       -17.1240
  24   2.0000      -0.599838       -16.3224
  25   2.0000      -0.597988       -16.2721
  26   2.0000      -0.581179       -15.8147
  27   2.0000      -0.562805       -15.3147
  28   2.0000      -0.488369       -13.2892
  29   2.0000      -0.474348       -12.9077
  30   2.0000      -0.441929       -12.0255
  31   2.0000      -0.422585       -11.4991
  32   2.0000      -0.413266       -11.2455
  33   0.0000       0.060264         1.6399
  34   0.0000       0.131099         3.5674
  35   0.0000       0.152160         4.1405
  36   0.0000       0.170314         4.6345
  37   0.0000       0.170366         4.6359

MULLIKEN ATOMIC CHARGES
-----------------------
   0 N :   -0.455391
   1 C :    0.242219
   2 O :   -0.352105
   3 C :   -0.062347
   4 C :   -0.165976
   5 C :    0.011703
   6 O :   -0.225160
   7 C :    0.321698
   8 O :   -0.335951
   9 H :    0.258533
  10 H :    0.292127
  11 H :    0.180863
  12 H :    0.144895
  13 H :    0.144892
Sum of atomic charges:   -0.0000000

LOEWDIN ATOMIC CHARGES
----------------------
   0 N :    0.014803
   1 C :   -0.455391
   2 O :    0.085681
   3 C :   -0.108172
   4 C :   -0.058402
   5 C :   -0.249110
   6 O :    0.269104
   7 C :   -0.422800
   8 O :    0.120244
   9 H :    0.176153
  10 H :    0.180659
  11 H :    0.158147
  12 H :    0.144544
  13 H :    0.144542

  Mayer bond orders larger than 0.1
B(  0-N ,  1-C ) :   1.2608 B(  0-N ,  9-H ) :   0.8574 B(  0-N , 10-H ) :   0.8286
B(  1-C ,  2-O ) :   1.9978 B(  1-C ,  3-C ) :   0.8607 B(  2-O ,  3-C ) :  -0.1002
B(  3-C ,  4-C ) :   1.6576 B(  3-C ,  7-C ) :   0.9358 B(  4-C ,  5-C ) :   0.9899
B(  4-C , 11-H ) :   0.8960 B(  5-C ,  6-O ) :   0.8901 B(  5-C , 12-H ) :   0.9034
B(  5-C , 13-H ) :   0.9034 B(  6-O ,  7-C ) :   1.1266 B(  7-C ,  8-O ) :   1.8945

MP2 TOTAL ENERGY:     -473.152109297 Eh
FINAL SINGLE POINT ENERGY      -473.152109297341

DIPOLE MOMENT
-------------
                                X             Y             Z
Electronic contribution:     -0.53071       1.72886       0.00822
Nuclear contribution   :      0.27081      -2.44988      -0.00883
                        -----------------------------------------
Total Dipole Moment    :     -0.25990      -0.72101      -0.00061
                        -----------------------------------------
Magnitude (a.u.)       :      0.76643
Magnitude (Debye)      :      1.94810

                             ****ORCA TERMINATED NORMALLY****
TOTAL RUN TIME: 0 days 0 hours 14 minutes 35 seconds 157 msec
