                         Program Version 3.0.3 - RELEASE   -
|  1> ! RI-MP2 RIJK def2-TZVP def2-TZVP/C def2-TZVP/JK TIGHTSCF
|  2> % maxcore 2000
|  3> % mp2 density relaxed end
|  4> *xyz 0 1
|  5>  C       -0.0286107978     1.5812373925     0.0181255017
|  6>  C        0.0452186100     0.0544586339     0.0240579230
|  7>  C       -1.3210812664    -0.5486921720    -0.3233721861
|  8>  C        1.1487296016    -0.6409963175    -0.7658965616
|  9>  C        2.3891430044    -0.7154026404     0.0609052562
| 10>  C        2.1196584210    -0.0815562979     1.4097220404
| 11>  C        0.7052244810    -0.6824619871     1.2418325172
| 12>  C       -0.0794633398    -1.1356781911     2.4404468625
| 13>  N        1.3049995837    -1.7431904296     0.2417540126
| 14>  H        0.9481294688     2.0494015972     0.1587599128
| 15>  H       -0.4298402019     1.9393476437    -0.9367544286
| 16>  H       -0.6972512946     1.9447766822     0.8074415573
| 17>  H       -1.6358799345    -0.2268016019    -1.3223392473
| 18>  H       -1.2889223375    -1.6412921992    -0.3160862533
| 19>  H       -2.0903832952    -0.2196874608     0.3838919505
| 20>  H        1.1542941762    -0.8613138037    -1.8292276040
| 21>  H        3.3468917928    -0.9883252168    -0.3687929060
| 22>  H        2.6647441664    -0.6098433504     2.1976369234
| 23>  H        2.2353919911     0.9972122190     1.5495734833
| 24>  H       -0.3815862373    -0.2740781753     3.0477990076
| 25>  H       -0.9815390045    -1.6830126437     2.1540234551
| 26>  H        0.5289960726    -1.7935757012     3.0690324434
| 27> *
| 28>
| 29>                          ****END OF INPUT****

CARTESIAN COORDINATES (ANGSTROEM)
---------------------------------
  C     -0.028611    1.581237    0.018126
  C      0.045219    0.054459    0.024058
  C     -1.321081   -0.548692   -0.323372
  C      1.148730   -0.640996   -0.765897
  C      2.389143   -0.715403    0.060905
  C      2.119658   -0.081556    1.409722
  C      0.705224   -0.682462    1.241833
  C     -0.079463   -1.135678    2.440447
  N      1.305000   -1.743190    0.241754
  H      0.948129    2.049402    0.158760
  H     -0.429840    1.939348   -0.936754
  H     -0.697251    1.944777    0.807442
  H     -1.635880   -0.226802   -1.322339
  H     -1.288922   -1.641292   -0.316086
  H     -2.090383   -0.219687    0.383892
  H      1.154294   -0.861314   -1.829228
  H      3.346892   -0.988325   -0.368793
  H      2.664744   -0.609843    2.197637
  H      2.235392    0.997212    1.549573
  H     -0.381586   -0.274078    3.047799
  H     -0.981539   -1.683013    2.154023
  H      0.528996   -1.793576    3.069032

 Total Charge           Charge          ....    0
 Multiplicity           Mult            ....    1
 Number of Electrons    NEL             ....   68
 Basis Dimension        Dim             ....  357

ORBITAL ENERGIES
----------------

  NO   OCC          E(Eh)            E(eV)
   0   2.0000     -15.551716      -423.1837
   1   2.0000     -11.267290      -306.5985
   2   2.0000     -11.257325      -306.3274
   3   2.0000     -11.253345      -306.2191
   4   2.0000     -11.241538      -305.8978
   5   2.0000     -11.227131      -305.5058
   6   2.0000     -11.217004      -305.2302
   7   2.0000     -11.215448      -305.1878
   8   2.0000     -11.212644      -305.1116
   9   2.0000      -1.309937       -35.6452
  10   2.0000      -1.068336       -29.0709
  11   2.0000      -1.022596       -27.8263
  12   2.0000      -0.969719       -26.3874
  13   2.0000      -0.925224       -25.1766
  14   2.0000      -0.874425       -23.7943
  15   2.0000      -0.863057       -23.4850
  16   2.0000      -0.746715       -20.3191
  17   2.0000      -0.678166       -18.4538
  18   2.0000      -0.667460       -18.1625
  19   2.0000      -0.642434       -17.4815
  20   2.0000      -0.621157       -16.9026
  21   2.0000      -0.580966       -15.8089
  22   2.0000      -0.565511       -15.3883
  23   2.0000      -0.557472       -15.1696
  24   2.0000      -0.550885       -14.9903
  25   2.0000      -0.541143       -14.7252
  26   2.0000      -0.523416       -14.2429
  27   2.0000      -0.517850       -14.0914
  28   2.0000      -0.489631       -13.3235
  29   2.0000      -0.471056       -12.8181
  30   2.0000      -0.430364       -11.7108
  31   2.0000      -0.414914       -11.2904
  32   2.0000      -0.396715       -10.7952
  33   2.0000      -0.368932       -10.0392
  34   0.0000       0.131352         3.5743
  35   0.0000       0.163209         4.4411
  36   0.0000       0.165008         4.4901
  37   0.0000       0.173444         4.7197
  38   0.0000       0.190365         5.1801

MULLIKEN ATOMIC CHARGES
-----------------------
   0 C :   -0.423755
   1 C :    0.137312
   2 C :   -0.486443
   3 C :   -0.090699
   4 C :   -0.172021
   5 C :   -0.159231
   6 C :    0.094019
   7 C :   -0.400050
   8 N :   -0.230399
   9 H :    0.134692
  10 H :    0.133371
  11 H :    0.131402
  12 H :    0.134004
  13 H :    0.161329
  14 H :    0.137080
  15 H :    0.129601
  16 H :    0.127828
  17 H :    0.111920
  18 H :    0.112871
  19 H :    0.134337
  20 H :    0.144074
  21 H :    0.138758
Sum of atomic charges:   -0.0000000

LOEWDIN ATOMIC CHARGES
----------------------
   0 C :   -0.267426
   1 C :   -0.261656
   2 C :   -0.263817
   3 C :   -0.180047
   4 C :   -0.211396
   5 C :   -0.192408
   6 C :   -0.212038
   7 C :   -0.270615
   8 N :    0.154286
   9 H :    0.124785
  10 H :    0.128656
  11 H :    0.127398
  12 H :    0.126657
  13 H :    0.134437
  14 H :    0.125896
  15 H :    0.136858
  16 H :    0.133458
  17 H :    0.143951
  18 H :    0.125343
  19 H :    0.133312
  20 H :    0.131838
  21 H :    0.132526

  Mayer bond orders larger than 0.1
B(  0-C ,  1-C ) :   0.8871 B(  0-C ,  9-H ) :   0.9362 B(  0-C , 10-H ) :   0.9368
B(  0-C , 11-H ) :   0.9330 B(  1-C ,  2-C ) :   0.8749 B(  1-C ,  3-C ) :   0.9312
B(  1-C ,  6-C ) :   0.9333 B(  2-C , 12-H ) :   0.9351 B(  2-C , 13-H ) :   0.9359
B(  2-C , 14-H ) :   0.9408 B(  3-C ,  4-C ) :   0.9060 B(  3-C ,  8-N ) :   0.8650
B(  3-C , 15-H ) :   0.9063 B(  4-C ,  5-C ) :   0.9601 B(  4-C ,  8-N ) :   0.9297
B(  4-C , 16-H ) :   0.9180 B(  5-C ,  6-C ) :   0.9296 B(  5-C , 17-H ) :   0.9065
B(  5-C , 18-H ) :   0.9094 B(  6-C ,  7-C ) :   0.8637 B(  6-C ,  8-N ) :   0.9088
B(  7-C , 19-H ) :   0.9356 B(  7-C , 20-H ) :   0.9380 B(  7-C , 21-H ) :   0.9336

MP2 TOTAL ENERGY:     -366.514502126 Eh
FINAL SINGLE POINT ENERGY      -366.514502126076

DIPOLE MOMENT
-------------
                                X             Y             Z
Electronic contribution:      4.81746      -3.16482      -1.86865
Nuclear contribution   :     -4.89817       3.84283       1.98724
                        -----------------------------------------
Total Dipole Moment    :     -0.08071       0.67801       0.11860
                        -----------------------------------------
Magnitude (a.u.)       :      0.69302
Magnitude (Debye)      :      1.76151

                             ****ORCA TERMINATED NORMALLY****
TOTAL RUN TIME: 0 days 0 hours 23 minutes 29 seconds 493 msec
