                         Program Version 3.0.3 - RELEASE   -
|  1> ! RI-MP2 RIJK def2-TZVP def2-TZVP/C def2-TZVP/JK TIGHTSCF
|  2> % maxcore 2000
|  3> % mp2 density relaxed end
|  4> *xyz 0 1
|  5>  O        0.0053006287     1.3491342317    -0.0751908530
|  6>  C        0.0323896948    -0.0227765477    -0.0554656710
|  7>  C        1.1068813575    -0.8617664816    -0.7505529492
|  8>  C        0.8703740135    -2.2820999066    -0.1888595537
|  9>  C       -0.2651863647    -2.1801900772     0.7817560036
| 10>  N       -0.5256258053    -2.3170031961    -0.6931622064
| 11>  C       -0.3175414023    -0.8959589333    -1.2316810725
| 12>  C       -0.4053679308    -0.7481654577     1.1766529012
| 13>  O       -0.7733843103    -0.2253815293     2.1987916871
| 14>  H       -0.2845947169     1.6121853899     0.8118527884
| 15>  H        1.9940346869    -0.4421106663    -1.2009306295
| 16>  H        1.5329315495    -3.1380564959    -0.2560257448
| 17>  H       -0.5889340552    -2.9988736971     1.4091415392
| 18>  H       -0.7906635253    -0.5745938029    -2.1490634694
| 19> *
| 20>
| 21>                          ****END OF INPUT****

CARTESIAN COORDINATES (ANGSTROEM)
---------------------------------
  O      0.005301    1.349134   -0.075191
  C      0.032390   -0.022777   -0.055466
  C      1.106881   -0.861766   -0.750553
  C      0.870374   -2.282100   -0.188860
  C     -0.265186   -2.180190    0.781756
  N     -0.525626   -2.317003   -0.693162
  C     -0.317541   -0.895959   -1.231681
  C     -0.405368   -0.748165    1.176653
  O     -0.773384   -0.225382    2.198792
  H     -0.284595    1.612185    0.811853
  H      1.994035   -0.442111   -1.200931
  H      1.532932   -3.138056   -0.256026
  H     -0.588934   -2.998874    1.409142
  H     -0.790664   -0.574594   -2.149063

 Total Charge           Charge          ....    0
 Multiplicity           Mult            ....    1
 Number of Electrons    NEL             ....   64
 Basis Dimension        Dim             ....  309

ORBITAL ENERGIES
----------------

  NO   OCC          E(Eh)            E(eV)
   0   2.0000     -20.589587      -560.2711
   1   2.0000     -20.573367      -559.8298
   2   2.0000     -15.596856      -424.4120
   3   2.0000     -11.352796      -308.9253
   4   2.0000     -11.318466      -307.9911
   5   2.0000     -11.301595      -307.5320
   6   2.0000     -11.291507      -307.2575
   7   2.0000     -11.290181      -307.2214
   8   2.0000     -11.269290      -306.6530
   9   2.0000      -1.429054       -38.8865
  10   2.0000      -1.395281       -37.9675
  11   2.0000      -1.346949       -36.6523
  12   2.0000      -1.121569       -30.5194
  13   2.0000      -1.003852       -27.3162
  14   2.0000      -0.939368       -25.5615
  15   2.0000      -0.830402       -22.5964
  16   2.0000      -0.801217       -21.8022
  17   2.0000      -0.767038       -20.8722
  18   2.0000      -0.730867       -19.8879
  19   2.0000      -0.700443       -19.0600
  20   2.0000      -0.661265       -17.9939
  21   2.0000      -0.634922       -17.2771
  22   2.0000      -0.623338       -16.9619
  23   2.0000      -0.610770       -16.6199
  24   2.0000      -0.578666       -15.7463
  25   2.0000      -0.548630       -14.9290
  26   2.0000      -0.528935       -14.3931
  27   2.0000      -0.495767       -13.4905
  28   2.0000      -0.470407       -12.8004
  29   2.0000      -0.450475       -12.2580
  30   2.0000      -0.389793       -10.6068
  31   2.0000      -0.371796       -10.1171
  32   0.0000       0.114103         3.1049
  33   0.0000       0.152471         4.1489
  34   0.0000       0.154700         4.2096
  35   0.0000       0.166913         4.5419
  36   0.0000       0.172774         4.7014

MULLIKEN ATOMIC CHARGES
-----------------------
   0 O :   -0.443305
   1 C :    0.174777
   2 C :   -0.205726
   3 C :   -0.024299
   4 C :   -0.112991
   5 N :   -0.196149
   6 C :   -0.100251
   7 C :    0.208376
   8 O :   -0.286692
   9 H :    0.346604
  10 H :    0.167531
  11 H :    0.155019
  12 H :    0.156908
  13 H :    0.160198
Sum of atomic charges:    0.0000000

LOEWDIN ATOMIC CHARGES
----------------------
   0 O :    0.055159
   1 C :   -0.303964
   2 C :   -0.117348
   3 C :   -0.156587
   4 C :   -0.169064
   5 N :    0.159333
   6 C :   -0.132933
   7 C :   -0.278720
   8 O :    0.160141
   9 H :    0.201176
  10 H :    0.147744
  11 H :    0.138817
  12 H :    0.153090
  13 H :    0.143156

  Mayer bond orders larger than 0.1
B(  0-O ,  1-C ) :   1.1342 B(  0-O ,  9-H ) :   0.8050 B(  1-C ,  2-C ) :   0.8298
B(  1-C ,  6-C ) :   0.8687 B(  1-C ,  7-C ) :   0.9025 B(  2-C ,  3-C ) :   0.8757
B(  2-C ,  6-C ) :   0.8405 B(  2-C , 10-H ) :   0.9034 B(  3-C ,  4-C ) :   0.8920
B(  3-C ,  5-N ) :   0.8746 B(  3-C , 11-H ) :   0.8934 B(  4-C ,  5-N ) :   0.8882
B(  4-C ,  7-C ) :   0.9146 B(  4-C , 12-H ) :   0.9125 B(  5-N ,  6-C ) :   0.8845
B(  6-C , 13-H ) :   0.9067 B(  7-C ,  8-O ) :   1.9524

MP2 TOTAL ENERGY:     -435.900106605 Eh
FINAL SINGLE POINT ENERGY      -435.900106605009

DIPOLE MOMENT
-------------
                                X             Y             Z
Electronic contribution:     -1.29935       0.89982       1.75585
Nuclear contribution   :      1.94462      -1.20153      -2.02611
                        -----------------------------------------
Total Dipole Moment    :      0.64528      -0.30170      -0.27026
                        -----------------------------------------
Magnitude (a.u.)       :      0.76187
Magnitude (Debye)      :      1.93652

                             ****ORCA TERMINATED NORMALLY****
TOTAL RUN TIME: 0 days 0 hours 14 minutes 49 seconds 493 msec
