                         Program Version 3.0.3 - RELEASE   -
|  1> ! RI-MP2 RIJK def2-TZVP def2-TZVP/C def2-TZVP/JK TIGHTSCF
|  2> % maxcore 2000
|  3> % mp2 density relaxed end
|  4> *xyz 0 1
|  5>  C        0.0297974085     1.5612021131    -0.0643732644
|  6>  C        0.0186664579     0.0256745716    -0.0413276712
|  7>  C        0.5560806903    -0.5698428114    -1.3482107347
|  8>  C        0.7934344790    -0.4788164907     1.1824750824
|  9>  N        0.9273691137    -1.9484487821     1.3597026018
| 10>  C        0.0545980830    -2.5973522661     2.3147640188
| 11>  C        2.3676033810    -1.8672840113     1.6871823493
| 12>  C        2.3308823440    -0.4095666928     1.2087674300
| 13>  O        3.1495729699     0.4187117401     0.9400146682
| 14>  H        1.0548955178     1.9379513691    -0.1376315426
| 15>  H       -0.5347227119     1.9398066013    -0.9220230013
| 16>  H       -0.4177190252     1.9804121405     0.8435181623
| 17>  H       -1.0202874464    -0.3120432349     0.0858212898
| 18>  H        1.5714923711    -0.2126454357    -1.5532725539
| 19>  H        0.5822164455    -1.6610918703    -1.2935112457
| 20>  H       -0.0753478469    -0.2787444490    -2.1933593293
| 21>  H        0.4034375962     0.0157051882     2.0927475331
| 22>  H       -0.9865258543    -2.5027570392     1.9905074791
| 23>  H        0.2895190771    -3.6649881571     2.3707262165
| 24>  H        0.1366580271    -2.1742964203     3.3346704949
| 25>  H        2.5948175888    -1.9264248975     2.7653678862
| 26>  H        3.0172187837    -2.5653567755     1.1485568009
| 27> *
| 28>
| 29>                          ****END OF INPUT****

CARTESIAN COORDINATES (ANGSTROEM)
---------------------------------
  C      0.029797    1.561202   -0.064373
  C      0.018666    0.025675   -0.041328
  C      0.556081   -0.569843   -1.348211
  C      0.793434   -0.478816    1.182475
  N      0.927369   -1.948449    1.359703
  C      0.054598   -2.597352    2.314764
  C      2.367603   -1.867284    1.687182
  C      2.330882   -0.409567    1.208767
  O      3.149573    0.418712    0.940015
  H      1.054896    1.937951   -0.137632
  H     -0.534723    1.939807   -0.922023
  H     -0.417719    1.980412    0.843518
  H     -1.020287   -0.312043    0.085821
  H      1.571492   -0.212645   -1.553273
  H      0.582216   -1.661092   -1.293511
  H     -0.075348   -0.278744   -2.193359
  H      0.403438    0.015705    2.092748
  H     -0.986526   -2.502757    1.990507
  H      0.289519   -3.664988    2.370726
  H      0.136658   -2.174296    3.334670
  H      2.594818   -1.926425    2.765368
  H      3.017219   -2.565357    1.148557

 Total Charge           Charge          ....    0
 Multiplicity           Mult            ....    1
 Number of Electrons    NEL             ....   70
 Basis Dimension        Dim             ....  357

ORBITAL ENERGIES
----------------

  NO   OCC          E(Eh)            E(eV)
   0   2.0000     -20.558690      -559.4304
   1   2.0000     -15.561916      -423.4613
   2   2.0000     -11.336005      -308.4684
   3   2.0000     -11.269478      -306.6581
   4   2.0000     -11.268702      -306.6370
   5   2.0000     -11.256534      -306.3059
   6   2.0000     -11.236017      -305.7476
   7   2.0000     -11.213079      -305.1234
   8   2.0000     -11.208810      -305.0072
   9   2.0000      -1.402539       -38.1650
  10   2.0000      -1.264277       -34.4027
  11   2.0000      -1.080976       -29.4148
  12   2.0000      -1.015338       -27.6288
  13   2.0000      -0.937201       -25.5025
  14   2.0000      -0.929469       -25.2921
  15   2.0000      -0.847959       -23.0741
  16   2.0000      -0.803940       -21.8763
  17   2.0000      -0.715669       -19.4743
  18   2.0000      -0.674299       -18.3486
  19   2.0000      -0.669985       -18.2312
  20   2.0000      -0.654264       -17.8034
  21   2.0000      -0.609938       -16.5973
  22   2.0000      -0.593961       -16.1625
  23   2.0000      -0.589158       -16.0318
  24   2.0000      -0.584105       -15.8943
  25   2.0000      -0.553967       -15.0742
  26   2.0000      -0.536860       -14.6087
  27   2.0000      -0.531152       -14.4534
  28   2.0000      -0.522335       -14.2134
  29   2.0000      -0.504399       -13.7254
  30   2.0000      -0.485369       -13.2076
  31   2.0000      -0.475076       -12.9275
  32   2.0000      -0.464556       -12.6412
  33   2.0000      -0.395574       -10.7641
  34   2.0000      -0.375397       -10.2151
  35   0.0000       0.121929         3.3178
  36   0.0000       0.137341         3.7372
  37   0.0000       0.153712         4.1827
  38   0.0000       0.163068         4.4373
  39   0.0000       0.174942         4.7604

MULLIKEN ATOMIC CHARGES
-----------------------
   0 C :   -0.420843
   1 C :    0.000694
   2 C :   -0.439278
   3 C :   -0.008225
   4 N :   -0.163766
   5 C :   -0.328598
   6 C :   -0.152765
   7 C :    0.118954
   8 O :   -0.251534
   9 H :    0.152875
  10 H :    0.132669
  11 H :    0.125062
  12 H :    0.083148
  13 H :    0.135514
  14 H :    0.143412
  15 H :    0.131051
  16 H :    0.101960
  17 H :    0.138489
  18 H :    0.143133
  19 H :    0.106831
  20 H :    0.117107
  21 H :    0.134110
Sum of atomic charges:   -0.0000000

LOEWDIN ATOMIC CHARGES
----------------------
   0 C :   -0.288630
   1 C :   -0.287021
   2 C :   -0.292733
   3 C :   -0.210468
   4 N :    0.093029
   5 C :   -0.338182
   6 C :   -0.224592
   7 C :   -0.288899
   8 O :    0.169319
   9 H :    0.130637
  10 H :    0.124165
  11 H :    0.122103
  12 H :    0.152569
  13 H :    0.126996
  14 H :    0.126013
  15 H :    0.122998
  16 H :    0.153203
  17 H :    0.119663
  18 H :    0.120071
  19 H :    0.102810
  20 H :    0.134561
  21 H :    0.132388

  Mayer bond orders larger than 0.1
B(  0-C ,  1-C ) :   0.9116 B(  0-C ,  9-H ) :   0.9289 B(  0-C , 10-H ) :   0.9370
B(  0-C , 11-H ) :   0.9357 B(  1-C ,  2-C ) :   0.9189 B(  1-C ,  3-C ) :   0.8939
B(  1-C , 12-H ) :   0.9201 B(  2-C , 13-H ) :   0.9317 B(  2-C , 14-H ) :   0.9323
B(  2-C , 15-H ) :   0.9364 B(  3-C ,  4-N ) :   0.9157 B(  3-C ,  7-C ) :   0.8324
B(  3-C , 16-H ) :   0.8924 B(  4-N ,  5-C ) :   0.9032 B(  4-N ,  6-C ) :   0.9287
B(  5-C , 17-H ) :   0.9366 B(  5-C , 18-H ) :   0.9385 B(  5-C , 19-H ) :   0.9226
B(  6-C ,  7-C ) :   0.9346 B(  6-C , 20-H ) :   0.8955 B(  6-C , 21-H ) :   0.9047
B(  7-C ,  8-O ) :   2.0366

MP2 TOTAL ENERGY:     -403.650112742 Eh
FINAL SINGLE POINT ENERGY      -403.650112742170

DIPOLE MOMENT
-------------
                                X             Y             Z
Electronic contribution:      6.83589       0.40925       2.23773
Nuclear contribution   :     -7.56633      -0.95352      -1.77233
                        -----------------------------------------
Total Dipole Moment    :     -0.73044      -0.54427       0.46540
                        -----------------------------------------
Magnitude (a.u.)       :      1.02292
Magnitude (Debye)      :      2.60007

                             ****ORCA TERMINATED NORMALLY****
TOTAL RUN TIME: 0 days 0 hours 22 minutes 3 seconds 647 msec
