                         Program Version 3.0.3 - RELEASE   -
|  1> ! RI-MP2 RIJK def2-TZVP def2-TZVP/C def2-TZVP/JK TIGHTSCF
|  2> % maxcore 2000
|  3> % mp2 density relaxed end
|  4> *xyz 0 1
|  5>  C        0.0916109510     1.4351726473     0.1193267453
|  6>  N       -0.0263764551    -0.0019337032     0.3014643092
|  7>  C       -1.0653399955    -0.6218960285    -0.0276162189
|  8>  C       -1.2524731205    -2.0986941234     0.1412013940
|  9>  C       -1.9997485785    -2.6217435288    -1.0735633385
| 10>  O       -3.2491883335    -1.9250646273    -1.2134590620
| 11>  C       -3.3011852591    -0.5953076897    -1.0377469757
| 12>  O       -4.2822862661     0.0386035029    -1.2651834445
| 13>  O       -2.1635510840     0.0300056566    -0.5940068451
| 14>  H        0.9473027388     1.6333511074    -0.5351676565
| 15>  H       -0.7972561971     1.9171279103    -0.2977714908
| 16>  H        0.3246851034     1.8884643411     1.0885911988
| 17>  H       -0.2766260928    -2.5705382217     0.2596167875
| 18>  H       -1.8451561183    -2.2998559538     1.0421777213
| 19>  H       -1.4132523929    -2.4917978422    -1.9908603016
| 20>  H       -2.2677360398    -3.6744980870    -0.9760140725
| 21> *
| 22>
| 23>                          ****END OF INPUT****

CARTESIAN COORDINATES (ANGSTROEM)
---------------------------------
  C      0.091611    1.435173    0.119327
  N     -0.026376   -0.001934    0.301464
  C     -1.065340   -0.621896   -0.027616
  C     -1.252473   -2.098694    0.141201
  C     -1.999749   -2.621744   -1.073563
  O     -3.249188   -1.925065   -1.213459
  C     -3.301185   -0.595308   -1.037747
  O     -4.282286    0.038604   -1.265183
  O     -2.163551    0.030006   -0.594007
  H      0.947303    1.633351   -0.535168
  H     -0.797256    1.917128   -0.297771
  H      0.324685    1.888464    1.088591
  H     -0.276626   -2.570538    0.259617
  H     -1.845156   -2.299856    1.042178
  H     -1.413252   -2.491798   -1.990860
  H     -2.267736   -3.674498   -0.976014

 Total Charge           Charge          ....    0
 Multiplicity           Mult            ....    1
 Number of Electrons    NEL             ....   68
 Basis Dimension        Dim             ....  321

ORBITAL ENERGIES
----------------

  NO   OCC          E(Eh)            E(eV)
   0   2.0000     -20.638654      -561.6063
   1   2.0000     -20.630271      -561.3782
   2   2.0000     -20.550313      -559.2024
   3   2.0000     -15.568740      -423.6470
   4   2.0000     -11.449695      -311.5620
   5   2.0000     -11.363888      -309.2271
   6   2.0000     -11.328745      -308.2708
   7   2.0000     -11.272303      -306.7350
   8   2.0000     -11.254106      -306.2398
   9   2.0000      -1.525231       -41.5037
  10   2.0000      -1.427795       -38.8523
  11   2.0000      -1.389273       -37.8041
  12   2.0000      -1.244268       -33.8583
  13   2.0000      -1.094887       -29.7934
  14   2.0000      -0.979315       -26.6485
  15   2.0000      -0.931689       -25.3525
  16   2.0000      -0.883880       -24.0516
  17   2.0000      -0.778378       -21.1807
  18   2.0000      -0.748011       -20.3544
  19   2.0000      -0.722767       -19.6675
  20   2.0000      -0.694493       -18.8981
  21   2.0000      -0.657962       -17.9041
  22   2.0000      -0.652081       -17.7440
  23   2.0000      -0.635296       -17.2873
  24   2.0000      -0.628373       -17.0989
  25   2.0000      -0.585726       -15.9384
  26   2.0000      -0.573850       -15.6153
  27   2.0000      -0.563646       -15.3376
  28   2.0000      -0.535683       -14.5767
  29   2.0000      -0.523369       -14.2416
  30   2.0000      -0.491376       -13.3710
  31   2.0000      -0.479062       -13.0360
  32   2.0000      -0.431283       -11.7358
  33   2.0000      -0.411449       -11.1961
  34   0.0000       0.117833         3.2064
  35   0.0000       0.143593         3.9074
  36   0.0000       0.156290         4.2529
  37   0.0000       0.158715         4.3188
  38   0.0000       0.182058         4.9541

MULLIKEN ATOMIC CHARGES
-----------------------
   0 C :   -0.278858
   1 N :   -0.223466
   2 C :    0.147888
   3 C :   -0.217035
   4 C :   -0.067326
   5 O :   -0.225219
   6 C :    0.347800
   7 O :   -0.272674
   8 O :   -0.229349
   9 H :    0.140967
  10 H :    0.146019
  11 H :    0.142938
  12 H :    0.154403
  13 H :    0.150154
  14 H :    0.134536
  15 H :    0.149221
Sum of atomic charges:    0.0000000

LOEWDIN ATOMIC CHARGES
----------------------
   0 C :   -0.322925
   1 N :    0.099936
   2 C :   -0.350719
   3 C :   -0.227636
   4 C :   -0.263351
   5 O :    0.263892
   6 C :   -0.602563
   7 O :    0.146467
   8 O :    0.301330
   9 H :    0.122662
  10 H :    0.114068
  11 H :    0.123150
  12 H :    0.162710
  13 H :    0.159619
  14 H :    0.135181
  15 H :    0.138178

  Mayer bond orders larger than 0.1
B(  0-C ,  1-N ) :   0.8525 B(  0-C ,  9-H ) :   0.9313 B(  0-C , 10-H ) :   0.9289
B(  0-C , 11-H ) :   0.9324 B(  1-N ,  2-C ) :   2.0074 B(  2-C ,  3-C ) :   0.9283
B(  2-C ,  8-O ) :   0.9404 B(  3-C ,  4-C ) :   0.9274 B(  3-C , 12-H ) :   0.9124
B(  3-C , 13-H ) :   0.9146 B(  4-C ,  5-O ) :   0.8381 B(  4-C , 14-H ) :   0.9273
B(  4-C , 15-H ) :   0.9303 B(  5-O ,  6-C ) :   1.1299 B(  6-C ,  7-O ) :   2.0671
B(  6-C ,  8-O ) :   1.0360

MP2 TOTAL ENERGY:     -474.315000209 Eh
FINAL SINGLE POINT ENERGY      -474.315000209185

DIPOLE MOMENT
-------------
                                X             Y             Z
Electronic contribution:     -6.61476      -0.26507      -1.96714
Nuclear contribution   :      7.73480      -0.69484       2.16600
                        -----------------------------------------
Total Dipole Moment    :      1.12004      -0.95991       0.19886
                        -----------------------------------------
Magnitude (a.u.)       :      1.48845
Magnitude (Debye)      :      3.78333

                             ****ORCA TERMINATED NORMALLY****
TOTAL RUN TIME: 0 days 0 hours 13 minutes 38 seconds 563 msec
