                         Program Version 3.0.3 - RELEASE   -
|  1> ! RI-MP2 RIJK def2-TZVP def2-TZVP/C def2-TZVP/JK TIGHTSCF
|  2> % maxcore 2000
|  3> % mp2 density relaxed end
|  4> *xyz 0 1
|  5>  C       -0.0426400990     1.5280733246     0.0236320828
|  6>  N        0.0947917333     0.0791293458    -0.0163435063
|  7>  C        0.7865482655    -0.5429644848    -1.1385329704
|  8>  C        2.3121287473    -0.5948615499    -0.8400690340
|  9>  C        2.4926209249     0.0193372627     0.5456059014
| 10>  C        1.0918795223    -0.5928597866     0.8668622403
| 11>  C        1.3481872889    -1.6336207507    -0.2919353259
| 12>  H        0.8807942626     2.0891967619    -0.1889132813
| 13>  H       -0.7944149213     1.8305887022    -0.7134517743
| 14>  H       -0.4080264307     1.8259736274     1.0123994409
| 15>  H        0.3823175854    -0.5763309876    -2.1432253667
| 16>  H        3.0468728841    -0.7202292506    -1.6254474312
| 17>  H        3.2697807419    -0.5063308862     1.1067084045
| 18>  H        2.6318815087     1.1000624861     0.6552624668
| 19>  H        0.7801624250    -0.7932278934     1.8912087809
| 20>  H        1.2967435612    -2.7101910211    -0.3538644375
| 21> *
| 22>
| 23>                          ****END OF INPUT****

CARTESIAN COORDINATES (ANGSTROEM)
---------------------------------
  C     -0.042640    1.528073    0.023632
  N      0.094792    0.079129   -0.016344
  C      0.786548   -0.542964   -1.138533
  C      2.312129   -0.594862   -0.840069
  C      2.492621    0.019337    0.545606
  C      1.091880   -0.592860    0.866862
  C      1.348187   -1.633621   -0.291935
  H      0.880794    2.089197   -0.188913
  H     -0.794415    1.830589   -0.713452
  H     -0.408026    1.825974    1.012399
  H      0.382318   -0.576331   -2.143225
  H      3.046873   -0.720229   -1.625447
  H      3.269781   -0.506331    1.106708
  H      2.631882    1.100062    0.655262
  H      0.780162   -0.793228    1.891209
  H      1.296744   -2.710191   -0.353864

 Total Charge           Charge          ....    0
 Multiplicity           Mult            ....    1
 Number of Electrons    NEL             ....   52
 Basis Dimension        Dim             ....  271

ORBITAL ENERGIES
----------------

  NO   OCC          E(Eh)            E(eV)
   0   2.0000     -15.545893      -423.0253
   1   2.0000     -11.264162      -306.5134
   2   2.0000     -11.257118      -306.3217
   3   2.0000     -11.235092      -305.7224
   4   2.0000     -11.232782      -305.6595
   5   2.0000     -11.230249      -305.5906
   6   2.0000     -11.224199      -305.4260
   7   2.0000      -1.289099       -35.0782
   8   2.0000      -1.104464       -30.0540
   9   2.0000      -0.972342       -26.4588
  10   2.0000      -0.927598       -25.2412
  11   2.0000      -0.847244       -23.0547
  12   2.0000      -0.753282       -20.4979
  13   2.0000      -0.720453       -19.6045
  14   2.0000      -0.706910       -19.2360
  15   2.0000      -0.630766       -17.1640
  16   2.0000      -0.610083       -16.6012
  17   2.0000      -0.597688       -16.2639
  18   2.0000      -0.557120       -15.1600
  19   2.0000      -0.542172       -14.7532
  20   2.0000      -0.483747       -13.1634
  21   2.0000      -0.475492       -12.9388
  22   2.0000      -0.453822       -12.3491
  23   2.0000      -0.423850       -11.5336
  24   2.0000      -0.383093       -10.4245
  25   2.0000      -0.339218        -9.2306
  26   0.0000       0.148311         4.0357
  27   0.0000       0.169505         4.6125
  28   0.0000       0.175589         4.7780
  29   0.0000       0.177561         4.8317
  30   0.0000       0.197570         5.3762

MULLIKEN ATOMIC CHARGES
-----------------------
   0 C :   -0.325969
   1 N :   -0.132279
   2 C :   -0.102717
   3 C :   -0.165321
   4 C :   -0.198918
   5 C :   -0.053761
   6 C :   -0.172799
   7 H :    0.107329
   8 H :    0.136913
   9 H :    0.134963
  10 H :    0.131720
  11 H :    0.128713
  12 H :    0.114662
  13 H :    0.110795
  14 H :    0.131481
  15 H :    0.155189
Sum of atomic charges:   -0.0000000

LOEWDIN ATOMIC CHARGES
----------------------
   0 C :   -0.331439
   1 N :    0.110649
   2 C :   -0.207183
   3 C :   -0.177437
   4 C :   -0.216760
   5 C :   -0.177959
   6 C :   -0.129562
   7 H :    0.102949
   8 H :    0.118589
   9 H :    0.118900
  10 H :    0.134940
  11 H :    0.133867
  12 H :    0.140975
  13 H :    0.119215
  14 H :    0.127935
  15 H :    0.132319

  Mayer bond orders larger than 0.1
B(  0-C ,  1-N ) :   0.8949 B(  0-C ,  7-H ) :   0.9217 B(  0-C ,  8-H ) :   0.9387
B(  0-C ,  9-H ) :   0.9386 B(  1-N ,  2-C ) :   0.9924 B(  1-N ,  5-C ) :   0.9713
B(  2-C ,  3-C ) :   0.8486 B(  2-C ,  6-C ) :   0.8849 B(  2-C , 10-H ) :   0.9209
B(  3-C ,  4-C ) :   0.9426 B(  3-C ,  6-C ) :   0.8307 B(  3-C , 11-H ) :   0.9284
B(  4-C ,  5-C ) :   0.9333 B(  4-C , 12-H ) :   0.9267 B(  4-C , 13-H ) :   0.9265
B(  5-C ,  6-C ) :   0.9198 B(  5-C , 14-H ) :   0.9179 B(  6-C , 15-H ) :   0.8959

MP2 TOTAL ENERGY:     -288.041721903 Eh
FINAL SINGLE POINT ENERGY      -288.041721902502

DIPOLE MOMENT
-------------
                                X             Y             Z
Electronic contribution:     -0.43546      -3.08783      -0.63870
Nuclear contribution   :      0.77019       3.14645       0.60531
                        -----------------------------------------
Total Dipole Moment    :      0.33473       0.05861      -0.03339
                        -----------------------------------------
Magnitude (a.u.)       :      0.34146
Magnitude (Debye)      :      0.86792

                             ****ORCA TERMINATED NORMALLY****
TOTAL RUN TIME: 0 days 0 hours 9 minutes 21 seconds 275 msec
