                         Program Version 3.0.3 - RELEASE   -
|  1> ! RI-MP2 RIJK def2-TZVP def2-TZVP/C def2-TZVP/JK TIGHTSCF
|  2> % maxcore 2000
|  3> % mp2 density relaxed end
|  4> *xyz 0 1
|  5>  C        0.0599309643     1.5147834845     0.0124217176
|  6>  C       -0.0404348235     0.0337041772    -0.0427604293
|  7>  C       -1.0876835643    -0.8349679929     0.0527012202
|  8>  N       -2.4406501591    -0.5767409909     0.2929756817
|  9>  C       -0.4694547337    -2.1207919866    -0.0747450261
| 10>  N        0.8405515685    -2.0197904599    -0.2338578354
| 11>  O        1.1044819751    -0.6710152419    -0.2252969501
| 12>  C       -1.1391163945    -3.3677745009    -0.0393606260
| 13>  C       -1.7801558578    -4.3860850114    -0.0060278113
| 14>  H        0.9310098591     1.8198603135     0.5997109976
| 15>  H        0.1596821045     1.9608155409    -0.9844297921
| 16>  H       -0.8353455014     1.9288328571     0.4841499696
| 17>  H       -2.8234550947     0.1554808658    -0.2907966259
| 18>  H       -3.0025668591    -1.4135900440     0.1963419102
| 19>  H       -2.3185163036    -5.3012088106     0.0247849792
| 20> *
| 21>
| 22>                          ****END OF INPUT****

CARTESIAN COORDINATES (ANGSTROEM)
---------------------------------
  C      0.059931    1.514783    0.012422
  C     -0.040435    0.033704   -0.042760
  C     -1.087684   -0.834968    0.052701
  N     -2.440650   -0.576741    0.292976
  C     -0.469455   -2.120792   -0.074745
  N      0.840552   -2.019790   -0.233858
  O      1.104482   -0.671015   -0.225297
  C     -1.139116   -3.367775   -0.039361
  C     -1.780156   -4.386085   -0.006028
  H      0.931010    1.819860    0.599711
  H      0.159682    1.960816   -0.984430
  H     -0.835346    1.928833    0.484150
  H     -2.823455    0.155481   -0.290797
  H     -3.002567   -1.413590    0.196342
  H     -2.318516   -5.301209    0.024785

 Total Charge           Charge          ....    0
 Multiplicity           Mult            ....    1
 Number of Electrons    NEL             ....   64
 Basis Dimension        Dim             ....  315

ORBITAL ENERGIES
----------------

  NO   OCC          E(Eh)            E(eV)
   0   2.0000     -20.643178      -561.7294
   1   2.0000     -15.629629      -425.3038
   2   2.0000     -15.575445      -423.8294
   3   2.0000     -11.305766      -307.6455
   4   2.0000     -11.301969      -307.5422
   5   2.0000     -11.277137      -306.8665
   6   2.0000     -11.258356      -306.3555
   7   2.0000     -11.253410      -306.2209
   8   2.0000     -11.248038      -306.0747
   9   2.0000      -1.495948       -40.7068
  10   2.0000      -1.230321       -33.4787
  11   2.0000      -1.172537       -31.9064
  12   2.0000      -1.074271       -29.2324
  13   2.0000      -1.042824       -28.3767
  14   2.0000      -0.973539       -26.4914
  15   2.0000      -0.875951       -23.8358
  16   2.0000      -0.801096       -21.7989
  17   2.0000      -0.747357       -20.3366
  18   2.0000      -0.714791       -19.4505
  19   2.0000      -0.683468       -18.5981
  20   2.0000      -0.666883       -18.1468
  21   2.0000      -0.652712       -17.7612
  22   2.0000      -0.597142       -16.2491
  23   2.0000      -0.580722       -15.8022
  24   2.0000      -0.576078       -15.6759
  25   2.0000      -0.555133       -15.1059
  26   2.0000      -0.515277       -14.0214
  27   2.0000      -0.482704       -13.1350
  28   2.0000      -0.467561       -12.7230
  29   2.0000      -0.418846       -11.3974
  30   2.0000      -0.369619       -10.0578
  31   2.0000      -0.323409        -8.8004
  32   0.0000       0.092219         2.5094
  33   0.0000       0.121510         3.3065
  34   0.0000       0.148045         4.0285
  35   0.0000       0.154930         4.2159
  36   0.0000       0.162085         4.4106

MULLIKEN ATOMIC CHARGES
-----------------------
   0 C :   -0.465603
   1 C :    0.104574
   2 C :    0.043892
   3 N :   -0.539531
   4 C :   -0.020841
   5 N :   -0.125136
   6 O :   -0.101565
   7 C :    0.031797
   8 C :   -0.117620
   9 H :    0.162813
  10 H :    0.156454
  11 H :    0.154852
  12 H :    0.257460
  13 H :    0.258094
  14 H :    0.200357
Sum of atomic charges:    0.0000000

LOEWDIN ATOMIC CHARGES
----------------------
   0 C :   -0.271906
   1 C :   -0.278966
   2 C :   -0.231238
   3 N :   -0.078779
   4 C :   -0.264968
   5 N :    0.066160
   6 O :    0.295908
   7 C :   -0.068531
   8 C :   -0.062721
   9 H :    0.141708
  10 H :    0.136357
  11 H :    0.140031
  12 H :    0.170538
  13 H :    0.175777
  14 H :    0.130631

  Mayer bond orders larger than 0.1
B(  0-C ,  1-C ) :   0.8583 B(  0-C ,  9-H ) :   0.9381 B(  0-C , 10-H ) :   0.9263
B(  0-C , 11-H ) :   0.9464 B(  1-C ,  2-C ) :   1.4929 B(  1-C ,  5-N ) :   0.1208
B(  1-C ,  6-O ) :   1.1095 B(  2-C ,  3-N ) :   1.0232 B(  2-C ,  4-C ) :   1.1625
B(  3-N , 12-H ) :   0.8714 B(  3-N , 13-H ) :   0.8753 B(  4-C ,  5-N ) :   1.5281
B(  4-C ,  7-C ) :   1.1690 B(  4-C ,  8-C ) :  -0.1550 B(  5-N ,  6-O ) :   0.9194
B(  7-C ,  8-C ) :   2.6091 B(  8-C , 14-H ) :   0.8697

MP2 TOTAL ENERGY:     -416.050792372 Eh
FINAL SINGLE POINT ENERGY      -416.050792372292

DIPOLE MOMENT
-------------
                                X             Y             Z
Electronic contribution:      3.00075      -5.77931      -0.44981
Nuclear contribution   :     -4.32745       6.49422       0.20646
                        -----------------------------------------
Total Dipole Moment    :     -1.32670       0.71491      -0.24335
                        -----------------------------------------
Magnitude (a.u.)       :      1.52658
Magnitude (Debye)      :      3.88026

                             ****ORCA TERMINATED NORMALLY****
TOTAL RUN TIME: 0 days 0 hours 14 minutes 41 seconds 400 msec
