                         Program Version 3.0.3 - RELEASE   -
|  1> ! RI-MP2 RIJK def2-TZVP def2-TZVP/C def2-TZVP/JK TIGHTSCF
|  2> % maxcore 2000
|  3> % mp2 density relaxed end
|  4> *xyz 0 1
|  5>  C       -0.1007045240     1.5071809056    -0.0225061143
|  6>  C       -0.0187276303    -0.0223826351    -0.0130279578
|  7>  C       -1.3832754679    -0.6631358372    -0.2407537045
|  8>  C        1.1492791786    -0.5647250510    -0.9053658557
|  9>  O        1.5683677284     0.3303287371    -1.9083785485
| 10>  C        2.0435739847    -0.7376925666     0.3600361100
| 11>  C        0.7793997125    -0.5521916001     1.2001330418
| 12>  C        0.5939558655    -0.3427944068     2.6341182707
| 13>  O        0.2796746233    -1.6023022680     2.0193242549
| 14>  H        0.8693839999     1.9711853535     0.1749538523
| 15>  H       -0.4432121423     1.8679127999    -0.9964326679
| 16>  H       -0.8061820888     1.8519746552     0.7409144815
| 17>  H       -1.7786303729    -0.3816969132    -1.2229516288
| 18>  H       -1.3249436709    -1.7536699213    -0.1886375695
| 19>  H       -2.1035531853    -0.3359673553     0.5169130055
| 20>  H        0.8811366822    -1.5408821798    -1.3330711138
| 21>  H        2.2871658945    -0.0794618791    -2.3994296554
| 22>  H        2.5666693768    -1.6881798359     0.4868191631
| 23>  H        2.7501561794     0.0907855020     0.4655366542
| 24>  H        1.4561431995    -0.3514307648     3.3005054168
| 25>  H       -0.2636648828     0.2230556409     2.9969890654
| 26> *
| 27>
| 28>                          ****END OF INPUT****

CARTESIAN COORDINATES (ANGSTROEM)
---------------------------------
  C     -0.100705    1.507181   -0.022506
  C     -0.018728   -0.022383   -0.013028
  C     -1.383275   -0.663136   -0.240754
  C      1.149279   -0.564725   -0.905366
  O      1.568368    0.330329   -1.908379
  C      2.043574   -0.737693    0.360036
  C      0.779400   -0.552192    1.200133
  C      0.593956   -0.342794    2.634118
  O      0.279675   -1.602302    2.019324
  H      0.869384    1.971185    0.174954
  H     -0.443212    1.867913   -0.996433
  H     -0.806182    1.851975    0.740914
  H     -1.778630   -0.381697   -1.222952
  H     -1.324944   -1.753670   -0.188638
  H     -2.103553   -0.335967    0.516913
  H      0.881137   -1.540882   -1.333071
  H      2.287166   -0.079462   -2.399430
  H      2.566669   -1.688180    0.486819
  H      2.750156    0.090786    0.465537
  H      1.456143   -0.351431    3.300505
  H     -0.263665    0.223056    2.996989

 Total Charge           Charge          ....    0
 Multiplicity           Mult            ....    1
 Number of Electrons    NEL             ....   70
 Basis Dimension        Dim             ....  351

ORBITAL ENERGIES
----------------

  NO   OCC          E(Eh)            E(eV)
   0   2.0000     -20.563213      -559.5535
   1   2.0000     -20.561240      -559.4998
   2   2.0000     -11.285922      -307.1056
   3   2.0000     -11.282842      -307.0218
   4   2.0000     -11.278569      -306.9055
   5   2.0000     -11.237087      -305.7767
   6   2.0000     -11.225959      -305.4739
   7   2.0000     -11.212220      -305.1000
   8   2.0000     -11.210328      -305.0485
   9   2.0000      -1.407850       -38.3096
  10   2.0000      -1.368962       -37.2514
  11   2.0000      -1.130819       -30.7712
  12   2.0000      -1.006778       -27.3958
  13   2.0000      -0.934872       -25.4392
  14   2.0000      -0.912105       -24.8196
  15   2.0000      -0.854771       -23.2595
  16   2.0000      -0.831742       -22.6328
  17   2.0000      -0.722802       -19.6684
  18   2.0000      -0.705406       -19.1951
  19   2.0000      -0.674358       -18.3502
  20   2.0000      -0.651141       -17.7185
  21   2.0000      -0.617783       -16.8107
  22   2.0000      -0.603533       -16.4230
  23   2.0000      -0.572736       -15.5849
  24   2.0000      -0.562753       -15.3133
  25   2.0000      -0.555664       -15.1204
  26   2.0000      -0.543342       -14.7851
  27   2.0000      -0.530385       -14.4325
  28   2.0000      -0.511161       -13.9094
  29   2.0000      -0.481991       -13.1156
  30   2.0000      -0.478843       -13.0300
  31   2.0000      -0.465523       -12.6675
  32   2.0000      -0.424316       -11.5462
  33   2.0000      -0.416150       -11.3240
  34   2.0000      -0.404820       -11.0157
  35   0.0000       0.130370         3.5475
  36   0.0000       0.151166         4.1134
  37   0.0000       0.161954         4.4070
  38   0.0000       0.175856         4.7853
  39   0.0000       0.177645         4.8340

MULLIKEN ATOMIC CHARGES
-----------------------
   0 C :   -0.418049
   1 C :    0.213409
   2 C :   -0.421012
   3 C :   -0.049993
   4 O :   -0.448341
   5 C :   -0.165104
   6 C :    0.008527
   7 C :   -0.065906
   8 O :   -0.335643
   9 H :    0.133539
  10 H :    0.142340
  11 H :    0.126113
  12 H :    0.139473
  13 H :    0.140557
  14 H :    0.126407
  15 H :    0.088538
  16 H :    0.317471
  17 H :    0.122413
  18 H :    0.118015
  19 H :    0.113361
  20 H :    0.113884
Sum of atomic charges:   -0.0000000

LOEWDIN ATOMIC CHARGES
----------------------
   0 C :   -0.259416
   1 C :   -0.251352
   2 C :   -0.267015
   3 C :   -0.280969
   4 O :   -0.010902
   5 C :   -0.186395
   6 C :   -0.275876
   7 C :   -0.240066
   8 O :    0.167058
   9 H :    0.129888
  10 H :    0.131033
  11 H :    0.125170
  12 H :    0.129555
  13 H :    0.129300
  14 H :    0.128251
  15 H :    0.134304
  16 H :    0.177000
  17 H :    0.133987
  18 H :    0.143080
  19 H :    0.121357
  20 H :    0.122007

  Mayer bond orders larger than 0.1
B(  0-C ,  1-C ) :   0.9188 B(  0-C ,  9-H ) :   0.9254 B(  0-C , 10-H ) :   0.9339
B(  0-C , 11-H ) :   0.9353 B(  1-C ,  2-C ) :   0.8990 B(  1-C ,  3-C ) :   0.8858
B(  1-C ,  6-C ) :   0.8605 B(  2-C , 12-H ) :   0.9393 B(  2-C , 13-H ) :   0.9267
B(  2-C , 14-H ) :   0.9340 B(  3-C ,  4-O ) :   1.1210 B(  3-C ,  5-C ) :   0.9378
B(  3-C , 15-H ) :   0.9555 B(  4-O , 16-H ) :   0.8428 B(  5-C ,  6-C ) :   0.9168
B(  5-C , 17-H ) :   0.9052 B(  5-C , 18-H ) :   0.8932 B(  6-C ,  7-C ) :   0.9480
B(  6-C ,  8-O ) :   0.8802 B(  7-C ,  8-O ) :   0.9100 B(  7-C , 19-H ) :   0.9207
B(  7-C , 20-H ) :   0.9020

MP2 TOTAL ENERGY:     -423.493860535 Eh
FINAL SINGLE POINT ENERGY      -423.493860534590

DIPOLE MOMENT
-------------
                                X             Y             Z
Electronic contribution:      2.83947      -2.95415       1.03581
Nuclear contribution   :     -2.34259       3.12127      -1.18210
                        -----------------------------------------
Total Dipole Moment    :      0.49689       0.16713      -0.14629
                        -----------------------------------------
Magnitude (a.u.)       :      0.54427
Magnitude (Debye)      :      1.38342

                             ****ORCA TERMINATED NORMALLY****
TOTAL RUN TIME: 0 days 0 hours 21 minutes 28 seconds 828 msec
