                         Program Version 3.0.3 - RELEASE   -
|  1> ! RI-MP2 RIJK def2-TZVP def2-TZVP/C def2-TZVP/JK TIGHTSCF
|  2> % maxcore 2000
|  3> % mp2 density relaxed end
|  4> *xyz 0 1
|  5>  C       -0.0201570277     1.5297235911    -0.0702995351
|  6>  O        1.3407559144     1.9818176105     0.0015111766
|  7>  C        2.1680326154     0.8344929827     0.2276940793
|  8>  C        1.4370655259    -0.2964403703    -0.4996445415
|  9>  C        0.0115619073    -0.0142011180     0.0145160238
| 10>  C       -0.1307368546    -0.5198551154     1.4646919442
| 11>  C        1.0459752868    -0.0982538865     2.3423677655
| 12>  N        2.3180294710    -0.8304509563     2.1563472158
| 13>  C        2.2226590020     0.5740051928     1.7267744975
| 14>  H       -0.6045259099     1.9778159793     0.7438730114
| 15>  H       -0.4465494547     1.8730464261    -1.0214546755
| 16>  H        3.1584256207     1.0620569223    -0.1765445642
| 17>  H        1.5118554626    -0.1517077991    -1.5811445360
| 18>  H        1.8062133548    -1.2871436789    -0.2344017583
| 19>  H       -0.7667392139    -0.4576968115    -0.6117525293
| 20>  H       -1.0568940295    -0.1242615709     1.8980307508
| 21>  H       -0.2165063376    -1.6127380163     1.4738869960
| 22>  H        0.7951549714     0.1804833614     3.3629865541
| 23>  H        2.8162109340    -0.8925832325     3.0403273520
| 24>  H        2.7427752716     1.3322692795     2.3073538629
| 25> *
| 26>
| 27>                          ****END OF INPUT****

CARTESIAN COORDINATES (ANGSTROEM)
---------------------------------
  C     -0.020157    1.529724   -0.070300
  O      1.340756    1.981818    0.001511
  C      2.168033    0.834493    0.227694
  C      1.437066   -0.296440   -0.499645
  C      0.011562   -0.014201    0.014516
  C     -0.130737   -0.519855    1.464692
  C      1.045975   -0.098254    2.342368
  N      2.318029   -0.830451    2.156347
  C      2.222659    0.574005    1.726774
  H     -0.604526    1.977816    0.743873
  H     -0.446549    1.873046   -1.021455
  H      3.158426    1.062057   -0.176545
  H      1.511855   -0.151708   -1.581145
  H      1.806213   -1.287144   -0.234402
  H     -0.766739   -0.457697   -0.611753
  H     -1.056894   -0.124262    1.898031
  H     -0.216506   -1.612738    1.473887
  H      0.795155    0.180483    3.362987
  H      2.816211   -0.892583    3.040327
  H      2.742775    1.332269    2.307354

 Total Charge           Charge          ....    0
 Multiplicity           Mult            ....    1
 Number of Electrons    NEL             ....   68
 Basis Dimension        Dim             ....  345

ORBITAL ENERGIES
----------------

  NO   OCC          E(Eh)            E(eV)
   0   2.0000     -20.542512      -558.9902
   1   2.0000     -15.557161      -423.3319
   2   2.0000     -11.273861      -306.7774
   3   2.0000     -11.266496      -306.5769
   4   2.0000     -11.259079      -306.3751
   5   2.0000     -11.254705      -306.2561
   6   2.0000     -11.229918      -305.5816
   7   2.0000     -11.225261      -305.4549
   8   2.0000     -11.214165      -305.1529
   9   2.0000      -1.367979       -37.2246
  10   2.0000      -1.262520       -34.3549
  11   2.0000      -1.082564       -29.4581
  12   2.0000      -1.010096       -27.4861
  13   2.0000      -0.958035       -26.0695
  14   2.0000      -0.885066       -24.0839
  15   2.0000      -0.829538       -22.5729
  16   2.0000      -0.777135       -21.1469
  17   2.0000      -0.741241       -20.1702
  18   2.0000      -0.717484       -19.5237
  19   2.0000      -0.676552       -18.4099
  20   2.0000      -0.640786       -17.4367
  21   2.0000      -0.609612       -16.5884
  22   2.0000      -0.580873       -15.8064
  23   2.0000      -0.565556       -15.3896
  24   2.0000      -0.562945       -15.3185
  25   2.0000      -0.546314       -14.8660
  26   2.0000      -0.507723       -13.8158
  27   2.0000      -0.492145       -13.3919
  28   2.0000      -0.468598       -12.7512
  29   2.0000      -0.459236       -12.4964
  30   2.0000      -0.446287       -12.1441
  31   2.0000      -0.438655       -11.9364
  32   2.0000      -0.407007       -11.0752
  33   2.0000      -0.382629       -10.4119
  34   0.0000       0.130046         3.5387
  35   0.0000       0.149504         4.0682
  36   0.0000       0.170338         4.6351
  37   0.0000       0.177614         4.8331
  38   0.0000       0.192165         5.2291

MULLIKEN ATOMIC CHARGES
-----------------------
   0 C :   -0.082429
   1 O :   -0.342763
   2 C :    0.224005
   3 C :   -0.308801
   4 C :   -0.025845
   5 C :   -0.241791
   6 C :   -0.055186
   7 N :   -0.385531
   8 C :   -0.166759
   9 H :    0.094442
  10 H :    0.101635
  11 H :    0.111819
  12 H :    0.122984
  13 H :    0.144283
  14 H :    0.115247
  15 H :    0.119754
  16 H :    0.116661
  17 H :    0.120563
  18 H :    0.217242
  19 H :    0.120469
Sum of atomic charges:    0.0000000

LOEWDIN ATOMIC CHARGES
----------------------
   0 C :   -0.267491
   1 O :    0.158857
   2 C :   -0.289132
   3 C :   -0.209980
   4 C :   -0.243598
   5 C :   -0.224887
   6 C :   -0.242516
   7 N :    0.003016
   8 C :   -0.236237
   9 H :    0.122743
  10 H :    0.122186
  11 H :    0.143230
  12 H :    0.140875
  13 H :    0.147568
  14 H :    0.148951
  15 H :    0.141757
  16 H :    0.144394
  17 H :    0.135895
  18 H :    0.166011
  19 H :    0.138358

  Mayer bond orders larger than 0.1
B(  0-C ,  1-O ) :   0.9492 B(  0-C ,  4-C ) :   0.9280 B(  0-C ,  9-H ) :   0.9240
B(  0-C , 10-H ) :   0.9202 B(  1-O ,  2-C ) :   0.9103 B(  2-C ,  3-C ) :   0.9422
B(  2-C ,  8-C ) :   0.8520 B(  2-C , 11-H ) :   0.9264 B(  3-C ,  4-C ) :   0.9176
B(  3-C , 12-H ) :   0.9231 B(  3-C , 13-H ) :   0.9117 B(  4-C ,  5-C ) :   0.9437
B(  4-C , 14-H ) :   0.9246 B(  5-C ,  6-C ) :   0.9342 B(  5-C , 15-H ) :   0.9294
B(  5-C , 16-H ) :   0.9138 B(  6-C ,  7-N ) :   0.9155 B(  6-C ,  8-C ) :   0.9386
B(  6-C , 17-H ) :   0.9202 B(  7-N ,  8-C ) :   0.9909 B(  7-N , 18-H ) :   0.8708
B(  8-C , 19-H ) :   0.9308

MP2 TOTAL ENERGY:     -402.459771757 Eh
FINAL SINGLE POINT ENERGY      -402.459771756640

DIPOLE MOMENT
-------------
                                X             Y             Z
Electronic contribution:      2.50795       1.77742       0.24056
Nuclear contribution   :     -2.77731      -2.00353       0.21535
                        -----------------------------------------
Total Dipole Moment    :     -0.26935      -0.22611       0.45590
                        -----------------------------------------
Magnitude (a.u.)       :      0.57578
Magnitude (Debye)      :      1.46352

                             ****ORCA TERMINATED NORMALLY****
TOTAL RUN TIME: 0 days 0 hours 20 minutes 3 seconds 10 msec
