                         Program Version 3.0.3 - RELEASE   -
|  1> ! RI-MP2 RIJK def2-TZVP def2-TZVP/C def2-TZVP/JK TIGHTSCF
|  2> % maxcore 2000
|  3> % mp2 density relaxed end
|  4> *xyz 0 1
|  5>  C       -1.7607334162     1.7427807510     0.7302677935
|  6>  O       -2.1323700074     0.3753261168     0.9092465044
|  7>  C       -1.7104564566    -0.4690521198    -0.0587939018
|  8>  N       -1.0353322598    -0.1045073251    -1.0603026516
|  9>  N       -2.1658530992    -1.7532897359     0.2854016797
| 10>  C       -1.9543528482    -2.9123612553    -0.4347133670
| 11>  C       -2.5741014513    -4.1456537712     0.1984631402
| 12>  O       -1.3311908801    -2.9425062625    -1.4765906898
| 13>  H       -2.1761475723     2.2741667187     1.5874428611
| 14>  H       -0.6730041780     1.8469534253     0.7013529787
| 15>  H       -2.1710472800     2.1356356144    -0.2036201657
| 16>  H       -0.8325447985    -0.9078705313    -1.6524616174
| 17>  H       -2.6936541020    -1.8028584078     1.1434446619
| 18>  H       -2.3614317001    -5.0063599579    -0.4340756153
| 19>  H       -2.1615774731    -4.3185524405     1.1980210804
| 20>  H       -3.6580856372    -4.0281072187     0.3000138487
| 21> *
| 22>
| 23>                          ****END OF INPUT****

CARTESIAN COORDINATES (ANGSTROEM)
---------------------------------
  C     -1.760733    1.742781    0.730268
  O     -2.132370    0.375326    0.909247
  C     -1.710456   -0.469052   -0.058794
  N     -1.035332   -0.104507   -1.060303
  N     -2.165853   -1.753290    0.285402
  C     -1.954353   -2.912361   -0.434713
  C     -2.574101   -4.145654    0.198463
  O     -1.331191   -2.942506   -1.476591
  H     -2.176148    2.274167    1.587443
  H     -0.673004    1.846953    0.701353
  H     -2.171047    2.135636   -0.203620
  H     -0.832545   -0.907871   -1.652462
  H     -2.693654   -1.802858    1.143445
  H     -2.361432   -5.006360   -0.434076
  H     -2.161577   -4.318552    1.198021
  H     -3.658086   -4.028107    0.300014

 Total Charge           Charge          ....    0
 Multiplicity           Mult            ....    1
 Number of Electrons    NEL             ....   62
 Basis Dimension        Dim             ....  296

ORBITAL ENERGIES
----------------

  NO   OCC          E(Eh)            E(eV)
   0   2.0000     -20.599211      -560.5330
   1   2.0000     -20.543878      -559.0273
   2   2.0000     -15.614978      -424.9052
   3   2.0000     -15.521104      -422.3507
   4   2.0000     -11.376756      -309.5773
   5   2.0000     -11.374523      -309.5165
   6   2.0000     -11.280343      -306.9537
   7   2.0000     -11.254130      -306.2404
   8   2.0000      -1.444393       -39.3039
   9   2.0000      -1.406163       -38.2636
  10   2.0000      -1.263258       -34.3750
  11   2.0000      -1.177729       -32.0476
  12   2.0000      -1.028827       -27.9958
  13   2.0000      -0.968298       -26.3487
  14   2.0000      -0.847132       -23.0516
  15   2.0000      -0.781292       -21.2600
  16   2.0000      -0.753472       -20.5030
  17   2.0000      -0.693116       -18.8606
  18   2.0000      -0.674293       -18.3484
  19   2.0000      -0.661910       -18.0115
  20   2.0000      -0.633296       -17.2329
  21   2.0000      -0.619631       -16.8610
  22   2.0000      -0.604017       -16.4361
  23   2.0000      -0.574963       -15.6455
  24   2.0000      -0.563922       -15.3451
  25   2.0000      -0.525119       -14.2892
  26   2.0000      -0.516372       -14.0512
  27   2.0000      -0.470338       -12.7985
  28   2.0000      -0.449027       -12.2187
  29   2.0000      -0.424976       -11.5642
  30   2.0000      -0.387703       -10.5499
  31   0.0000       0.116762         3.1772
  32   0.0000       0.146044         3.9741
  33   0.0000       0.161297         4.3891
  34   0.0000       0.175432         4.7737
  35   0.0000       0.200005         5.4424

MULLIKEN ATOMIC CHARGES
-----------------------
   0 C :   -0.195067
   1 O :   -0.308179
   2 C :    0.330104
   3 N :   -0.435717
   4 N :   -0.323628
   5 C :    0.349298
   6 C :   -0.442783
   7 O :   -0.369394
   8 H :    0.139653
   9 H :    0.139595
  10 H :    0.139607
  11 H :    0.251769
  12 H :    0.256275
  13 H :    0.163701
  14 H :    0.152466
  15 H :    0.152300
Sum of atomic charges:   -0.0000000

LOEWDIN ATOMIC CHARGES
----------------------
   0 C :   -0.313238
   1 O :    0.207964
   2 C :   -0.483585
   3 N :   -0.065264
   4 N :    0.142083
   5 C :   -0.443321
   6 C :   -0.275091
   7 O :    0.102079
   8 H :    0.112612
   9 H :    0.114673
  10 H :    0.114675
  11 H :    0.172680
  12 H :    0.202344
  13 H :    0.139687
  14 H :    0.135900
  15 H :    0.135801

  Mayer bond orders larger than 0.1
B(  0-C ,  1-O ) :   0.8491 B(  0-C ,  8-H ) :   0.9308 B(  0-C ,  9-H ) :   0.9393
B(  0-C , 10-H ) :   0.9393 B(  1-O ,  2-C ) :   1.0786 B(  2-C ,  3-N ) :   1.9144
B(  2-C ,  4-N ) :   0.9753 B(  3-N , 11-H ) :   0.8432 B(  4-N ,  5-C ) :   1.0748
B(  4-N , 12-H ) :   0.8576 B(  5-C ,  6-C ) :   0.9147 B(  5-C ,  7-O ) :   1.8734
B(  6-C , 13-H ) :   0.9388 B(  6-C , 14-H ) :   0.9189 B(  6-C , 15-H ) :   0.9191

MP2 TOTAL ENERGY:     -416.438649553 Eh
FINAL SINGLE POINT ENERGY      -416.438649553289

DIPOLE MOMENT
-------------
                                X             Y             Z
Electronic contribution:      1.06576      -0.57751      -1.95082
Nuclear contribution   :     -1.90765       0.26842       3.24680
                        -----------------------------------------
Total Dipole Moment    :     -0.84188      -0.30909       1.29598
                        -----------------------------------------
Magnitude (a.u.)       :      1.57603
Magnitude (Debye)      :      4.00595

                             ****ORCA TERMINATED NORMALLY****
TOTAL RUN TIME: 0 days 0 hours 9 minutes 36 seconds 743 msec
