                         Program Version 3.0.3 - RELEASE   -
|  1> ! RI-MP2 RIJK def2-TZVP def2-TZVP/C def2-TZVP/JK TIGHTSCF
|  2> % maxcore 2000
|  3> % mp2 density relaxed end
|  4> *xyz 0 1
|  5>  C        0.0481065496     1.3645021727    -0.0560386071
|  6>  C        0.0331229560    -0.0863085841    -0.0227347561
|  7>  C       -0.0021603144    -1.2931556947     0.0048368928
|  8>  C       -0.0043904331    -2.7270200364     0.0364897693
|  9>  O       -1.0118490788    -3.4034373729     0.1131457482
| 10>  C        1.3572811708    -3.4397316060    -0.0356207267
| 11>  O        1.2010309181    -4.8045997604     0.1160186565
| 12>  C        2.0635466195    -3.0614284127    -1.3537566509
| 13>  O        2.3065741968    -3.8439627581    -2.2266189667
| 14>  H        1.0698762314     1.7546681808    -0.0953429655
| 15>  H       -0.4943163148     1.7338990772    -0.9329217487
| 16>  H       -0.4417256763     1.7736463156     0.8340466143
| 17>  H        1.9851721397    -3.0124020716     0.7675631984
| 18>  H        0.2424687342    -4.9627199958     0.1022867321
| 19>  H        2.3434673612    -1.9865784938    -1.4175472697
| 20> *
| 21>
| 22>                          ****END OF INPUT****

CARTESIAN COORDINATES (ANGSTROEM)
---------------------------------
  C      0.048107    1.364502   -0.056039
  C      0.033123   -0.086309   -0.022735
  C     -0.002160   -1.293156    0.004837
  C     -0.004390   -2.727020    0.036490
  O     -1.011849   -3.403437    0.113146
  C      1.357281   -3.439732   -0.035621
  O      1.201031   -4.804600    0.116019
  C      2.063547   -3.061428   -1.353757
  O      2.306574   -3.843963   -2.226619
  H      1.069876    1.754668   -0.095343
  H     -0.494316    1.733899   -0.932922
  H     -0.441726    1.773646    0.834047
  H      1.985172   -3.012402    0.767563
  H      0.242469   -4.962720    0.102287
  H      2.343467   -1.986578   -1.417547

 Total Charge           Charge          ....    0
 Multiplicity           Mult            ....    1
 Number of Electrons    NEL             ....   66
 Basis Dimension        Dim             ....  315

ORBITAL ENERGIES
----------------

  NO   OCC          E(Eh)            E(eV)
   0   2.0000     -20.588450      -560.2402
   1   2.0000     -20.572854      -559.8158
   2   2.0000     -20.570074      -559.7402
   3   2.0000     -11.385938      -309.8271
   4   2.0000     -11.346482      -308.7535
   5   2.0000     -11.323736      -308.1345
   6   2.0000     -11.293460      -307.3107
   7   2.0000     -11.283745      -307.0463
   8   2.0000     -11.262019      -306.4551
   9   2.0000      -1.439539       -39.1718
  10   2.0000      -1.414003       -38.4770
  11   2.0000      -1.377381       -37.4805
  12   2.0000      -1.113644       -30.3038
  13   2.0000      -1.054093       -28.6833
  14   2.0000      -0.998307       -27.1653
  15   2.0000      -0.886401       -24.1202
  16   2.0000      -0.813353       -22.1325
  17   2.0000      -0.765662       -20.8347
  18   2.0000      -0.710783       -19.3414
  19   2.0000      -0.697096       -18.9690
  20   2.0000      -0.672687       -18.3047
  21   2.0000      -0.654362       -17.8061
  22   2.0000      -0.634638       -17.2694
  23   2.0000      -0.626848       -17.0574
  24   2.0000      -0.624128       -16.9834
  25   2.0000      -0.570357       -15.5202
  26   2.0000      -0.560436       -15.2502
  27   2.0000      -0.541807       -14.7433
  28   2.0000      -0.501563       -13.6482
  29   2.0000      -0.469751       -12.7826
  30   2.0000      -0.435007       -11.8371
  31   2.0000      -0.424282       -11.5453
  32   2.0000      -0.416273       -11.3274
  33   0.0000       0.059800         1.6272
  34   0.0000       0.109504         2.9798
  35   0.0000       0.128370         3.4931
  36   0.0000       0.142761         3.8847
  37   0.0000       0.150602         4.0981

MULLIKEN ATOMIC CHARGES
-----------------------
   0 C :   -0.467435
   1 C :    0.081367
   2 C :    0.029042
   3 C :    0.071653
   4 O :   -0.290758
   5 C :    0.088586
   6 O :   -0.448558
   7 C :    0.077285
   8 O :   -0.227433
   9 H :    0.172250
  10 H :    0.178637
  11 H :    0.178076
  12 H :    0.124046
  13 H :    0.343681
  14 H :    0.089561
Sum of atomic charges:   -0.0000000

LOEWDIN ATOMIC CHARGES
----------------------
   0 C :   -0.277826
   1 C :   -0.041197
   2 C :   -0.039848
   3 C :   -0.309079
   4 O :    0.170978
   5 C :   -0.343080
   6 O :    0.028425
   7 C :   -0.273610
   8 O :    0.166054
   9 H :    0.146820
  10 H :    0.151392
  11 H :    0.151342
  12 H :    0.164922
  13 H :    0.189315
  14 H :    0.115393

  Mayer bond orders larger than 0.1
B(  0-C ,  1-C ) :   0.8685 B(  0-C ,  9-H ) :   0.9396 B(  0-C , 10-H ) :   0.9358
B(  0-C , 11-H ) :   0.9385 B(  1-C ,  2-C ) :   2.7057 B(  2-C ,  3-C ) :   0.9524
B(  3-C ,  4-O ) :   1.9334 B(  3-C ,  5-C ) :   0.9876 B(  5-C ,  6-O ) :   1.0964
B(  5-C ,  7-C ) :   0.7999 B(  5-C , 12-H ) :   0.8935 B(  6-O , 13-H ) :   0.7980
B(  7-C ,  8-O ) :   2.0214 B(  7-C , 14-H ) :   0.9122

MP2 TOTAL ENERGY:     -457.000937373 Eh
FINAL SINGLE POINT ENERGY      -457.000937373313

DIPOLE MOMENT
-------------
                                X             Y             Z
Electronic contribution:     -0.56507      -7.06750      -0.92820
Nuclear contribution   :      0.55250       9.29491       1.51671
                        -----------------------------------------
Total Dipole Moment    :     -0.01257       2.22741       0.58852
                        -----------------------------------------
Magnitude (a.u.)       :      2.30388
Magnitude (Debye)      :      5.85601

                             ****ORCA TERMINATED NORMALLY****
TOTAL RUN TIME: 0 days 0 hours 12 minutes 6 seconds 634 msec
