                         Program Version 3.0.3 - RELEASE   -
|  1> ! RI-MP2 RIJK def2-TZVP def2-TZVP/C def2-TZVP/JK TIGHTSCF
|  2> % maxcore 2000
|  3> % mp2 density relaxed end
|  4> *xyz 0 1
|  5>  C       -0.3597629418     1.4013721730    -0.4869286888
|  6>  N       -0.2367637596    -0.0204442309    -0.7325046443
|  7>  C        0.9548347323    -0.6696892729    -0.7088919858
|  8>  O        2.0348700921    -0.1396965857    -0.5051229048
|  9>  C        0.8515182286    -2.1709866165    -0.9364796308
| 10>  C        1.6829991241    -2.9901785076     0.0223042989
| 11>  O       -0.4684748063    -2.6679345306    -1.2283405135
| 12>  C        0.5147110082    -2.6946261957    -2.2777234343
| 13>  C        0.2640892174    -1.8607259038    -3.5061884551
| 14>  H        0.6476771754     1.7991241639    -0.3560376538
| 15>  H       -0.8405747425     1.9111422394    -1.3289380302
| 16>  H       -0.9424180806     1.6010214093     0.4194739147
| 17>  H       -1.0543559813    -0.5949570203    -0.8695914041
| 18>  H        1.3130998651    -2.8732267056     1.0461391166
| 19>  H        1.6438787872    -4.0498373402    -0.2405162147
| 20>  H        2.7176646638    -2.6415584662    -0.0034401907
| 21>  H        0.8779759236    -3.7032673219    -2.4858586571
| 22>  H       -0.0529656180    -0.8479977632    -3.2518505643
| 23>  H        1.1773966259    -1.7998737256    -4.1070739059
| 24>  H       -0.5127239436    -2.3248376591    -4.1229570821
| 25> *
| 26>
| 27>                          ****END OF INPUT****

CARTESIAN COORDINATES (ANGSTROEM)
---------------------------------
  C     -0.359763    1.401372   -0.486929
  N     -0.236764   -0.020444   -0.732505
  C      0.954835   -0.669689   -0.708892
  O      2.034870   -0.139697   -0.505123
  C      0.851518   -2.170987   -0.936480
  C      1.682999   -2.990179    0.022304
  O     -0.468475   -2.667935   -1.228341
  C      0.514711   -2.694626   -2.277723
  C      0.264089   -1.860726   -3.506188
  H      0.647677    1.799124   -0.356038
  H     -0.840575    1.911142   -1.328938
  H     -0.942418    1.601021    0.419474
  H     -1.054356   -0.594957   -0.869591
  H      1.313100   -2.873227    1.046139
  H      1.643879   -4.049837   -0.240516
  H      2.717665   -2.641558   -0.003440
  H      0.877976   -3.703267   -2.485859
  H     -0.052966   -0.847998   -3.251851
  H      1.177397   -1.799874   -4.107074
  H     -0.512724   -2.324838   -4.122957

 Total Charge           Charge          ....    0
 Multiplicity           Mult            ....    1
 Number of Electrons    NEL             ....   70
 Basis Dimension        Dim             ....  345

ORBITAL ENERGIES
----------------

  NO   OCC          E(Eh)            E(eV)
   0   2.0000     -20.579382      -559.9934
   1   2.0000     -20.516803      -558.2906
   2   2.0000     -15.582923      -424.0329
   3   2.0000     -11.349919      -308.8470
   4   2.0000     -11.305317      -307.6333
   5   2.0000     -11.302981      -307.5697
   6   2.0000     -11.259730      -306.3928
   7   2.0000     -11.233814      -305.6876
   8   2.0000     -11.226480      -305.4880
   9   2.0000      -1.426643       -38.8209
  10   2.0000      -1.378503       -37.5110
  11   2.0000      -1.230268       -33.4773
  12   2.0000      -1.032664       -28.1002
  13   2.0000      -1.020301       -27.7638
  14   2.0000      -0.964562       -26.2471
  15   2.0000      -0.874888       -23.8069
  16   2.0000      -0.837414       -22.7872
  17   2.0000      -0.775871       -21.1125
  18   2.0000      -0.707525       -19.2527
  19   2.0000      -0.683394       -18.5961
  20   2.0000      -0.647768       -17.6267
  21   2.0000      -0.624213       -16.9857
  22   2.0000      -0.613081       -16.6828
  23   2.0000      -0.594797       -16.1853
  24   2.0000      -0.587074       -15.9751
  25   2.0000      -0.562840       -15.3157
  26   2.0000      -0.558522       -15.1982
  27   2.0000      -0.548505       -14.9256
  28   2.0000      -0.541495       -14.7348
  29   2.0000      -0.525920       -14.3110
  30   2.0000      -0.514606       -14.0031
  31   2.0000      -0.471762       -12.8373
  32   2.0000      -0.432711       -11.7747
  33   2.0000      -0.417501       -11.3608
  34   2.0000      -0.392011       -10.6672
  35   0.0000       0.133457         3.6315
  36   0.0000       0.153015         4.1637
  37   0.0000       0.158712         4.3188
  38   0.0000       0.174175         4.7395
  39   0.0000       0.184304         5.0152

MULLIKEN ATOMIC CHARGES
-----------------------
   0 C :   -0.299129
   1 N :   -0.314013
   2 C :    0.235295
   3 O :   -0.379188
   4 C :    0.215954
   5 C :   -0.395397
   6 O :   -0.365307
   7 C :    0.008838
   8 C :   -0.379460
   9 H :    0.175039
  10 H :    0.134437
  11 H :    0.139200
  12 H :    0.262877
  13 H :    0.135324
  14 H :    0.133397
  15 H :    0.161016
  16 H :    0.114491
  17 H :    0.136171
  18 H :    0.140076
  19 H :    0.140379
Sum of atomic charges:    0.0000000

LOEWDIN ATOMIC CHARGES
----------------------
   0 C :   -0.311657
   1 N :    0.097372
   2 C :   -0.434591
   3 O :    0.080034
   4 C :   -0.287538
   5 C :   -0.256594
   6 O :    0.165725
   7 C :   -0.260314
   8 C :   -0.291161
   9 H :    0.134494
  10 H :    0.115325
  11 H :    0.116784
  12 H :    0.190558
  13 H :    0.133224
  14 H :    0.129818
  15 H :    0.141765
  16 H :    0.141299
  17 H :    0.129353
  18 H :    0.135356
  19 H :    0.130750

  Mayer bond orders larger than 0.1
B(  0-C ,  1-N ) :   0.8576 B(  0-C ,  9-H ) :   0.9280 B(  0-C , 10-H ) :   0.9337
B(  0-C , 11-H ) :   0.9354 B(  1-N ,  2-C ) :   1.1950 B(  1-N , 12-H ) :   0.8513
B(  2-C ,  3-O ) :   1.9278 B(  2-C ,  4-C ) :   0.8803 B(  4-C ,  5-C ) :   0.8928
B(  4-C ,  6-O ) :   0.8536 B(  4-C ,  7-C ) :   0.9609 B(  5-C , 13-H ) :   0.9309
B(  5-C , 14-H ) :   0.9376 B(  5-C , 15-H ) :   0.9290 B(  6-O ,  7-C ) :   0.8654
B(  7-C ,  8-C ) :   0.8944 B(  7-C , 16-H ) :   0.9166 B(  8-C , 17-H ) :   0.9338
B(  8-C , 18-H ) :   0.9243 B(  8-C , 19-H ) :   0.9327

MP2 TOTAL ENERGY:     -439.588423169 Eh
FINAL SINGLE POINT ENERGY      -439.588423169267

DIPOLE MOMENT
-------------
                                X             Y             Z
Electronic contribution:      0.48930      -0.74192       2.03201
Nuclear contribution   :     -1.21996       0.63941      -2.50033
                        -----------------------------------------
Total Dipole Moment    :     -0.73067      -0.10250      -0.46831
                        -----------------------------------------
Magnitude (a.u.)       :      0.87390
Magnitude (Debye)      :      2.22127

                             ****ORCA TERMINATED NORMALLY****
TOTAL RUN TIME: 0 days 0 hours 17 minutes 25 seconds 190 msec
