                         Program Version 3.0.3 - RELEASE   -
|  1> ! RI-MP2 RIJK def2-TZVP def2-TZVP/C def2-TZVP/JK TIGHTSCF
|  2> % maxcore 2000
|  3> % mp2 density relaxed end
|  4> *xyz 0 1
|  5>  O        0.0854245536     1.2851243212     0.1576960017
|  6>  C        0.0710806639    -0.0422635247     0.0185225032
|  7>  N        0.0996062539    -0.6928216997    -1.1290187889
|  8>  C        0.0669744066    -1.9988850306    -0.7017996037
|  9>  C        0.0199918052    -2.1252532081     0.6678646251
| 10>  N        0.0227578600    -0.8189972214     1.1477717544
| 11>  N       -0.0110716463    -3.4130885776     1.0516200710
| 12>  N        0.0151029117    -4.1304047879    -0.0511573521
| 13>  N        0.0628308352    -3.2794692631    -1.1279667308
| 14>  H        0.1201783243     1.6572857945    -0.7334660378
| 15>  H       -0.0034581104    -0.4810479950     2.0940799046
| 16>  H        0.0878306223    -3.6726820175    -2.0536114466
| 17> *
| 18>
| 19>                          ****END OF INPUT****

CARTESIAN COORDINATES (ANGSTROEM)
---------------------------------
  O      0.085425    1.285124    0.157696
  C      0.071081   -0.042264    0.018523
  N      0.099606   -0.692822   -1.129019
  C      0.066974   -1.998885   -0.701800
  C      0.019992   -2.125253    0.667865
  N      0.022758   -0.818997    1.147772
  N     -0.011072   -3.413089    1.051620
  N      0.015103   -4.130405   -0.051157
  N      0.062831   -3.279469   -1.127967
  H      0.120178    1.657286   -0.733466
  H     -0.003458   -0.481048    2.094080
  H      0.087831   -3.672682   -2.053611

 Total Charge           Charge          ....    0
 Multiplicity           Mult            ....    1
 Number of Electrons    NEL             ....   64
 Basis Dimension        Dim             ....  297

ORBITAL ENERGIES
----------------

  NO   OCC          E(Eh)            E(eV)
   0   2.0000     -20.638889      -561.6127
   1   2.0000     -15.654765      -425.9878
   2   2.0000     -15.638642      -425.5491
   3   2.0000     -15.635110      -425.4530
   4   2.0000     -15.607984      -424.7148
   5   2.0000     -15.574509      -423.8039
   6   2.0000     -11.404995      -310.3457
   7   2.0000     -11.304073      -307.5995
   8   2.0000     -11.283544      -307.0408
   9   2.0000      -1.477816       -40.2134
  10   2.0000      -1.429636       -38.9024
  11   2.0000      -1.340474       -36.4761
  12   2.0000      -1.228394       -33.4263
  13   2.0000      -1.180026       -32.1101
  14   2.0000      -1.052757       -28.6470
  15   2.0000      -0.891051       -24.2467
  16   2.0000      -0.878138       -23.8953
  17   2.0000      -0.848631       -23.0924
  18   2.0000      -0.785946       -21.3867
  19   2.0000      -0.744750       -20.2657
  20   2.0000      -0.703835       -19.1523
  21   2.0000      -0.688057       -18.7230
  22   2.0000      -0.634947       -17.2778
  23   2.0000      -0.632265       -17.2048
  24   2.0000      -0.617290       -16.7973
  25   2.0000      -0.543569       -14.7913
  26   2.0000      -0.529480       -14.4079
  27   2.0000      -0.483784       -13.1644
  28   2.0000      -0.474488       -12.9115
  29   2.0000      -0.439605       -11.9623
  30   2.0000      -0.388830       -10.5806
  31   2.0000      -0.311228        -8.4689
  32   0.0000       0.122187         3.3249
  33   0.0000       0.131909         3.5894
  34   0.0000       0.138290         3.7631
  35   0.0000       0.142613         3.8807
  36   0.0000       0.196515         5.3475

MULLIKEN ATOMIC CHARGES
-----------------------
   0 O :   -0.414076
   1 C :    0.359096
   2 N :   -0.334194
   3 C :    0.090613
   4 C :    0.086111
   5 N :   -0.304372
   6 N :   -0.159850
   7 N :   -0.110069
   8 N :   -0.115053
   9 H :    0.361285
  10 H :    0.271130
  11 H :    0.269378
Sum of atomic charges:   -0.0000000

LOEWDIN ATOMIC CHARGES
----------------------
   0 O :    0.097674
   1 C :   -0.445370
   2 N :    0.088194
   3 C :   -0.329356
   4 C :   -0.328192
   5 N :    0.203976
   6 N :    0.008297
   7 N :   -0.042657
   8 N :    0.139699
   9 H :    0.214224
  10 H :    0.202032
  11 H :    0.191478

  Mayer bond orders larger than 0.1
B(  0-O ,  1-C ) :   1.1375 B(  0-O ,  9-H ) :   0.8068 B(  1-C ,  2-N ) :   1.5273
B(  1-C ,  5-N ) :   1.1734 B(  2-N ,  3-C ) :   1.2651 B(  3-C ,  4-C ) :   1.2857
B(  3-C ,  7-N ) :   0.1199 B(  3-C ,  8-N ) :   1.1739 B(  4-C ,  5-N ) :   1.0589
B(  4-C ,  6-N ) :   1.4408 B(  5-N , 10-H ) :   0.8544 B(  6-N ,  7-N ) :   1.2543
B(  7-N ,  8-N ) :   1.0154 B(  8-N , 11-H ) :   0.8578

MP2 TOTAL ENERGY:     -464.249060384 Eh
FINAL SINGLE POINT ENERGY      -464.249060384084

DIPOLE MOMENT
-------------
                                X             Y             Z
Electronic contribution:     -0.01814      -0.92033       0.14979
Nuclear contribution   :      0.05440       2.28559      -0.65107
                        -----------------------------------------
Total Dipole Moment    :      0.03626       1.36526      -0.50128
                        -----------------------------------------
Magnitude (a.u.)       :      1.45483
Magnitude (Debye)      :      3.69788

                             ****ORCA TERMINATED NORMALLY****
TOTAL RUN TIME: 0 days 0 hours 14 minutes 19 seconds 707 msec
