                         Program Version 3.0.3 - RELEASE   -
|  1> ! RI-MP2 RIJK def2-TZVP def2-TZVP/C def2-TZVP/JK TIGHTSCF
|  2> % maxcore 2000
|  3> % mp2 density relaxed end
|  4> *xyz 0 1
|  5>  C       -0.0564968224     1.4996127329     0.4980924961
|  6>  C        0.1049742170    -0.0002542458     0.1383016795
|  7>  C        1.1237768004    -0.6530611887     1.0812337467
|  8>  C       -1.2779599194    -0.6919847655     0.3623645247
|  9>  N       -2.2440088350    -0.3539068363    -0.5265052580
| 10>  O       -1.4646065316    -1.4252520726     1.3158165096
| 11>  C        0.4915210733    -0.0667780552    -1.3542508270
| 12>  N        1.6526015238    -0.6911329654    -1.6692791718
| 13>  O       -0.2101388221     0.4370439573    -2.2237532045
| 14>  H        0.9124376712     2.0075953358     0.4534749360
| 15>  H       -0.7379274978     1.9957762862    -0.1935951082
| 16>  H       -0.4475677135     1.5969176440     1.5147629862
| 17>  H        0.7700025410    -0.5735261452     2.1095596918
| 18>  H        1.2423869214    -1.7216482100     0.8789087559
| 19>  H        2.0967175827    -0.1551344743     1.0111902983
| 20>  H       -1.9771050641     0.1016318885    -1.3901380472
| 21>  H       -3.1285083349    -0.8289887118    -0.4485121546
| 22>  H        2.2411291489    -1.1295924171    -0.9854185736
| 23>  H        1.9056503412    -0.7433588568    -2.6426612496
| 24> *
| 25>
| 26>                          ****END OF INPUT****

CARTESIAN COORDINATES (ANGSTROEM)
---------------------------------
  C     -0.056497    1.499613    0.498092
  C      0.104974   -0.000254    0.138302
  C      1.123777   -0.653061    1.081234
  C     -1.277960   -0.691985    0.362365
  N     -2.244009   -0.353907   -0.526505
  O     -1.464607   -1.425252    1.315817
  C      0.491521   -0.066778   -1.354251
  N      1.652602   -0.691133   -1.669279
  O     -0.210139    0.437044   -2.223753
  H      0.912438    2.007595    0.453475
  H     -0.737927    1.995776   -0.193595
  H     -0.447568    1.596918    1.514763
  H      0.770003   -0.573526    2.109560
  H      1.242387   -1.721648    0.878909
  H      2.096718   -0.155134    1.011190
  H     -1.977105    0.101632   -1.390138
  H     -3.128508   -0.828989   -0.448512
  H      2.241129   -1.129592   -0.985419
  H      1.905650   -0.743359   -2.642661

 Total Charge           Charge          ....    0
 Multiplicity           Mult            ....    1
 Number of Electrons    NEL             ....   70
 Basis Dimension        Dim             ....  339

ORBITAL ENERGIES
----------------

  NO   OCC          E(Eh)            E(eV)
   0   2.0000     -20.532197      -558.7095
   1   2.0000     -20.517073      -558.2979
   2   2.0000     -15.599513      -424.4843
   3   2.0000     -15.568923      -423.6519
   4   2.0000     -11.370114      -309.3965
   5   2.0000     -11.351469      -308.8892
   6   2.0000     -11.273415      -306.7652
   7   2.0000     -11.234893      -305.7170
   8   2.0000     -11.231268      -305.6183
   9   2.0000      -1.400440       -38.1079
  10   2.0000      -1.380355       -37.5614
  11   2.0000      -1.229350       -33.4523
  12   2.0000      -1.205183       -32.7947
  13   2.0000      -1.098279       -29.8857
  14   2.0000      -0.950391       -25.8614
  15   2.0000      -0.896197       -24.3868
  16   2.0000      -0.834227       -22.7005
  17   2.0000      -0.776992       -21.1430
  18   2.0000      -0.743448       -20.2303
  19   2.0000      -0.708128       -19.2691
  20   2.0000      -0.687650       -18.7119
  21   2.0000      -0.649903       -17.6848
  22   2.0000      -0.624837       -17.0027
  23   2.0000      -0.613355       -16.6902
  24   2.0000      -0.600430       -16.3385
  25   2.0000      -0.572879       -15.5888
  26   2.0000      -0.555522       -15.1165
  27   2.0000      -0.543836       -14.7985
  28   2.0000      -0.540585       -14.7101
  29   2.0000      -0.521751       -14.1976
  30   2.0000      -0.496764       -13.5176
  31   2.0000      -0.438487       -11.9318
  32   2.0000      -0.433092       -11.7850
  33   2.0000      -0.417246       -11.3539
  34   2.0000      -0.406888       -11.0720
  35   0.0000       0.119913         3.2630
  36   0.0000       0.145344         3.9550
  37   0.0000       0.156629         4.2621
  38   0.0000       0.161259         4.3881
  39   0.0000       0.177451         4.8287

MULLIKEN ATOMIC CHARGES
-----------------------
   0 C :   -0.417851
   1 C :    0.103337
   2 C :   -0.475254
   3 C :    0.234690
   4 N :   -0.475547
   5 O :   -0.348774
   6 C :    0.284395
   7 N :   -0.458367
   8 O :   -0.411289
   9 H :    0.133445
  10 H :    0.152577
  11 H :    0.149085
  12 H :    0.163091
  13 H :    0.146625
  14 H :    0.143514
  15 H :    0.291746
  16 H :    0.250079
  17 H :    0.273327
  18 H :    0.261171
Sum of atomic charges:    0.0000000

LOEWDIN ATOMIC CHARGES
----------------------
   0 C :   -0.247844
   1 C :   -0.254919
   2 C :   -0.274305
   3 C :   -0.438826
   4 N :    0.000362
   5 O :    0.085714
   6 C :   -0.430130
   7 N :    0.011379
   8 O :    0.058982
   9 H :    0.128336
  10 H :    0.132056
  11 H :    0.133484
  12 H :    0.140542
  13 H :    0.128248
  14 H :    0.122915
  15 H :    0.178687
  16 H :    0.173065
  17 H :    0.174655
  18 H :    0.177599

  Mayer bond orders larger than 0.1
B(  0-C ,  1-C ) :   0.8998 B(  0-C ,  9-H ) :   0.9302 B(  0-C , 10-H ) :   0.9215
B(  0-C , 11-H ) :   0.9334 B(  1-C ,  2-C ) :   0.8655 B(  1-C ,  3-C ) :   0.8446
B(  1-C ,  6-C ) :   0.8738 B(  2-C , 12-H ) :   0.9192 B(  2-C , 13-H ) :   0.9342
B(  2-C , 14-H ) :   0.9430 B(  3-C ,  4-N ) :   1.2290 B(  3-C ,  5-O ) :   1.9739
B(  4-N , 15-H ) :   0.8234 B(  4-N , 16-H ) :   0.8604 B(  6-C ,  7-N ) :   1.2039
B(  6-C ,  8-O ) :   1.8229 B(  7-N , 17-H ) :   0.8617 B(  7-N , 18-H ) :   0.8564

MP2 TOTAL ENERGY:     -455.697571329 Eh
FINAL SINGLE POINT ENERGY      -455.697571329196

DIPOLE MOMENT
-------------
                                X             Y             Z
Electronic contribution:     -3.64194      -2.54612      -3.38695
Nuclear contribution   :      4.66542       2.58347       2.88786
                        -----------------------------------------
Total Dipole Moment    :      1.02348       0.03736      -0.49910
                        -----------------------------------------
Magnitude (a.u.)       :      1.13930
Magnitude (Debye)      :      2.89587

                             ****ORCA TERMINATED NORMALLY****
TOTAL RUN TIME: 0 days 0 hours 18 minutes 54 seconds 393 msec
