                         Program Version 3.0.3 - RELEASE   -
|  1> ! RI-MP2 RIJK def2-TZVP def2-TZVP/C def2-TZVP/JK TIGHTSCF
|  2> % maxcore 2000
|  3> % mp2 density relaxed end
|  4> *xyz 0 1
|  5>  C       -2.5538426686     0.5668983317    -2.8351148129
|  6>  C       -1.8991124157    -0.6560294849    -2.1848511918
|  7>  C       -0.3766923102    -0.7701001109    -2.4141838979
|  8>  C        0.4093013153     0.3543666909    -1.7222031297
|  9>  C        0.1279119996    -2.1339006930    -1.9535234397
| 10>  O       -0.0098929338    -2.3570131268    -0.5664830402
| 11>  C       -0.0153132142    -3.3491074685    -2.8417065322
| 12>  C        1.3589845863    -2.7833870671    -2.5218545022
| 13>  C        2.2298824228    -2.1734003828    -3.5976313522
| 14>  H       -2.1723019764     1.5050473461    -2.4212196269
| 15>  H       -2.3728449174     0.5826898944    -3.9159048878
| 16>  H       -3.6375206209     0.5581127387    -2.6809862233
| 17>  H       -2.0995749113    -0.6390822415    -1.1048191489
| 18>  H       -2.3770398360    -1.5635343384    -2.5763552211
| 19>  H       -0.2061890211    -0.7025134212    -3.4964603764
| 20>  H        1.4757152778     0.2866428353    -1.9568331863
| 21>  H        0.0625151280     1.3435503372    -2.0335646495
| 22>  H        0.3034968356     0.2758544446    -0.6361516482
| 23>  H       -0.9443523977    -2.5050628953    -0.3852073007
| 24>  H       -0.3022720256    -4.2849075197    -2.3743716634
| 25>  H       -0.3983551896    -3.2058004837    -3.8481590163
| 26>  H        1.9050984765    -3.3509045241    -1.7732602056
| 27>  H        1.6448141212    -1.6164661533    -4.3353852966
| 28>  H        2.9728992711    -1.4882405611    -3.1748447570
| 29>  H        2.7729340245    -2.9561843165    -4.1388933330
| 30> *
| 31>
| 32>                          ****END OF INPUT****

CARTESIAN COORDINATES (ANGSTROEM)
---------------------------------
  C     -2.553843    0.566898   -2.835115
  C     -1.899112   -0.656029   -2.184851
  C     -0.376692   -0.770100   -2.414184
  C      0.409301    0.354367   -1.722203
  C      0.127912   -2.133901   -1.953523
  O     -0.009893   -2.357013   -0.566483
  C     -0.015313   -3.349107   -2.841707
  C      1.358985   -2.783387   -2.521855
  C      2.229882   -2.173400   -3.597631
  H     -2.172302    1.505047   -2.421220
  H     -2.372845    0.582690   -3.915905
  H     -3.637521    0.558113   -2.680986
  H     -2.099575   -0.639082   -1.104819
  H     -2.377040   -1.563534   -2.576355
  H     -0.206189   -0.702513   -3.496460
  H      1.475715    0.286643   -1.956833
  H      0.062515    1.343550   -2.033565
  H      0.303497    0.275854   -0.636152
  H     -0.944352   -2.505063   -0.385207
  H     -0.302272   -4.284908   -2.374372
  H     -0.398355   -3.205800   -3.848159
  H      1.905098   -3.350905   -1.773260
  H      1.644814   -1.616466   -4.335385
  H      2.972899   -1.488241   -3.174845
  H      2.772934   -2.956184   -4.138893

 Total Charge           Charge          ....    0
 Multiplicity           Mult            ....    1
 Number of Electrons    NEL             ....   72
 Basis Dimension        Dim             ....  375

ORBITAL ENERGIES
----------------

  NO   OCC          E(Eh)            E(eV)
   0   2.0000     -20.554134      -559.3064
   1   2.0000     -11.278097      -306.8926
   2   2.0000     -11.227256      -305.5092
   3   2.0000     -11.225082      -305.4500
   4   2.0000     -11.221437      -305.3508
   5   2.0000     -11.217082      -305.2323
   6   2.0000     -11.216593      -305.2190
   7   2.0000     -11.214655      -305.1663
   8   2.0000     -11.205219      -304.9095
   9   2.0000      -1.364986       -37.1431
  10   2.0000      -1.135699       -30.9039
  11   2.0000      -1.071048       -29.1447
  12   2.0000      -0.981061       -26.6960
  13   2.0000      -0.959910       -26.1205
  14   2.0000      -0.882468       -24.0132
  15   2.0000      -0.823569       -22.4105
  16   2.0000      -0.793122       -21.5819
  17   2.0000      -0.737478       -20.0678
  18   2.0000      -0.678542       -18.4641
  19   2.0000      -0.648269       -17.6403
  20   2.0000      -0.630049       -17.1445
  21   2.0000      -0.619173       -16.8485
  22   2.0000      -0.588588       -16.0163
  23   2.0000      -0.564264       -15.3544
  24   2.0000      -0.562179       -15.2977
  25   2.0000      -0.547357       -14.8943
  26   2.0000      -0.531970       -14.4756
  27   2.0000      -0.525587       -14.3019
  28   2.0000      -0.508991       -13.8503
  29   2.0000      -0.502565       -13.6755
  30   2.0000      -0.494198       -13.4478
  31   2.0000      -0.471201       -12.8220
  32   2.0000      -0.467622       -12.7246
  33   2.0000      -0.459723       -12.5097
  34   2.0000      -0.389051       -10.5866
  35   2.0000      -0.384462       -10.4617
  36   0.0000       0.132105         3.5948
  37   0.0000       0.149935         4.0799
  38   0.0000       0.157926         4.2974
  39   0.0000       0.165453         4.5022
  40   0.0000       0.182605         4.9689

MULLIKEN ATOMIC CHARGES
-----------------------
   0 C :   -0.416654
   1 C :   -0.243041
   2 C :   -0.045112
   3 C :   -0.423044
   4 C :    0.249890
   5 O :   -0.480998
   6 C :   -0.334830
   7 C :   -0.069231
   8 C :   -0.410245
   9 H :    0.129534
  10 H :    0.123790
  11 H :    0.135922
  12 H :    0.105799
  13 H :    0.123414
  14 H :    0.069113
  15 H :    0.131534
  16 H :    0.130024
  17 H :    0.138020
  18 H :    0.320430
  19 H :    0.134119
  20 H :    0.115690
  21 H :    0.119484
  22 H :    0.123965
  23 H :    0.133088
  24 H :    0.139342
Sum of atomic charges:    0.0000000

LOEWDIN ATOMIC CHARGES
----------------------
   0 C :   -0.318416
   1 C :   -0.273444
   2 C :   -0.251575
   3 C :   -0.283525
   4 C :   -0.328502
   5 O :    0.023999
   6 C :   -0.201517
   7 C :   -0.212138
   8 C :   -0.295364
   9 H :    0.119627
  10 H :    0.120966
  11 H :    0.121464
  12 H :    0.134457
  13 H :    0.139515
  14 H :    0.155924
  15 H :    0.124908
  16 H :    0.119981
  17 H :    0.128641
  18 H :    0.176791
  19 H :    0.133212
  20 H :    0.134231
  21 H :    0.155439
  22 H :    0.123583
  23 H :    0.124824
  24 H :    0.126920

  Mayer bond orders larger than 0.1
B(  0-C ,  1-C ) :   0.9223 B(  0-C ,  9-H ) :   0.9420 B(  0-C , 10-H ) :   0.9403
B(  0-C , 11-H ) :   0.9431 B(  1-C ,  2-C ) :   0.8964 B(  1-C , 12-H ) :   0.9257
B(  1-C , 13-H ) :   0.9350 B(  2-C ,  3-C ) :   0.9047 B(  2-C ,  4-C ) :   0.9233
B(  2-C , 14-H ) :   0.9199 B(  3-C , 15-H ) :   0.9407 B(  3-C , 16-H ) :   0.9405
B(  3-C , 17-H ) :   0.9291 B(  4-C ,  5-O ) :   0.9003 B(  4-C ,  6-C ) :   0.8720
B(  4-C ,  7-C ) :   0.8579 B(  5-O , 18-H ) :   0.8420 B(  6-C ,  7-C ) :   0.9309
B(  6-C , 19-H ) :   0.9208 B(  6-C , 20-H ) :   0.9110 B(  7-C ,  8-C ) :   0.9008
B(  7-C , 21-H ) :   0.9220 B(  8-C , 22-H ) :   0.9361 B(  8-C , 23-H ) :   0.9416
B(  8-C , 24-H ) :   0.9379

MP2 TOTAL ENERGY:     -388.813093016 Eh
FINAL SINGLE POINT ENERGY      -388.813093016188

DIPOLE MOMENT
-------------
                                X             Y             Z
Electronic contribution:      1.32105      -5.20941       3.82226
Nuclear contribution   :     -1.73572       5.22514      -4.19561
                        -----------------------------------------
Total Dipole Moment    :     -0.41467       0.01574      -0.37335
                        -----------------------------------------
Magnitude (a.u.)       :      0.55820
Magnitude (Debye)      :      1.41882

                             ****ORCA TERMINATED NORMALLY****
TOTAL RUN TIME: 0 days 0 hours 21 minutes 21 seconds 201 msec
