                         Program Version 3.0.3 - RELEASE   -
|  1> ! RI-MP2 RIJK def2-TZVP def2-TZVP/C def2-TZVP/JK TIGHTSCF
|  2> % maxcore 2000
|  3> % mp2 density relaxed end
|  4> *xyz 0 1
|  5>  O       -0.0934201660     1.3818213687     0.0456132523
|  6>  N        0.0613745685    -0.0186436570    -0.0182606141
|  7>  C       -1.0488645763    -0.6030658205    -0.0531894389
|  8>  C       -2.5645761939    -0.4813514991     0.0048112602
|  9>  C       -2.6447179241    -1.5565896307    -1.1094297717
| 10>  C       -1.5760286487    -2.0362303982    -0.0730224544
| 11>  O       -2.5285556585    -1.5858202499     1.0062192591
| 12>  C       -0.9028141451    -3.2882659333     0.0403281620
| 13>  C       -0.3279583574    -4.3405881496     0.1123561905
| 14>  H        0.8218539000     1.6802145071     0.0837166945
| 15>  H       -3.2042962387     0.3711171055     0.2091257192
| 16>  H       -3.5614427496    -2.1473427390    -1.0883806656
| 17>  H       -2.3010810794    -1.3018555796    -2.1142135765
| 18>  H        0.1834417991    -5.2692008845     0.1830282033
| 19> *
| 20>
| 21>                          ****END OF INPUT****

CARTESIAN COORDINATES (ANGSTROEM)
---------------------------------
  O     -0.093420    1.381821    0.045613
  N      0.061375   -0.018644   -0.018261
  C     -1.048865   -0.603066   -0.053189
  C     -2.564576   -0.481351    0.004811
  C     -2.644718   -1.556590   -1.109430
  C     -1.576029   -2.036230   -0.073022
  O     -2.528556   -1.585820    1.006219
  C     -0.902814   -3.288266    0.040328
  C     -0.327958   -4.340588    0.112356
  H      0.821854    1.680215    0.083717
  H     -3.204296    0.371117    0.209126
  H     -3.561443   -2.147343   -1.088381
  H     -2.301081   -1.301856   -2.114214
  H      0.183442   -5.269201    0.183028

 Total Charge           Charge          ....    0
 Multiplicity           Mult            ....    1
 Number of Electrons    NEL             ....   64
 Basis Dimension        Dim             ....  309

ORBITAL ENERGIES
----------------

  NO   OCC          E(Eh)            E(eV)
   0   2.0000     -20.602320      -560.6176
   1   2.0000     -20.582141      -560.0685
   2   2.0000     -15.628538      -425.2741
   3   2.0000     -11.351522      -308.8906
   4   2.0000     -11.329726      -308.2975
   5   2.0000     -11.307054      -307.6806
   6   2.0000     -11.270048      -306.6736
   7   2.0000     -11.254945      -306.2626
   8   2.0000     -11.251035      -306.1562
   9   2.0000      -1.431980       -38.9662
  10   2.0000      -1.416271       -38.5387
  11   2.0000      -1.172302       -31.9000
  12   2.0000      -1.084860       -29.5205
  13   2.0000      -1.057085       -28.7647
  14   2.0000      -0.937191       -25.5023
  15   2.0000      -0.895231       -24.3605
  16   2.0000      -0.793793       -21.6002
  17   2.0000      -0.723661       -19.6918
  18   2.0000      -0.717366       -19.5205
  19   2.0000      -0.701931       -19.1005
  20   2.0000      -0.669486       -18.2176
  21   2.0000      -0.623543       -16.9675
  22   2.0000      -0.589516       -16.0416
  23   2.0000      -0.580313       -15.7911
  24   2.0000      -0.557983       -15.1835
  25   2.0000      -0.526925       -14.3383
  26   2.0000      -0.522959       -14.2304
  27   2.0000      -0.463637       -12.6162
  28   2.0000      -0.440783       -11.9943
  29   2.0000      -0.414385       -11.2760
  30   2.0000      -0.402387       -10.9495
  31   2.0000      -0.399735       -10.8773
  32   0.0000       0.125982         3.4281
  33   0.0000       0.142466         3.8767
  34   0.0000       0.146500         3.9865
  35   0.0000       0.149460         4.0670
  36   0.0000       0.165469         4.5026

MULLIKEN ATOMIC CHARGES
-----------------------
   0 O :   -0.354889
   1 N :   -0.077024
   2 C :    0.120529
   3 C :   -0.025233
   4 C :   -0.115821
   5 C :   -0.207946
   6 O :   -0.259854
   7 C :    0.012145
   8 C :   -0.067947
   9 H :    0.341813
  10 H :    0.166407
  11 H :    0.135199
  12 H :    0.129821
  13 H :    0.202800
Sum of atomic charges:   -0.0000000

LOEWDIN ATOMIC CHARGES
----------------------
   0 O :   -0.075655
   1 N :    0.033964
   2 C :   -0.212284
   3 C :   -0.179348
   4 C :   -0.144320
   5 C :   -0.215865
   6 O :    0.169286
   7 C :   -0.055334
   8 C :   -0.039230
   9 H :    0.172353
  10 H :    0.134593
  11 H :    0.142299
  12 H :    0.137248
  13 H :    0.132292

  Mayer bond orders larger than 0.1
B(  0-O ,  1-N ) :   0.7906 B(  0-O ,  9-H ) :   0.8408 B(  1-N ,  2-C ) :   1.9390
B(  2-C ,  3-C ) :   0.9000 B(  2-C ,  5-C ) :   0.9539 B(  3-C ,  4-C ) :   0.9223
B(  3-C ,  6-O ) :   0.9024 B(  3-C , 10-H ) :   0.8802 B(  4-C ,  5-C ) :   0.8790
B(  4-C , 11-H ) :   0.9067 B(  4-C , 12-H ) :   0.9064 B(  5-C ,  6-O ) :   0.9243
B(  5-C ,  7-C ) :   1.2258 B(  5-C ,  8-C ) :  -0.1687 B(  7-C ,  8-C ) :   2.6381
B(  8-C , 13-H ) :   0.8582

MP2 TOTAL ENERGY:     -435.780729917 Eh
FINAL SINGLE POINT ENERGY      -435.780729917361

DIPOLE MOMENT
-------------
                                X             Y             Z
Electronic contribution:      1.57778       0.17587       1.86354
Nuclear contribution   :     -1.53266      -0.19066      -2.57626
                        -----------------------------------------
Total Dipole Moment    :      0.04512      -0.01479      -0.71271
                        -----------------------------------------
Magnitude (a.u.)       :      0.71429
Magnitude (Debye)      :      1.81559

                             ****ORCA TERMINATED NORMALLY****
TOTAL RUN TIME: 0 days 0 hours 14 minutes 15 seconds 804 msec
