                         Program Version 3.0.3 - RELEASE   -
|  1> ! RI-MP2 RIJK def2-TZVP def2-TZVP/C def2-TZVP/JK TIGHTSCF
|  2> % maxcore 2000
|  3> % mp2 density relaxed end
|  4> *xyz 0 1
|  5>  N        0.3098752925    -1.1444564146    -0.0736860495
|  6>  C        0.1859891711     0.0036394104    -0.0533327564
|  7>  C       -0.0277247839     1.4395015202    -0.0143362448
|  8>  C       -0.1841336285     2.2230568408     1.3529752559
|  9>  C        1.0513246914     2.8564703502     2.0243491406
| 10>  C        2.4994507592     2.4750756566     1.6854371244
| 11>  N        2.3210350077     1.9271075459     0.3133707936
| 12>  C        1.1827656321     2.3616379572    -0.0463445415
| 13>  N        0.5101011636     3.4137546174     0.7827438324
| 14>  H       -0.8745823681     1.7272623271    -0.6442098362
| 15>  H       -1.1654554745     2.3311852977     1.8101172185
| 16>  H        0.8317629223     3.4053252782     2.9377961867
| 17>  H        3.1483319394     3.3585810629     1.7559270901
| 18>  H        2.9327175358     1.6791205401     2.2968642463
| 19> *
| 20>
| 21>                          ****END OF INPUT****

CARTESIAN COORDINATES (ANGSTROEM)
---------------------------------
  N      0.309875   -1.144456   -0.073686
  C      0.185989    0.003639   -0.053333
  C     -0.027725    1.439502   -0.014336
  C     -0.184134    2.223057    1.352975
  C      1.051325    2.856470    2.024349
  C      2.499451    2.475076    1.685437
  N      2.321035    1.927108    0.313371
  C      1.182766    2.361638   -0.046345
  N      0.510101    3.413755    0.782744
  H     -0.874582    1.727262   -0.644210
  H     -1.165455    2.331185    1.810117
  H      0.831763    3.405325    2.937796
  H      3.148332    3.358581    1.755927
  H      2.932718    1.679121    2.296864

 Total Charge           Charge          ....    0
 Multiplicity           Mult            ....    1
 Number of Electrons    NEL             ....   62
 Basis Dimension        Dim             ....  309

ORBITAL ENERGIES
----------------

  NO   OCC          E(Eh)            E(eV)
   0   2.0000     -15.604099      -424.6091
   1   2.0000     -15.584474      -424.0751
   2   2.0000     -15.578707      -423.9182
   3   2.0000     -11.351621      -308.8933
   4   2.0000     -11.336836      -308.4910
   5   2.0000     -11.326508      -308.2100
   6   2.0000     -11.314464      -307.8822
   7   2.0000     -11.292897      -307.2953
   8   2.0000     -11.284969      -307.0796
   9   2.0000      -1.391875       -37.8748
  10   2.0000      -1.230388       -33.4806
  11   2.0000      -1.222013       -33.2527
  12   2.0000      -1.096427       -29.8353
  13   2.0000      -0.991815       -26.9887
  14   2.0000      -0.893725       -24.3195
  15   2.0000      -0.848509       -23.0891
  16   2.0000      -0.791387       -21.5347
  17   2.0000      -0.728547       -19.8248
  18   2.0000      -0.685501       -18.6534
  19   2.0000      -0.676603       -18.4113
  20   2.0000      -0.615660       -16.7530
  21   2.0000      -0.601709       -16.3733
  22   2.0000      -0.574498       -15.6329
  23   2.0000      -0.560322       -15.2471
  24   2.0000      -0.552740       -15.0408
  25   2.0000      -0.494737       -13.4625
  26   2.0000      -0.473994       -12.8980
  27   2.0000      -0.471186       -12.8216
  28   2.0000      -0.463669       -12.6171
  29   2.0000      -0.420710       -11.4481
  30   2.0000      -0.389120       -10.5885
  31   0.0000       0.069164         1.8820
  32   0.0000       0.126916         3.4536
  33   0.0000       0.142184         3.8690
  34   0.0000       0.148422         4.0388
  35   0.0000       0.161733         4.4010

MULLIKEN ATOMIC CHARGES
-----------------------
   0 N :   -0.038852
   1 C :   -0.195786
   2 C :    0.070132
   3 C :   -0.081000
   4 C :   -0.114830
   5 C :   -0.088107
   6 N :   -0.234750
   7 C :    0.150154
   8 N :   -0.198862
   9 H :    0.167820
  10 H :    0.148326
  11 H :    0.140381
  12 H :    0.131682
  13 H :    0.143691
Sum of atomic charges:    0.0000000

LOEWDIN ATOMIC CHARGES
----------------------
   0 N :    0.085811
   1 C :   -0.157156
   2 C :   -0.156013
   3 C :   -0.141174
   4 C :   -0.218410
   5 C :   -0.237627
   6 N :    0.148571
   7 C :   -0.248918
   8 N :    0.167347
   9 H :    0.182875
  10 H :    0.143272
  11 H :    0.150813
  12 H :    0.139592
  13 H :    0.141016

  Mayer bond orders larger than 0.1
B(  0-N ,  1-C ) :   2.8369 B(  1-C ,  2-C ) :   0.9415 B(  2-C ,  3-C ) :   0.8476
B(  2-C ,  7-C ) :   0.9549 B(  2-C ,  9-H ) :   0.8799 B(  3-C ,  4-C ) :   0.9206
B(  3-C ,  8-N ) :   0.8244 B(  3-C , 10-H ) :   0.8925 B(  4-C ,  5-C ) :   0.9581
B(  4-C ,  8-N ) :   0.9136 B(  4-C , 11-H ) :   0.9043 B(  5-C ,  6-N ) :   0.8878
B(  5-C , 12-H ) :   0.9030 B(  5-C , 13-H ) :   0.9176 B(  6-N ,  7-C ) :   1.8405
B(  7-C ,  8-N ) :   0.9272

MP2 TOTAL ENERGY:     -394.938074405 Eh
FINAL SINGLE POINT ENERGY      -394.938074404637

DIPOLE MOMENT
-------------
                                X             Y             Z
Electronic contribution:     -0.90079      -2.31037      -3.48830
Nuclear contribution   :      0.42181       3.53959       4.41826
                        -----------------------------------------
Total Dipole Moment    :     -0.47899       1.22923       0.92996
                        -----------------------------------------
Magnitude (a.u.)       :      1.61408
Magnitude (Debye)      :      4.10267

                             ****ORCA TERMINATED NORMALLY****
TOTAL RUN TIME: 0 days 0 hours 16 minutes 30 seconds 122 msec
