                         Program Version 3.0.3 - RELEASE   -
|  1> ! RI-MP2 RIJK def2-TZVP def2-TZVP/C def2-TZVP/JK TIGHTSCF
|  2> % maxcore 2000
|  3> % mp2 density relaxed end
|  4> *xyz 0 1
|  5>  C       -0.0274581354     1.5215038883     0.0050060696
|  6>  C        0.0222700223     0.0162049714    -0.0219022931
|  7>  C        0.6588289590    -0.7486870811    -1.2136805359
|  8>  C        0.9363163069    -2.0917434345    -0.6097451786
|  9>  C        1.2547005043    -1.9570603834     0.8699997778
| 10>  C        0.3576823320    -0.7920328794     1.3139985276
| 11>  C       -1.1267093669    -1.2548311793     1.3833717582
| 12>  C       -1.2504898576    -0.8887608707    -0.1087688556
| 13>  C       -0.4691133879    -1.7745990799    -1.1040581756
| 14>  H        0.9754118610     1.9505979748     0.1225638790
| 15>  H       -0.4517377952     1.9211522579    -0.9232539180
| 16>  H       -0.6424257299     1.8866891862     0.8354163568
| 17>  H        1.1513206677    -0.3270436427    -2.0816258194
| 18>  H        1.4755169654    -2.8203658714    -1.2072195440
| 19>  H        1.0525325726    -2.8662987846     1.4477982299
| 20>  H        2.3180335941    -1.7162558606     0.9947170567
| 21>  H        0.7484446754    -0.2333724091     2.1670151328
| 22>  H       -1.3102362091    -2.2910090052     1.6854252048
| 23>  H       -1.7377240771    -0.5923348626     2.0041997381
| 24>  H       -2.1918117131    -0.5026744902    -0.5063044596
| 25>  H       -0.9165558684    -2.3738964338    -1.8887260117
| 26> *
| 27>
| 28>                          ****END OF INPUT****

CARTESIAN COORDINATES (ANGSTROEM)
---------------------------------
  C     -0.027458    1.521504    0.005006
  C      0.022270    0.016205   -0.021902
  C      0.658829   -0.748687   -1.213681
  C      0.936316   -2.091743   -0.609745
  C      1.254701   -1.957060    0.870000
  C      0.357682   -0.792033    1.313999
  C     -1.126709   -1.254831    1.383372
  C     -1.250490   -0.888761   -0.108769
  C     -0.469113   -1.774599   -1.104058
  H      0.975412    1.950598    0.122564
  H     -0.451738    1.921152   -0.923254
  H     -0.642426    1.886689    0.835416
  H      1.151321   -0.327044   -2.081626
  H      1.475517   -2.820366   -1.207220
  H      1.052533   -2.866299    1.447798
  H      2.318034   -1.716256    0.994717
  H      0.748445   -0.233372    2.167015
  H     -1.310236   -2.291009    1.685425
  H     -1.737724   -0.592335    2.004200
  H     -2.191812   -0.502674   -0.506304
  H     -0.916556   -2.373896   -1.888726

 Total Charge           Charge          ....    0
 Multiplicity           Mult            ....    1
 Number of Electrons    NEL             ....   66
 Basis Dimension        Dim             ....  351

ORBITAL ENERGIES
----------------

  NO   OCC          E(Eh)            E(eV)
   0   2.0000     -11.227551      -305.5172
   1   2.0000     -11.225782      -305.4691
   2   2.0000     -11.225035      -305.4487
   3   2.0000     -11.219739      -305.3046
   4   2.0000     -11.219683      -305.3031
   5   2.0000     -11.218201      -305.2628
   6   2.0000     -11.214145      -305.1524
   7   2.0000     -11.213239      -305.1277
   8   2.0000     -11.209941      -305.0380
   9   2.0000      -1.217699       -33.1353
  10   2.0000      -1.062410       -28.9096
  11   2.0000      -1.008565       -27.4444
  12   2.0000      -0.976002       -26.5584
  13   2.0000      -0.860035       -23.4027
  14   2.0000      -0.842988       -22.9389
  15   2.0000      -0.785272       -21.3683
  16   2.0000      -0.749466       -20.3940
  17   2.0000      -0.691827       -18.8256
  18   2.0000      -0.655947       -17.8492
  19   2.0000      -0.613888       -16.7048
  20   2.0000      -0.601301       -16.3622
  21   2.0000      -0.587944       -15.9988
  22   2.0000      -0.556131       -15.1331
  23   2.0000      -0.552408       -15.0318
  24   2.0000      -0.541940       -14.7469
  25   2.0000      -0.529168       -14.3994
  26   2.0000      -0.493029       -13.4160
  27   2.0000      -0.457214       -12.4414
  28   2.0000      -0.444044       -12.0831
  29   2.0000      -0.410150       -11.1608
  30   2.0000      -0.402395       -10.9497
  31   2.0000      -0.378640       -10.3033
  32   2.0000      -0.351724        -9.5709
  33   0.0000       0.138636         3.7725
  34   0.0000       0.158790         4.3209
  35   0.0000       0.166909         4.5418
  36   0.0000       0.172300         4.6885
  37   0.0000       0.189688         5.1617

MULLIKEN ATOMIC CHARGES
-----------------------
   0 C :   -0.431172
   1 C :    0.202815
   2 C :   -0.252519
   3 C :   -0.129304
   4 C :   -0.223451
   5 C :   -0.052630
   6 C :   -0.305734
   7 C :   -0.056663
   8 C :   -0.182881
   9 H :    0.131621
  10 H :    0.133752
  11 H :    0.133892
  12 H :    0.129782
  13 H :    0.120301
  14 H :    0.109613
  15 H :    0.108403
  16 H :    0.108596
  17 H :    0.107965
  18 H :    0.114217
  19 H :    0.107027
  20 H :    0.126372
Sum of atomic charges:   -0.0000000

LOEWDIN ATOMIC CHARGES
----------------------
   0 C :   -0.275497
   1 C :   -0.173915
   2 C :   -0.121875
   3 C :   -0.179965
   4 C :   -0.213868
   5 C :   -0.160599
   6 C :   -0.204085
   7 C :   -0.148523
   8 C :   -0.133158
   9 H :    0.128129
  10 H :    0.128347
  11 H :    0.128733
  12 H :    0.133859
  13 H :    0.148817
  14 H :    0.137246
  15 H :    0.139429
  16 H :    0.135709
  17 H :    0.125289
  18 H :    0.134843
  19 H :    0.137048
  20 H :    0.134034

  Mayer bond orders larger than 0.1
B(  0-C ,  1-C ) :   0.8309 B(  0-C ,  9-H ) :   0.9429 B(  0-C , 10-H ) :   0.9443
B(  0-C , 11-H ) :   0.9491 B(  1-C ,  2-C ) :   0.9233 B(  1-C ,  5-C ) :   0.8709
B(  1-C ,  7-C ) :   0.9402 B(  2-C ,  3-C ) :   0.8740 B(  2-C ,  8-C ) :   0.8535
B(  2-C , 12-H ) :   0.9198 B(  3-C ,  4-C ) :   0.9607 B(  3-C ,  8-C ) :   0.8737
B(  3-C , 13-H ) :   0.9382 B(  4-C ,  5-C ) :   0.9296 B(  4-C , 14-H ) :   0.9219
B(  4-C , 15-H ) :   0.9199 B(  5-C ,  6-C ) :   0.9178 B(  5-C , 16-H ) :   0.9223
B(  6-C ,  7-C ) :   0.9249 B(  6-C , 17-H ) :   0.9139 B(  6-C , 18-H ) :   0.9228
B(  7-C ,  8-C ) :   0.9031 B(  7-C , 19-H ) :   0.9254 B(  8-C , 20-H ) :   0.9297

MP2 TOTAL ENERGY:     -349.280112960 Eh
FINAL SINGLE POINT ENERGY      -349.280112959806

DIPOLE MOMENT
-------------
                                X             Y             Z
Electronic contribution:      0.05689      -2.16530      -1.71010
Nuclear contribution   :     -0.00332       2.24598       1.65747
                        -----------------------------------------
Total Dipole Moment    :      0.05357       0.08068      -0.05263
                        -----------------------------------------
Magnitude (a.u.)       :      0.11022
Magnitude (Debye)      :      0.28016

                             ****ORCA TERMINATED NORMALLY****
TOTAL RUN TIME: 0 days 0 hours 21 minutes 30 seconds 620 msec
