                         Program Version 3.0.3 - RELEASE   -
|  1> ! RI-MP2 RIJK def2-TZVP def2-TZVP/C def2-TZVP/JK TIGHTSCF
|  2> % maxcore 2000
|  3> % mp2 density relaxed end
|  4> *xyz 0 1
|  5>  C        0.3202524236     1.5713324202    -0.1707350520
|  6>  C       -0.0258735802     0.1182889214     0.0889987367
|  7>  O        0.6009762540    -0.7711992267    -0.8725263211
|  8>  C        1.2444795979    -1.5351850172     0.1504686157
|  9>  C        1.0915419647    -3.0682541721     0.1222666638
| 10>  O        2.5222493387    -3.2501825286     0.1472368775
| 11>  C        2.7481576400    -1.8345125203    -0.0095028354
| 12>  C        0.6406211076    -0.6503063102     1.2660492727
| 13>  C        1.5875367338     0.0845573552     2.2039741908
| 14>  H        1.4005803081     1.7385861743    -0.1602689911
| 15>  H       -0.0572299054     1.8676634809    -1.1543892257
| 16>  H       -0.1429620013     2.2211760436     0.5796443725
| 17>  H       -1.1164666112    -0.0083264883     0.0624137902
| 18>  H        0.5986579572    -3.5373645620     0.9831818855
| 19>  H        0.6374174663    -3.4340255622    -0.8080759304
| 20>  H        3.1206337390    -1.5751711393    -1.0093524281
| 21>  H        3.4310469314    -1.4382542400     0.7510594439
| 22>  H       -0.0980276648    -1.2018472007     1.8556006670
| 23>  H        2.3651195837     0.6319179055     1.6633695931
| 24>  H        1.0427743816     0.8034580910     2.8247178998
| 25>  H        2.0865680454    -0.6202512845     2.8773228344
| 26> *
| 27>
| 28>                          ****END OF INPUT****

CARTESIAN COORDINATES (ANGSTROEM)
---------------------------------
  C      0.320252    1.571332   -0.170735
  C     -0.025874    0.118289    0.088999
  O      0.600976   -0.771199   -0.872526
  C      1.244480   -1.535185    0.150469
  C      1.091542   -3.068254    0.122267
  O      2.522249   -3.250183    0.147237
  C      2.748158   -1.834513   -0.009503
  C      0.640621   -0.650306    1.266049
  C      1.587537    0.084557    2.203974
  H      1.400580    1.738586   -0.160269
  H     -0.057230    1.867663   -1.154389
  H     -0.142962    2.221176    0.579644
  H     -1.116467   -0.008326    0.062414
  H      0.598658   -3.537365    0.983182
  H      0.637417   -3.434026   -0.808076
  H      3.120634   -1.575171   -1.009352
  H      3.431047   -1.438254    0.751059
  H     -0.098028   -1.201847    1.855601
  H      2.365120    0.631918    1.663370
  H      1.042774    0.803458    2.824718
  H      2.086568   -0.620251    2.877323

 Total Charge           Charge          ....    0
 Multiplicity           Mult            ....    1
 Number of Electrons    NEL             ....   70
 Basis Dimension        Dim             ....  351

ORBITAL ENERGIES
----------------

  NO   OCC          E(Eh)            E(eV)
   0   2.0000     -20.552343      -559.2577
   1   2.0000     -20.547687      -559.1310
   2   2.0000     -11.290423      -307.2280
   3   2.0000     -11.287442      -307.1469
   4   2.0000     -11.274471      -306.7940
   5   2.0000     -11.274414      -306.7924
   6   2.0000     -11.242262      -305.9175
   7   2.0000     -11.229180      -305.5615
   8   2.0000     -11.222147      -305.3702
   9   2.0000      -1.396420       -37.9985
  10   2.0000      -1.367093       -37.2005
  11   2.0000      -1.065762       -29.0009
  12   2.0000      -1.022904       -27.8346
  13   2.0000      -0.959141       -26.0995
  14   2.0000      -0.937529       -25.5114
  15   2.0000      -0.897961       -24.4348
  16   2.0000      -0.795953       -21.6590
  17   2.0000      -0.716981       -19.5100
  18   2.0000      -0.696287       -18.9469
  19   2.0000      -0.683411       -18.5966
  20   2.0000      -0.655832       -17.8461
  21   2.0000      -0.614629       -16.7249
  22   2.0000      -0.607878       -16.5412
  23   2.0000      -0.582741       -15.8572
  24   2.0000      -0.574187       -15.6244
  25   2.0000      -0.556154       -15.1337
  26   2.0000      -0.549615       -14.9558
  27   2.0000      -0.543399       -14.7866
  28   2.0000      -0.514255       -13.9936
  29   2.0000      -0.508629       -13.8405
  30   2.0000      -0.496850       -13.5200
  31   2.0000      -0.450967       -12.2714
  32   2.0000      -0.438147       -11.9226
  33   2.0000      -0.409430       -11.1412
  34   2.0000      -0.402788       -10.9604
  35   0.0000       0.125957         3.4275
  36   0.0000       0.150921         4.1068
  37   0.0000       0.157970         4.2986
  38   0.0000       0.179040         4.8719
  39   0.0000       0.184015         5.0073

MULLIKEN ATOMIC CHARGES
-----------------------
   0 C :   -0.398044
   1 C :    0.089011
   2 O :   -0.315870
   3 C :    0.110383
   4 C :   -0.031718
   5 O :   -0.332065
   6 C :   -0.025671
   7 C :   -0.058104
   8 C :   -0.462503
   9 H :    0.125494
  10 H :    0.144499
  11 H :    0.126528
  12 H :    0.087577
  13 H :    0.094453
  14 H :    0.101551
  15 H :    0.101043
  16 H :    0.102715
  17 H :    0.114096
  18 H :    0.134499
  19 H :    0.140452
  20 H :    0.151674
Sum of atomic charges:    0.0000000

LOEWDIN ATOMIC CHARGES
----------------------
   0 C :   -0.295515
   1 C :   -0.275073
   2 O :    0.185543
   3 C :   -0.292308
   4 C :   -0.236118
   5 O :    0.111064
   6 C :   -0.236369
   7 C :   -0.204816
   8 C :   -0.293639
   9 H :    0.124228
  10 H :    0.130952
  11 H :    0.128278
  12 H :    0.134348
  13 H :    0.118109
  14 H :    0.124214
  15 H :    0.124584
  16 H :    0.119220
  17 H :    0.150555
  18 H :    0.125041
  19 H :    0.127941
  20 H :    0.129760

  Mayer bond orders larger than 0.1
B(  0-C ,  1-C ) :   0.9093 B(  0-C ,  9-H ) :   0.9409 B(  0-C , 10-H ) :   0.9324
B(  0-C , 11-H ) :   0.9275 B(  1-C ,  2-O ) :   0.9320 B(  1-C ,  7-C ) :   0.9252
B(  1-C , 12-H ) :   0.9155 B(  2-O ,  3-C ) :   1.0220 B(  3-C ,  4-C ) :   0.9610
B(  3-C ,  6-C ) :   0.9489 B(  3-C ,  7-C ) :   0.8963 B(  4-C ,  5-O ) :   0.9624
B(  4-C , 13-H ) :   0.9068 B(  4-C , 14-H ) :   0.9001 B(  5-O ,  6-C ) :   0.9635
B(  6-C , 15-H ) :   0.9000 B(  6-C , 16-H ) :   0.9041 B(  7-C ,  8-C ) :   0.9015
B(  7-C , 17-H ) :   0.9226 B(  8-C , 18-H ) :   0.9393 B(  8-C , 19-H ) :   0.9351
B(  8-C , 20-H ) :   0.9371

MP2 TOTAL ENERGY:     -423.484228265 Eh
FINAL SINGLE POINT ENERGY      -423.484228264605

DIPOLE MOMENT
-------------
                                X             Y             Z
Electronic contribution:      0.64982      -6.57520      -3.66179
Nuclear contribution   :     -1.13063       7.36088       4.33910
                        -----------------------------------------
Total Dipole Moment    :     -0.48081       0.78567       0.67731
                        -----------------------------------------
Magnitude (a.u.)       :      1.14333
Magnitude (Debye)      :      2.90612

                             ****ORCA TERMINATED NORMALLY****
TOTAL RUN TIME: 0 days 0 hours 18 minutes 34 seconds 248 msec
