                         Program Version 3.0.3 - RELEASE   -
|  1> ! RI-MP2 RIJK def2-TZVP def2-TZVP/C def2-TZVP/JK TIGHTSCF
|  2> % maxcore 2000
|  3> % mp2 density relaxed end
|  4> *xyz 0 1
|  5>  C       -0.3639138842     1.5098632688    -0.0181447788
|  6>  C       -0.0156067344     0.0253744658     0.0291884454
|  7>  C        0.8726943492    -0.4676923539    -1.1345252464
|  8>  C        1.5972097311    -1.7419436351    -0.6161924714
|  9>  C        1.1934270980    -1.8809726417     0.8721942532
| 10>  C        0.7503818880    -0.4574684656     1.2963998713
| 11>  C        1.8946762269     0.3884878648     1.6250752540
| 12>  C        2.8480419367     1.0736469134     1.8883396643
| 13>  H        0.5404836686     2.1234717766     0.0368182251
| 14>  H       -0.8861384413     1.7559501231    -0.9487535851
| 15>  H       -1.0156551179     1.7966480782     0.8142064441
| 16>  H       -0.9490237997    -0.5536908940     0.0170490371
| 17>  H        0.2819231659    -0.6543284711    -2.0359056092
| 18>  H        1.6029822465     0.3075412487    -1.3892463374
| 19>  H        1.3236851663    -2.6352172797    -1.1842218335
| 20>  H        2.6805028940    -1.6287370055    -0.7091073091
| 21>  H        0.3329044050    -2.5511573596     0.9746355969
| 22>  H        1.9946565108    -2.2758771534     1.5004006268
| 23>  H        0.0814170720    -0.4920308886     2.1642946867
| 24>  H        3.6850482782     1.6798845287     2.1317361461
| 25> *
| 26>
| 27>                          ****END OF INPUT****

CARTESIAN COORDINATES (ANGSTROEM)
---------------------------------
  C     -0.363914    1.509863   -0.018145
  C     -0.015607    0.025374    0.029188
  C      0.872694   -0.467692   -1.134525
  C      1.597210   -1.741944   -0.616192
  C      1.193427   -1.880973    0.872194
  C      0.750382   -0.457468    1.296400
  C      1.894676    0.388488    1.625075
  C      2.848042    1.073647    1.888340
  H      0.540484    2.123472    0.036818
  H     -0.886138    1.755950   -0.948754
  H     -1.015655    1.796648    0.814206
  H     -0.949024   -0.553691    0.017049
  H      0.281923   -0.654328   -2.035906
  H      1.602982    0.307541   -1.389246
  H      1.323685   -2.635217   -1.184222
  H      2.680503   -1.628737   -0.709107
  H      0.332904   -2.551157    0.974636
  H      1.994657   -2.275877    1.500401
  H      0.081417   -0.492031    2.164295
  H      3.685048    1.679885    2.131736

 Total Charge           Charge          ....    0
 Multiplicity           Mult            ....    1
 Number of Electrons    NEL             ....   60
 Basis Dimension        Dim             ....  320

ORBITAL ENERGIES
----------------

  NO   OCC          E(Eh)            E(eV)
   0   2.0000     -11.247739      -306.0665
   1   2.0000     -11.230348      -305.5933
   2   2.0000     -11.227420      -305.5136
   3   2.0000     -11.223729      -305.4132
   4   2.0000     -11.216755      -305.2234
   5   2.0000     -11.214945      -305.1742
   6   2.0000     -11.214590      -305.1645
   7   2.0000     -11.209433      -305.0242
   8   2.0000      -1.139511       -31.0077
   9   2.0000      -1.028384       -27.9837
  10   2.0000      -1.007574       -27.4175
  11   2.0000      -0.960266       -26.1302
  12   2.0000      -0.894824       -24.3494
  13   2.0000      -0.804594       -21.8941
  14   2.0000      -0.767423       -20.8827
  15   2.0000      -0.705079       -19.1862
  16   2.0000      -0.667016       -18.1504
  17   2.0000      -0.632864       -17.2211
  18   2.0000      -0.602965       -16.4075
  19   2.0000      -0.597285       -16.2530
  20   2.0000      -0.560715       -15.2578
  21   2.0000      -0.530260       -14.4291
  22   2.0000      -0.497369       -13.5341
  23   2.0000      -0.485821       -13.2199
  24   2.0000      -0.475295       -12.9334
  25   2.0000      -0.472353       -12.8534
  26   2.0000      -0.457705       -12.4548
  27   2.0000      -0.449276       -12.2254
  28   2.0000      -0.379546       -10.3280
  29   2.0000      -0.375849       -10.2274
  30   0.0000       0.128895         3.5074
  31   0.0000       0.153280         4.1710
  32   0.0000       0.158890         4.3236
  33   0.0000       0.167749         4.5647
  34   0.0000       0.178809         4.8656

MULLIKEN ATOMIC CHARGES
-----------------------
   0 C :   -0.403282
   1 C :   -0.070426
   2 C :   -0.263380
   3 C :   -0.224996
   4 C :   -0.250818
   5 C :   -0.020507
   6 C :   -0.098483
   7 C :   -0.189361
   8 H :    0.140931
   9 H :    0.132027
  10 H :    0.128895
  11 H :    0.090121
  12 H :    0.120318
  13 H :    0.118837
  14 H :    0.115813
  15 H :    0.119996
  16 H :    0.114918
  17 H :    0.132581
  18 H :    0.122013
  19 H :    0.184802
Sum of atomic charges:    0.0000000

LOEWDIN ATOMIC CHARGES
----------------------
   0 C :   -0.291314
   1 C :   -0.243555
   2 C :   -0.229832
   3 C :   -0.247794
   4 C :   -0.218910
   5 C :   -0.217115
   6 C :   -0.083620
   7 C :   -0.107705
   8 H :    0.129166
   9 H :    0.124523
  10 H :    0.124338
  11 H :    0.154283
  12 H :    0.132655
  13 H :    0.140188
  14 H :    0.131388
  15 H :    0.136534
  16 H :    0.137307
  17 H :    0.137789
  18 H :    0.166179
  19 H :    0.125495

  Mayer bond orders larger than 0.1
B(  0-C ,  1-C ) :   0.9093 B(  0-C ,  8-H ) :   0.9300 B(  0-C ,  9-H ) :   0.9409
B(  0-C , 10-H ) :   0.9385 B(  1-C ,  2-C ) :   0.9461 B(  1-C ,  5-C ) :   0.8648
B(  1-C , 11-H ) :   0.9258 B(  2-C ,  3-C ) :   0.9337 B(  2-C , 12-H ) :   0.9306
B(  2-C , 13-H ) :   0.9244 B(  3-C ,  4-C ) :   0.9547 B(  3-C , 14-H ) :   0.9334
B(  3-C , 15-H ) :   0.9318 B(  4-C ,  5-C ) :   0.8583 B(  4-C , 16-H ) :   0.9261
B(  4-C , 17-H ) :   0.9296 B(  5-C ,  6-C ) :   1.1116 B(  5-C , 18-H ) :   0.9316
B(  6-C ,  7-C ) :   2.5804 B(  7-C , 19-H ) :   0.9044

MP2 TOTAL ENERGY:     -311.277102990 Eh
FINAL SINGLE POINT ENERGY      -311.277102990468

DIPOLE MOMENT
-------------
                                X             Y             Z
Electronic contribution:      2.72675       0.51814       3.66093
Nuclear contribution   :     -2.91029      -0.66786      -3.78442
                        -----------------------------------------
Total Dipole Moment    :     -0.18354      -0.14973      -0.12349
                        -----------------------------------------
Magnitude (a.u.)       :      0.26713
Magnitude (Debye)      :      0.67898

                             ****ORCA TERMINATED NORMALLY****
TOTAL RUN TIME: 0 days 0 hours 15 minutes 17 seconds 775 msec
