                         Program Version 3.0.3 - RELEASE   -
|  1> ! RI-MP2 RIJK def2-TZVP def2-TZVP/C def2-TZVP/JK TIGHTSCF
|  2> % maxcore 2000
|  3> % mp2 density relaxed end
|  4> *xyz 0 1
|  5>  C       -0.0340237167     1.5334684606     0.0119693521
|  6>  C        1.3015832763     0.8079835680     0.0014807353
|  7>  C        2.1637877519     0.7552570030     1.1970421495
|  8>  C        1.8404859405     0.1025214867     2.3211942286
|  9>  C        0.5745239176    -0.6469247637     2.4571715613
| 10>  O       -0.6675528307     0.1019823231     2.4533531222
| 11>  C       -0.3578054716    -0.6876194439     1.3089025171
| 12>  C       -0.0147934351     0.0330109673     0.0383134888
| 13>  H       -0.3231090552     2.0286447357     0.9307635942
| 14>  H       -0.3384886643     2.0245796239    -0.9052500477
| 15>  H        1.8308904291     0.8327407819    -0.9465262236
| 16>  H        3.1223824886     1.2639289714     1.1320417241
| 17>  H        2.5264657340     0.0867883627     3.1624108078
| 18>  H        0.5686753421    -1.4682614887     3.1718030631
| 19>  H       -0.9863340816    -1.5694159900     1.1886318067
| 20>  H       -0.2955283349    -0.4925760581    -0.8677620794
| 21> *
| 22>
| 23>                          ****END OF INPUT****

CARTESIAN COORDINATES (ANGSTROEM)
---------------------------------
  C     -0.034024    1.533468    0.011969
  C      1.301583    0.807984    0.001481
  C      2.163788    0.755257    1.197042
  C      1.840486    0.102521    2.321194
  C      0.574524   -0.646925    2.457172
  O     -0.667553    0.101982    2.453353
  C     -0.357805   -0.687619    1.308903
  C     -0.014793    0.033011    0.038313
  H     -0.323109    2.028645    0.930764
  H     -0.338489    2.024580   -0.905250
  H      1.830890    0.832741   -0.946526
  H      3.122382    1.263929    1.132042
  H      2.526466    0.086788    3.162411
  H      0.568675   -1.468261    3.171803
  H     -0.986334   -1.569416    1.188632
  H     -0.295528   -0.492576   -0.867762

 Total Charge           Charge          ....    0
 Multiplicity           Mult            ....    1
 Number of Electrons    NEL             ....   58
 Basis Dimension        Dim             ....  296

ORBITAL ENERGIES
----------------

  NO   OCC          E(Eh)            E(eV)
   0   2.0000     -20.561762      -559.5140
   1   2.0000     -11.286638      -307.1250
   2   2.0000     -11.284090      -307.0557
   3   2.0000     -11.241390      -305.8938
   4   2.0000     -11.240588      -305.8719
   5   2.0000     -11.239942      -305.8544
   6   2.0000     -11.230837      -305.6066
   7   2.0000     -11.228198      -305.5348
   8   2.0000      -1.404603       -38.2212
   9   2.0000      -1.162240       -31.6262
  10   2.0000      -1.057687       -28.7811
  11   2.0000      -0.954021       -25.9602
  12   2.0000      -0.892407       -24.2836
  13   2.0000      -0.840815       -22.8797
  14   2.0000      -0.790832       -21.5196
  15   2.0000      -0.727105       -19.7855
  16   2.0000      -0.685123       -18.6431
  17   2.0000      -0.661878       -18.0106
  18   2.0000      -0.647080       -17.6079
  19   2.0000      -0.620946       -16.8968
  20   2.0000      -0.553281       -15.0556
  21   2.0000      -0.543152       -14.7799
  22   2.0000      -0.528139       -14.3714
  23   2.0000      -0.512339       -13.9415
  24   2.0000      -0.480909       -13.0862
  25   2.0000      -0.454245       -12.3606
  26   2.0000      -0.436679       -11.8827
  27   2.0000      -0.389726       -10.6050
  28   2.0000      -0.342909        -9.3310
  29   0.0000       0.134014         3.6467
  30   0.0000       0.145868         3.9693
  31   0.0000       0.168425         4.5831
  32   0.0000       0.171146         4.6571
  33   0.0000       0.184477         5.0199

MULLIKEN ATOMIC CHARGES
-----------------------
   0 C :   -0.293158
   1 C :   -0.043105
   2 C :   -0.188289
   3 C :   -0.185094
   4 C :    0.070338
   5 O :   -0.322752
   6 C :   -0.022498
   7 C :   -0.054874
   8 H :    0.162224
   9 H :    0.133339
  10 H :    0.124645
  11 H :    0.123989
  12 H :    0.126966
  13 H :    0.111959
  14 H :    0.128040
  15 H :    0.128270
Sum of atomic charges:   -0.0000000

LOEWDIN ATOMIC CHARGES
----------------------
   0 C :   -0.181697
   1 C :   -0.184247
   2 C :   -0.131317
   3 C :   -0.155954
   4 C :   -0.242133
   5 O :    0.166904
   6 C :   -0.246142
   7 C :   -0.182130
   8 H :    0.144413
   9 H :    0.133621
  10 H :    0.151990
  11 H :    0.148081
  12 H :    0.145631
  13 H :    0.139339
  14 H :    0.141315
  15 H :    0.152328

  Mayer bond orders larger than 0.1
B(  0-C ,  1-C ) :   0.8435 B(  0-C ,  7-C ) :   0.8761 B(  0-C ,  8-H ) :   0.9165
B(  0-C ,  9-H ) :   0.9262 B(  1-C ,  2-C ) :   0.9818 B(  1-C ,  7-C ) :   0.8501
B(  1-C , 10-H ) :   0.9272 B(  2-C ,  3-C ) :   1.7416 B(  2-C , 11-H ) :   0.9267
B(  3-C ,  4-C ) :   0.9325 B(  3-C , 12-H ) :   0.9292 B(  4-C ,  5-O ) :   0.8760
B(  4-C ,  6-C ) :   0.9730 B(  4-C , 13-H ) :   0.9382 B(  5-O ,  6-C ) :   0.9123
B(  6-C ,  7-C ) :   0.9691 B(  6-C , 14-H ) :   0.9173 B(  7-C , 15-H ) :   0.9259

MP2 TOTAL ENERGY:     -345.970364312 Eh
FINAL SINGLE POINT ENERGY      -345.970364311811

DIPOLE MOMENT
-------------
                                X             Y             Z
Electronic contribution:     -1.04027      -0.96134       2.31476
Nuclear contribution   :      1.46040       0.65236      -2.86051
                        -----------------------------------------
Total Dipole Moment    :      0.42014      -0.30897      -0.54575
                        -----------------------------------------
Magnitude (a.u.)       :      0.75487
Magnitude (Debye)      :      1.91872

                             ****ORCA TERMINATED NORMALLY****
TOTAL RUN TIME: 0 days 0 hours 12 minutes 26 seconds 444 msec
