                         Program Version 3.0.3 - RELEASE   -
|  1> ! RI-MP2 RIJK def2-TZVP def2-TZVP/C def2-TZVP/JK TIGHTSCF
|  2> % maxcore 2000
|  3> % mp2 density relaxed end
|  4> *xyz 0 1
|  5>  C       -0.0074421783     1.5759497653     0.0920812453
|  6>  C        1.4612414297     1.9312791928    -0.0351326805
|  7>  C        2.4581180341     1.0993906739     0.6930492828
|  8>  C        2.0294044055    -0.1358214151     1.4524362745
|  9>  C        0.6085675985    -0.6412240291     1.2655723708
| 10>  C        1.7477805544    -1.2373706816     0.4596228483
| 11>  C        1.3402697756    -0.3466606210    -0.7431856291
| 12>  C        0.0248403230     0.0525756132     0.0316653489
| 13>  N        2.2152160676     0.8617254818    -0.7543338750
| 14>  H       -0.4546419434     1.9511426499     1.0195755632
| 15>  H       -0.5656957920     2.0049677871    -0.7478347038
| 16>  H        1.7242821203     2.9499422641    -0.3099859865
| 17>  H        3.4244560227     1.5271281001     0.9482499584
| 18>  H        2.5200435191    -0.3771257188     2.3873590408
| 19>  H        0.0469756628    -1.0756158058     2.0848927893
| 20>  H        2.1805955552    -2.2285516219     0.4626886878
| 21>  H        1.2514969634    -0.7874082423    -1.7340586562
| 22>  H       -0.8840411081    -0.4221573124    -0.3402945791
| 23> *
| 24>
| 25>                          ****END OF INPUT****

CARTESIAN COORDINATES (ANGSTROEM)
---------------------------------
  C     -0.007442    1.575950    0.092081
  C      1.461241    1.931279   -0.035133
  C      2.458118    1.099391    0.693049
  C      2.029404   -0.135821    1.452436
  C      0.608568   -0.641224    1.265572
  C      1.747781   -1.237371    0.459623
  C      1.340270   -0.346661   -0.743186
  C      0.024840    0.052576    0.031665
  N      2.215216    0.861725   -0.754334
  H     -0.454642    1.951143    1.019576
  H     -0.565696    2.004968   -0.747835
  H      1.724282    2.949942   -0.309986
  H      3.424456    1.527128    0.948250
  H      2.520044   -0.377126    2.387359
  H      0.046976   -1.075616    2.084893
  H      2.180596   -2.228552    0.462689
  H      1.251497   -0.787408   -1.734059
  H     -0.884041   -0.422157   -0.340295

 Total Charge           Charge          ....    0
 Multiplicity           Mult            ....    1
 Number of Electrons    NEL             ....   64
 Basis Dimension        Dim             ....  333

ORBITAL ENERGIES
----------------

  NO   OCC          E(Eh)            E(eV)
   0   2.0000     -15.546266      -423.0354
   1   2.0000     -11.254260      -306.2440
   2   2.0000     -11.252812      -306.2046
   3   2.0000     -11.251958      -306.1814
   4   2.0000     -11.236419      -305.7585
   5   2.0000     -11.235392      -305.7306
   6   2.0000     -11.230568      -305.5993
   7   2.0000     -11.229666      -305.5747
   8   2.0000     -11.221969      -305.3653
   9   2.0000      -1.296103       -35.2688
  10   2.0000      -1.163037       -31.6478
  11   2.0000      -1.038104       -28.2482
  12   2.0000      -0.989290       -26.9200
  13   2.0000      -0.860929       -23.4271
  14   2.0000      -0.850567       -23.1451
  15   2.0000      -0.805808       -21.9272
  16   2.0000      -0.743142       -20.2219
  17   2.0000      -0.721690       -19.6382
  18   2.0000      -0.701950       -19.1010
  19   2.0000      -0.642951       -17.4956
  20   2.0000      -0.595862       -16.2142
  21   2.0000      -0.589332       -16.0365
  22   2.0000      -0.575114       -15.6496
  23   2.0000      -0.547323       -14.8934
  24   2.0000      -0.506605       -13.7854
  25   2.0000      -0.502922       -13.6852
  26   2.0000      -0.473455       -12.8834
  27   2.0000      -0.447070       -12.1654
  28   2.0000      -0.422949       -11.5090
  29   2.0000      -0.408191       -11.1074
  30   2.0000      -0.385675       -10.4948
  31   2.0000      -0.343885        -9.3576
  32   0.0000       0.143412         3.9024
  33   0.0000       0.162920         4.4333
  34   0.0000       0.171922         4.6782
  35   0.0000       0.176996         4.8163
  36   0.0000       0.194061         5.2807

MULLIKEN ATOMIC CHARGES
-----------------------
   0 C :   -0.233575
   1 C :   -0.088188
   2 C :   -0.051592
   3 C :   -0.141923
   4 C :   -0.142968
   5 C :   -0.218611
   6 C :    0.027615
   7 C :   -0.049906
   8 N :   -0.227361
   9 H :    0.114491
  10 H :    0.119544
  11 H :    0.116651
  12 H :    0.127018
  13 H :    0.132316
  14 H :    0.129844
  15 H :    0.139226
  16 H :    0.128409
  17 H :    0.119011
Sum of atomic charges:   -0.0000000

LOEWDIN ATOMIC CHARGES
----------------------
   0 C :   -0.221777
   1 C :   -0.214098
   2 C :   -0.199475
   3 C :   -0.160160
   4 C :   -0.139032
   5 C :   -0.132143
   6 C :   -0.173941
   7 C :   -0.178085
   8 N :    0.141154
   9 H :    0.145169
  10 H :    0.142761
  11 H :    0.139003
  12 H :    0.142154
  13 H :    0.152702
  14 H :    0.135389
  15 H :    0.133937
  16 H :    0.138402
  17 H :    0.148040

  Mayer bond orders larger than 0.1
B(  0-C ,  1-C ) :   0.9484 B(  0-C ,  7-C ) :   0.9428 B(  0-C ,  9-H ) :   0.9041
B(  0-C , 10-H ) :   0.9201 B(  1-C ,  2-C ) :   0.9491 B(  1-C ,  8-N ) :   0.8903
B(  1-C , 11-H ) :   0.9312 B(  2-C ,  3-C ) :   0.9531 B(  2-C ,  8-N ) :   0.9093
B(  2-C , 12-H ) :   0.9036 B(  3-C ,  4-C ) :   0.8885 B(  3-C ,  5-C ) :   0.8659
B(  3-C , 13-H ) :   0.9287 B(  4-C ,  5-C ) :   0.8147 B(  4-C ,  7-C ) :   0.9352
B(  4-C , 14-H ) :   0.9263 B(  5-C ,  6-C ) :   0.9106 B(  5-C , 15-H ) :   0.9212
B(  6-C ,  7-C ) :   0.9697 B(  6-C ,  8-N ) :   0.9593 B(  6-C , 16-H ) :   0.9291
B(  7-C , 17-H ) :   0.9298

MP2 TOTAL ENERGY:     -364.119789801 Eh
FINAL SINGLE POINT ENERGY      -364.119789800710

DIPOLE MOMENT
-------------
                                X             Y             Z
Electronic contribution:      1.93304      -0.43419      -0.76148
Nuclear contribution   :     -2.40515       0.26204       1.27416
                        -----------------------------------------
Total Dipole Moment    :     -0.47211      -0.17214       0.51269
                        -----------------------------------------
Magnitude (a.u.)       :      0.71789
Magnitude (Debye)      :      1.82474

                             ****ORCA TERMINATED NORMALLY****
TOTAL RUN TIME: 0 days 0 hours 21 minutes 18 seconds 513 msec
