                         Program Version 3.0.3 - RELEASE   -
|  1> ! RI-MP2 RIJK def2-TZVP def2-TZVP/C def2-TZVP/JK TIGHTSCF
|  2> % maxcore 2000
|  3> % mp2 density relaxed end
|  4> *xyz 0 1
|  5>  N        0.0273981279     1.3099178581     0.0086464374
|  6>  C       -0.0210777601     0.0451828975     0.0022695460
|  7>  N       -1.2574774920    -0.6466977908     0.0105380973
|  8>  C       -2.4583310333     0.1035758368     0.0263111451
|  9>  O       -3.5611033584    -0.3692745547     0.0346134492
| 10>  C       -1.1881815942    -2.0654106934     0.0022105385
| 11>  O       -0.1150771074    -2.6302402236    -0.0109827695
| 12>  C       -2.4193254338    -2.8111686177     0.0097358985
| 13>  C       -3.3202673332    -3.6073110537     0.0138194848
| 14>  H        0.9953837322     1.6250319906     0.0009157796
| 15>  H        0.8174637484    -0.6491131458    -0.0096457361
| 16>  H       -2.2336642542     1.1779058713     0.0298241474
| 17>  H       -4.1522158118    -4.2690620546     0.0180705919
| 18> *
| 19>
| 20>                          ****END OF INPUT****

CARTESIAN COORDINATES (ANGSTROEM)
---------------------------------
  N      0.027398    1.309918    0.008646
  C     -0.021078    0.045183    0.002270
  N     -1.257477   -0.646698    0.010538
  C     -2.458331    0.103576    0.026311
  O     -3.561103   -0.369275    0.034613
  C     -1.188182   -2.065411    0.002211
  O     -0.115077   -2.630240   -0.010983
  C     -2.419325   -2.811169    0.009736
  C     -3.320267   -3.607311    0.013819
  H      0.995384    1.625032    0.000916
  H      0.817464   -0.649113   -0.009646
  H     -2.233664    1.177906    0.029824
  H     -4.152216   -4.269062    0.018071

 Total Charge           Charge          ....    0
 Multiplicity           Mult            ....    1
 Number of Electrons    NEL             ....   64
 Basis Dimension        Dim             ....  303

ORBITAL ENERGIES
----------------

  NO   OCC          E(Eh)            E(eV)
   0   2.0000     -20.575587      -559.8902
   1   2.0000     -20.569842      -559.7339
   2   2.0000     -15.651262      -425.8925
   3   2.0000     -15.574980      -423.8167
   4   2.0000     -11.420375      -310.7642
   5   2.0000     -11.383261      -309.7543
   6   2.0000     -11.350208      -308.8548
   7   2.0000     -11.271830      -306.7221
   8   2.0000     -11.262631      -306.4718
   9   2.0000      -1.447439       -39.3868
  10   2.0000      -1.423382       -38.7322
  11   2.0000      -1.313124       -35.7319
  12   2.0000      -1.211975       -32.9795
  13   2.0000      -1.073259       -29.2048
  14   2.0000      -0.950272       -25.8582
  15   2.0000      -0.930927       -25.3318
  16   2.0000      -0.823105       -22.3978
  17   2.0000      -0.754069       -20.5193
  18   2.0000      -0.736715       -20.0470
  19   2.0000      -0.724640       -19.7184
  20   2.0000      -0.682473       -18.5710
  21   2.0000      -0.667906       -18.1746
  22   2.0000      -0.661106       -17.9896
  23   2.0000      -0.644377       -17.5344
  24   2.0000      -0.568328       -15.4650
  25   2.0000      -0.532068       -14.4783
  26   2.0000      -0.519681       -14.1413
  27   2.0000      -0.472347       -12.8532
  28   2.0000      -0.453963       -12.3530
  29   2.0000      -0.428127       -11.6499
  30   2.0000      -0.416593       -11.3361
  31   2.0000      -0.416304       -11.3282
  32   0.0000       0.064303         1.7498
  33   0.0000       0.108525         2.9531
  34   0.0000       0.137054         3.7294
  35   0.0000       0.154075         4.1926
  36   0.0000       0.159428         4.3383

MULLIKEN ATOMIC CHARGES
-----------------------
   0 N :   -0.378931
   1 C :    0.016683
   2 N :   -0.077524
   3 C :    0.147242
   4 O :   -0.266119
   5 C :    0.203684
   6 O :   -0.296631
   7 C :    0.024782
   8 C :   -0.141652
   9 H :    0.237362
  10 H :    0.165070
  11 H :    0.160559
  12 H :    0.205475
Sum of atomic charges:    0.0000000

LOEWDIN ATOMIC CHARGES
----------------------
   0 N :   -0.064394
   1 C :   -0.276912
   2 N :    0.207697
   3 C :   -0.322714
   4 O :    0.148895
   5 C :   -0.361867
   6 O :    0.159142
   7 C :   -0.057859
   8 C :   -0.015171
   9 H :    0.173493
  10 H :    0.138883
  11 H :    0.136436
  12 H :    0.134370

  Mayer bond orders larger than 0.1
B(  0-N ,  1-C ) :   1.8863 B(  0-N ,  9-H ) :   0.8572 B(  1-C ,  2-N ) :   0.9559
B(  1-C , 10-H ) :   0.9135 B(  2-N ,  3-C ) :   0.9541 B(  2-N ,  5-C ) :   1.0690
B(  3-C ,  4-O ) :   1.9617 B(  3-C , 11-H ) :   0.9138 B(  5-C ,  6-O ) :   1.8801
B(  5-C ,  7-C ) :   1.0897 B(  7-C ,  8-C ) :   2.5909 B(  8-C , 12-H ) :   0.8870

MP2 TOTAL ENERGY:     -451.990730750 Eh
FINAL SINGLE POINT ENERGY      -451.990730750355

DIPOLE MOMENT
-------------
                                X             Y             Z
Electronic contribution:     -1.17604      -2.18105       0.00007
Nuclear contribution   :      1.56761       2.28305      -0.00373
                        -----------------------------------------
Total Dipole Moment    :      0.39158       0.10200      -0.00366
                        -----------------------------------------
Magnitude (a.u.)       :      0.40466
Magnitude (Debye)      :      1.02856

                             ****ORCA TERMINATED NORMALLY****
TOTAL RUN TIME: 0 days 0 hours 13 minutes 27 seconds 453 msec
