                         Program Version 3.0.3 - RELEASE   -
|  1> ! RI-MP2 RIJK def2-TZVP def2-TZVP/C def2-TZVP/JK TIGHTSCF
|  2> % maxcore 2000
|  3> % mp2 density relaxed end
|  4> *xyz 0 1
|  5>  C        0.1081449899     1.2182863364    -0.1640433677
|  6>  O       -0.0036930164    -0.0874489750     0.3664033679
|  7>  C       -1.2812526136    -0.6719196292     0.1642425188
|  8>  C       -1.6228547207    -1.2173139056    -1.2670634648
|  9>  C       -1.7490107369    -2.6158568613    -0.6547723479
| 10>  O       -2.7586102425    -3.5071698294    -0.9662922713
| 11>  C       -0.4683343665    -3.0082676579     0.0157337232
| 12>  O        0.8034372979    -2.6639055385    -0.4453494064
| 13>  C       -1.3906228100    -2.0701377694     0.7519598072
| 14>  H        1.1119931671     1.5799443977     0.0690402203
| 15>  H       -0.0332309786     1.2322299928    -1.2539996993
| 16>  H       -0.6301996940     1.8943782077     0.2919193602
| 17>  H       -2.0580319713     0.0100666766     0.5339879981
| 18>  H       -2.5738430131    -0.8358350169    -1.6429257963
| 19>  H       -0.8443617034    -1.0992002746    -2.0267403237
| 20>  H       -2.4158972805    -4.1402825233    -1.6067891436
| 21>  H       -0.4981622325    -4.0223111324     0.4113280869
| 22>  H        0.9617751482    -1.7485158868    -0.1756100885
| 23>  H       -1.7950120632    -2.3043283808     1.7291849568
| 24> *
| 25>
| 26>                          ****END OF INPUT****

CARTESIAN COORDINATES (ANGSTROEM)
---------------------------------
  C      0.108145    1.218286   -0.164043
  O     -0.003693   -0.087449    0.366403
  C     -1.281253   -0.671920    0.164243
  C     -1.622855   -1.217314   -1.267063
  C     -1.749011   -2.615857   -0.654772
  O     -2.758610   -3.507170   -0.966292
  C     -0.468334   -3.008268    0.015734
  O      0.803437   -2.663906   -0.445349
  C     -1.390623   -2.070138    0.751960
  H      1.111993    1.579944    0.069040
  H     -0.033231    1.232230   -1.254000
  H     -0.630200    1.894378    0.291919
  H     -2.058032    0.010067    0.533988
  H     -2.573843   -0.835835   -1.642926
  H     -0.844362   -1.099200   -2.026740
  H     -2.415897   -4.140283   -1.606789
  H     -0.498162   -4.022311    0.411328
  H      0.961775   -1.748516   -0.175610
  H     -1.795012   -2.304328    1.729185

 Total Charge           Charge          ....    0
 Multiplicity           Mult            ....    1
 Number of Electrons    NEL             ....   70
 Basis Dimension        Dim             ....  339

ORBITAL ENERGIES
----------------

  NO   OCC          E(Eh)            E(eV)
   0   2.0000     -20.572132      -559.7962
   1   2.0000     -20.571636      -559.7827
   2   2.0000     -20.546452      -559.0974
   3   2.0000     -11.295981      -307.3793
   4   2.0000     -11.292545      -307.2858
   5   2.0000     -11.284508      -307.0671
   6   2.0000     -11.281870      -306.9953
   7   2.0000     -11.233067      -305.6673
   8   2.0000     -11.231252      -305.6179
   9   2.0000      -1.395270       -37.9672
  10   2.0000      -1.382942       -37.6318
  11   2.0000      -1.356371       -36.9087
  12   2.0000      -1.173432       -31.9307
  13   2.0000      -0.992253       -27.0006
  14   2.0000      -0.949457       -25.8360
  15   2.0000      -0.874116       -23.7859
  16   2.0000      -0.809405       -22.0250
  17   2.0000      -0.762920       -20.7601
  18   2.0000      -0.727687       -19.8014
  19   2.0000      -0.687822       -18.7166
  20   2.0000      -0.670348       -18.2411
  21   2.0000      -0.650383       -17.6978
  22   2.0000      -0.630252       -17.1500
  23   2.0000      -0.623395       -16.9635
  24   2.0000      -0.594978       -16.1902
  25   2.0000      -0.588320       -16.0090
  26   2.0000      -0.556646       -15.1471
  27   2.0000      -0.543202       -14.7813
  28   2.0000      -0.517511       -14.0822
  29   2.0000      -0.511924       -13.9301
  30   2.0000      -0.486644       -13.2423
  31   2.0000      -0.469242       -12.7687
  32   2.0000      -0.429513       -11.6877
  33   2.0000      -0.390195       -10.6177
  34   2.0000      -0.374517       -10.1911
  35   0.0000       0.135151         3.6776
  36   0.0000       0.143275         3.8987
  37   0.0000       0.162857         4.4316
  38   0.0000       0.181050         4.9266
  39   0.0000       0.186659         5.0793

MULLIKEN ATOMIC CHARGES
-----------------------
   0 C :   -0.220260
   1 O :   -0.346695
   2 C :    0.037778
   3 C :   -0.222915
   4 C :    0.167660
   5 O :   -0.454865
   6 C :   -0.000604
   7 O :   -0.478991
   8 C :   -0.145040
   9 H :    0.146397
  10 H :    0.121277
  11 H :    0.119764
  12 H :    0.096374
  13 H :    0.121792
  14 H :    0.118114
  15 H :    0.333758
  16 H :    0.122638
  17 H :    0.343471
  18 H :    0.140347
Sum of atomic charges:    0.0000000

LOEWDIN ATOMIC CHARGES
----------------------
   0 C :   -0.350912
   1 O :    0.140749
   2 C :   -0.278643
   3 C :   -0.186313
   4 C :   -0.314365
   5 O :    0.028979
   6 C :   -0.293371
   7 O :   -0.006763
   8 C :   -0.133510
   9 H :    0.115408
  10 H :    0.104580
  11 H :    0.106184
  12 H :    0.138242
  13 H :    0.139305
  14 H :    0.134267
  15 H :    0.189380
  16 H :    0.150512
  17 H :    0.176884
  18 H :    0.139387

  Mayer bond orders larger than 0.1
B(  0-C ,  1-O ) :   0.8933 B(  0-C ,  9-H ) :   0.9387 B(  0-C , 10-H ) :   0.9341
B(  0-C , 11-H ) :   0.9348 B(  1-O ,  2-C ) :   0.8966 B(  2-C ,  3-C ) :   0.9884
B(  2-C ,  8-C ) :   0.9300 B(  2-C , 12-H ) :   0.9261 B(  3-C ,  4-C ) :   0.9646
B(  3-C , 13-H ) :   0.9156 B(  3-C , 14-H ) :   0.8839 B(  4-C ,  5-O ) :   1.0339
B(  4-C ,  6-C ) :   0.8821 B(  4-C ,  8-C ) :   0.7704 B(  5-O , 15-H ) :   0.8323
B(  6-C ,  7-O ) :   0.9764 B(  6-C ,  8-C ) :   0.8910 B(  6-C , 16-H ) :   0.9612
B(  7-O , 17-H ) :   0.8038 B(  8-C , 18-H ) :   0.9006

MP2 TOTAL ENERGY:     -459.381830100 Eh
FINAL SINGLE POINT ENERGY      -459.381830100192

DIPOLE MOMENT
-------------
                                X             Y             Z
Electronic contribution:     -0.49145      -5.58149       0.75455
Nuclear contribution   :      0.22019       6.27518      -0.97607
                        -----------------------------------------
Total Dipole Moment    :     -0.27126       0.69369      -0.22152
                        -----------------------------------------
Magnitude (a.u.)       :      0.77708
Magnitude (Debye)      :      1.97519

                             ****ORCA TERMINATED NORMALLY****
TOTAL RUN TIME: 0 days 0 hours 25 minutes 46 seconds 617 msec
