                         Program Version 3.0.3 - RELEASE   -
|  1> ! RI-MP2 RIJK def2-TZVP def2-TZVP/C def2-TZVP/JK TIGHTSCF
|  2> % maxcore 2000
|  3> % mp2 density relaxed end
|  4> *xyz 0 1
|  5>  C        0.0741118531     1.7563618764     0.3092410531
|  6>  C       -0.0177878324     0.2673143994     0.0462182024
|  7>  C        0.4775514575    -0.3834097811    -1.2115088768
|  8>  C        1.1119382447     0.3718172606    -2.3500503734
|  9>  C        1.9843676735    -0.4206513434    -3.3713487233
| 10>  C        1.3527918252     0.4227823181    -4.5105575998
| 11>  C        0.1980303752     0.7909380956    -3.5408938006
| 12>  N        1.1336587716    -0.6375904058     0.0769623872
| 13>  C        2.4705815954    -0.1301727115     0.3444995464
| 14>  H        0.9057516407     2.2412356831    -0.2046342588
| 15>  H       -0.8480085896     2.2474894297    -0.0198335510
| 16>  H        0.1845106160     1.9526516711     1.3817501968
| 17>  H       -0.9005001510    -0.1785258526     0.5069346933
| 18>  H       -0.0829203594    -1.2520930286    -1.5654981559
| 19>  H        1.6687987284     1.2432982831    -1.9984449346
| 20>  H        3.0695661897    -0.3908921076    -3.2454288180
| 21>  H        1.6699886254    -1.4682207516    -3.4237402793
| 22>  H        1.9665024730     1.2939358526    -4.7580386533
| 23>  H        1.0925623855    -0.0905995013    -5.4390427644
| 24>  H       -0.6488834617     0.1045948970    -3.6459321906
| 25>  H       -0.1832710267     1.8150154906    -3.5528239230
| 26>  H        2.7037183107     0.8627453063    -0.0654177719
| 27>  H        2.6171080879    -0.0851129908     1.4288962669
| 28>  H        3.2012967872    -0.8380641392    -0.0604977212
| 29> *
| 30>
| 31>                          ****END OF INPUT****

CARTESIAN COORDINATES (ANGSTROEM)
---------------------------------
  C      0.074112    1.756362    0.309241
  C     -0.017788    0.267314    0.046218
  C      0.477551   -0.383410   -1.211509
  C      1.111938    0.371817   -2.350050
  C      1.984368   -0.420651   -3.371349
  C      1.352792    0.422782   -4.510558
  C      0.198030    0.790938   -3.540894
  N      1.133659   -0.637590    0.076962
  C      2.470582   -0.130173    0.344500
  H      0.905752    2.241236   -0.204634
  H     -0.848009    2.247489   -0.019834
  H      0.184511    1.952652    1.381750
  H     -0.900500   -0.178526    0.506935
  H     -0.082920   -1.252093   -1.565498
  H      1.668799    1.243298   -1.998445
  H      3.069566   -0.390892   -3.245429
  H      1.669989   -1.468221   -3.423740
  H      1.966502    1.293936   -4.758039
  H      1.092562   -0.090600   -5.439043
  H     -0.648883    0.104595   -3.645932
  H     -0.183271    1.815015   -3.552824
  H      2.703718    0.862745   -0.065418
  H      2.617108   -0.085113    1.428896
  H      3.201297   -0.838064   -0.060498

 Total Charge           Charge          ....    0
 Multiplicity           Mult            ....    1
 Number of Electrons    NEL             ....   70
 Basis Dimension        Dim             ....  369

ORBITAL ENERGIES
----------------

  NO   OCC          E(Eh)            E(eV)
   0   2.0000     -15.545124      -423.0043
   1   2.0000     -11.250958      -306.1541
   2   2.0000     -11.246481      -306.0323
   3   2.0000     -11.239776      -305.8499
   4   2.0000     -11.227749      -305.5226
   5   2.0000     -11.220687      -305.3304
   6   2.0000     -11.220209      -305.3174
   7   2.0000     -11.219831      -305.3071
   8   2.0000     -11.218843      -305.2802
   9   2.0000      -1.260093       -34.2889
  10   2.0000      -1.126970       -30.6664
  11   2.0000      -1.006957       -27.4007
  12   2.0000      -0.966881       -26.3102
  13   2.0000      -0.918335       -24.9892
  14   2.0000      -0.895506       -24.3680
  15   2.0000      -0.791489       -21.5375
  16   2.0000      -0.771853       -21.0032
  17   2.0000      -0.745324       -20.2813
  18   2.0000      -0.672337       -18.2952
  19   2.0000      -0.644962       -17.5503
  20   2.0000      -0.636051       -17.3078
  21   2.0000      -0.594004       -16.1637
  22   2.0000      -0.578359       -15.7379
  23   2.0000      -0.571295       -15.5457
  24   2.0000      -0.542237       -14.7550
  25   2.0000      -0.539432       -14.6787
  26   2.0000      -0.538476       -14.6527
  27   2.0000      -0.502175       -13.6649
  28   2.0000      -0.501353       -13.6425
  29   2.0000      -0.466613       -12.6972
  30   2.0000      -0.453137       -12.3305
  31   2.0000      -0.448579       -12.2064
  32   2.0000      -0.421209       -11.4617
  33   2.0000      -0.413866       -11.2619
  34   2.0000      -0.346693        -9.4340
  35   0.0000       0.131633         3.5819
  36   0.0000       0.151741         4.1291
  37   0.0000       0.155783         4.2391
  38   0.0000       0.159390         4.3372
  39   0.0000       0.188253         5.1226

MULLIKEN ATOMIC CHARGES
-----------------------
   0 C :   -0.397049
   1 C :   -0.037325
   2 C :   -0.089537
   3 C :   -0.068733
   4 C :   -0.237994
   5 C :   -0.196234
   6 C :   -0.240797
   7 N :   -0.219759
   8 C :   -0.289955
   9 H :    0.123973
  10 H :    0.137666
  11 H :    0.138946
  12 H :    0.110964
  13 H :    0.110913
  14 H :    0.095908
  15 H :    0.114604
  16 H :    0.113956
  17 H :    0.108780
  18 H :    0.115176
  19 H :    0.112086
  20 H :    0.114586
  21 H :    0.103108
  22 H :    0.139130
  23 H :    0.137586
Sum of atomic charges:    0.0000000

LOEWDIN ATOMIC CHARGES
----------------------
   0 C :   -0.299840
   1 C :   -0.260713
   2 C :   -0.230118
   3 C :   -0.224330
   4 C :   -0.218058
   5 C :   -0.245468
   6 C :   -0.215791
   7 N :    0.102677
   8 C :   -0.333337
   9 H :    0.121084
  10 H :    0.130888
  11 H :    0.127623
  12 H :    0.140372
  13 H :    0.144278
  14 H :    0.149442
  15 H :    0.122093
  16 H :    0.136485
  17 H :    0.132331
  18 H :    0.121402
  19 H :    0.136211
  20 H :    0.122392
  21 H :    0.101866
  22 H :    0.119025
  23 H :    0.119486

  Mayer bond orders larger than 0.1
B(  0-C ,  1-C ) :   0.9038 B(  0-C ,  9-H ) :   0.9400 B(  0-C , 10-H ) :   0.9310
B(  0-C , 11-H ) :   0.9359 B(  1-C ,  2-C ) :   0.9472 B(  1-C ,  7-N ) :   0.9149
B(  1-C , 12-H ) :   0.9177 B(  2-C ,  3-C ) :   0.8943 B(  2-C ,  7-N ) :   0.9282
B(  2-C , 13-H ) :   0.9004 B(  3-C ,  4-C ) :   0.9305 B(  3-C ,  6-C ) :   0.9300
B(  3-C , 14-H ) :   0.9177 B(  4-C ,  5-C ) :   0.9376 B(  4-C , 15-H ) :   0.9290
B(  4-C , 16-H ) :   0.9256 B(  5-C ,  6-C ) :   0.9375 B(  5-C , 17-H ) :   0.9270
B(  5-C , 18-H ) :   0.9280 B(  6-C , 19-H ) :   0.9258 B(  6-C , 20-H ) :   0.9293
B(  7-N ,  8-C ) :   0.8953 B(  8-C , 21-H ) :   0.9274 B(  8-C , 22-H ) :   0.9369
B(  8-C , 23-H ) :   0.9380

MP2 TOTAL ENERGY:     -367.702906426 Eh
FINAL SINGLE POINT ENERGY      -367.702906426051

DIPOLE MOMENT
-------------
                                X             Y             Z
Electronic contribution:     -1.37732      -3.01594       0.94165
Nuclear contribution   :      1.42891       3.53949      -1.17298
                        -----------------------------------------
Total Dipole Moment    :      0.05159       0.52355      -0.23133
                        -----------------------------------------
Magnitude (a.u.)       :      0.57470
Magnitude (Debye)      :      1.46078

                             ****ORCA TERMINATED NORMALLY****
TOTAL RUN TIME: 0 days 0 hours 20 minutes 2 seconds 123 msec
