                         Program Version 3.0.3 - RELEASE   -
|  1> ! RI-MP2 RIJK def2-TZVP def2-TZVP/C def2-TZVP/JK TIGHTSCF
|  2> % maxcore 2000
|  3> % mp2 density relaxed end
|  4> *xyz 0 1
|  5>  O       -0.5048475636     1.4939062677     0.1891302380
|  6>  C       -0.1476345273     0.1295265666     0.1043798720
|  7>  C       -1.3723239445    -0.7739705658    -0.0425914235
|  8>  O       -2.2262236611    -0.7216432773     1.0739312767
|  9>  C       -3.2812286724     0.1824460861     0.7804975426
| 10>  C       -3.2797336156     0.2751275874    -0.7283294233
| 11>  N       -4.1571662738     0.8209492094    -1.4471037064
| 12>  O       -2.1426957716    -0.3430695880    -1.1724268726
| 13>  H       -0.8078976773     1.7691965906    -0.6825282496
| 14>  H        0.5462634965    -0.0692237376    -0.7263038821
| 15>  H        0.3573500838    -0.1299134465     1.0397592100
| 16>  H       -1.0703914010    -1.8158877413    -0.2055899134
| 17>  H       -4.2232860959    -0.2215960085     1.1586691704
| 18>  H       -3.1036561213     1.1692942568     1.2234712726
| 19>  H       -3.9166483948     0.7571830604    -2.4370861614
| 20> *
| 21>
| 22>                          ****END OF INPUT****

CARTESIAN COORDINATES (ANGSTROEM)
---------------------------------
  O     -0.504848    1.493906    0.189130
  C     -0.147635    0.129527    0.104380
  C     -1.372324   -0.773971   -0.042591
  O     -2.226224   -0.721643    1.073931
  C     -3.281229    0.182446    0.780498
  C     -3.279734    0.275128   -0.728329
  N     -4.157166    0.820949   -1.447104
  O     -2.142696   -0.343070   -1.172427
  H     -0.807898    1.769197   -0.682528
  H      0.546263   -0.069224   -0.726304
  H      0.357350   -0.129913    1.039759
  H     -1.070391   -1.815888   -0.205590
  H     -4.223286   -0.221596    1.158669
  H     -3.103656    1.169294    1.223471
  H     -3.916648    0.757183   -2.437086

 Total Charge           Charge          ....    0
 Multiplicity           Mult            ....    1
 Number of Electrons    NEL             ....   62
 Basis Dimension        Dim             ....  290

ORBITAL ENERGIES
----------------

  NO   OCC          E(Eh)            E(eV)
   0   2.0000     -20.614713      -560.9549
   1   2.0000     -20.586699      -560.1926
   2   2.0000     -20.576250      -559.9082
   3   2.0000     -15.545597      -423.0172
   4   2.0000     -11.361435      -309.1604
   5   2.0000     -11.351725      -308.8961
   6   2.0000     -11.301847      -307.5389
   7   2.0000     -11.295192      -307.3578
   8   2.0000      -1.485406       -40.4199
   9   2.0000      -1.380867       -37.5753
  10   2.0000      -1.376093       -37.4454
  11   2.0000      -1.212107       -32.9831
  12   2.0000      -1.042599       -28.3706
  13   2.0000      -0.962124       -26.1807
  14   2.0000      -0.861426       -23.4406
  15   2.0000      -0.816703       -22.2236
  16   2.0000      -0.737779       -20.0760
  17   2.0000      -0.724846       -19.7241
  18   2.0000      -0.702863       -19.1259
  19   2.0000      -0.692168       -18.8349
  20   2.0000      -0.628783       -17.1100
  21   2.0000      -0.618301       -16.8248
  22   2.0000      -0.596808       -16.2400
  23   2.0000      -0.587105       -15.9759
  24   2.0000      -0.552147       -15.0247
  25   2.0000      -0.548104       -14.9147
  26   2.0000      -0.524983       -14.2855
  27   2.0000      -0.503280       -13.6949
  28   2.0000      -0.449276       -12.2254
  29   2.0000      -0.432227       -11.7615
  30   2.0000      -0.412970       -11.2375
  31   0.0000       0.129471         3.5231
  32   0.0000       0.153025         4.1640
  33   0.0000       0.165861         4.5133
  34   0.0000       0.173437         4.7195
  35   0.0000       0.181176         4.9301

MULLIKEN ATOMIC CHARGES
-----------------------
   0 O :   -0.475479
   1 C :   -0.040081
   2 C :    0.214934
   3 O :   -0.328105
   4 C :    0.050349
   5 C :    0.055219
   6 N :   -0.368184
   7 O :   -0.290664
   8 H :    0.331442
   9 H :    0.115149
  10 H :    0.122964
  11 H :    0.118167
  12 H :    0.141062
  13 H :    0.125993
  14 H :    0.227234
Sum of atomic charges:   -0.0000000

LOEWDIN ATOMIC CHARGES
----------------------
   0 O :   -0.025754
   1 C :   -0.334068
   2 C :   -0.372475
   3 O :    0.184954
   4 C :   -0.258665
   5 C :   -0.418802
   6 N :   -0.054028
   7 O :    0.245788
   8 H :    0.179877
   9 H :    0.124231
  10 H :    0.138597
  11 H :    0.139195
  12 H :    0.141071
  13 H :    0.139654
  14 H :    0.170425

  Mayer bond orders larger than 0.1
B(  0-O ,  1-C ) :   0.9225 B(  0-O ,  8-H ) :   0.8366 B(  1-C ,  2-C ) :   0.9317
B(  1-C ,  9-H ) :   0.9331 B(  1-C , 10-H ) :   0.9198 B(  2-C ,  3-O ) :   0.9469
B(  2-C ,  7-O ) :   0.8877 B(  2-C , 11-H ) :   0.9186 B(  3-O ,  4-C ) :   0.9291
B(  4-C ,  5-C ) :   0.9374 B(  4-C , 12-H ) :   0.9130 B(  4-C , 13-H ) :   0.9054
B(  5-C ,  6-N ) :   2.0467 B(  5-C ,  7-O ) :   1.0479 B(  6-N , 14-H ) :   0.8514

MP2 TOTAL ENERGY:     -436.267191051 Eh
FINAL SINGLE POINT ENERGY      -436.267191050751

DIPOLE MOMENT
-------------
                                X             Y             Z
Electronic contribution:     -1.61356      -0.80451      -0.78751
Nuclear contribution   :      2.31899       0.38566       0.42463
                        -----------------------------------------
Total Dipole Moment    :      0.70544      -0.41885      -0.36288
                        -----------------------------------------
Magnitude (a.u.)       :      0.89708
Magnitude (Debye)      :      2.28020

                             ****ORCA TERMINATED NORMALLY****
TOTAL RUN TIME: 0 days 0 hours 10 minutes 35 seconds 388 msec
