                         Program Version 3.0.3 - RELEASE   -
|  1> ! RI-MP2 RIJK def2-TZVP def2-TZVP/C def2-TZVP/JK TIGHTSCF
|  2> % maxcore 2000
|  3> % mp2 density relaxed end
|  4> *xyz 0 1
|  5>  C        0.2250638298     1.5351673226     0.2307765699
|  6>  C       -0.0729313602     0.0476955476     0.0347372013
|  7>  O       -1.4768226693    -0.2137971770     0.1093274283
|  8>  C        0.5270179697    -0.4970972531    -1.2451882380
|  9>  C        1.9112052933    -1.1447056015    -1.2496603438
| 10>  C        0.6806403306    -1.9691591647    -1.4390258745
| 11>  C        0.1074493573    -3.1212563646    -0.6194990426
| 12>  C       -0.1957879388    -3.7356350341    -2.0032806595
| 13>  O        0.3796298303    -2.5954861396    -2.6864992859
| 14>  H        1.3037592624     1.7181433802     0.2643334791
| 15>  H       -0.1871382019     2.1232368840    -0.5984744933
| 16>  H       -0.2234973654     1.8946112616     1.1607718478
| 17>  H        0.3444343051    -0.5115845267     0.8813028278
| 18>  H       -1.8910473681     0.1973609823    -0.6574594585
| 19>  H        0.2739546782     0.0614783053    -2.1458165194
| 20>  H        2.5398187736    -0.9813876039    -2.1184378393
| 21>  H        2.4471180477    -1.2198475941    -0.3072807420
| 22>  H        0.8276105109    -3.6724157513    -0.0117779606
| 23>  H       -0.7655176845    -2.8590150351    -0.0209164913
| 24>  H        0.3394617620    -4.6611501356    -2.2432608438
| 25>  H       -1.2570987327    -3.8589014121    -2.2465005216
| 26> *
| 27>
| 28>                          ****END OF INPUT****

CARTESIAN COORDINATES (ANGSTROEM)
---------------------------------
  C      0.225064    1.535167    0.230777
  C     -0.072931    0.047696    0.034737
  O     -1.476823   -0.213797    0.109327
  C      0.527018   -0.497097   -1.245188
  C      1.911205   -1.144706   -1.249660
  C      0.680640   -1.969159   -1.439026
  C      0.107449   -3.121256   -0.619499
  C     -0.195788   -3.735635   -2.003281
  O      0.379630   -2.595486   -2.686499
  H      1.303759    1.718143    0.264333
  H     -0.187138    2.123237   -0.598474
  H     -0.223497    1.894611    1.160772
  H      0.344434   -0.511585    0.881303
  H     -1.891047    0.197361   -0.657459
  H      0.273955    0.061478   -2.145817
  H      2.539819   -0.981388   -2.118438
  H      2.447118   -1.219848   -0.307281
  H      0.827611   -3.672416   -0.011778
  H     -0.765518   -2.859015   -0.020916
  H      0.339462   -4.661150   -2.243261
  H     -1.257099   -3.858901   -2.246501

 Total Charge           Charge          ....    0
 Multiplicity           Mult            ....    1
 Number of Electrons    NEL             ....   70
 Basis Dimension        Dim             ....  351

ORBITAL ENERGIES
----------------

  NO   OCC          E(Eh)            E(eV)
   0   2.0000     -20.553373      -559.2857
   1   2.0000     -20.547771      -559.1333
   2   2.0000     -11.287057      -307.1364
   3   2.0000     -11.285088      -307.0829
   4   2.0000     -11.277922      -306.8879
   5   2.0000     -11.228296      -305.5375
   6   2.0000     -11.228223      -305.5355
   7   2.0000     -11.226979      -305.5016
   8   2.0000     -11.218598      -305.2736
   9   2.0000      -1.381510       -37.5928
  10   2.0000      -1.358715       -36.9725
  11   2.0000      -1.139369       -31.0038
  12   2.0000      -1.014545       -27.6072
  13   2.0000      -1.004826       -27.3427
  14   2.0000      -0.879332       -23.9279
  15   2.0000      -0.865782       -23.5591
  16   2.0000      -0.802473       -21.8364
  17   2.0000      -0.734488       -19.9864
  18   2.0000      -0.687394       -18.7049
  19   2.0000      -0.671239       -18.2653
  20   2.0000      -0.663187       -18.0462
  21   2.0000      -0.623370       -16.9628
  22   2.0000      -0.618832       -16.8393
  23   2.0000      -0.593607       -16.1529
  24   2.0000      -0.556070       -15.1314
  25   2.0000      -0.553926       -15.0731
  26   2.0000      -0.536467       -14.5980
  27   2.0000      -0.523364       -14.2415
  28   2.0000      -0.515596       -14.0301
  29   2.0000      -0.496894       -13.5212
  30   2.0000      -0.475451       -12.9377
  31   2.0000      -0.464458       -12.6385
  32   2.0000      -0.451276       -12.2798
  33   2.0000      -0.406069       -11.0497
  34   2.0000      -0.367332        -9.9956
  35   0.0000       0.132933         3.6173
  36   0.0000       0.147102         4.0028
  37   0.0000       0.158580         4.3152
  38   0.0000       0.177457         4.8288
  39   0.0000       0.179807         4.8928

MULLIKEN ATOMIC CHARGES
-----------------------
   0 C :   -0.386182
   1 C :    0.101220
   2 O :   -0.475681
   3 C :   -0.183561
   4 C :   -0.304111
   5 C :    0.238167
   6 C :   -0.300736
   7 C :   -0.009606
   8 O :   -0.328722
   9 H :    0.132992
  10 H :    0.112865
  11 H :    0.145920
  12 H :    0.087916
  13 H :    0.311008
  14 H :    0.122373
  15 H :    0.136089
  16 H :    0.127135
  17 H :    0.122488
  18 H :    0.152434
  19 H :    0.098173
  20 H :    0.099822
Sum of atomic charges:    0.0000000

LOEWDIN ATOMIC CHARGES
----------------------
   0 C :   -0.297677
   1 C :   -0.353780
   2 O :   -0.025890
   3 C :   -0.187416
   4 C :   -0.184774
   5 C :   -0.291234
   6 C :   -0.202636
   7 C :   -0.255126
   8 O :    0.162118
   9 H :    0.128236
  10 H :    0.121376
  11 H :    0.125464
  12 H :    0.148471
  13 H :    0.174117
  14 H :    0.154963
  15 H :    0.140617
  16 H :    0.136324
  17 H :    0.132932
  18 H :    0.140776
  19 H :    0.116232
  20 H :    0.116907

  Mayer bond orders larger than 0.1
B(  0-C ,  1-C ) :   0.9375 B(  0-C ,  9-H ) :   0.9348 B(  0-C , 10-H ) :   0.9217
B(  0-C , 11-H ) :   0.9428 B(  1-C ,  2-O ) :   0.8968 B(  1-C ,  3-C ) :   0.9319
B(  1-C , 12-H ) :   0.9144 B(  2-O , 13-H ) :   0.8442 B(  3-C ,  4-C ) :   0.9171
B(  3-C ,  5-C ) :   0.8234 B(  3-C , 14-H ) :   0.9006 B(  4-C ,  5-C ) :   0.8678
B(  4-C , 15-H ) :   0.9093 B(  4-C , 16-H ) :   0.9086 B(  5-C ,  6-C ) :   0.9267
B(  5-C ,  8-O ) :   0.9813 B(  6-C ,  7-C ) :   0.9964 B(  6-C , 17-H ) :   0.9184
B(  6-C , 18-H ) :   0.9126 B(  7-C ,  8-O ) :   0.9279 B(  7-C , 19-H ) :   0.9150
B(  7-C , 20-H ) :   0.9149

MP2 TOTAL ENERGY:     -423.482579562 Eh
FINAL SINGLE POINT ENERGY      -423.482579562035

DIPOLE MOMENT
-------------
                                X             Y             Z
Electronic contribution:     -1.18591      -3.19786      -3.18784
Nuclear contribution   :      1.35001       3.31802       3.41553
                        -----------------------------------------
Total Dipole Moment    :      0.16410       0.12016       0.22769
                        -----------------------------------------
Magnitude (a.u.)       :      0.30530
Magnitude (Debye)      :      0.77602

                             ****ORCA TERMINATED NORMALLY****
TOTAL RUN TIME: 0 days 0 hours 18 minutes 46 seconds 132 msec
