                         Program Version 3.0.3 - RELEASE   -
|  1> ! RI-MP2 RIJK def2-TZVP def2-TZVP/C def2-TZVP/JK TIGHTSCF
|  2> % maxcore 2000
|  3> % mp2 density relaxed end
|  4> *xyz 0 1
|  5>  C       -0.0868058679     1.5016217467     0.0737605648
|  6>  C        0.0164771284     0.0526680663     0.0170570024
|  7>  C        0.0988552484    -1.1495685367    -0.0300848257
|  8>  C        0.0313599907    -2.6021292068    -0.0916656529
|  9>  O       -1.0488894408    -3.1706911408    -0.1449514882
| 10>  N        1.2311967711    -3.2679549382    -0.0857790938
| 11>  C        1.2286071922    -4.7177089879    -0.1455097842
| 12>  C        2.5263840801    -2.6244691759    -0.0235215979
| 13>  H        0.4267959196     1.9662560539    -0.7749740296
| 14>  H       -1.1330444816     1.8241161375     0.0517518897
| 15>  H        0.3669344385     1.8927545631     0.9909131224
| 16>  H        1.7680620908    -5.0682124833    -1.0346582295
| 17>  H        1.7189955460    -5.1412366215     0.7402606740
| 18>  H        0.1953710457    -5.0582501034    -0.1880910084
| 19>  H        2.4024142278    -1.5430800932     0.0176143351
| 20>  H        3.0797608359    -2.9505832491     0.8670917254
| 21>  H        3.1287258151    -2.8775221907    -0.9060865737
| 22> *
| 23>
| 24>                          ****END OF INPUT****

CARTESIAN COORDINATES (ANGSTROEM)
---------------------------------
  C     -0.086806    1.501622    0.073761
  C      0.016477    0.052668    0.017057
  C      0.098855   -1.149569   -0.030085
  C      0.031360   -2.602129   -0.091666
  O     -1.048889   -3.170691   -0.144951
  N      1.231197   -3.267955   -0.085779
  C      1.228607   -4.717709   -0.145510
  C      2.526384   -2.624469   -0.023522
  H      0.426796    1.966256   -0.774974
  H     -1.133044    1.824116    0.051752
  H      0.366934    1.892755    0.990913
  H      1.768062   -5.068212   -1.034658
  H      1.718996   -5.141237    0.740261
  H      0.195371   -5.058250   -0.188091
  H      2.402414   -1.543080    0.017614
  H      3.079761   -2.950583    0.867092
  H      3.128726   -2.877522   -0.906087

 Total Charge           Charge          ....    0
 Multiplicity           Mult            ....    1
 Number of Electrons    NEL             ....   60
 Basis Dimension        Dim             ....  302

ORBITAL ENERGIES
----------------

  NO   OCC          E(Eh)            E(eV)
   0   2.0000     -20.514787      -558.2357
   1   2.0000     -15.590067      -424.2273
   2   2.0000     -11.367776      -309.3329
   3   2.0000     -11.266231      -306.5697
   4   2.0000     -11.261749      -306.4478
   5   2.0000     -11.255167      -306.2687
   6   2.0000     -11.254264      -306.2441
   7   2.0000     -11.233671      -305.6837
   8   2.0000      -1.381859       -37.6023
   9   2.0000      -1.248539       -33.9745
  10   2.0000      -1.078137       -29.3376
  11   2.0000      -0.997808       -27.1517
  12   2.0000      -0.971496       -26.4358
  13   2.0000      -0.938312       -25.5328
  14   2.0000      -0.812712       -22.1150
  15   2.0000      -0.717115       -19.5137
  16   2.0000      -0.656503       -17.8644
  17   2.0000      -0.655914       -17.8483
  18   2.0000      -0.648062       -17.6347
  19   2.0000      -0.602500       -16.3949
  20   2.0000      -0.602298       -16.3894
  21   2.0000      -0.591985       -16.1087
  22   2.0000      -0.562065       -15.2946
  23   2.0000      -0.559247       -15.2179
  24   2.0000      -0.542819       -14.7708
  25   2.0000      -0.534661       -14.5489
  26   2.0000      -0.445823       -12.1315
  27   2.0000      -0.394936       -10.7468
  28   2.0000      -0.390217       -10.6184
  29   2.0000      -0.372435       -10.1345
  30   0.0000       0.119878         3.2621
  31   0.0000       0.127150         3.4599
  32   0.0000       0.139263         3.7895
  33   0.0000       0.175227         4.7682
  34   0.0000       0.182351         4.9620

MULLIKEN ATOMIC CHARGES
-----------------------
   0 C :   -0.482561
   1 C :    0.011702
   2 C :    0.030997
   3 C :    0.153944
   4 O :   -0.361948
   5 N :   -0.099478
   6 C :   -0.323791
   7 C :   -0.313268
   8 H :    0.165582
   9 H :    0.172609
  10 H :    0.165653
  11 H :    0.132651
  12 H :    0.132653
  13 H :    0.184197
  14 H :    0.163150
  15 H :    0.133956
  16 H :    0.133953
Sum of atomic charges:    0.0000000

LOEWDIN ATOMIC CHARGES
----------------------
   0 C :   -0.288313
   1 C :   -0.075788
   2 C :   -0.042464
   3 C :   -0.440661
   4 O :    0.092421
   5 N :    0.155355
   6 C :   -0.287405
   7 C :   -0.289411
   8 H :    0.144045
   9 H :    0.145861
  10 H :    0.144083
  11 H :    0.117917
  12 H :    0.117917
  13 H :    0.136168
  14 H :    0.134613
  15 H :    0.117832
  16 H :    0.117830

  Mayer bond orders larger than 0.1
B(  0-C ,  1-C ) :   0.8779 B(  0-C ,  8-H ) :   0.9441 B(  0-C ,  9-H ) :   0.9422
B(  0-C , 10-H ) :   0.9440 B(  1-C ,  2-C ) :   2.7274 B(  2-C ,  3-C ) :   0.9448
B(  3-C ,  4-O ) :   1.9254 B(  3-C ,  5-N ) :   1.2551 B(  5-N ,  6-C ) :   0.8757
B(  5-N ,  7-C ) :   0.8959 B(  6-C , 11-H ) :   0.9315 B(  6-C , 12-H ) :   0.9315
B(  6-C , 13-H ) :   0.9239 B(  7-C , 14-H ) :   0.9244 B(  7-C , 15-H ) :   0.9305
B(  7-C , 16-H ) :   0.9305

MP2 TOTAL ENERGY:     -363.229587552 Eh
FINAL SINGLE POINT ENERGY      -363.229587552212

DIPOLE MOMENT
-------------
                                X             Y             Z
Electronic contribution:     -5.34363      -0.74846      -0.17866
Nuclear contribution   :      6.76394       1.40358       0.24494
                        -----------------------------------------
Total Dipole Moment    :      1.42031       0.65512       0.06628
                        -----------------------------------------
Magnitude (a.u.)       :      1.56552
Magnitude (Debye)      :      3.97924

                             ****ORCA TERMINATED NORMALLY****
TOTAL RUN TIME: 0 days 0 hours 11 minutes 44 seconds 754 msec
