                         Program Version 3.0.3 - RELEASE   -
|  1> ! RI-MP2 RIJK def2-TZVP def2-TZVP/C def2-TZVP/JK TIGHTSCF
|  2> % maxcore 2000
|  3> % mp2 density relaxed end
|  4> *xyz 0 1
|  5>  O        0.0461179198     1.3543870928     0.3301346791
|  6>  C        0.0524152641    -0.0008598755    -0.0675924252
|  7>  C       -1.3447421984    -0.5821676405    -0.0652170600
|  8>  C       -1.9649555177    -1.1425293818     1.2023452070
|  9>  C       -1.7188032912    -2.0392179582     0.0000495019
| 10>  C       -2.9030910745    -2.1899347039    -0.8978312368
| 11>  C       -3.2747557415    -1.0230677489    -1.4487789293
| 12>  C       -2.3347006720     0.0447593638    -1.0260081969
| 13>  O       -2.3096237684     1.2049291581    -1.3905109005
| 14>  H       -0.5942467518     1.7948840083    -0.2471587886
| 15>  H        0.4936384135    -0.1240180542    -1.0703284437
| 16>  H        0.6920131924    -0.5429273006     0.6379869757
| 17>  H       -1.2950988678    -1.2391389631     2.0513745797
| 18>  H       -2.9913444547    -0.8961627434     1.4520397639
| 19>  H       -0.9796550614    -2.8285880331     0.0710622432
| 20>  H       -3.4133308751    -3.1378257964    -1.0286141394
| 21>  H       -4.1252131555    -0.8394020135    -2.0913492302
| 22> *
| 23>
| 24>                          ****END OF INPUT****

CARTESIAN COORDINATES (ANGSTROEM)
---------------------------------
  O      0.046118    1.354387    0.330135
  C      0.052415   -0.000860   -0.067592
  C     -1.344742   -0.582168   -0.065217
  C     -1.964956   -1.142529    1.202345
  C     -1.718803   -2.039218    0.000050
  C     -2.903091   -2.189935   -0.897831
  C     -3.274756   -1.023068   -1.448779
  C     -2.334701    0.044759   -1.026008
  O     -2.309624    1.204929   -1.390511
  H     -0.594247    1.794884   -0.247159
  H      0.493638   -0.124018   -1.070328
  H      0.692013   -0.542927    0.637987
  H     -1.295099   -1.239139    2.051375
  H     -2.991344   -0.896163    1.452040
  H     -0.979655   -2.828588    0.071062
  H     -3.413331   -3.137826   -1.028614
  H     -4.125213   -0.839402   -2.091349

 Total Charge           Charge          ....    0
 Multiplicity           Mult            ....    1
 Number of Electrons    NEL             ....   66
 Basis Dimension        Dim             ....  327

ORBITAL ENERGIES
----------------

  NO   OCC          E(Eh)            E(eV)
   0   2.0000     -20.552295      -559.2564
   1   2.0000     -20.544122      -559.0340
   2   2.0000     -11.341168      -308.6089
   3   2.0000     -11.285359      -307.0902
   4   2.0000     -11.280822      -306.9668
   5   2.0000     -11.265901      -306.5608
   6   2.0000     -11.261016      -306.4278
   7   2.0000     -11.256719      -306.3109
   8   2.0000     -11.247791      -306.0679
   9   2.0000      -1.395076       -37.9620
  10   2.0000      -1.352114       -36.7929
  11   2.0000      -1.215336       -33.0710
  12   2.0000      -1.070661       -29.1342
  13   2.0000      -0.968401       -26.3515
  14   2.0000      -0.908719       -24.7275
  15   2.0000      -0.858024       -23.3480
  16   2.0000      -0.787030       -21.4162
  17   2.0000      -0.741175       -20.1684
  18   2.0000      -0.709051       -19.2943
  19   2.0000      -0.680897       -18.5282
  20   2.0000      -0.641189       -17.4477
  21   2.0000      -0.627877       -17.0854
  22   2.0000      -0.615753       -16.7555
  23   2.0000      -0.593081       -16.1386
  24   2.0000      -0.586467       -15.9586
  25   2.0000      -0.561553       -15.2806
  26   2.0000      -0.538996       -14.6668
  27   2.0000      -0.520837       -14.1727
  28   2.0000      -0.486320       -13.2335
  29   2.0000      -0.446220       -12.1423
  30   2.0000      -0.428147       -11.6505
  31   2.0000      -0.415030       -11.2935
  32   2.0000      -0.375372       -10.2144
  33   0.0000       0.075383         2.0513
  34   0.0000       0.141430         3.8485
  35   0.0000       0.157596         4.2884
  36   0.0000       0.165394         4.5006
  37   0.0000       0.170959         4.6520

MULLIKEN ATOMIC CHARGES
-----------------------
   0 O :   -0.472835
   1 C :    0.001536
   2 C :    0.014488
   3 C :   -0.289785
   4 C :   -0.059899
   5 C :   -0.157335
   6 C :   -0.207350
   7 C :    0.225203
   8 O :   -0.332331
   9 H :    0.332985
  10 H :    0.105593
  11 H :    0.103526
  12 H :    0.143130
  13 H :    0.149367
  14 H :    0.150894
  15 H :    0.146711
  16 H :    0.146103
Sum of atomic charges:    0.0000000

LOEWDIN ATOMIC CHARGES
----------------------
   0 O :   -0.038532
   1 C :   -0.302022
   2 C :   -0.194125
   3 C :   -0.138877
   4 C :   -0.160058
   5 C :   -0.080612
   6 C :   -0.111597
   7 C :   -0.273217
   8 O :    0.131581
   9 H :    0.177808
  10 H :    0.126344
  11 H :    0.133123
  12 H :    0.143039
  13 H :    0.142171
  14 H :    0.153462
  15 H :    0.145076
  16 H :    0.146439

  Mayer bond orders larger than 0.1
B(  0-O ,  1-C ) :   0.9603 B(  0-O ,  9-H ) :   0.8180 B(  1-C ,  2-C ) :   0.9547
B(  1-C , 10-H ) :   0.9227 B(  1-C , 11-H ) :   0.9164 B(  2-C ,  3-C ) :   0.8132
B(  2-C ,  4-C ) :   0.8027 B(  2-C ,  7-C ) :   0.8859 B(  3-C ,  4-C ) :   0.8822
B(  3-C , 12-H ) :   0.9237 B(  3-C , 13-H ) :   0.9094 B(  4-C ,  5-C ) :   0.9190
B(  4-C , 14-H ) :   0.9060 B(  5-C ,  6-C ) :   1.7078 B(  5-C , 15-H ) :   0.9168
B(  6-C ,  7-C ) :   1.0376 B(  6-C , 16-H ) :   0.9208 B(  7-C ,  8-O ) :   1.8710

MP2 TOTAL ENERGY:     -421.131518794 Eh
FINAL SINGLE POINT ENERGY      -421.131518793778

DIPOLE MOMENT
-------------
                                X             Y             Z
Electronic contribution:     -1.71522       2.64608      -2.42891
Nuclear contribution   :      1.28751      -4.24515       2.49576
                        -----------------------------------------
Total Dipole Moment    :     -0.42771      -1.59906       0.06685
                        -----------------------------------------
Magnitude (a.u.)       :      1.65663
Magnitude (Debye)      :      4.21081

                             ****ORCA TERMINATED NORMALLY****
TOTAL RUN TIME: 0 days 0 hours 19 minutes 1 seconds 813 msec
