                         Program Version 3.0.3 - RELEASE   -
|  1> ! RI-MP2 RIJK def2-TZVP def2-TZVP/C def2-TZVP/JK TIGHTSCF
|  2> % maxcore 2000
|  3> % mp2 density relaxed end
|  4> *xyz 0 1
|  5>  C        0.0602171565     0.6325018088     0.6378790500
|  6>  O       -0.1317450966     0.6721888813    -0.7782762099
|  7>  C        0.4430974447    -0.3223997301    -1.4773969420
|  8>  C        0.7564892938    -1.6436142860    -1.2085107082
|  9>  O        0.5644210825    -2.3277422795    -0.0363115523
| 10>  C        1.2932308130    -2.1153002863    -2.4249467291
| 11>  O        1.7453670407    -3.3810409811    -2.5946922622
| 12>  N        1.3156920574    -1.2013092560    -3.3778445044
| 13>  N        0.8012126342    -0.0950300614    -2.7677378730
| 14>  H       -0.3606238317    -0.2790037023     1.0699664547
| 15>  H        1.1263611271     0.6888358741     0.8858938751
| 16>  H       -0.4568478582     1.5074946189     1.0338445502
| 17>  H        1.0133764749    -3.1755370730    -0.1223603771
| 18>  H        2.0689892011    -3.4512323106    -3.5011682822
| 19>  H        0.6421888606     0.7457062431    -3.2929733596
| 20> *
| 21>
| 22>                          ****END OF INPUT****

CARTESIAN COORDINATES (ANGSTROEM)
---------------------------------
  C      0.060217    0.632502    0.637879
  O     -0.131745    0.672189   -0.778276
  C      0.443097   -0.322400   -1.477397
  C      0.756489   -1.643614   -1.208511
  O      0.564421   -2.327742   -0.036312
  C      1.293231   -2.115300   -2.424947
  O      1.745367   -3.381041   -2.594692
  N      1.315692   -1.201309   -3.377845
  N      0.801213   -0.095030   -2.767738
  H     -0.360624   -0.279004    1.069966
  H      1.126361    0.688836    0.885894
  H     -0.456848    1.507495    1.033845
  H      1.013376   -3.175537   -0.122360
  H      2.068989   -3.451232   -3.501168
  H      0.642189    0.745706   -3.292973

 Total Charge           Charge          ....    0
 Multiplicity           Mult            ....    1
 Number of Electrons    NEL             ....   68
 Basis Dimension        Dim             ....  315

ORBITAL ENERGIES
----------------

  NO   OCC          E(Eh)            E(eV)
   0   2.0000     -20.602709      -560.6282
   1   2.0000     -20.599217      -560.5332
   2   2.0000     -20.585713      -560.1657
   3   2.0000     -15.623303      -425.1317
   4   2.0000     -15.573121      -423.7662
   5   2.0000     -11.338434      -308.5345
   6   2.0000     -11.320145      -308.0368
   7   2.0000     -11.289379      -307.1996
   8   2.0000     -11.276715      -306.8550
   9   2.0000      -1.442022       -39.2394
  10   2.0000      -1.423636       -38.7391
  11   2.0000      -1.392096       -37.8809
  12   2.0000      -1.348143       -36.6848
  13   2.0000      -1.090063       -29.6621
  14   2.0000      -1.042868       -28.3779
  15   2.0000      -0.955415       -25.9982
  16   2.0000      -0.850743       -23.1499
  17   2.0000      -0.806064       -21.9341
  18   2.0000      -0.762852       -20.7583
  19   2.0000      -0.715585       -19.4721
  20   2.0000      -0.686618       -18.6838
  21   2.0000      -0.679187       -18.4816
  22   2.0000      -0.667973       -18.1765
  23   2.0000      -0.630373       -17.1533
  24   2.0000      -0.605491       -16.4762
  25   2.0000      -0.596970       -16.2444
  26   2.0000      -0.577934       -15.7264
  27   2.0000      -0.567786       -15.4502
  28   2.0000      -0.559504       -15.2249
  29   2.0000      -0.520337       -14.1591
  30   2.0000      -0.496828       -13.5194
  31   2.0000      -0.456659       -12.4263
  32   2.0000      -0.340530        -9.2663
  33   2.0000      -0.314798        -8.5661
  34   0.0000       0.135341         3.6828
  35   0.0000       0.150048         4.0830
  36   0.0000       0.158786         4.3208
  37   0.0000       0.170384         4.6364
  38   0.0000       0.183267         4.9869

MULLIKEN ATOMIC CHARGES
-----------------------
   0 C :   -0.209614
   1 O :   -0.297789
   2 C :    0.186864
   3 C :    0.065626
   4 O :   -0.466994
   5 C :    0.178629
   6 O :   -0.458795
   7 N :   -0.237982
   8 N :   -0.139443
   9 H :    0.154694
  10 H :    0.127613
  11 H :    0.145553
  12 H :    0.346636
  13 H :    0.344297
  14 H :    0.260706
Sum of atomic charges:   -0.0000000

LOEWDIN ATOMIC CHARGES
----------------------
   0 C :   -0.305926
   1 O :    0.217979
   2 C :   -0.353279
   3 C :   -0.293992
   4 O :    0.044018
   5 C :   -0.431298
   6 O :    0.055704
   7 N :    0.004982
   8 N :    0.130954
   9 H :    0.115803
  10 H :    0.111544
  11 H :    0.115209
  12 H :    0.198869
  13 H :    0.200655
  14 H :    0.188777

  Mayer bond orders larger than 0.1
B(  0-C ,  1-O ) :   0.8438 B(  0-C ,  9-H ) :   0.9348 B(  0-C , 10-H ) :   0.9337
B(  0-C , 11-H ) :   0.9366 B(  1-O ,  2-C ) :   1.1092 B(  2-C ,  3-C ) :   1.4097
B(  2-C ,  7-N ) :   0.1193 B(  2-C ,  8-N ) :   1.1939 B(  3-C ,  4-O ) :   1.0499
B(  3-C ,  5-C ) :   1.2285 B(  4-O , 12-H ) :   0.8260 B(  5-C ,  6-O ) :   1.0834
B(  5-C ,  7-N ) :   1.5628 B(  6-O , 13-H ) :   0.8195 B(  7-N ,  8-N ) :   1.0066
B(  8-N , 14-H ) :   0.8635

MP2 TOTAL ENERGY:     -490.313935160 Eh
FINAL SINGLE POINT ENERGY      -490.313935159941

DIPOLE MOMENT
-------------
                                X             Y             Z
Electronic contribution:      0.67991      -2.21947      -4.58686
Nuclear contribution   :     -0.50751       2.49819       4.89621
                        -----------------------------------------
Total Dipole Moment    :      0.17240       0.27872       0.30935
                        -----------------------------------------
Magnitude (a.u.)       :      0.45067
Magnitude (Debye)      :      1.14551

                             ****ORCA TERMINATED NORMALLY****
TOTAL RUN TIME: 0 days 0 hours 14 minutes 31 seconds 720 msec
