                         Program Version 3.0.3 - RELEASE   -
|  1> ! RI-MP2 RIJK def2-TZVP def2-TZVP/C def2-TZVP/JK TIGHTSCF
|  2> % maxcore 2000
|  3> % mp2 density relaxed end
|  4> *xyz 0 1
|  5>  C       -0.1770741830     1.5427963277     0.1495961170
|  6>  C       -0.0545904431     0.0246947419     0.0345595592
|  7>  C       -1.3883238557    -0.6502683071    -0.2813939183
|  8>  O       -1.8900317133    -0.3271944270    -1.5683169407
|  9>  C        1.1514356677    -0.4102119560    -0.8730080984
| 10>  C        1.9593613933    -0.4935616674     0.4218441590
| 11>  O        3.0855630032    -0.2173433843     0.7347794337
| 12>  C        0.7021014468    -0.6008242776     1.2790265332
| 13>  O        0.7049858483     0.0312020705     2.5219926249
| 14>  H        0.7911613574     2.0131455163     0.3488406312
| 15>  H       -0.5585207009     1.9737766501    -0.7822554800
| 16>  H       -0.8482773084     1.8178098716     0.9687363151
| 17>  H       -1.2552797061    -1.7381538694    -0.2822857872
| 18>  H       -2.1182492415    -0.4102838404     0.5079943754
| 19>  H       -2.2217588000     0.5751358536    -1.5441214012
| 20>  H        0.9902590237    -1.3858149103    -1.3408979564
| 21>  H        1.5170750384     0.2928805338    -1.6231218621
| 22>  H        0.3868289309    -1.6490281110     1.3905756155
| 23>  H        1.5825962622     0.4178448449     2.6383016901
| 24> *
| 25>
| 26>                          ****END OF INPUT****

CARTESIAN COORDINATES (ANGSTROEM)
---------------------------------
  C     -0.177074    1.542796    0.149596
  C     -0.054590    0.024695    0.034560
  C     -1.388324   -0.650268   -0.281394
  O     -1.890032   -0.327194   -1.568317
  C      1.151436   -0.410212   -0.873008
  C      1.959361   -0.493562    0.421844
  O      3.085563   -0.217343    0.734779
  C      0.702101   -0.600824    1.279027
  O      0.704986    0.031202    2.521993
  H      0.791161    2.013146    0.348841
  H     -0.558521    1.973777   -0.782255
  H     -0.848277    1.817810    0.968736
  H     -1.255280   -1.738154   -0.282286
  H     -2.118249   -0.410284    0.507994
  H     -2.221759    0.575136   -1.544121
  H      0.990259   -1.385815   -1.340898
  H      1.517075    0.292881   -1.623122
  H      0.386829   -1.649028    1.390576
  H      1.582596    0.417845    2.638302

 Total Charge           Charge          ....    0
 Multiplicity           Mult            ....    1
 Number of Electrons    NEL             ....   70
 Basis Dimension        Dim             ....  339

ORBITAL ENERGIES
----------------

  NO   OCC          E(Eh)            E(eV)
   0   2.0000     -20.576292      -559.9094
   1   2.0000     -20.569412      -559.7221
   2   2.0000     -20.566964      -559.6555
   3   2.0000     -11.342520      -308.6457
   4   2.0000     -11.302224      -307.5491
   5   2.0000     -11.290241      -307.2231
   6   2.0000     -11.262208      -306.4602
   7   2.0000     -11.249311      -306.1093
   8   2.0000     -11.234788      -305.7141
   9   2.0000      -1.413828       -38.4722
  10   2.0000      -1.381446       -37.5911
  11   2.0000      -1.374125       -37.3918
  12   2.0000      -1.157833       -31.5062
  13   2.0000      -1.001557       -27.2538
  14   2.0000      -0.947424       -25.7807
  15   2.0000      -0.922527       -25.1032
  16   2.0000      -0.789435       -21.4816
  17   2.0000      -0.768409       -20.9095
  18   2.0000      -0.710803       -19.3419
  19   2.0000      -0.694363       -18.8946
  20   2.0000      -0.677129       -18.4256
  21   2.0000      -0.662344       -18.0233
  22   2.0000      -0.628702       -17.1079
  23   2.0000      -0.615234       -16.7414
  24   2.0000      -0.593688       -16.1551
  25   2.0000      -0.583191       -15.8694
  26   2.0000      -0.562514       -15.3068
  27   2.0000      -0.555413       -15.1136
  28   2.0000      -0.537641       -14.6300
  29   2.0000      -0.527310       -14.3488
  30   2.0000      -0.510136       -13.8815
  31   2.0000      -0.479664       -13.0523
  32   2.0000      -0.447527       -12.1778
  33   2.0000      -0.435124       -11.8403
  34   2.0000      -0.410162       -11.1611
  35   0.0000       0.116955         3.1825
  36   0.0000       0.125830         3.4240
  37   0.0000       0.148021         4.0278
  38   0.0000       0.157602         4.2886
  39   0.0000       0.174598         4.7510

MULLIKEN ATOMIC CHARGES
-----------------------
   0 C :   -0.485060
   1 C :    0.113178
   2 C :   -0.060810
   3 O :   -0.467978
   4 C :   -0.204320
   5 C :    0.071003
   6 O :   -0.261906
   7 C :    0.037315
   8 O :   -0.470326
   9 H :    0.144621
  10 H :    0.131255
  11 H :    0.151632
  12 H :    0.111600
  13 H :    0.127100
  14 H :    0.318356
  15 H :    0.145678
  16 H :    0.137963
  17 H :    0.122596
  18 H :    0.338103
Sum of atomic charges:    0.0000000

LOEWDIN ATOMIC CHARGES
----------------------
   0 C :   -0.270993
   1 C :   -0.265232
   2 C :   -0.313078
   3 O :   -0.037088
   4 C :   -0.160446
   5 C :   -0.314344
   6 O :    0.156371
   7 C :   -0.270288
   8 O :    0.006177
   9 H :    0.133996
  10 H :    0.124983
  11 H :    0.133243
  12 H :    0.132906
  13 H :    0.126819
  14 H :    0.173413
  15 H :    0.154549
  16 H :    0.144228
  17 H :    0.154605
  18 H :    0.190180

  Mayer bond orders larger than 0.1
B(  0-C ,  1-C ) :   0.8977 B(  0-C ,  9-H ) :   0.9238 B(  0-C , 10-H ) :   0.9402
B(  0-C , 11-H ) :   0.9340 B(  1-C ,  2-C ) :   0.9021 B(  1-C ,  4-C ) :   0.8889
B(  1-C ,  7-C ) :   0.8080 B(  2-C ,  3-O ) :   0.9462 B(  2-C , 12-H ) :   0.9149
B(  2-C , 13-H ) :   0.9521 B(  3-O , 14-H ) :   0.8469 B(  4-C ,  5-C ) :   0.9028
B(  4-C , 15-H ) :   0.8937 B(  4-C , 16-H ) :   0.9023 B(  5-C ,  6-O ) :   1.9983
B(  5-C ,  7-C ) :   0.8833 B(  7-C ,  8-O ) :   1.0432 B(  7-C , 17-H ) :   0.9270
B(  8-O , 18-H ) :   0.8234

MP2 TOTAL ENERGY:     -459.432730089 Eh
FINAL SINGLE POINT ENERGY      -459.432730089258

DIPOLE MOMENT
-------------
                                X             Y             Z
Electronic contribution:      4.99059      -2.40650       2.13326
Nuclear contribution   :     -5.58225       2.74839      -2.32343
                        -----------------------------------------
Total Dipole Moment    :     -0.59166       0.34189      -0.19017
                        -----------------------------------------
Magnitude (a.u.)       :      0.70930
Magnitude (Debye)      :      1.80291

                             ****ORCA TERMINATED NORMALLY****
TOTAL RUN TIME: 0 days 0 hours 18 minutes 22 seconds 763 msec
