                         Program Version 3.0.3 - RELEASE   -
|  1> ! RI-MP2 RIJK def2-TZVP def2-TZVP/C def2-TZVP/JK TIGHTSCF
|  2> % maxcore 2000
|  3> % mp2 density relaxed end
|  4> *xyz 0 1
|  5>  O       -0.1301400692     1.4518464967     0.0181898556
|  6>  C        0.0068286945     0.0474684129     0.0141339726
|  7>  C        0.3528421261    -0.6105132625     1.3958046294
|  8>  C       -1.0909155791    -1.0948403431     1.4832086087
|  9>  C       -1.8158847962    -2.2364803934     2.1762372569
| 10>  O       -2.9999523152    -1.4146595494     2.3424975634
| 11>  C       -2.3023367260    -0.2203029129     1.9077415033
| 12>  C       -2.6016914166     0.1742586166     0.4428741352
| 13>  C       -1.3806363189    -0.6754766551     0.0014363166
| 14>  H        0.7407239520     1.8370859231     0.1570799481
| 15>  H        0.6680745094    -0.2775727453    -0.7997060897
| 16>  H        1.0744770461    -1.4273669365     1.2885112829
| 17>  H        0.7012681175     0.0669026623     2.1822816079
| 18>  H       -2.0135028611    -3.1426149325     1.5896546567
| 19>  H       -1.3918109592    -2.5260603966     3.1491827642
| 20>  H       -2.2813425749     0.5508658226     2.6845827861
| 21>  H       -3.5662548884    -0.2064393487     0.1000634202
| 22>  H       -2.5208165473     1.2384538595     0.2162132584
| 23>  H       -1.5079820335    -1.3987691276    -0.8055717464
| 24> *
| 25>
| 26>                          ****END OF INPUT****

CARTESIAN COORDINATES (ANGSTROEM)
---------------------------------
  O     -0.130140    1.451846    0.018190
  C      0.006829    0.047468    0.014134
  C      0.352842   -0.610513    1.395805
  C     -1.090916   -1.094840    1.483209
  C     -1.815885   -2.236480    2.176237
  O     -2.999952   -1.414660    2.342498
  C     -2.302337   -0.220303    1.907742
  C     -2.601691    0.174259    0.442874
  C     -1.380636   -0.675477    0.001436
  H      0.740724    1.837086    0.157080
  H      0.668075   -0.277573   -0.799706
  H      1.074477   -1.427367    1.288511
  H      0.701268    0.066903    2.182282
  H     -2.013503   -3.142615    1.589655
  H     -1.391811   -2.526060    3.149183
  H     -2.281343    0.550866    2.684583
  H     -3.566255   -0.206439    0.100063
  H     -2.520817    1.238454    0.216213
  H     -1.507982   -1.398769   -0.805572

 Total Charge           Charge          ....    0
 Multiplicity           Mult            ....    1
 Number of Electrons    NEL             ....   68
 Basis Dimension        Dim             ....  339

ORBITAL ENERGIES
----------------

  NO   OCC          E(Eh)            E(eV)
   0   2.0000     -20.563969      -559.5740
   1   2.0000     -20.542703      -558.9954
   2   2.0000     -11.289167      -307.1939
   3   2.0000     -11.275089      -306.8108
   4   2.0000     -11.273894      -306.7782
   5   2.0000     -11.233302      -305.6737
   6   2.0000     -11.230864      -305.6074
   7   2.0000     -11.228889      -305.5536
   8   2.0000     -11.214236      -305.1549
   9   2.0000      -1.374749       -37.4088
  10   2.0000      -1.369327       -37.2613
  11   2.0000      -1.148081       -31.2409
  12   2.0000      -1.011669       -27.5289
  13   2.0000      -0.951477       -25.8910
  14   2.0000      -0.902489       -24.5580
  15   2.0000      -0.832899       -22.6643
  16   2.0000      -0.802992       -21.8505
  17   2.0000      -0.715047       -19.4574
  18   2.0000      -0.696805       -18.9610
  19   2.0000      -0.669564       -18.2198
  20   2.0000      -0.647849       -17.6289
  21   2.0000      -0.632761       -17.2183
  22   2.0000      -0.602497       -16.3948
  23   2.0000      -0.583199       -15.8696
  24   2.0000      -0.573804       -15.6140
  25   2.0000      -0.544009       -14.8032
  26   2.0000      -0.531223       -14.4553
  27   2.0000      -0.499756       -13.5991
  28   2.0000      -0.483848       -13.1662
  29   2.0000      -0.454620       -12.3708
  30   2.0000      -0.438337       -11.9277
  31   2.0000      -0.420805       -11.4507
  32   2.0000      -0.399348       -10.8668
  33   2.0000      -0.378938       -10.3114
  34   0.0000       0.129408         3.5214
  35   0.0000       0.148446         4.0394
  36   0.0000       0.163219         4.4414
  37   0.0000       0.171514         4.6671
  38   0.0000       0.186989         5.0882

MULLIKEN ATOMIC CHARGES
-----------------------
   0 O :   -0.459332
   1 C :    0.016673
   2 C :   -0.248470
   3 C :    0.055358
   4 C :    0.003391
   5 O :   -0.330474
   6 C :   -0.010831
   7 C :   -0.226467
   8 C :   -0.087515
   9 H :    0.318083
  10 H :    0.088928
  11 H :    0.111410
  12 H :    0.114795
  13 H :    0.095728
  14 H :    0.088862
  15 H :    0.097627
  16 H :    0.120179
  17 H :    0.135519
  18 H :    0.116536
Sum of atomic charges:   -0.0000000

LOEWDIN ATOMIC CHARGES
----------------------
   0 O :   -0.012350
   1 C :   -0.292810
   2 C :   -0.197288
   3 C :   -0.195902
   4 C :   -0.237810
   5 O :    0.132029
   6 C :   -0.203889
   7 C :   -0.201579
   8 C :   -0.134889
   9 H :    0.177256
  10 H :    0.124542
  11 H :    0.138212
  12 H :    0.130323
  13 H :    0.119006
  14 H :    0.120520
  15 H :    0.124687
  16 H :    0.137340
  17 H :    0.137435
  18 H :    0.135166

  Mayer bond orders larger than 0.1
B(  0-O ,  1-C ) :   1.0523 B(  0-O ,  9-H ) :   0.8411 B(  1-C ,  2-C ) :   0.9273
B(  1-C ,  8-C ) :   0.8679 B(  1-C , 10-H ) :   0.9390 B(  2-C ,  3-C ) :   0.9138
B(  2-C , 11-H ) :   0.8981 B(  2-C , 12-H ) :   0.9085 B(  3-C ,  4-C ) :   0.9927
B(  3-C ,  6-C ) :   0.9614 B(  3-C ,  8-C ) :   0.9013 B(  4-C ,  5-O ) :   0.9533
B(  4-C , 13-H ) :   0.9053 B(  4-C , 14-H ) :   0.9013 B(  5-O ,  6-C ) :   0.9768
B(  6-C ,  7-C ) :   0.9123 B(  6-C , 15-H ) :   0.9195 B(  7-C ,  8-C ) :   0.9396
B(  7-C , 16-H ) :   0.9080 B(  7-C , 17-H ) :   0.8955 B(  8-C , 18-H ) :   0.8976

MP2 TOTAL ENERGY:     -422.258415900 Eh
FINAL SINGLE POINT ENERGY      -422.258415900406

DIPOLE MOMENT
-------------
                                X             Y             Z
Electronic contribution:     -1.65364       0.43739       0.78150
Nuclear contribution   :      2.88961      -0.46911      -1.00792
                        -----------------------------------------
Total Dipole Moment    :      1.23597      -0.03172      -0.22642
                        -----------------------------------------
Magnitude (a.u.)       :      1.25694
Magnitude (Debye)      :      3.19488

                             ****ORCA TERMINATED NORMALLY****
TOTAL RUN TIME: 0 days 0 hours 17 minutes 21 seconds 333 msec
