                         Program Version 3.0.3 - RELEASE   -
|  1> ! RI-MP2 RIJK def2-TZVP def2-TZVP/C def2-TZVP/JK TIGHTSCF
|  2> % maxcore 2000
|  3> % mp2 density relaxed end
|  4> *xyz 0 1
|  5>  O       -0.1326114985     1.3648112799    -0.1218846015
|  6>  C       -0.0060892347    -0.0120813449    -0.0255066015
|  7>  C       -0.4540938130    -0.7188597403     1.2496904831
|  8>  C       -0.8632616038     0.1008681449     2.3489044525
|  9>  N       -1.1562786930     0.8139531496     3.2114796539
| 10>  C       -1.3404773315    -0.7309067465    -0.0272964253
| 11>  O       -2.4756123727     0.0435739100    -0.0608573420
| 12>  C       -1.4498254853    -2.0012819170    -0.7056669718
| 13>  N       -1.4990727884    -3.0271381215    -1.2355187026
| 14>  H        0.1353438533     1.7823070480     0.7070316221
| 15>  H        0.8294872302    -0.4443713674    -0.5687631480
| 16>  H        0.0555304593    -1.6413180003     1.5047789970
| 17>  H       -2.1846441218     0.9494562054    -0.2537038959
| 18> *
| 19>
| 20>                          ****END OF INPUT****

CARTESIAN COORDINATES (ANGSTROEM)
---------------------------------
  O     -0.132611    1.364811   -0.121885
  C     -0.006089   -0.012081   -0.025507
  C     -0.454094   -0.718860    1.249690
  C     -0.863262    0.100868    2.348904
  N     -1.156279    0.813953    3.211480
  C     -1.340477   -0.730907   -0.027296
  O     -2.475612    0.043574   -0.060857
  C     -1.449825   -2.001282   -0.705667
  N     -1.499073   -3.027138   -1.235519
  H      0.135344    1.782307    0.707032
  H      0.829487   -0.444371   -0.568763
  H      0.055530   -1.641318    1.504779
  H     -2.184644    0.949456   -0.253704

 Total Charge           Charge          ....    0
 Multiplicity           Mult            ....    1
 Number of Electrons    NEL             ....   64
 Basis Dimension        Dim             ....  303

ORBITAL ENERGIES
----------------

  NO   OCC          E(Eh)            E(eV)
   0   2.0000     -20.632519      -561.4394
   1   2.0000     -20.616395      -561.0006
   2   2.0000     -15.603833      -424.6019
   3   2.0000     -15.601936      -424.5503
   4   2.0000     -11.387172      -309.8607
   5   2.0000     -11.366162      -309.2890
   6   2.0000     -11.329872      -308.3015
   7   2.0000     -11.307568      -307.6946
   8   2.0000     -11.301087      -307.5182
   9   2.0000      -1.463378       -39.8205
  10   2.0000      -1.424051       -38.7504
  11   2.0000      -1.254833       -34.1457
  12   2.0000      -1.246048       -33.9067
  13   2.0000      -1.191998       -32.4359
  14   2.0000      -0.980866       -26.6907
  15   2.0000      -0.928933       -25.2776
  16   2.0000      -0.802586       -21.8395
  17   2.0000      -0.794763       -21.6266
  18   2.0000      -0.751293       -20.4437
  19   2.0000      -0.711349       -19.3568
  20   2.0000      -0.667090       -18.1524
  21   2.0000      -0.655123       -17.8268
  22   2.0000      -0.607293       -16.5253
  23   2.0000      -0.589488       -16.0408
  24   2.0000      -0.586874       -15.9697
  25   2.0000      -0.560548       -15.2533
  26   2.0000      -0.541811       -14.7434
  27   2.0000      -0.524373       -14.2689
  28   2.0000      -0.504758       -13.7352
  29   2.0000      -0.499267       -13.5857
  30   2.0000      -0.461670       -12.5627
  31   2.0000      -0.428823       -11.6689
  32   0.0000       0.103049         2.8041
  33   0.0000       0.110825         3.0157
  34   0.0000       0.123443         3.3590
  35   0.0000       0.143886         3.9153
  36   0.0000       0.151535         4.1235

MULLIKEN ATOMIC CHARGES
-----------------------
   0 O :   -0.478992
   1 C :    0.044701
   2 C :   -0.071122
   3 C :   -0.203748
   4 N :   -0.032737
   5 C :    0.299695
   6 O :   -0.416737
   7 C :   -0.176483
   8 N :   -0.037480
   9 H :    0.362612
  10 H :    0.161330
  11 H :    0.191129
  12 H :    0.357830
Sum of atomic charges:    0.0000000

LOEWDIN ATOMIC CHARGES
----------------------
   0 O :    0.034537
   1 C :   -0.249543
   2 C :   -0.150494
   3 C :   -0.181054
   4 N :    0.084210
   5 C :   -0.317906
   6 O :    0.087782
   7 C :   -0.135323
   8 N :    0.093757
   9 H :    0.199811
  10 H :    0.151657
  11 H :    0.181685
  12 H :    0.200881

  Mayer bond orders larger than 0.1
B(  0-O ,  1-C ) :   0.9877 B(  0-O ,  9-H ) :   0.8121 B(  1-C ,  2-C ) :   0.8458
B(  1-C ,  5-C ) :   0.8126 B(  1-C , 10-H ) :   0.9363 B(  2-C ,  3-C ) :   0.9747
B(  2-C ,  5-C ) :   0.7934 B(  2-C , 11-H ) :   0.8867 B(  3-C ,  4-N ) :   2.8030
B(  5-C ,  6-O ) :   1.1717 B(  5-C ,  7-C ) :   0.9326 B(  6-O , 12-H ) :   0.7951
B(  7-C ,  8-N ) :   2.8207

MP2 TOTAL ENERGY:     -452.004179958 Eh
FINAL SINGLE POINT ENERGY      -452.004179958345

DIPOLE MOMENT
-------------
                                X             Y             Z
Electronic contribution:     -1.53706      -1.45218       0.42063
Nuclear contribution   :      2.81308       2.08809      -0.53053
                        -----------------------------------------
Total Dipole Moment    :      1.27602       0.63592      -0.10990
                        -----------------------------------------
Magnitude (a.u.)       :      1.42993
Magnitude (Debye)      :      3.63459

                             ****ORCA TERMINATED NORMALLY****
TOTAL RUN TIME: 0 days 0 hours 12 minutes 48 seconds 872 msec
