                         Program Version 3.0.3 - RELEASE   -
|  1> ! RI-MP2 RIJK def2-TZVP def2-TZVP/C def2-TZVP/JK TIGHTSCF
|  2> % maxcore 2000
|  3> % mp2 density relaxed end
|  4> *xyz 0 1
|  5>  C       -0.3680849029     1.4334926369     0.1861922385
|  6>  C       -0.5502220250     0.0135816495    -0.3497817210
|  7>  N        0.6463079357    -0.4767855941    -1.0354314940
|  8>  C        0.8510377537     0.1038672199    -2.3629645897
|  9>  C        0.5360074607    -0.9939495750    -3.3938271857
| 10>  O        0.5833604449    -0.8695448194    -4.5889661709
| 11>  C        0.1700291770    -2.2501879818    -2.6062435515
| 12>  C        0.7123920024    -1.9534460732    -1.1934279142
| 13>  C        2.1501094438    -2.4504396684    -1.0117917559
| 14>  H        0.4945195619     1.4777823026     0.8571848532
| 15>  H       -0.2042143396     2.1561121848    -0.6196095368
| 16>  H       -1.2601325780     1.7504747422     0.7358553426
| 17>  H       -0.7413509700    -0.6575962391     0.4941602518
| 18>  H       -1.4532132259    -0.0231046555    -0.9906140193
| 19>  H        0.2061014176     0.9697495902    -2.5429215963
| 20>  H        1.8835764163     0.4438432335    -2.5202908431
| 21>  H       -0.9240441908    -2.3360734600    -2.6029956232
| 22>  H        0.5700353677    -3.1472975369    -3.0836773882
| 23>  H        0.0845586781    -2.4092414069    -0.4234554435
| 24>  H        2.8158936848    -2.0303176065    -1.7742680505
| 25>  H        2.5334513373    -2.1536732180    -0.0322966353
| 26>  H        2.1975180103    -3.5415086051    -1.0940518371
| 27> *
| 28>
| 29>                          ****END OF INPUT****

CARTESIAN COORDINATES (ANGSTROEM)
---------------------------------
  C     -0.368085    1.433493    0.186192
  C     -0.550222    0.013582   -0.349782
  N      0.646308   -0.476786   -1.035431
  C      0.851038    0.103867   -2.362965
  C      0.536007   -0.993950   -3.393827
  O      0.583360   -0.869545   -4.588966
  C      0.170029   -2.250188   -2.606244
  C      0.712392   -1.953446   -1.193428
  C      2.150109   -2.450440   -1.011792
  H      0.494520    1.477782    0.857185
  H     -0.204214    2.156112   -0.619610
  H     -1.260133    1.750475    0.735855
  H     -0.741351   -0.657596    0.494160
  H     -1.453213   -0.023105   -0.990614
  H      0.206101    0.969750   -2.542922
  H      1.883576    0.443843   -2.520291
  H     -0.924044   -2.336073   -2.602996
  H      0.570035   -3.147298   -3.083677
  H      0.084559   -2.409241   -0.423455
  H      2.815894   -2.030318   -1.774268
  H      2.533451   -2.153673   -0.032297
  H      2.197518   -3.541509   -1.094052

 Total Charge           Charge          ....    0
 Multiplicity           Mult            ....    1
 Number of Electrons    NEL             ....   70
 Basis Dimension        Dim             ....  357

ORBITAL ENERGIES
----------------

  NO   OCC          E(Eh)            E(eV)
   0   2.0000     -20.546219      -559.0910
   1   2.0000     -15.553801      -423.2404
   2   2.0000     -11.329235      -308.2842
   3   2.0000     -11.268999      -306.6451
   4   2.0000     -11.260552      -306.4152
   5   2.0000     -11.259660      -306.3909
   6   2.0000     -11.236022      -305.7477
   7   2.0000     -11.220891      -305.3360
   8   2.0000     -11.219104      -305.2873
   9   2.0000      -1.391051       -37.8524
  10   2.0000      -1.248412       -33.9710
  11   2.0000      -1.070105       -29.1190
  12   2.0000      -1.013362       -27.5750
  13   2.0000      -0.983423       -26.7603
  14   2.0000      -0.934323       -25.4242
  15   2.0000      -0.836615       -22.7655
  16   2.0000      -0.786984       -21.4149
  17   2.0000      -0.749332       -20.3904
  18   2.0000      -0.678395       -18.4601
  19   2.0000      -0.662102       -18.0167
  20   2.0000      -0.635697       -17.2982
  21   2.0000      -0.618219       -16.8226
  22   2.0000      -0.602215       -16.3871
  23   2.0000      -0.578011       -15.7285
  24   2.0000      -0.573691       -15.6109
  25   2.0000      -0.566085       -15.4040
  26   2.0000      -0.563176       -15.3248
  27   2.0000      -0.528143       -14.3715
  28   2.0000      -0.518651       -14.1132
  29   2.0000      -0.498723       -13.5709
  30   2.0000      -0.492618       -13.4048
  31   2.0000      -0.480473       -13.0743
  32   2.0000      -0.477467       -12.9925
  33   2.0000      -0.412744       -11.2313
  34   2.0000      -0.356882        -9.7112
  35   0.0000       0.121841         3.3155
  36   0.0000       0.134382         3.6567
  37   0.0000       0.151043         4.1101
  38   0.0000       0.158717         4.3189
  39   0.0000       0.166517         4.5312

MULLIKEN ATOMIC CHARGES
-----------------------
   0 C :   -0.365027
   1 C :   -0.155944
   2 N :   -0.156283
   3 C :   -0.195958
   4 C :    0.110240
   5 O :   -0.265193
   6 C :   -0.228766
   7 C :    0.020618
   8 C :   -0.401835
   9 H :    0.126285
  10 H :    0.121155
  11 H :    0.127591
  12 H :    0.112897
  13 H :    0.090477
  14 H :    0.140204
  15 H :    0.142366
  16 H :    0.143346
  17 H :    0.139741
  18 H :    0.102776
  19 H :    0.129893
  20 H :    0.134692
  21 H :    0.126725
Sum of atomic charges:   -0.0000000

LOEWDIN ATOMIC CHARGES
----------------------
   0 C :   -0.317739
   1 C :   -0.319042
   2 N :    0.104295
   3 C :   -0.246776
   4 C :   -0.315546
   5 O :    0.153483
   6 C :   -0.213699
   7 C :   -0.287430
   8 C :   -0.289230
   9 H :    0.122991
  10 H :    0.117998
  11 H :    0.122491
  12 H :    0.132598
  13 H :    0.118113
  14 H :    0.147846
  15 H :    0.145529
  16 H :    0.155443
  17 H :    0.149705
  18 H :    0.144484
  19 H :    0.126031
  20 H :    0.125272
  21 H :    0.123181

  Mayer bond orders larger than 0.1
B(  0-C ,  1-C ) :   0.9444 B(  0-C ,  9-H ) :   0.9349 B(  0-C , 10-H ) :   0.9361
B(  0-C , 11-H ) :   0.9359 B(  1-C ,  2-N ) :   0.8985 B(  1-C , 12-H ) :   0.9285
B(  1-C , 13-H ) :   0.9129 B(  2-N ,  3-C ) :   0.9299 B(  2-N ,  7-C ) :   0.8401
B(  3-C ,  4-C ) :   0.9027 B(  3-C ,  6-C ) :  -0.1065 B(  3-C , 14-H ) :   0.9072
B(  3-C , 15-H ) :   0.9084 B(  4-C ,  5-O ) :   2.0545 B(  4-C ,  6-C ) :   0.9119
B(  6-C ,  7-C ) :   0.8965 B(  6-C , 16-H ) :   0.9021 B(  6-C , 17-H ) :   0.9128
B(  7-C ,  8-C ) :   0.9345 B(  7-C , 18-H ) :   0.9324 B(  8-C , 19-H ) :   0.9244
B(  8-C , 20-H ) :   0.9425 B(  8-C , 21-H ) :   0.9376

MP2 TOTAL ENERGY:     -403.675580734 Eh
FINAL SINGLE POINT ENERGY      -403.675580734102

DIPOLE MOMENT
-------------
                                X             Y             Z
Electronic contribution:      0.27167      -1.22612      -8.33016
Nuclear contribution   :     -0.57451       1.00275       9.31279
                        -----------------------------------------
Total Dipole Moment    :     -0.30284      -0.22337       0.98264
                        -----------------------------------------
Magnitude (a.u.)       :      1.05223
Magnitude (Debye)      :      2.67454

                             ****ORCA TERMINATED NORMALLY****
TOTAL RUN TIME: 0 days 0 hours 33 minutes 24 seconds 37 msec
