                         Program Version 3.0.3 - RELEASE   -
|  1> ! RI-MP2 RIJK def2-TZVP def2-TZVP/C def2-TZVP/JK TIGHTSCF
|  2> % maxcore 2000
|  3> % mp2 density relaxed end
|  4> *xyz 0 1
|  5>  C       -0.0814406736     1.4923568941     0.0011561006
|  6>  C       -0.0273129642     0.0392047889    -0.0117659489
|  7>  C        0.0169194544    -1.1697450924    -0.0320145928
|  8>  C        0.0951777582    -2.5684736169    -0.0490379626
|  9>  C        1.1795089234    -3.4382777460    -0.0221697596
| 10>  N        2.5273025037    -3.1174380403    -0.0311369060
| 11>  N        0.7651939968    -4.7405412195    -0.0472685191
| 12>  C       -0.5529660126    -4.6894295907    -0.0950366222
| 13>  N       -1.0130730583    -3.4202880022    -0.0998382591
| 14>  H        0.6815145071     1.9255858159    -0.6560350814
| 15>  H       -1.0555817487     1.8498183737    -0.3516574620
| 16>  H        0.0746077787     1.9018881292     1.0064926233
| 17>  H        2.7387692975    -2.2192050387     0.3801530709
| 18>  H        3.1000601385    -3.8570106885     0.3511977214
| 19>  H       -1.2106078354    -5.5451081610    -0.1253827260
| 20>  H       -1.9720433854    -3.1188796457    -0.1290941364
| 21> *
| 22>
| 23>                          ****END OF INPUT****

CARTESIAN COORDINATES (ANGSTROEM)
---------------------------------
  C     -0.081441    1.492357    0.001156
  C     -0.027313    0.039205   -0.011766
  C      0.016919   -1.169745   -0.032015
  C      0.095178   -2.568474   -0.049038
  C      1.179509   -3.438278   -0.022170
  N      2.527303   -3.117438   -0.031137
  N      0.765194   -4.740541   -0.047269
  C     -0.552966   -4.689430   -0.095037
  N     -1.013073   -3.420288   -0.099838
  H      0.681515    1.925586   -0.656035
  H     -1.055582    1.849818   -0.351657
  H      0.074608    1.901888    1.006493
  H      2.738769   -2.219205    0.380153
  H      3.100060   -3.857011    0.351198
  H     -1.210608   -5.545108   -0.125383
  H     -1.972043   -3.118880   -0.129094

 Total Charge           Charge          ....    0
 Multiplicity           Mult            ....    1
 Number of Electrons    NEL             ....   64
 Basis Dimension        Dim             ....  321

ORBITAL ENERGIES
----------------

  NO   OCC          E(Eh)            E(eV)
   0   2.0000     -15.617356      -424.9699
   1   2.0000     -15.556774      -423.3213
   2   2.0000     -15.542546      -422.9342
   3   2.0000     -11.305320      -307.6334
   4   2.0000     -11.291629      -307.2609
   5   2.0000     -11.258423      -306.3573
   6   2.0000     -11.249098      -306.1035
   7   2.0000     -11.229644      -305.5742
   8   2.0000     -11.225315      -305.4563
   9   2.0000      -1.345159       -36.6036
  10   2.0000      -1.216236       -33.0955
  11   2.0000      -1.151879       -31.3442
  12   2.0000      -1.065859       -29.0035
  13   2.0000      -1.010641       -27.5009
  14   2.0000      -0.943241       -25.6669
  15   2.0000      -0.842686       -22.9307
  16   2.0000      -0.805254       -21.9121
  17   2.0000      -0.767970       -20.8975
  18   2.0000      -0.690784       -18.7972
  19   2.0000      -0.651631       -17.7318
  20   2.0000      -0.625828       -17.0296
  21   2.0000      -0.616007       -16.7624
  22   2.0000      -0.607961       -16.5435
  23   2.0000      -0.588343       -16.0096
  24   2.0000      -0.587277       -15.9806
  25   2.0000      -0.580781       -15.8039
  26   2.0000      -0.485058       -13.1991
  27   2.0000      -0.450780       -12.2663
  28   2.0000      -0.427764       -11.6400
  29   2.0000      -0.378842       -10.3088
  30   2.0000      -0.372752       -10.1431
  31   2.0000      -0.270544        -7.3619
  32   0.0000       0.128654         3.5008
  33   0.0000       0.133784         3.6404
  34   0.0000       0.138968         3.7815
  35   0.0000       0.156359         4.2548
  36   0.0000       0.177499         4.8300

MULLIKEN ATOMIC CHARGES
-----------------------
   0 C :   -0.469805
   1 C :    0.002630
   2 C :    0.049451
   3 C :   -0.040333
   4 C :    0.136713
   5 N :   -0.516248
   6 N :   -0.316577
   7 C :    0.047544
   8 N :   -0.290190
   9 H :    0.166278
  10 H :    0.162708
  11 H :    0.163121
  12 H :    0.249291
  13 H :    0.255309
  14 H :    0.149296
  15 H :    0.250814
Sum of atomic charges:    0.0000000

LOEWDIN ATOMIC CHARGES
----------------------
   0 C :   -0.295494
   1 C :   -0.085242
   2 C :   -0.079175
   3 C :   -0.222556
   4 C :   -0.326800
   5 N :   -0.071002
   6 N :    0.097321
   7 C :   -0.319200
   8 N :    0.205383
   9 H :    0.142695
  10 H :    0.143025
  11 H :    0.140174
  12 H :    0.170399
  13 H :    0.172903
  14 H :    0.130585
  15 H :    0.196984

  Mayer bond orders larger than 0.1
B(  0-C ,  1-C ) :   0.8515 B(  0-C ,  9-H ) :   0.9435 B(  0-C , 10-H ) :   0.9448
B(  0-C , 11-H ) :   0.9441 B(  1-C ,  2-C ) :   2.6437 B(  1-C ,  3-C ) :  -0.1051
B(  2-C ,  3-C ) :   1.1034 B(  3-C ,  4-C ) :   1.4402 B(  3-C ,  8-N ) :   1.0752
B(  4-C ,  5-N ) :   1.0690 B(  4-C ,  6-N ) :   1.3274 B(  5-N , 12-H ) :   0.8740
B(  5-N , 13-H ) :   0.8734 B(  6-N ,  7-C ) :   1.5026 B(  7-C ,  8-N ) :   1.2167
B(  7-C , 14-H ) :   0.9267 B(  8-N , 15-H ) :   0.8647

MP2 TOTAL ENERGY:     -396.249531339 Eh
FINAL SINGLE POINT ENERGY      -396.249531338548

DIPOLE MOMENT
-------------
                                X             Y             Z
Electronic contribution:     -0.76611      -6.30299      -0.28714
Nuclear contribution   :     -0.05188       7.26309       0.69125
                        -----------------------------------------
Total Dipole Moment    :     -0.81800       0.96009       0.40412
                        -----------------------------------------
Magnitude (a.u.)       :      1.32447
Magnitude (Debye)      :      3.36652

                             ****ORCA TERMINATED NORMALLY****
TOTAL RUN TIME: 0 days 0 hours 14 minutes 38 seconds 585 msec
