                         Program Version 3.0.3 - RELEASE   -
|  1> ! RI-MP2 RIJK def2-TZVP def2-TZVP/C def2-TZVP/JK TIGHTSCF
|  2> % maxcore 2000
|  3> % mp2 density relaxed end
|  4> *xyz 0 1
|  5>  C       -0.0271835770     1.4767093257    -0.2836462795
|  6>  C        0.1447448223    -0.0113885959    -0.0696468380
|  7>  C        1.5092813346    -0.6616329376    -0.0402632619
|  8>  C        0.6645862141    -0.6200551355     1.2162261731
|  9>  C        1.0967253712     0.2537340801     2.3777703502
| 10>  C        0.0301044578    -1.9619549345     1.6221406486
| 11>  N        0.8710678755    -2.8849112072     2.3913507595
| 12>  C       -1.2190185680    -1.7242308222     2.3684935021
| 13>  N       -2.1899038826    -1.4973989047     2.9522945906
| 14>  H        0.7855883813     2.0560350955     0.1624251156
| 15>  H       -0.0413474095     1.7078572238    -1.3541903563
| 16>  H       -0.9687176177     1.8342733566     0.1466057897
| 17>  H       -0.6282264989    -0.6015174412    -0.5583715346
| 18>  H        1.6481720828    -1.6090771457    -0.5530663723
| 19>  H        2.3780659666    -0.0115193320    -0.0757569809
| 20>  H        1.5682556978     1.1764522912     2.0346874590
| 21>  H        0.2433056425     0.5263609753     3.0081736167
| 22>  H        1.8286967361    -0.2644653963     3.0076581996
| 23>  H       -0.2541245534    -2.4858533196     0.7001677467
| 24>  H        1.7484179770    -3.0127167837     1.8944316783
| 25>  H        1.0999043276    -2.4812779922     3.2946054537
| 26> *
| 27>
| 28>                          ****END OF INPUT****

CARTESIAN COORDINATES (ANGSTROEM)
---------------------------------
  C     -0.027184    1.476709   -0.283646
  C      0.144745   -0.011389   -0.069647
  C      1.509281   -0.661633   -0.040263
  C      0.664586   -0.620055    1.216226
  C      1.096725    0.253734    2.377770
  C      0.030104   -1.961955    1.622141
  N      0.871068   -2.884911    2.391351
  C     -1.219019   -1.724231    2.368494
  N     -2.189904   -1.497399    2.952295
  H      0.785588    2.056035    0.162425
  H     -0.041347    1.707857   -1.354190
  H     -0.968718    1.834273    0.146606
  H     -0.628226   -0.601517   -0.558372
  H      1.648172   -1.609077   -0.553066
  H      2.378066   -0.011519   -0.075757
  H      1.568256    1.176452    2.034687
  H      0.243306    0.526361    3.008174
  H      1.828697   -0.264465    3.007658
  H     -0.254125   -2.485853    0.700168
  H      1.748418   -3.012717    1.894432
  H      1.099904   -2.481278    3.294605

 Total Charge           Charge          ....    0
 Multiplicity           Mult            ....    1
 Number of Electrons    NEL             ....   68
 Basis Dimension        Dim             ....  351

ORBITAL ENERGIES
----------------

  NO   OCC          E(Eh)            E(eV)
   0   2.0000     -15.568093      -423.6293
   1   2.0000     -15.567096      -423.6022
   2   2.0000     -11.313678      -307.8608
   3   2.0000     -11.268184      -306.6229
   4   2.0000     -11.259885      -306.3970
   5   2.0000     -11.248021      -306.0742
   6   2.0000     -11.240012      -305.8563
   7   2.0000     -11.232257      -305.6452
   8   2.0000     -11.228035      -305.5304
   9   2.0000      -1.237876       -33.6843
  10   2.0000      -1.201350       -32.6904
  11   2.0000      -1.164757       -31.6947
  12   2.0000      -1.008198       -27.4345
  13   2.0000      -0.967583       -26.3293
  14   2.0000      -0.960433       -26.1347
  15   2.0000      -0.813370       -22.1329
  16   2.0000      -0.767424       -20.8827
  17   2.0000      -0.730739       -19.8844
  18   2.0000      -0.688499       -18.7350
  19   2.0000      -0.644654       -17.5419
  20   2.0000      -0.630148       -17.1472
  21   2.0000      -0.592160       -16.1135
  22   2.0000      -0.588463       -16.0129
  23   2.0000      -0.581660       -15.8278
  24   2.0000      -0.556237       -15.1360
  25   2.0000      -0.552264       -15.0279
  26   2.0000      -0.547068       -14.8865
  27   2.0000      -0.530662       -14.4401
  28   2.0000      -0.508343       -13.8327
  29   2.0000      -0.464946       -12.6518
  30   2.0000      -0.462337       -12.5808
  31   2.0000      -0.434701       -11.8288
  32   2.0000      -0.418086       -11.3767
  33   2.0000      -0.400793       -10.9061
  34   0.0000       0.115065         3.1311
  35   0.0000       0.140119         3.8128
  36   0.0000       0.142966         3.8903
  37   0.0000       0.163817         4.4577
  38   0.0000       0.178344         4.8530

MULLIKEN ATOMIC CHARGES
-----------------------
   0 C :   -0.409370
   1 C :   -0.103229
   2 C :   -0.307419
   3 C :    0.054919
   4 C :   -0.448694
   5 C :    0.167668
   6 N :   -0.521018
   7 C :   -0.209620
   8 N :   -0.049067
   9 H :    0.118937
  10 H :    0.140061
  11 H :    0.145465
  12 H :    0.122176
  13 H :    0.134509
  14 H :    0.134191
  15 H :    0.133751
  16 H :    0.163610
  17 H :    0.124289
  18 H :    0.135300
  19 H :    0.232863
  20 H :    0.240676
Sum of atomic charges:    0.0000000

LOEWDIN ATOMIC CHARGES
----------------------
   0 C :   -0.289115
   1 C :   -0.209001
   2 C :   -0.191866
   3 C :   -0.240642
   4 C :   -0.262715
   5 C :   -0.283575
   6 N :   -0.121543
   7 C :   -0.160804
   8 N :    0.064222
   9 H :    0.123700
  10 H :    0.128452
  11 H :    0.130108
  12 H :    0.153325
  13 H :    0.133315
  14 H :    0.138288
  15 H :    0.129895
  16 H :    0.136947
  17 H :    0.124674
  18 H :    0.176054
  19 H :    0.160311
  20 H :    0.159971

  Mayer bond orders larger than 0.1
B(  0-C ,  1-C ) :   0.9113 B(  0-C ,  9-H ) :   0.9359 B(  0-C , 10-H ) :   0.9369
B(  0-C , 11-H ) :   0.9399 B(  1-C ,  2-C ) :   0.8884 B(  1-C ,  3-C ) :   0.8503
B(  1-C , 12-H ) :   0.9219 B(  2-C ,  3-C ) :   0.8625 B(  2-C , 13-H ) :   0.9212
B(  2-C , 14-H ) :   0.9270 B(  3-C ,  4-C ) :   0.9100 B(  3-C ,  5-C ) :   0.8788
B(  4-C , 15-H ) :   0.9328 B(  4-C , 16-H ) :   0.9320 B(  4-C , 17-H ) :   0.9355
B(  5-C ,  6-N ) :   0.9296 B(  5-C ,  7-C ) :   0.9402 B(  5-C , 18-H ) :   0.9001
B(  6-N , 19-H ) :   0.8936 B(  6-N , 20-H ) :   0.8883 B(  7-C ,  8-N ) :   2.8719

MP2 TOTAL ENERGY:     -382.598011085 Eh
FINAL SINGLE POINT ENERGY      -382.598011084694

DIPOLE MOMENT
-------------
                                X             Y             Z
Electronic contribution:     -5.69880      -5.97303       3.84303
Nuclear contribution   :      7.23786       6.40670      -4.68752
                        -----------------------------------------
Total Dipole Moment    :      1.53906       0.43366      -0.84449
                        -----------------------------------------
Magnitude (a.u.)       :      1.80830
Magnitude (Debye)      :      4.59632

                             ****ORCA TERMINATED NORMALLY****
TOTAL RUN TIME: 0 days 0 hours 24 minutes 30 seconds 1 msec
