                         Program Version 3.0.3 - RELEASE   -
|  1> ! RI-MP2 RIJK def2-TZVP def2-TZVP/C def2-TZVP/JK TIGHTSCF
|  2> % maxcore 2000
|  3> % mp2 density relaxed end
|  4> *xyz 0 1
|  5>  C        0.0759075518     1.4146719659    -0.1674002722
|  6>  C        1.4162118380     0.7092337426    -0.0362167967
|  7>  C        1.5666749046     0.1912633751     1.3983034846
|  8>  O        0.2627606001    -0.4635837661     1.3595913780
|  9>  C        0.1245154858    -0.0704319165    -0.0170722171
| 10>  C        0.0776977562    -1.0274962424    -1.1810587232
| 11>  C        1.1264874446    -0.4188726892    -2.1639641631
| 12>  C        2.1916666621     0.2999720367    -1.2724593645
| 13>  H       -0.2919018533     2.0045383717     0.6660647611
| 14>  H       -0.1660463446     1.8130058089    -1.1468986108
| 15>  H        2.3701779158    -0.5468412315     1.5107921903
| 16>  H        1.6289009829     0.9279115483     2.2082810598
| 17>  H        0.4054490907    -2.0099561361    -0.8243201096
| 18>  H       -0.9038637422    -1.1524438542    -1.6488519769
| 19>  H        1.5704891692    -1.1759789174    -2.8161235532
| 20>  H        0.6388607171     0.3085786653    -2.8213987975
| 21>  H        2.6796971917     1.1210854420    -1.8079202219
| 22>  H        2.9783256696    -0.4067330432    -0.9825418471
| 23> *
| 24>
| 25>                          ****END OF INPUT****

CARTESIAN COORDINATES (ANGSTROEM)
---------------------------------
  C      0.075908    1.414672   -0.167400
  C      1.416212    0.709234   -0.036217
  C      1.566675    0.191263    1.398303
  O      0.262761   -0.463584    1.359591
  C      0.124515   -0.070432   -0.017072
  C      0.077698   -1.027496   -1.181059
  C      1.126487   -0.418873   -2.163964
  C      2.191667    0.299972   -1.272459
  H     -0.291902    2.004538    0.666065
  H     -0.166046    1.813006   -1.146899
  H      2.370178   -0.546841    1.510792
  H      1.628901    0.927912    2.208281
  H      0.405449   -2.009956   -0.824320
  H     -0.903864   -1.152444   -1.648852
  H      1.570489   -1.175979   -2.816124
  H      0.638861    0.308579   -2.821399
  H      2.679697    1.121085   -1.807920
  H      2.978326   -0.406733   -0.982542

 Total Charge           Charge          ....    0
 Multiplicity           Mult            ....    1
 Number of Electrons    NEL             ....   60
 Basis Dimension        Dim             ....  308

ORBITAL ENERGIES
----------------

  NO   OCC          E(Eh)            E(eV)
   0   2.0000     -20.549853      -559.1899
   1   2.0000     -11.284999      -307.0804
   2   2.0000     -11.277320      -306.8715
   3   2.0000     -11.237525      -305.7886
   4   2.0000     -11.233149      -305.6695
   5   2.0000     -11.231248      -305.6178
   6   2.0000     -11.230687      -305.6025
   7   2.0000     -11.225823      -305.4702
   8   2.0000      -1.385121       -37.6911
   9   2.0000      -1.156309       -31.4648
  10   2.0000      -1.034763       -28.1573
  11   2.0000      -0.980509       -26.6810
  12   2.0000      -0.909597       -24.7514
  13   2.0000      -0.854250       -23.2453
  14   2.0000      -0.781911       -21.2769
  15   2.0000      -0.688423       -18.7330
  16   2.0000      -0.683717       -18.6049
  17   2.0000      -0.652627       -17.7589
  18   2.0000      -0.623516       -16.9667
  19   2.0000      -0.603349       -16.4180
  20   2.0000      -0.580046       -15.7838
  21   2.0000      -0.575015       -15.6469
  22   2.0000      -0.550007       -14.9665
  23   2.0000      -0.511108       -13.9080
  24   2.0000      -0.484113       -13.1734
  25   2.0000      -0.482397       -13.1267
  26   2.0000      -0.475366       -12.9354
  27   2.0000      -0.458464       -12.4754
  28   2.0000      -0.394749       -10.7417
  29   2.0000      -0.348285        -9.4773
  30   0.0000       0.133910         3.6439
  31   0.0000       0.158079         4.3015
  32   0.0000       0.170710         4.6453
  33   0.0000       0.174650         4.7525
  34   0.0000       0.190160         5.1745

MULLIKEN ATOMIC CHARGES
-----------------------
   0 C :   -0.284814
   1 C :   -0.004037
   2 C :   -0.029029
   3 O :   -0.332201
   4 C :    0.216812
   5 C :   -0.275837
   6 C :   -0.241136
   7 C :   -0.275682
   8 H :    0.137678
   9 H :    0.133583
  10 H :    0.097412
  11 H :    0.106699
  12 H :    0.127980
  13 H :    0.128457
  14 H :    0.128063
  15 H :    0.125513
  16 H :    0.125850
  17 H :    0.114688
Sum of atomic charges:    0.0000000

LOEWDIN ATOMIC CHARGES
----------------------
   0 C :   -0.161722
   1 C :   -0.196729
   2 C :   -0.218917
   3 O :    0.150763
   4 C :   -0.269358
   5 C :   -0.214095
   6 C :   -0.235549
   7 C :   -0.220448
   8 H :    0.143442
   9 H :    0.145162
  10 H :    0.124347
  11 H :    0.119616
  12 H :    0.149427
  13 H :    0.138066
  14 H :    0.133065
  15 H :    0.133852
  16 H :    0.135723
  17 H :    0.143355

  Mayer bond orders larger than 0.1
B(  0-C ,  1-C ) :   0.8769 B(  0-C ,  4-C ) :   0.9250 B(  0-C ,  8-H ) :   0.9107
B(  0-C ,  9-H ) :   0.9121 B(  1-C ,  2-C ) :   0.9698 B(  1-C ,  4-C ) :   0.7780
B(  1-C ,  7-C ) :   0.9555 B(  2-C ,  3-O ) :   0.9307 B(  2-C , 10-H ) :   0.9037
B(  2-C , 11-H ) :   0.9138 B(  3-O ,  4-C ) :   0.9961 B(  4-C ,  5-C ) :   0.9364
B(  5-C ,  6-C ) :   0.9055 B(  5-C , 12-H ) :   0.9262 B(  5-C , 13-H ) :   0.9287
B(  6-C ,  7-C ) :   0.9171 B(  6-C , 14-H ) :   0.9240 B(  6-C , 15-H ) :   0.9365
B(  7-C , 16-H ) :   0.9281 B(  7-C , 17-H ) :   0.9223

MP2 TOTAL ENERGY:     -347.155633292 Eh
FINAL SINGLE POINT ENERGY      -347.155633292154

DIPOLE MOMENT
-------------
                                X             Y             Z
Electronic contribution:     -1.75364      -0.07495       4.22341
Nuclear contribution   :      2.20199       0.25313      -4.84130
                        -----------------------------------------
Total Dipole Moment    :      0.44835       0.17818      -0.61789
                        -----------------------------------------
Magnitude (a.u.)       :      0.78394
Magnitude (Debye)      :      1.99261

                             ****ORCA TERMINATED NORMALLY****
TOTAL RUN TIME: 0 days 0 hours 13 minutes 28 seconds 385 msec
