                         Program Version 3.0.3 - RELEASE   -
|  1> ! RI-MP2 RIJK def2-TZVP def2-TZVP/C def2-TZVP/JK TIGHTSCF
|  2> % maxcore 2000
|  3> % mp2 density relaxed end
|  4> *xyz 0 1
|  5>  C       -0.0400562233     1.5093349764     0.0327918396
|  6>  C        0.0688924289     0.0070292412    -0.0541523458
|  7>  C        0.5538650359    -0.6839633591    -1.3472383828
|  8>  C       -0.5515288576    -1.6916397879    -0.9745711648
|  9>  C       -0.0620469356    -2.7720832697     0.0035703865
| 10>  C        0.6397859613    -2.1178613973     1.1848255571
| 11>  O        1.8896137359    -1.4559126622     0.9380189462
| 12>  C        0.7253027956    -0.6512964193     1.1686869306
| 13>  O       -1.2350779273    -0.6524375125    -0.2159531294
| 14>  H        0.9574390539     1.9596632105     0.0785936052
| 15>  H       -0.5676418373     1.9072823453    -0.8375697247
| 16>  H       -0.5889371487     1.8053082282     0.9334621504
| 17>  H        0.2863102819    -0.0971717943    -2.2278862755
| 18>  H        1.5863139661    -1.0247953080    -1.3939143803
| 19>  H       -1.1837339502    -2.1031319957    -1.7655396582
| 20>  H       -0.9281758724    -3.3271295909     0.3811331162
| 21>  H        0.5972676253    -3.4899722912    -0.4987074898
| 22>  H        0.6045259544    -2.6465366678     2.1357691698
| 23>  H        0.7394403933    -0.0819054556     2.0968170295
| 24> *
| 25>
| 26>                          ****END OF INPUT****

CARTESIAN COORDINATES (ANGSTROEM)
---------------------------------
  C     -0.040056    1.509335    0.032792
  C      0.068892    0.007029   -0.054152
  C      0.553865   -0.683963   -1.347238
  C     -0.551529   -1.691640   -0.974571
  C     -0.062047   -2.772083    0.003570
  C      0.639786   -2.117861    1.184826
  O      1.889614   -1.455913    0.938019
  C      0.725303   -0.651296    1.168687
  O     -1.235078   -0.652438   -0.215953
  H      0.957439    1.959663    0.078594
  H     -0.567642    1.907282   -0.837570
  H     -0.588937    1.805308    0.933462
  H      0.286310   -0.097172   -2.227886
  H      1.586314   -1.024795   -1.393914
  H     -1.183734   -2.103132   -1.765540
  H     -0.928176   -3.327130    0.381133
  H      0.597268   -3.489972   -0.498707
  H      0.604526   -2.646537    2.135769
  H      0.739440   -0.081905    2.096817

 Total Charge           Charge          ....    0
 Multiplicity           Mult            ....    1
 Number of Electrons    NEL             ....   68
 Basis Dimension        Dim             ....  339

ORBITAL ENERGIES
----------------

  NO   OCC          E(Eh)            E(eV)
   0   2.0000     -20.567973      -559.6830
   1   2.0000     -20.546388      -559.0956
   2   2.0000     -11.296098      -307.3825
   3   2.0000     -11.287676      -307.1533
   4   2.0000     -11.287322      -307.1437
   5   2.0000     -11.284430      -307.0649
   6   2.0000     -11.234408      -305.7038
   7   2.0000     -11.225345      -305.4572
   8   2.0000     -11.223126      -305.3968
   9   2.0000      -1.416837       -38.5541
  10   2.0000      -1.375393       -37.4263
  11   2.0000      -1.052374       -28.6365
  12   2.0000      -1.046754       -28.4836
  13   2.0000      -0.976702       -26.5774
  14   2.0000      -0.925020       -25.1711
  15   2.0000      -0.845072       -22.9956
  16   2.0000      -0.815218       -22.1832
  17   2.0000      -0.729529       -19.8515
  18   2.0000      -0.700663       -19.0660
  19   2.0000      -0.652825       -17.7643
  20   2.0000      -0.645550       -17.5663
  21   2.0000      -0.630485       -17.1564
  22   2.0000      -0.598527       -16.2867
  23   2.0000      -0.581429       -15.8215
  24   2.0000      -0.561099       -15.2683
  25   2.0000      -0.559588       -15.2272
  26   2.0000      -0.532980       -14.5031
  27   2.0000      -0.526466       -14.3259
  28   2.0000      -0.503971       -13.7138
  29   2.0000      -0.462635       -12.5889
  30   2.0000      -0.447534       -12.1780
  31   2.0000      -0.444097       -12.0845
  32   2.0000      -0.428918       -11.6715
  33   2.0000      -0.406546       -11.0627
  34   0.0000       0.139968         3.8087
  35   0.0000       0.150831         4.1043
  36   0.0000       0.168438         4.5834
  37   0.0000       0.183476         4.9926
  38   0.0000       0.190586         5.1861

MULLIKEN ATOMIC CHARGES
-----------------------
   0 C :   -0.422459
   1 C :    0.304889
   2 C :   -0.270281
   3 C :    0.082967
   4 C :   -0.210244
   5 C :    0.017057
   6 O :   -0.325564
   7 C :   -0.116082
   8 O :   -0.340656
   9 H :    0.140519
  10 H :    0.140677
  11 H :    0.138575
  12 H :    0.120938
  13 H :    0.146053
  14 H :    0.116236
  15 H :    0.120548
  16 H :    0.115139
  17 H :    0.120769
  18 H :    0.120920
Sum of atomic charges:   -0.0000000

LOEWDIN ATOMIC CHARGES
----------------------
   0 C :   -0.266965
   1 C :   -0.317189
   2 C :   -0.177649
   3 C :   -0.262914
   4 C :   -0.225119
   5 C :   -0.248097
   6 O :    0.164377
   7 C :   -0.217251
   8 O :    0.170309
   9 H :    0.135138
  10 H :    0.131105
  11 H :    0.132657
  12 H :    0.139237
  13 H :    0.136771
  14 H :    0.132669
  15 H :    0.149699
  16 H :    0.146705
  17 H :    0.136762
  18 H :    0.139755

  Mayer bond orders larger than 0.1
B(  0-C ,  1-C ) :   0.8605 B(  0-C ,  9-H ) :   0.9338 B(  0-C , 10-H ) :   0.9478
B(  0-C , 11-H ) :   0.9355 B(  1-C ,  2-C ) :   0.9257 B(  1-C ,  7-C ) :   0.8623
B(  1-C ,  8-O ) :   0.9324 B(  2-C ,  3-C ) :   0.9602 B(  2-C , 12-H ) :   0.9276
B(  2-C , 13-H ) :   0.9056 B(  3-C ,  4-C ) :   0.9464 B(  3-C ,  8-O ) :   0.9228
B(  3-C , 14-H ) :   0.9222 B(  4-C ,  5-C ) :   0.9468 B(  4-C , 15-H ) :   0.9101
B(  4-C , 16-H ) :   0.8992 B(  5-C ,  6-O ) :   0.9059 B(  5-C ,  7-C ) :   0.9836
B(  5-C , 17-H ) :   0.9226 B(  6-O ,  7-C ) :   0.9558 B(  7-C , 18-H ) :   0.9236

MP2 TOTAL ENERGY:     -422.301243748 Eh
FINAL SINGLE POINT ENERGY      -422.301243748278

DIPOLE MOMENT
-------------
                                X             Y             Z
Electronic contribution:      0.61460      -2.16562       1.67537
Nuclear contribution   :     -0.67016       2.09455      -1.81102
                        -----------------------------------------
Total Dipole Moment    :     -0.05556      -0.07107      -0.13565
                        -----------------------------------------
Magnitude (a.u.)       :      0.16291
Magnitude (Debye)      :      0.41409

                             ****ORCA TERMINATED NORMALLY****
TOTAL RUN TIME: 0 days 0 hours 19 minutes 39 seconds 421 msec
