                         Program Version 3.0.3 - RELEASE   -
|  1> ! RI-MP2 RIJK def2-TZVP def2-TZVP/C def2-TZVP/JK TIGHTSCF
|  2> % maxcore 2000
|  3> % mp2 density relaxed end
|  4> *xyz 0 1
|  5>  C       -0.1925733569     1.5432335082     0.0240047987
|  6>  C        0.0699416320     0.0361106927    -0.0021936653
|  7>  C        0.9056504091    -0.4686912047    -1.1943967706
|  8>  C        1.9560814369    -1.3944376153    -0.5976923325
|  9>  O        2.7555729184    -2.0867860823    -1.1814501792
| 10>  N        1.8604738192    -1.2927693750     0.7871476225
| 11>  C        2.7591316014    -1.9982033193     1.6759076303
| 12>  C        0.8409847859    -0.4447399225     1.2233437577
| 13>  N        0.5495327886    -0.1118481036     2.4133063756
| 14>  H        0.7475866593     2.1036860021    -0.0149640375
| 15>  H       -0.8044077174     1.8442184582    -0.8317514329
| 16>  H       -0.7109796997     1.8186573164     0.9446173165
| 17>  H       -0.8941179867    -0.4857714018     0.0157034816
| 18>  H        0.3299326586    -1.0041058115    -1.9522634002
| 19>  H        1.4274815373     0.3469289589    -1.7072397635
| 20>  H        3.4261477152    -2.5971190124     1.0549300133
| 21>  H        3.3503800778    -1.2953511240     2.2729994883
| 22>  H        2.2007713892    -2.6534720739     2.3526982069
| 23>  H        1.1688669220    -0.5433316300     3.0998336205
| 24> *
| 25>
| 26>                          ****END OF INPUT****

CARTESIAN COORDINATES (ANGSTROEM)
---------------------------------
  C     -0.192573    1.543234    0.024005
  C      0.069942    0.036111   -0.002194
  C      0.905650   -0.468691   -1.194397
  C      1.956081   -1.394438   -0.597692
  O      2.755573   -2.086786   -1.181450
  N      1.860474   -1.292769    0.787148
  C      2.759132   -1.998203    1.675908
  C      0.840985   -0.444740    1.223344
  N      0.549533   -0.111848    2.413306
  H      0.747587    2.103686   -0.014964
  H     -0.804408    1.844218   -0.831751
  H     -0.710980    1.818657    0.944617
  H     -0.894118   -0.485771    0.015703
  H      0.329933   -1.004106   -1.952263
  H      1.427482    0.346929   -1.707240
  H      3.426148   -2.597119    1.054930
  H      3.350380   -1.295351    2.272999
  H      2.200771   -2.653472    2.352698
  H      1.168867   -0.543332    3.099834

 Total Charge           Charge          ....    0
 Multiplicity           Mult            ....    1
 Number of Electrons    NEL             ....   68
 Basis Dimension        Dim             ....  339

ORBITAL ENERGIES
----------------

  NO   OCC          E(Eh)            E(eV)
   0   2.0000     -20.539554      -558.9097
   1   2.0000     -15.615496      -424.9193
   2   2.0000     -15.539598      -422.8539
   3   2.0000     -11.366436      -309.2964
   4   2.0000     -11.328629      -308.2677
   5   2.0000     -11.275229      -306.8146
   6   2.0000     -11.257956      -306.3445
   7   2.0000     -11.252693      -306.2014
   8   2.0000     -11.228034      -305.5303
   9   2.0000      -1.406856       -38.2825
  10   2.0000      -1.307418       -35.5766
  11   2.0000      -1.185297       -32.2536
  12   2.0000      -1.106610       -30.1124
  13   2.0000      -0.997349       -27.1392
  14   2.0000      -0.952997       -25.9324
  15   2.0000      -0.887247       -24.1432
  16   2.0000      -0.814782       -22.1713
  17   2.0000      -0.748027       -20.3549
  18   2.0000      -0.705936       -19.2095
  19   2.0000      -0.686434       -18.6788
  20   2.0000      -0.661845       -18.0097
  21   2.0000      -0.628548       -17.1037
  22   2.0000      -0.609694       -16.5906
  23   2.0000      -0.592418       -16.1205
  24   2.0000      -0.581074       -15.8118
  25   2.0000      -0.567672       -15.4471
  26   2.0000      -0.540837       -14.7169
  27   2.0000      -0.532428       -14.4881
  28   2.0000      -0.517986       -14.0951
  29   2.0000      -0.511718       -13.9245
  30   2.0000      -0.464954       -12.6521
  31   2.0000      -0.450991       -12.2721
  32   2.0000      -0.421049       -11.4573
  33   2.0000      -0.379004       -10.3132
  34   0.0000       0.120967         3.2917
  35   0.0000       0.137007         3.7281
  36   0.0000       0.152056         4.1377
  37   0.0000       0.163341         4.4447
  38   0.0000       0.168985         4.5983

MULLIKEN ATOMIC CHARGES
-----------------------
   0 C :   -0.418114
   1 C :    0.061370
   2 C :   -0.234899
   3 C :    0.189278
   4 O :   -0.329529
   5 N :   -0.052446
   6 C :   -0.380574
   7 C :   -0.003675
   8 N :   -0.371394
   9 H :    0.123719
  10 H :    0.136591
  11 H :    0.160436
  12 H :    0.117499
  13 H :    0.148053
  14 H :    0.141825
  15 H :    0.187092
  16 H :    0.154291
  17 H :    0.156350
  18 H :    0.214126
Sum of atomic charges:    0.0000000

LOEWDIN ATOMIC CHARGES
----------------------
   0 C :   -0.281886
   1 C :   -0.222940
   2 C :   -0.186907
   3 C :   -0.393827
   4 O :    0.110235
   5 N :    0.215138
   6 C :   -0.282087
   7 C :   -0.312823
   8 N :   -0.052067
   9 H :    0.125621
  10 H :    0.124510
  11 H :    0.133918
  12 H :    0.167307
  13 H :    0.152019
  14 H :    0.158243
  15 H :    0.139460
  16 H :    0.122785
  17 H :    0.123443
  18 H :    0.159856

  Mayer bond orders larger than 0.1
B(  0-C ,  1-C ) :   0.9038 B(  0-C ,  9-H ) :   0.9301 B(  0-C , 10-H ) :   0.9387
B(  0-C , 11-H ) :   0.9325 B(  1-C ,  2-C ) :   0.9330 B(  1-C ,  7-C ) :   0.8771
B(  1-C , 12-H ) :   0.9114 B(  2-C ,  3-C ) :   0.9211 B(  2-C , 13-H ) :   0.9207
B(  2-C , 14-H ) :   0.9035 B(  3-C ,  4-O ) :   1.9911 B(  3-C ,  5-N ) :   1.0604
B(  5-N ,  6-C ) :   0.8516 B(  5-N ,  7-C ) :   1.0275 B(  6-C , 15-H ) :   0.9175
B(  6-C , 16-H ) :   0.9278 B(  6-C , 17-H ) :   0.9286 B(  7-C ,  8-N ) :   2.0471
B(  8-N , 18-H ) :   0.8635

MP2 TOTAL ENERGY:     -418.567985194 Eh
FINAL SINGLE POINT ENERGY      -418.567985193669

DIPOLE MOMENT
-------------
                                X             Y             Z
Electronic contribution:      2.50176      -4.14272      -1.34294
Nuclear contribution   :     -2.58974       4.23242       1.57314
                        -----------------------------------------
Total Dipole Moment    :     -0.08799       0.08969       0.23019
                        -----------------------------------------
Magnitude (a.u.)       :      0.26225
Magnitude (Debye)      :      0.66659

                             ****ORCA TERMINATED NORMALLY****
TOTAL RUN TIME: 0 days 0 hours 17 minutes 31 seconds 614 msec
