                         Program Version 3.0.3 - RELEASE   -
|  1> ! RI-MP2 RIJK def2-TZVP def2-TZVP/C def2-TZVP/JK TIGHTSCF
|  2> % maxcore 2000
|  3> % mp2 density relaxed end
|  4> *xyz 0 1
|  5>  C       -0.2686352890     1.3210980113     0.0653164024
|  6>  O        0.2100112324    -0.0133378320    -0.0709528075
|  7>  C        0.7944118187    -0.5000444898     1.0537202885
|  8>  C        0.2386799367    -0.9543155620     2.3851584608
|  9>  C        0.9080344200    -1.9607847744     1.4629871464
| 10>  C        2.2443826924    -1.6329766645     2.1881632967
| 11>  C        3.3956154728    -2.4770111365     2.6158164114
| 12>  C        2.1439294758    -0.2008745896     1.7874155713
| 13>  N        1.5505159794    -0.6508359198     3.1017853110
| 14>  H        0.5511573679     2.0188898076     0.2804002032
| 15>  H       -0.7276531484     1.5897231780    -0.8878946641
| 16>  H       -1.0140292933     1.3936144329     0.8672960645
| 17>  H       -0.7414085453    -0.9330347108     2.8445503984
| 18>  H        0.5165389689    -2.8356181345     0.9636503833
| 19>  H        3.9334855957    -2.8799144652     1.7505063728
| 20>  H        4.0948678955    -1.8792172925     3.2088337689
| 21>  H        3.0598280224    -3.3179628289     3.2326131364
| 22>  H        2.8882977375     0.5859417106     1.7314811157
| 23> *
| 24>
| 25>                          ****END OF INPUT****

CARTESIAN COORDINATES (ANGSTROEM)
---------------------------------
  C     -0.268635    1.321098    0.065316
  O      0.210011   -0.013338   -0.070953
  C      0.794412   -0.500044    1.053720
  C      0.238680   -0.954316    2.385158
  C      0.908034   -1.960785    1.462987
  C      2.244383   -1.632977    2.188163
  C      3.395615   -2.477011    2.615816
  C      2.143929   -0.200875    1.787416
  N      1.550516   -0.650836    3.101785
  H      0.551157    2.018890    0.280400
  H     -0.727653    1.589723   -0.887895
  H     -1.014029    1.393614    0.867296
  H     -0.741409   -0.933035    2.844550
  H      0.516539   -2.835618    0.963650
  H      3.933486   -2.879914    1.750506
  H      4.094868   -1.879217    3.208834
  H      3.059828   -3.317963    3.232613
  H      2.888298    0.585942    1.731481

 Total Charge           Charge          ....    0
 Multiplicity           Mult            ....    1
 Number of Electrons    NEL             ....   66
 Basis Dimension        Dim             ....  333

ORBITAL ENERGIES
----------------

  NO   OCC          E(Eh)            E(eV)
   0   2.0000     -20.579395      -559.9938
   1   2.0000     -15.557678      -423.3460
   2   2.0000     -11.299747      -307.4817
   3   2.0000     -11.280818      -306.9667
   4   2.0000     -11.273426      -306.7655
   5   2.0000     -11.263204      -306.4874
   6   2.0000     -11.262421      -306.4660
   7   2.0000     -11.238451      -305.8138
   8   2.0000     -11.224880      -305.4445
   9   2.0000      -1.405593       -38.2481
  10   2.0000      -1.333372       -36.2829
  11   2.0000      -1.062372       -28.9086
  12   2.0000      -1.000293       -27.2194
  13   2.0000      -0.950084       -25.8531
  14   2.0000      -0.910540       -24.7771
  15   2.0000      -0.854699       -23.2575
  16   2.0000      -0.735711       -20.0197
  17   2.0000      -0.718799       -19.5595
  18   2.0000      -0.701103       -19.0780
  19   2.0000      -0.668667       -18.1953
  20   2.0000      -0.638491       -17.3742
  21   2.0000      -0.608946       -16.5703
  22   2.0000      -0.596442       -16.2300
  23   2.0000      -0.576823       -15.6961
  24   2.0000      -0.565911       -15.3992
  25   2.0000      -0.549766       -14.9599
  26   2.0000      -0.520893       -14.1742
  27   2.0000      -0.493664       -13.4333
  28   2.0000      -0.481071       -13.0906
  29   2.0000      -0.428577       -11.6622
  30   2.0000      -0.415480       -11.3058
  31   2.0000      -0.363134        -9.8814
  32   2.0000      -0.330330        -8.9887
  33   0.0000       0.142450         3.8763
  34   0.0000       0.147872         4.0238
  35   0.0000       0.177425         4.8280
  36   0.0000       0.181741         4.9454
  37   0.0000       0.185138         5.0379

MULLIKEN ATOMIC CHARGES
-----------------------
   0 C :   -0.203551
   1 O :   -0.297237
   2 C :    0.137076
   3 C :   -0.160292
   4 C :   -0.081547
   5 C :    0.034986
   6 C :   -0.429420
   7 C :   -0.060711
   8 N :   -0.189124
   9 H :    0.122282
  10 H :    0.143304
  11 H :    0.123736
  12 H :    0.147579
  13 H :    0.153627
  14 H :    0.137038
  15 H :    0.142634
  16 H :    0.137612
  17 H :    0.142010
Sum of atomic charges:    0.0000000

LOEWDIN ATOMIC CHARGES
----------------------
   0 C :   -0.323435
   1 O :    0.208166
   2 C :   -0.288311
   3 C :   -0.150128
   4 C :   -0.099295
   5 C :   -0.220914
   6 C :   -0.273423
   7 C :   -0.131935
   8 N :    0.148524
   9 H :    0.106859
  10 H :    0.114387
  11 H :    0.106644
  12 H :    0.130948
  13 H :    0.139971
  14 H :    0.131410
  15 H :    0.137468
  16 H :    0.132018
  17 H :    0.131046

  Mayer bond orders larger than 0.1
B(  0-C ,  1-O ) :   0.8664 B(  0-C ,  9-H ) :   0.9337 B(  0-C , 10-H ) :   0.9391
B(  0-C , 11-H ) :   0.9362 B(  1-O ,  2-C ) :   1.0532 B(  2-C ,  3-C ) :   0.9262
B(  2-C ,  4-C ) :   0.8231 B(  2-C ,  7-C ) :   0.8434 B(  3-C ,  4-C ) :   0.8569
B(  3-C ,  8-N ) :   0.9762 B(  3-C , 12-H ) :   0.8975 B(  4-C ,  5-C ) :   0.8620
B(  4-C , 13-H ) :   0.9132 B(  5-C ,  6-C ) :   0.8334 B(  5-C ,  7-C ) :   0.9587
B(  5-C ,  8-N ) :   0.9376 B(  6-C , 14-H ) :   0.9437 B(  6-C , 15-H ) :   0.9406
B(  6-C , 16-H ) :   0.9396 B(  7-C ,  8-N ) :   0.8672 B(  7-C , 17-H ) :   0.9029

MP2 TOTAL ENERGY:     -401.113450579 Eh
FINAL SINGLE POINT ENERGY      -401.113450578695

DIPOLE MOMENT
-------------
                                X             Y             Z
Electronic contribution:     -1.49334      -0.37654      -0.11547
Nuclear contribution   :      1.39658       0.48719      -0.27583
                        -----------------------------------------
Total Dipole Moment    :     -0.09677       0.11066      -0.39130
                        -----------------------------------------
Magnitude (a.u.)       :      0.41800
Magnitude (Debye)      :      1.06248

                             ****ORCA TERMINATED NORMALLY****
TOTAL RUN TIME: 0 days 0 hours 16 minutes 50 seconds 109 msec
