                         Program Version 3.0.3 - RELEASE   -
|  1> ! RI-MP2 RIJK def2-TZVP def2-TZVP/C def2-TZVP/JK TIGHTSCF
|  2> % maxcore 2000
|  3> % mp2 density relaxed end
|  4> *xyz 0 1
|  5>  O       -0.1510160747     1.4387776861     0.1074422304
|  6>  C       -0.0124384866     0.0344978515     0.0493968435
|  7>  C        0.3070943542    -0.6680225408     1.4176179153
|  8>  C       -1.1564710595    -1.0622285544     1.4836490846
|  9>  O       -1.6956754293    -2.1980429702     2.1366501017
| 10>  C       -2.9179028242    -1.4671910025     2.4387921066
| 11>  C       -2.3422273351    -0.1451168136     1.8770394544
| 12>  C       -2.6327830501     0.1691434688     0.3821040405
| 13>  C       -1.4025199902    -0.6854675047    -0.0182748707
| 14>  H        0.7118056131     1.8147323678     0.3075239445
| 15>  H        0.6649038107    -0.2584183102    -0.7620936742
| 16>  H        0.9526657799    -1.5405560779     1.2723777246
| 17>  H        0.7140987413    -0.0470983974     2.2223640252
| 18>  H       -3.7820289312    -1.8753597273     1.8997338986
| 19>  H       -3.1239473526    -1.4788994164     3.5145628430
| 20>  H       -2.2544272510     0.6824356644     2.5809193317
| 21>  H       -3.5867411378    -0.2236005330     0.0184420198
| 22>  H       -2.5558173969     1.2236148152     0.1149693549
| 23>  H       -1.4940078799    -1.4189256052    -0.8196914343
| 24> *
| 25>
| 26>                          ****END OF INPUT****

CARTESIAN COORDINATES (ANGSTROEM)
---------------------------------
  O     -0.151016    1.438778    0.107442
  C     -0.012438    0.034498    0.049397
  C      0.307094   -0.668023    1.417618
  C     -1.156471   -1.062229    1.483649
  O     -1.695675   -2.198043    2.136650
  C     -2.917903   -1.467191    2.438792
  C     -2.342227   -0.145117    1.877039
  C     -2.632783    0.169143    0.382104
  C     -1.402520   -0.685468   -0.018275
  H      0.711806    1.814732    0.307524
  H      0.664904   -0.258418   -0.762094
  H      0.952666   -1.540556    1.272378
  H      0.714099   -0.047098    2.222364
  H     -3.782029   -1.875360    1.899734
  H     -3.123947   -1.478899    3.514563
  H     -2.254427    0.682436    2.580919
  H     -3.586741   -0.223601    0.018442
  H     -2.555817    1.223615    0.114969
  H     -1.494008   -1.418926   -0.819691

 Total Charge           Charge          ....    0
 Multiplicity           Mult            ....    1
 Number of Electrons    NEL             ....   68
 Basis Dimension        Dim             ....  339

ORBITAL ENERGIES
----------------

  NO   OCC          E(Eh)            E(eV)
   0   2.0000     -20.562184      -559.5255
   1   2.0000     -20.547186      -559.1174
   2   2.0000     -11.288364      -307.1720
   3   2.0000     -11.280226      -306.9505
   4   2.0000     -11.277693      -306.8816
   5   2.0000     -11.226924      -305.5001
   6   2.0000     -11.224998      -305.4477
   7   2.0000     -11.223460      -305.4059
   8   2.0000     -11.220020      -305.3123
   9   2.0000      -1.382016       -37.6066
  10   2.0000      -1.369222       -37.2584
  11   2.0000      -1.143443       -31.1147
  12   2.0000      -1.034894       -28.1609
  13   2.0000      -0.936185       -25.4749
  14   2.0000      -0.895946       -24.3799
  15   2.0000      -0.839048       -22.8317
  16   2.0000      -0.797829       -21.7100
  17   2.0000      -0.712621       -19.3914
  18   2.0000      -0.689858       -18.7720
  19   2.0000      -0.667989       -18.1769
  20   2.0000      -0.657570       -17.8934
  21   2.0000      -0.635029       -17.2800
  22   2.0000      -0.602027       -16.3820
  23   2.0000      -0.588674       -16.0186
  24   2.0000      -0.560760       -15.2590
  25   2.0000      -0.550146       -14.9702
  26   2.0000      -0.524478       -14.2718
  27   2.0000      -0.497404       -13.5351
  28   2.0000      -0.482891       -13.1401
  29   2.0000      -0.465913       -12.6781
  30   2.0000      -0.440906       -11.9977
  31   2.0000      -0.427377       -11.6295
  32   2.0000      -0.399152       -10.8615
  33   2.0000      -0.368488       -10.0271
  34   0.0000       0.132371         3.6020
  35   0.0000       0.158317         4.3080
  36   0.0000       0.160251         4.3606
  37   0.0000       0.167556         4.5594
  38   0.0000       0.181890         4.9495

MULLIKEN ATOMIC CHARGES
-----------------------
   0 O :   -0.464950
   1 C :    0.028285
   2 C :   -0.258531
   3 C :    0.270391
   4 O :   -0.325420
   5 C :   -0.018998
   6 C :   -0.190011
   7 C :   -0.230452
   8 C :   -0.119547
   9 H :    0.318115
  10 H :    0.096144
  11 H :    0.116749
  12 H :    0.114049
  13 H :    0.087400
  14 H :    0.104205
  15 H :    0.108341
  16 H :    0.114931
  17 H :    0.133364
  18 H :    0.115937
Sum of atomic charges:   -0.0000000

LOEWDIN ATOMIC CHARGES
----------------------
   0 O :   -0.012393
   1 C :   -0.288643
   2 C :   -0.194171
   3 C :   -0.282555
   4 O :    0.160856
   5 C :   -0.230787
   6 C :   -0.162476
   7 C :   -0.203910
   8 C :   -0.137547
   9 H :    0.177252
  10 H :    0.125386
  11 H :    0.144678
  12 H :    0.128371
  13 H :    0.118143
  14 H :    0.118511
  15 H :    0.136437
  16 H :    0.130490
  17 H :    0.136647
  18 H :    0.135711

  Mayer bond orders larger than 0.1
B(  0-O ,  1-C ) :   1.0188 B(  0-O ,  9-H ) :   0.8417 B(  1-C ,  2-C ) :   0.9305
B(  1-C ,  8-C ) :   0.8658 B(  1-C , 10-H ) :   0.9367 B(  2-C ,  3-C ) :   0.9481
B(  2-C , 11-H ) :   0.8969 B(  2-C , 12-H ) :   0.9117 B(  3-C ,  4-O ) :   1.0099
B(  3-C ,  6-C ) :   0.9453 B(  3-C ,  8-C ) :   0.8963 B(  4-O ,  5-C ) :   0.9249
B(  5-C ,  6-C ) :   0.9694 B(  5-C , 13-H ) :   0.8946 B(  5-C , 14-H ) :   0.9157
B(  6-C ,  7-C ) :   0.9485 B(  6-C , 15-H ) :   0.8884 B(  7-C ,  8-C ) :   0.9495
B(  7-C , 16-H ) :   0.9162 B(  7-C , 17-H ) :   0.8981 B(  8-C , 18-H ) :   0.8864

MP2 TOTAL ENERGY:     -422.262401610 Eh
FINAL SINGLE POINT ENERGY      -422.262401609618

DIPOLE MOMENT
-------------
                                X             Y             Z
Electronic contribution:      0.93586      -1.17254       0.51505
Nuclear contribution   :     -0.59089       1.62750      -0.55125
                        -----------------------------------------
Total Dipole Moment    :      0.34498       0.45496      -0.03619
                        -----------------------------------------
Magnitude (a.u.)       :      0.57211
Magnitude (Debye)      :      1.45418

                             ****ORCA TERMINATED NORMALLY****
TOTAL RUN TIME: 0 days 0 hours 17 minutes 38 seconds 945 msec
