                         Program Version 3.0.3 - RELEASE   -
|  1> ! RI-MP2 RIJK def2-TZVP def2-TZVP/C def2-TZVP/JK TIGHTSCF
|  2> % maxcore 2000
|  3> % mp2 density relaxed end
|  4> *xyz 0 1
|  5>  C        0.5690524320     1.5124359441     0.4217602079
|  6>  C       -0.1148825299     0.1838275879     0.0763180956
|  7>  C        0.3902722790    -0.3937722586    -1.2284320450
|  8>  N        1.7365858575    -0.9673576441    -1.2491697059
|  9>  C        0.6097489349    -1.8825753914    -1.4325251774
| 10>  C        0.3303638874    -2.8179583935    -0.3705641520
| 11>  N        0.0728336043    -3.5689141128     0.4697579034
| 12>  C       -0.0348825424     0.2947165691    -2.4956328948
| 13>  O        0.5562788592     0.1658793957    -3.5404761408
| 14>  H        1.6507281828     1.3739797053     0.5028633108
| 15>  H        0.3826731971     2.2765011629    -0.3413389165
| 16>  H        0.2003116470     1.8999876581     1.3751265672
| 17>  H        0.0529045444    -0.5412919446     0.8769612866
| 18>  H       -1.2014225215     0.3201323491     0.0001040499
| 19>  H        2.1443184130    -0.7865681066    -2.1685780960
| 20>  H        0.4188990536    -2.2648642741    -2.4316893397
| 21>  H       -0.9376877684     0.9338689936    -2.4121839033
| 22> *
| 23>
| 24>                          ****END OF INPUT****

CARTESIAN COORDINATES (ANGSTROEM)
---------------------------------
  C      0.569052    1.512436    0.421760
  C     -0.114883    0.183828    0.076318
  C      0.390272   -0.393772   -1.228432
  N      1.736586   -0.967358   -1.249170
  C      0.609749   -1.882575   -1.432525
  C      0.330364   -2.817958   -0.370564
  N      0.072834   -3.568914    0.469758
  C     -0.034883    0.294717   -2.495633
  O      0.556279    0.165879   -3.540476
  H      1.650728    1.373980    0.502863
  H      0.382673    2.276501   -0.341339
  H      0.200312    1.899988    1.375127
  H      0.052905   -0.541292    0.876961
  H     -1.201423    0.320132    0.000104
  H      2.144318   -0.786568   -2.168578
  H      0.418899   -2.264864   -2.431689
  H     -0.937688    0.933869   -2.412184

 Total Charge           Charge          ....    0
 Multiplicity           Mult            ....    1
 Number of Electrons    NEL             ....   66
 Basis Dimension        Dim             ....  327

ORBITAL ENERGIES
----------------

  NO   OCC          E(Eh)            E(eV)
   0   2.0000     -20.590735      -560.3024
   1   2.0000     -15.606327      -424.6697
   2   2.0000     -15.584527      -424.0765
   3   2.0000     -11.366055      -309.2861
   4   2.0000     -11.333960      -308.4127
   5   2.0000     -11.315815      -307.9190
   6   2.0000     -11.286057      -307.1092
   7   2.0000     -11.256911      -306.3161
   8   2.0000     -11.237530      -305.7887
   9   2.0000      -1.432443       -38.9788
  10   2.0000      -1.321050       -35.9476
  11   2.0000      -1.226985       -33.3880
  12   2.0000      -1.079466       -29.3738
  13   2.0000      -0.979848       -26.6630
  14   2.0000      -0.964533       -26.2463
  15   2.0000      -0.879060       -23.9204
  16   2.0000      -0.801402       -21.8072
  17   2.0000      -0.762849       -20.7582
  18   2.0000      -0.717771       -19.5315
  19   2.0000      -0.688868       -18.7450
  20   2.0000      -0.639599       -17.4044
  21   2.0000      -0.621821       -16.9206
  22   2.0000      -0.589857       -16.0508
  23   2.0000      -0.576044       -15.6749
  24   2.0000      -0.569840       -15.5061
  25   2.0000      -0.551378       -15.0038
  26   2.0000      -0.537294       -14.6205
  27   2.0000      -0.520273       -14.1574
  28   2.0000      -0.508897       -13.8478
  29   2.0000      -0.486801       -13.2465
  30   2.0000      -0.471714       -12.8360
  31   2.0000      -0.452273       -12.3070
  32   2.0000      -0.422050       -11.4846
  33   0.0000       0.081802         2.2259
  34   0.0000       0.125726         3.4212
  35   0.0000       0.138037         3.7562
  36   0.0000       0.145137         3.9494
  37   0.0000       0.169127         4.6022

MULLIKEN ATOMIC CHARGES
-----------------------
   0 C :   -0.420536
   1 C :   -0.220807
   2 C :    0.171645
   3 N :   -0.365491
   4 C :    0.002426
   5 C :   -0.162256
   6 N :   -0.051051
   7 C :    0.099694
   8 O :   -0.279520
   9 H :    0.154147
  10 H :    0.126731
  11 H :    0.146033
  12 H :    0.147615
  13 H :    0.122499
  14 H :    0.244852
  15 H :    0.178791
  16 H :    0.105227
Sum of atomic charges:    0.0000000

LOEWDIN ATOMIC CHARGES
----------------------
   0 C :   -0.304211
   1 C :   -0.241268
   2 C :   -0.278133
   3 N :    0.080472
   4 C :   -0.214050
   5 C :   -0.167657
   6 N :    0.079607
   7 C :   -0.251792
   8 O :    0.139286
   9 H :    0.130344
  10 H :    0.121636
  11 H :    0.126352
  12 H :    0.155538
  13 H :    0.147340
  14 H :    0.183435
  15 H :    0.167357
  16 H :    0.125745

  Mayer bond orders larger than 0.1
B(  0-C ,  1-C ) :   0.9198 B(  0-C ,  9-H ) :   0.9356 B(  0-C , 10-H ) :   0.9330
B(  0-C , 11-H ) :   0.9385 B(  1-C ,  2-C ) :   0.9240 B(  1-C , 12-H ) :   0.9270
B(  1-C , 13-H ) :   0.9226 B(  2-C ,  3-N ) :   0.8462 B(  2-C ,  4-C ) :   0.8453
B(  2-C ,  7-C ) :   0.8745 B(  3-N ,  4-C ) :   0.9807 B(  3-N , 14-H ) :   0.8471
B(  4-C ,  5-C ) :   0.9204 B(  4-C , 15-H ) :   0.8946 B(  5-C ,  6-N ) :   2.8310
B(  7-C ,  8-O ) :   1.9143 B(  7-C , 16-H ) :   0.9363

MP2 TOTAL ENERGY:     -417.300342285 Eh
FINAL SINGLE POINT ENERGY      -417.300342285190

DIPOLE MOMENT
-------------
                                X             Y             Z
Electronic contribution:      0.54666      -7.61133      -4.12402
Nuclear contribution   :     -0.95680       8.74918       3.67325
                        -----------------------------------------
Total Dipole Moment    :     -0.41014       1.13785      -0.45077
                        -----------------------------------------
Magnitude (a.u.)       :      1.29078
Magnitude (Debye)      :      3.28090

                             ****ORCA TERMINATED NORMALLY****
TOTAL RUN TIME: 0 days 0 hours 15 minutes 55 seconds 779 msec
