                         Program Version 3.0.3 - RELEASE   -
|  1> ! RI-MP2 RIJK def2-TZVP def2-TZVP/C def2-TZVP/JK TIGHTSCF
|  2> % maxcore 2000
|  3> % mp2 density relaxed end
|  4> *xyz 0 1
|  5>  C       -0.6217028017     1.5271304835    -0.2794629048
|  6>  C       -0.2678340805     0.0460780158    -0.2437558764
|  7>  C        0.9956079346    -0.4826005974    -1.0425572791
|  8>  C        1.8412456970     0.4864478898    -1.8455306182
|  9>  O        1.0854814831     0.8810163155    -2.9863981067
| 10>  C        1.5706142827    -0.9648058830     0.2949440238
| 11>  O        1.6589547974     0.1786740307     1.1628572856
| 12>  C        0.3923898449    -0.4956657522     1.0442130626
| 13>  C       -0.2647839446    -0.9795488530     2.2956243212
| 14>  H        0.1929054126     2.1290206968     0.1328345927
| 15>  H       -0.8040604651     1.8535743600    -1.3065476305
| 16>  H       -1.5216287139     1.7286834224     0.3119742710
| 17>  H       -1.1390469940    -0.5605035310    -0.5115399863
| 18>  H        0.7120665491    -1.3240926954    -1.6823119482
| 19>  H        2.1128982008     1.3488277911    -1.2229214349
| 20>  H        2.7777088685    -0.0126371086    -2.1463534807
| 21>  H        1.5762272009     1.5675212873    -3.4474649859
| 22>  H        2.2560562312    -1.7829282218     0.4913244815
| 23>  H       -0.7370416903    -0.1497888902     2.8339411045
| 24>  H       -1.0426881987    -1.7148655707     2.0652846495
| 25>  H        0.4697673160    -1.4407548294     2.9613165994
| 26> *
| 27>
| 28>                          ****END OF INPUT****

CARTESIAN COORDINATES (ANGSTROEM)
---------------------------------
  C     -0.621703    1.527130   -0.279463
  C     -0.267834    0.046078   -0.243756
  C      0.995608   -0.482601   -1.042557
  C      1.841246    0.486448   -1.845531
  O      1.085481    0.881016   -2.986398
  C      1.570614   -0.964806    0.294944
  O      1.658955    0.178674    1.162857
  C      0.392390   -0.495666    1.044213
  C     -0.264784   -0.979549    2.295624
  H      0.192905    2.129021    0.132835
  H     -0.804060    1.853574   -1.306548
  H     -1.521629    1.728683    0.311974
  H     -1.139047   -0.560504   -0.511540
  H      0.712067   -1.324093   -1.682312
  H      2.112898    1.348828   -1.222921
  H      2.777709   -0.012637   -2.146353
  H      1.576227    1.567521   -3.447465
  H      2.256056   -1.782928    0.491324
  H     -0.737042   -0.149789    2.833941
  H     -1.042688   -1.714866    2.065285
  H      0.469767   -1.440755    2.961317

 Total Charge           Charge          ....    0
 Multiplicity           Mult            ....    1
 Number of Electrons    NEL             ....   70
 Basis Dimension        Dim             ....  351

ORBITAL ENERGIES
----------------

  NO   OCC          E(Eh)            E(eV)
   0   2.0000     -20.558402      -559.4226
   1   2.0000     -20.554250      -559.3096
   2   2.0000     -11.283706      -307.0452
   3   2.0000     -11.277801      -306.8846
   4   2.0000     -11.271536      -306.7141
   5   2.0000     -11.232234      -305.6446
   6   2.0000     -11.231726      -305.6308
   7   2.0000     -11.225937      -305.4733
   8   2.0000     -11.204445      -304.8885
   9   2.0000      -1.409561       -38.3561
  10   2.0000      -1.357139       -36.9296
  11   2.0000      -1.096425       -29.8352
  12   2.0000      -1.010479       -27.4965
  13   2.0000      -0.977077       -26.5876
  14   2.0000      -0.926586       -25.2137
  15   2.0000      -0.839109       -22.8333
  16   2.0000      -0.796243       -21.6669
  17   2.0000      -0.722931       -19.6720
  18   2.0000      -0.709486       -19.3061
  19   2.0000      -0.673428       -18.3249
  20   2.0000      -0.633849       -17.2479
  21   2.0000      -0.624686       -16.9986
  22   2.0000      -0.593577       -16.1521
  23   2.0000      -0.582586       -15.8530
  24   2.0000      -0.566758       -15.4223
  25   2.0000      -0.549477       -14.9520
  26   2.0000      -0.542004       -14.7487
  27   2.0000      -0.520308       -14.1583
  28   2.0000      -0.519041       -14.1238
  29   2.0000      -0.486397       -13.2355
  30   2.0000      -0.464950       -12.6519
  31   2.0000      -0.456599       -12.4247
  32   2.0000      -0.448286       -12.1985
  33   2.0000      -0.412979       -11.2377
  34   2.0000      -0.386322       -10.5124
  35   0.0000       0.134555         3.6614
  36   0.0000       0.143051         3.8926
  37   0.0000       0.163789         4.4569
  38   0.0000       0.174570         4.7503
  39   0.0000       0.181389         4.9358

MULLIKEN ATOMIC CHARGES
-----------------------
   0 C :   -0.452236
   1 C :   -0.033598
   2 C :    0.021309
   3 C :   -0.126939
   4 O :   -0.473815
   5 C :   -0.063381
   6 O :   -0.345932
   7 C :    0.173342
   8 C :   -0.425914
   9 H :    0.142285
  10 H :    0.149935
  11 H :    0.127938
  12 H :    0.102142
  13 H :    0.105155
  14 H :    0.126540
  15 H :    0.101611
  16 H :    0.316662
  17 H :    0.134086
  18 H :    0.141813
  19 H :    0.134717
  20 H :    0.144279
Sum of atomic charges:   -0.0000000

LOEWDIN ATOMIC CHARGES
----------------------
   0 C :   -0.296579
   1 C :   -0.183714
   2 C :   -0.193266
   3 C :   -0.327628
   4 O :   -0.050553
   5 C :   -0.206113
   6 O :    0.180579
   7 C :   -0.283242
   8 C :   -0.271818
   9 H :    0.127828
  10 H :    0.128981
  11 H :    0.122827
  12 H :    0.152102
  13 H :    0.155628
  14 H :    0.123460
  15 H :    0.118946
  16 H :    0.171765
  17 H :    0.129577
  18 H :    0.133285
  19 H :    0.132473
  20 H :    0.135463

  Mayer bond orders larger than 0.1
B(  0-C ,  1-C ) :   0.8722 B(  0-C ,  9-H ) :   0.9429 B(  0-C , 10-H ) :   0.9343
B(  0-C , 11-H ) :   0.9324 B(  1-C ,  2-C ) :   0.9740 B(  1-C ,  7-C ) :   0.9154
B(  1-C , 12-H ) :   0.9092 B(  2-C ,  3-C ) :   0.8914 B(  2-C ,  5-C ) :   0.8738
B(  2-C , 13-H ) :   0.8978 B(  3-C ,  4-O ) :   1.0065 B(  3-C , 14-H ) :   0.9337
B(  3-C , 15-H ) :   0.9301 B(  4-O , 16-H ) :   0.8483 B(  5-C ,  6-O ) :   0.9077
B(  5-C ,  7-C ) :   0.8634 B(  5-C , 17-H ) :   0.9218 B(  6-O ,  7-C ) :   0.8778
B(  7-C ,  8-C ) :   0.8691 B(  8-C , 18-H ) :   0.9381 B(  8-C , 19-H ) :   0.9395
B(  8-C , 20-H ) :   0.9384

MP2 TOTAL ENERGY:     -423.489367944 Eh
FINAL SINGLE POINT ENERGY      -423.489367943777

DIPOLE MOMENT
-------------
                                X             Y             Z
Electronic contribution:      3.59459      -1.08855      -1.13606
Nuclear contribution   :     -3.56017       0.83017       1.01451
                        -----------------------------------------
Total Dipole Moment    :      0.03442      -0.25838      -0.12155
                        -----------------------------------------
Magnitude (a.u.)       :      0.28761
Magnitude (Debye)      :      0.73104

                             ****ORCA TERMINATED NORMALLY****
TOTAL RUN TIME: 0 days 0 hours 29 minutes 7 seconds 798 msec
