                         Program Version 3.0.3 - RELEASE   -
|  1> ! RI-MP2 RIJK def2-TZVP def2-TZVP/C def2-TZVP/JK TIGHTSCF
|  2> % maxcore 2000
|  3> % mp2 density relaxed end
|  4> *xyz 0 1
|  5>  O       -0.1054267367    -0.0017064886    -0.2017780428
|  6>  C       -0.0831377059     1.1757769483    -0.0135041943
|  7>  C       -1.0854633145     2.2532562136     0.4187707833
|  8>  O       -0.0276051719     3.2314413549     0.3874121827
|  9>  C        0.9824896357     2.2840707665    -0.0563157568
| 10>  C        2.1631874486     2.1520345265     0.8803702486
| 11>  C        3.3068699952     1.1790100681     0.4726805253
| 12>  C        4.3270068791     2.2196523847     1.0098253433
| 13>  C        3.2132355349     3.2993162795     0.9303387078
| 14>  H       -1.8850760884     2.4587434631    -0.3049699278
| 15>  H       -1.5247745375     2.1228770342     1.4159132314
| 16>  H        1.3223293068     2.5179110852    -1.0768397482
| 17>  H        1.8004947417     1.9229318322     1.8880147881
| 18>  H        3.2994658079     0.1810145029     0.9146611756
| 19>  H        3.3714305997     1.0735417281    -0.6150546655
| 20>  H        4.6146689958     2.0085425696     2.0435756796
| 21>  H        5.2349618834     2.3851019543     0.4257981539
| 22>  H        3.2461137619     3.8478841701    -0.0164864064
| 23>  H        3.1318019043     4.0201855269     1.7460134520
| 24> *
| 25>
| 26>                          ****END OF INPUT****

CARTESIAN COORDINATES (ANGSTROEM)
---------------------------------
  O     -0.105427   -0.001706   -0.201778
  C     -0.083138    1.175777   -0.013504
  C     -1.085463    2.253256    0.418771
  O     -0.027605    3.231441    0.387412
  C      0.982490    2.284071   -0.056316
  C      2.163187    2.152035    0.880370
  C      3.306870    1.179010    0.472681
  C      4.327007    2.219652    1.009825
  C      3.213236    3.299316    0.930339
  H     -1.885076    2.458743   -0.304970
  H     -1.524775    2.122877    1.415913
  H      1.322329    2.517911   -1.076840
  H      1.800495    1.922932    1.888015
  H      3.299466    0.181015    0.914661
  H      3.371431    1.073542   -0.615055
  H      4.614669    2.008543    2.043576
  H      5.234962    2.385102    0.425798
  H      3.246114    3.847884   -0.016486
  H      3.131802    4.020186    1.746013

 Total Charge           Charge          ....    0
 Multiplicity           Mult            ....    1
 Number of Electrons    NEL             ....   68
 Basis Dimension        Dim             ....  339

ORBITAL ENERGIES
----------------

  NO   OCC          E(Eh)            E(eV)
   0   2.0000     -20.571574      -559.7810
   1   2.0000     -20.569610      -559.7276
   2   2.0000     -11.345805      -308.7351
   3   2.0000     -11.299325      -307.4703
   4   2.0000     -11.298991      -307.4612
   5   2.0000     -11.241387      -305.8937
   6   2.0000     -11.229218      -305.5626
   7   2.0000     -11.228636      -305.5467
   8   2.0000     -11.227032      -305.5031
   9   2.0000      -1.422378       -38.7049
  10   2.0000      -1.390447       -37.8360
  11   2.0000      -1.141098       -31.0509
  12   2.0000      -0.998356       -27.1667
  13   2.0000      -0.977100       -26.5882
  14   2.0000      -0.904465       -24.6117
  15   2.0000      -0.875406       -23.8210
  16   2.0000      -0.767008       -20.8713
  17   2.0000      -0.748568       -20.3696
  18   2.0000      -0.689420       -18.7601
  19   2.0000      -0.683361       -18.5952
  20   2.0000      -0.664902       -18.0929
  21   2.0000      -0.654116       -17.7994
  22   2.0000      -0.618723       -16.8363
  23   2.0000      -0.584596       -15.9077
  24   2.0000      -0.547704       -14.9038
  25   2.0000      -0.543305       -14.7841
  26   2.0000      -0.539139       -14.6707
  27   2.0000      -0.527840       -14.3633
  28   2.0000      -0.493687       -13.4339
  29   2.0000      -0.481150       -13.0927
  30   2.0000      -0.460636       -12.5345
  31   2.0000      -0.450373       -12.2553
  32   2.0000      -0.430361       -11.7107
  33   2.0000      -0.401790       -10.9333
  34   0.0000       0.120373         3.2755
  35   0.0000       0.138438         3.7671
  36   0.0000       0.149399         4.0654
  37   0.0000       0.153551         4.1783
  38   0.0000       0.159591         4.3427

MULLIKEN ATOMIC CHARGES
-----------------------
   0 O :   -0.240768
   1 C :    0.110517
   2 C :   -0.039933
   3 O :   -0.335870
   4 C :    0.089781
   5 C :   -0.065465
   6 C :   -0.258532
   7 C :   -0.199721
   8 C :   -0.235476
   9 H :    0.125180
  10 H :    0.124873
  11 H :    0.115528
  12 H :    0.100082
  13 H :    0.128209
  14 H :    0.113413
  15 H :    0.114222
  16 H :    0.117791
  17 H :    0.112130
  18 H :    0.124038
Sum of atomic charges:    0.0000000

LOEWDIN ATOMIC CHARGES
----------------------
   0 O :    0.177313
   1 C :   -0.297860
   2 C :   -0.248261
   3 O :    0.141737
   4 C :   -0.240260
   5 C :   -0.214711
   6 C :   -0.212134
   7 C :   -0.241671
   8 C :   -0.213041
   9 H :    0.130601
  10 H :    0.130051
  11 H :    0.148577
  12 H :    0.155982
  13 H :    0.127040
  14 H :    0.137398
  15 H :    0.133746
  16 H :    0.122643
  17 H :    0.136716
  18 H :    0.126133

  Mayer bond orders larger than 0.1
B(  0-O ,  1-C ) :   2.0529 B(  1-C ,  2-C ) :   0.9687 B(  1-C ,  4-C ) :   0.8513
B(  2-C ,  3-O ) :   0.9557 B(  2-C ,  9-H ) :   0.9002 B(  2-C , 10-H ) :   0.8994
B(  3-O ,  4-C ) :   0.9179 B(  4-C ,  5-C ) :   0.9354 B(  4-C , 11-H ) :   0.8772
B(  5-C ,  6-C ) :   0.9312 B(  5-C ,  8-C ) :   0.9256 B(  5-C , 12-H ) :   0.9039
B(  6-C ,  7-C ) :   0.9336 B(  6-C , 13-H ) :   0.9313 B(  6-C , 14-H ) :   0.9198
B(  7-C ,  8-C ) :   0.9321 B(  7-C , 15-H ) :   0.9269 B(  7-C , 16-H ) :   0.9269
B(  8-C , 17-H ) :   0.9203 B(  8-C , 18-H ) :   0.9313

MP2 TOTAL ENERGY:     -422.292384665 Eh
FINAL SINGLE POINT ENERGY      -422.292384664538

DIPOLE MOMENT
-------------
                                X             Y             Z
Electronic contribution:     -7.96548      -2.29939      -1.95187
Nuclear contribution   :      8.17901       2.59425       2.05852
                        -----------------------------------------
Total Dipole Moment    :      0.21353       0.29486       0.10665
                        -----------------------------------------
Magnitude (a.u.)       :      0.37936
Magnitude (Debye)      :      0.96425

                             ****ORCA TERMINATED NORMALLY****
TOTAL RUN TIME: 0 days 0 hours 17 minutes 53 seconds 79 msec
