                         Program Version 3.0.3 - RELEASE   -
|  1> ! RI-MP2 RIJK def2-TZVP def2-TZVP/C def2-TZVP/JK TIGHTSCF
|  2> % maxcore 2000
|  3> % mp2 density relaxed end
|  4> *xyz 0 1
|  5>  C       -0.1206184451     1.5611570133     0.0489881615
|  6>  C        1.3384290532     2.1538165657     0.0477152966
|  7>  C        2.1839997254     1.5631065125    -1.1130121723
|  8>  C        3.0732012927     0.2840336288    -1.0413913435
|  9>  C        2.1893436554    -0.9530838730    -1.1277166751
| 10>  N        2.5870481037    -0.2290008659    -2.3705794876
| 11>  C        1.3672191624     0.6720546716    -2.0729384631
| 12>  C        0.8447685438    -0.3103501748    -1.0353505181
| 13>  C        0.0575745524     0.0592833957    -0.0260251232
| 14>  H       -0.6647594337     1.8738641742     0.9433864830
| 15>  H       -0.6673563581     1.9614471708    -0.8130107892
| 16>  H        1.2914524074     3.2442779118    -0.0486370773
| 17>  H        1.8061098093     1.9438433076     1.0154892714
| 18>  H        2.7481631874     2.3379894091    -1.6396198346
| 19>  H        4.1231046398     0.2239006338    -0.7709028308
| 20>  H        2.5579870390    -1.9421116077    -0.8807133178
| 21>  H        0.7649228498     1.0600611715    -2.8918307760
| 22>  H       -0.0930233548    -0.5557511752     0.8562787862
| 23> *
| 24>
| 25>                          ****END OF INPUT****

CARTESIAN COORDINATES (ANGSTROEM)
---------------------------------
  C     -0.120618    1.561157    0.048988
  C      1.338429    2.153817    0.047715
  C      2.184000    1.563107   -1.113012
  C      3.073201    0.284034   -1.041391
  C      2.189344   -0.953084   -1.127717
  N      2.587048   -0.229001   -2.370579
  C      1.367219    0.672055   -2.072938
  C      0.844769   -0.310350   -1.035351
  C      0.057575    0.059283   -0.026025
  H     -0.664759    1.873864    0.943386
  H     -0.667356    1.961447   -0.813011
  H      1.291452    3.244278   -0.048637
  H      1.806110    1.943843    1.015489
  H      2.748163    2.337989   -1.639620
  H      4.123105    0.223901   -0.770903
  H      2.557987   -1.942112   -0.880713
  H      0.764923    1.060061   -2.891831
  H     -0.093023   -0.555751    0.856279

 Total Charge           Charge          ....    0
 Multiplicity           Mult            ....    1
 Number of Electrons    NEL             ....   64
 Basis Dimension        Dim             ....  333

ORBITAL ENERGIES
----------------

  NO   OCC          E(Eh)            E(eV)
   0   2.0000     -15.562499      -423.4771
   1   2.0000     -11.274322      -306.7899
   2   2.0000     -11.268867      -306.6415
   3   2.0000     -11.263322      -306.4906
   4   2.0000     -11.245979      -306.0186
   5   2.0000     -11.237841      -305.7972
   6   2.0000     -11.237624      -305.7913
   7   2.0000     -11.232588      -305.6543
   8   2.0000     -11.227640      -305.5196
   9   2.0000      -1.325607       -36.0716
  10   2.0000      -1.109490       -30.1908
  11   2.0000      -1.022585       -27.8259
  12   2.0000      -0.971643       -26.4397
  13   2.0000      -0.912955       -24.8428
  14   2.0000      -0.884169       -24.0595
  15   2.0000      -0.807982       -21.9863
  16   2.0000      -0.736915       -20.0525
  17   2.0000      -0.720055       -19.5937
  18   2.0000      -0.673220       -18.3193
  19   2.0000      -0.653924       -17.7942
  20   2.0000      -0.605560       -16.4781
  21   2.0000      -0.598705       -16.2916
  22   2.0000      -0.557701       -15.1758
  23   2.0000      -0.535990       -14.5850
  24   2.0000      -0.530221       -14.4280
  25   2.0000      -0.514105       -13.9895
  26   2.0000      -0.478488       -13.0203
  27   2.0000      -0.454421       -12.3654
  28   2.0000      -0.436210       -11.8699
  29   2.0000      -0.409407       -11.1405
  30   2.0000      -0.396958       -10.8018
  31   2.0000      -0.319033        -8.6813
  32   0.0000       0.116690         3.1753
  33   0.0000       0.136403         3.7117
  34   0.0000       0.161308         4.3894
  35   0.0000       0.164941         4.4883
  36   0.0000       0.173550         4.7225

MULLIKEN ATOMIC CHARGES
-----------------------
   0 C :   -0.204886
   1 C :   -0.242030
   2 C :   -0.080319
   3 C :   -0.077875
   4 C :   -0.181546
   5 N :   -0.211779
   6 C :   -0.015566
   7 C :    0.056901
   8 C :   -0.207298
   9 H :    0.132454
  10 H :    0.126281
  11 H :    0.124072
  12 H :    0.116106
  13 H :    0.115507
  14 H :    0.134716
  15 H :    0.139805
  16 H :    0.148176
  17 H :    0.127282
Sum of atomic charges:    0.0000000

LOEWDIN ATOMIC CHARGES
----------------------
   0 C :   -0.238639
   1 C :   -0.225391
   2 C :   -0.185066
   3 C :   -0.167454
   4 C :   -0.175312
   5 N :    0.142113
   6 C :   -0.140280
   7 C :   -0.131821
   8 C :   -0.136323
   9 H :    0.137601
  10 H :    0.144817
  11 H :    0.136130
  12 H :    0.139195
  13 H :    0.153788
  14 H :    0.131997
  15 H :    0.137947
  16 H :    0.136572
  17 H :    0.140126

  Mayer bond orders larger than 0.1
B(  0-C ,  1-C ) :   0.9238 B(  0-C ,  8-C ) :   0.9465 B(  0-C ,  9-H ) :   0.9353
B(  0-C , 10-H ) :   0.9134 B(  1-C ,  2-C ) :   0.9244 B(  1-C , 11-H ) :   0.9227
B(  1-C , 12-H ) :   0.9244 B(  2-C ,  3-C ) :   0.9111 B(  2-C ,  6-C ) :   0.9101
B(  2-C , 13-H ) :   0.9095 B(  3-C ,  4-C ) :   0.8981 B(  3-C ,  5-N ) :   0.8617
B(  3-C , 14-H ) :   0.9109 B(  4-C ,  5-N ) :   0.9580 B(  4-C ,  7-C ) :   0.9484
B(  4-C , 15-H ) :   0.9087 B(  5-N ,  6-C ) :   0.9665 B(  6-C ,  7-C ) :   0.9273
B(  6-C , 16-H ) :   0.8956 B(  7-C ,  8-C ) :   1.7227 B(  8-C , 17-H ) :   0.9259

MP2 TOTAL ENERGY:     -364.056955797 Eh
FINAL SINGLE POINT ENERGY      -364.056955796862

DIPOLE MOMENT
-------------
                                X             Y             Z
Electronic contribution:      1.47005      -4.22240      -3.26506
Nuclear contribution   :     -1.58139       4.73756       4.05726
                        -----------------------------------------
Total Dipole Moment    :     -0.11133       0.51516       0.79220
                        -----------------------------------------
Magnitude (a.u.)       :      0.95150
Magnitude (Debye)      :      2.41853

                             ****ORCA TERMINATED NORMALLY****
TOTAL RUN TIME: 0 days 0 hours 19 minutes 55 seconds 283 msec
