                         Program Version 3.0.3 - RELEASE   -
|  1> ! RI-MP2 RIJK def2-TZVP def2-TZVP/C def2-TZVP/JK TIGHTSCF
|  2> % maxcore 2000
|  3> % mp2 density relaxed end
|  4> *xyz 0 1
|  5>  C        0.2211746817     1.5049333219    -0.1987941649
|  6>  C       -0.1398310552     0.0542806066     0.1398651443
|  7>  C        0.6853470510    -0.5145057143     1.2734931858
|  8>  C        2.0601317839    -1.0621048649     0.9886192834
|  9>  C        0.9219144149    -2.0032574757     1.3727056711
| 10>  C        0.9283512142    -2.6758384246     2.7449327764
| 11>  C        0.3462731916    -1.7582936086     3.8332626367
| 12>  C        0.8589915406    -0.3306604063     3.6690179569
| 13>  O        0.4423912885     0.2381668195     2.4375831420
| 14>  H        1.2654607186     1.5862793292    -0.5187901303
| 15>  H       -0.4099480775     1.8872650447    -1.0069363863
| 16>  H        0.0877004093     2.1475154838     0.6749075511
| 17>  H       -1.1990777533    -0.0090276256     0.4187641265
| 18>  H       -0.0049631085    -0.5828794073    -0.7416806887
| 19>  H        2.4125057783    -1.0590406447    -0.0377079972
| 20>  H        2.8432611427    -0.9138640296     1.7251655673
| 21>  H        0.5106400534    -2.6012935865     0.5647806149
| 22>  H        0.3510966642    -3.6046578147     2.7013392686
| 23>  H        1.9512836730    -2.9654565393     3.0160696394
| 24>  H       -0.7475883307    -1.7358539462     3.7604283750
| 25>  H        0.6003780761    -2.1320342021     4.8311652828
| 26>  H        0.4525763316     0.3282720479     4.4417808073
| 27>  H        1.9576481616    -0.3038805831     3.7607252179
| 28> *
| 29>
| 30>                          ****END OF INPUT****

CARTESIAN COORDINATES (ANGSTROEM)
---------------------------------
  C      0.221175    1.504933   -0.198794
  C     -0.139831    0.054281    0.139865
  C      0.685347   -0.514506    1.273493
  C      2.060132   -1.062105    0.988619
  C      0.921914   -2.003257    1.372706
  C      0.928351   -2.675838    2.744933
  C      0.346273   -1.758294    3.833263
  C      0.858992   -0.330660    3.669018
  O      0.442391    0.238167    2.437583
  H      1.265461    1.586279   -0.518790
  H     -0.409948    1.887265   -1.006936
  H      0.087700    2.147515    0.674908
  H     -1.199078   -0.009028    0.418764
  H     -0.004963   -0.582879   -0.741681
  H      2.412506   -1.059041   -0.037708
  H      2.843261   -0.913864    1.725166
  H      0.510640   -2.601294    0.564781
  H      0.351097   -3.604658    2.701339
  H      1.951284   -2.965457    3.016070
  H     -0.747588   -1.735854    3.760428
  H      0.600378   -2.132034    4.831165
  H      0.452576    0.328272    4.441781
  H      1.957648   -0.303881    3.760725

 Total Charge           Charge          ....    0
 Multiplicity           Mult            ....    1
 Number of Electrons    NEL             ....   70
 Basis Dimension        Dim             ....  363

ORBITAL ENERGIES
----------------

  NO   OCC          E(Eh)            E(eV)
   0   2.0000     -20.549804      -559.1886
   1   2.0000     -11.279614      -306.9339
   2   2.0000     -11.270811      -306.6944
   3   2.0000     -11.225507      -305.4616
   4   2.0000     -11.224798      -305.4423
   5   2.0000     -11.220564      -305.3271
   6   2.0000     -11.216535      -305.2174
   7   2.0000     -11.215794      -305.1973
   8   2.0000     -11.202634      -304.8392
   9   2.0000      -1.375035       -37.4166
  10   2.0000      -1.136637       -30.9295
  11   2.0000      -1.064862       -28.9764
  12   2.0000      -1.009332       -27.4653
  13   2.0000      -0.927375       -25.2352
  14   2.0000      -0.872595       -23.7445
  15   2.0000      -0.830927       -22.6107
  16   2.0000      -0.784593       -21.3499
  17   2.0000      -0.728942       -19.8355
  18   2.0000      -0.672711       -18.3054
  19   2.0000      -0.653776       -17.7902
  20   2.0000      -0.621369       -16.9083
  21   2.0000      -0.610788       -16.6204
  22   2.0000      -0.595266       -16.1980
  23   2.0000      -0.578373       -15.7383
  24   2.0000      -0.567391       -15.4395
  25   2.0000      -0.532781       -14.4977
  26   2.0000      -0.530551       -14.4370
  27   2.0000      -0.498700       -13.5703
  28   2.0000      -0.491221       -13.3668
  29   2.0000      -0.483594       -13.1593
  30   2.0000      -0.476421       -12.9641
  31   2.0000      -0.461144       -12.5484
  32   2.0000      -0.459201       -12.4955
  33   2.0000      -0.391556       -10.6548
  34   2.0000      -0.360196        -9.8014
  35   0.0000       0.136359         3.7105
  36   0.0000       0.152529         4.1505
  37   0.0000       0.160056         4.3553
  38   0.0000       0.171493         4.6666
  39   0.0000       0.185770         5.0551

MULLIKEN ATOMIC CHARGES
-----------------------
   0 C :   -0.404093
   1 C :   -0.225689
   2 C :    0.272448
   3 C :   -0.350122
   4 C :   -0.121532
   5 C :   -0.251326
   6 C :   -0.201858
   7 C :   -0.094094
   8 O :   -0.300361
   9 H :    0.119816
  10 H :    0.128824
  11 H :    0.142657
  12 H :    0.109944
  13 H :    0.105378
  14 H :    0.127938
  15 H :    0.128548
  16 H :    0.120224
  17 H :    0.123194
  18 H :    0.120475
  19 H :    0.108194
  20 H :    0.118169
  21 H :    0.130604
  22 H :    0.092664
Sum of atomic charges:   -0.0000000

LOEWDIN ATOMIC CHARGES
----------------------
   0 C :   -0.312369
   1 C :   -0.248725
   2 C :   -0.320239
   3 C :   -0.195629
   4 C :   -0.185703
   5 C :   -0.245551
   6 C :   -0.267026
   7 C :   -0.311415
   8 O :    0.213053
   9 H :    0.120553
  10 H :    0.118734
  11 H :    0.125687
  12 H :    0.142034
  13 H :    0.141992
  14 H :    0.134002
  15 H :    0.134635
  16 H :    0.147240
  17 H :    0.140499
  18 H :    0.139584
  19 H :    0.140754
  20 H :    0.138362
  21 H :    0.130161
  22 H :    0.119368

  Mayer bond orders larger than 0.1
B(  0-C ,  1-C ) :   0.9318 B(  0-C ,  9-H ) :   0.9375 B(  0-C , 10-H ) :   0.9396
B(  0-C , 11-H ) :   0.9372 B(  1-C ,  2-C ) :   0.9231 B(  1-C , 12-H ) :   0.9311
B(  1-C , 13-H ) :   0.9316 B(  2-C ,  3-C ) :   0.8686 B(  2-C ,  4-C ) :   0.8495
B(  2-C ,  8-O ) :   0.9757 B(  3-C ,  4-C ) :   0.8735 B(  3-C , 14-H ) :   0.9191
B(  3-C , 15-H ) :   0.9158 B(  4-C ,  5-C ) :   0.8979 B(  4-C , 16-H ) :   0.9153
B(  5-C ,  6-C ) :   0.9444 B(  5-C , 17-H ) :   0.9330 B(  5-C , 18-H ) :   0.9329
B(  6-C ,  7-C ) :   0.9310 B(  6-C , 19-H ) :   0.9219 B(  6-C , 20-H ) :   0.9261
B(  7-C ,  8-O ) :   0.9326 B(  7-C , 21-H ) :   0.9289 B(  7-C , 22-H ) :   0.9407

MP2 TOTAL ENERGY:     -387.610459718 Eh
FINAL SINGLE POINT ENERGY      -387.610459718480

DIPOLE MOMENT
-------------
                                X             Y             Z
Electronic contribution:     -0.18967      -0.28703       1.81158
Nuclear contribution   :      0.29803      -0.19868      -1.67281
                        -----------------------------------------
Total Dipole Moment    :      0.10836      -0.48571       0.13877
                        -----------------------------------------
Magnitude (a.u.)       :      0.51663
Magnitude (Debye)      :      1.31318

                             ****ORCA TERMINATED NORMALLY****
TOTAL RUN TIME: 0 days 0 hours 20 minutes 50 seconds 920 msec
