                         Program Version 3.0.3 - RELEASE   -
|  1> ! RI-MP2 RIJK def2-TZVP def2-TZVP/C def2-TZVP/JK TIGHTSCF
|  2> % maxcore 2000
|  3> % mp2 density relaxed end
|  4> *xyz 0 1
|  5>  C        0.1274547495     1.5510431029    -0.1427553063
|  6>  C        0.0333804411     0.0453088287     0.0248514734
|  7>  O        0.6139618784    -0.5977589668    -1.1356659983
|  8>  C        1.1308316702    -1.8214219265    -0.8071556630
|  9>  N        1.4079065591    -2.7417810426    -1.6232441305
| 10>  C        1.3652758149    -1.8837828424     0.6894337266
| 11>  O        2.6985949590    -1.4454075025     1.0343122402
| 12>  C        2.2031415930    -0.1843366382     1.5334022791
| 13>  C        0.7406807275    -0.5817251123     1.2346341918
| 14>  H        1.1665804845     1.8802856307    -0.2200041289
| 15>  H       -0.3959951414     1.8628726268    -1.0502210091
| 16>  H       -0.3370878583     2.0539367136     0.7112206107
| 17>  H       -1.0261027061    -0.2464819130     0.0571594202
| 18>  H        1.1853454658    -2.4562199018    -2.5792703232
| 19>  H        1.1247728464    -2.8598180138     1.1149081929
| 20>  H        2.4385923095    -0.0502539092     2.5952652061
| 21>  H        2.6038939775     0.6659727013     0.9703333827
| 22>  H        0.0902455693    -0.6493566649     2.1057730657
| 23> *
| 24>
| 25>                          ****END OF INPUT****

CARTESIAN COORDINATES (ANGSTROEM)
---------------------------------
  C      0.127455    1.551043   -0.142755
  C      0.033380    0.045309    0.024851
  O      0.613962   -0.597759   -1.135666
  C      1.130832   -1.821422   -0.807156
  N      1.407907   -2.741781   -1.623244
  C      1.365276   -1.883783    0.689434
  O      2.698595   -1.445408    1.034312
  C      2.203142   -0.184337    1.533402
  C      0.740681   -0.581725    1.234634
  H      1.166580    1.880286   -0.220004
  H     -0.395995    1.862873   -1.050221
  H     -0.337088    2.053937    0.711221
  H     -1.026103   -0.246482    0.057159
  H      1.185345   -2.456220   -2.579270
  H      1.124773   -2.859818    1.114908
  H      2.438592   -0.050254    2.595265
  H      2.603894    0.665973    0.970333
  H      0.090246   -0.649357    2.105773

 Total Charge           Charge          ....    0
 Multiplicity           Mult            ....    1
 Number of Electrons    NEL             ....   68
 Basis Dimension        Dim             ....  333

ORBITAL ENERGIES
----------------

  NO   OCC          E(Eh)            E(eV)
   0   2.0000     -20.594414      -560.4025
   1   2.0000     -20.563837      -559.5704
   2   2.0000     -15.537012      -422.7836
   3   2.0000     -11.333652      -308.4043
   4   2.0000     -11.310758      -307.7814
   5   2.0000     -11.302745      -307.5633
   6   2.0000     -11.293707      -307.3174
   7   2.0000     -11.256218      -306.2973
   8   2.0000     -11.236984      -305.7739
   9   2.0000      -1.435285       -39.0561
  10   2.0000      -1.388681       -37.7879
  11   2.0000      -1.197931       -32.5974
  12   2.0000      -1.080824       -29.4107
  13   2.0000      -1.016418       -27.6581
  14   2.0000      -0.965220       -26.2650
  15   2.0000      -0.879657       -23.9367
  16   2.0000      -0.796026       -21.6610
  17   2.0000      -0.776228       -21.1222
  18   2.0000      -0.728660       -19.8278
  19   2.0000      -0.686770       -18.6880
  20   2.0000      -0.668299       -18.1853
  21   2.0000      -0.644934       -17.5495
  22   2.0000      -0.618415       -16.8279
  23   2.0000      -0.602987       -16.4081
  24   2.0000      -0.589502       -16.0412
  25   2.0000      -0.567535       -15.4434
  26   2.0000      -0.540290       -14.7020
  27   2.0000      -0.533655       -14.5215
  28   2.0000      -0.510011       -13.8781
  29   2.0000      -0.478248       -13.0138
  30   2.0000      -0.460814       -12.5394
  31   2.0000      -0.450147       -12.2491
  32   2.0000      -0.420110       -11.4318
  33   2.0000      -0.401725       -10.9315
  34   0.0000       0.123188         3.3521
  35   0.0000       0.142701         3.8831
  36   0.0000       0.150448         4.0939
  37   0.0000       0.168829         4.5941
  38   0.0000       0.176637         4.8065

MULLIKEN ATOMIC CHARGES
-----------------------
   0 C :   -0.381598
   1 C :    0.054937
   2 O :   -0.264271
   3 C :    0.070982
   4 N :   -0.361117
   5 C :    0.151429
   6 O :   -0.320004
   7 C :   -0.039564
   8 C :   -0.102612
   9 H :    0.130750
  10 H :    0.149032
  11 H :    0.132629
  12 H :    0.094382
  13 H :    0.223823
  14 H :    0.118703
  15 H :    0.105638
  16 H :    0.095612
  17 H :    0.141249
Sum of atomic charges:    0.0000000

LOEWDIN ATOMIC CHARGES
----------------------
   0 C :   -0.286168
   1 C :   -0.285843
   2 O :    0.249069
   3 C :   -0.388192
   4 N :   -0.038315
   5 C :   -0.210849
   6 O :    0.150094
   7 C :   -0.240369
   8 C :   -0.189377
   9 H :    0.126222
  10 H :    0.131578
  11 H :    0.131690
  12 H :    0.145245
  13 H :    0.169698
  14 H :    0.144833
  15 H :    0.120187
  16 H :    0.120392
  17 H :    0.150105

  Mayer bond orders larger than 0.1
B(  0-C ,  1-C ) :   0.9166 B(  0-C ,  9-H ) :   0.9344 B(  0-C , 10-H ) :   0.9339
B(  0-C , 11-H ) :   0.9285 B(  1-C ,  2-O ) :   0.8933 B(  1-C ,  8-C ) :   0.9365
B(  1-C , 12-H ) :   0.9250 B(  2-O ,  3-C ) :   1.0766 B(  3-C ,  4-N ) :   2.0697
B(  3-C ,  5-C ) :   0.8442 B(  4-N , 13-H ) :   0.8543 B(  5-C ,  6-O ) :   0.9540
B(  5-C ,  8-C ) :   0.9592 B(  5-C , 14-H ) :   0.9295 B(  6-O ,  7-C ) :   0.9508
B(  7-C ,  8-C ) :   0.9618 B(  7-C , 15-H ) :   0.9154 B(  7-C , 16-H ) :   0.9005
B(  8-C , 17-H ) :   0.9172

MP2 TOTAL ENERGY:     -438.358948598 Eh
FINAL SINGLE POINT ENERGY      -438.358948597515

DIPOLE MOMENT
-------------
                                X             Y             Z
Electronic contribution:      2.24250      -5.95469      -2.05679
Nuclear contribution   :     -3.31231       7.17330       2.81259
                        -----------------------------------------
Total Dipole Moment    :     -1.06980       1.21862       0.75579
                        -----------------------------------------
Magnitude (a.u.)       :      1.78906
Magnitude (Debye)      :      4.54742

                             ****ORCA TERMINATED NORMALLY****
TOTAL RUN TIME: 0 days 0 hours 17 minutes 11 seconds 231 msec
