                         Program Version 3.0.3 - RELEASE   -
|  1> ! RI-MP2 RIJK def2-TZVP def2-TZVP/C def2-TZVP/JK TIGHTSCF
|  2> % maxcore 2000
|  3> % mp2 density relaxed end
|  4> *xyz 0 1
|  5>  N        0.0993659866     1.3091101113     0.0072398649
|  6>  C        0.0219719303     0.0500634456     0.0041773489
|  7>  N       -1.2085924065    -0.6370186584     0.0118856143
|  8>  C       -1.2545442515    -2.0322897079     0.0082766138
|  9>  O       -0.3161265593    -2.7837463626    -0.0013322572
| 10>  C       -2.7342143713    -2.3692364318     0.0188186944
| 11>  O       -3.4035367252    -1.1122333051     0.0276798174
| 12>  C       -2.5148571678    -0.0782401154     0.0237147984
| 13>  O       -2.8275709029     1.0655904671     0.0294222929
| 14>  H        1.0787435160     1.5928794806     0.0003368184
| 15>  H        0.8423901862    -0.6721218903    -0.0043961529
| 16>  H       -3.0132284203    -2.9402999476    -0.8718064803
| 17>  H       -2.9993355545    -2.9454720256     0.9103553070
| 18> *
| 19>
| 20>                          ****END OF INPUT****

CARTESIAN COORDINATES (ANGSTROEM)
---------------------------------
  N      0.099366    1.309110    0.007240
  C      0.021972    0.050063    0.004177
  N     -1.208592   -0.637019    0.011886
  C     -1.254544   -2.032290    0.008277
  O     -0.316127   -2.783746   -0.001332
  C     -2.734214   -2.369236    0.018819
  O     -3.403537   -1.112233    0.027680
  C     -2.514857   -0.078240    0.023715
  O     -2.827571    1.065590    0.029422
  H      1.078744    1.592879    0.000337
  H      0.842390   -0.672122   -0.004396
  H     -3.013228   -2.940300   -0.871806
  H     -2.999336   -2.945472    0.910355

 Total Charge           Charge          ....    0
 Multiplicity           Mult            ....    1
 Number of Electrons    NEL             ....   66
 Basis Dimension        Dim             ....  303

ORBITAL ENERGIES
----------------

  NO   OCC          E(Eh)            E(eV)
   0   2.0000     -20.640893      -561.6673
   1   2.0000     -20.584733      -560.1391
   2   2.0000     -20.564745      -559.5952
   3   2.0000     -15.660185      -426.1353
   4   2.0000     -15.573521      -423.7771
   5   2.0000     -11.442133      -311.3563
   6   2.0000     -11.410242      -310.4885
   7   2.0000     -11.349371      -308.8321
   8   2.0000     -11.343666      -308.6768
   9   2.0000      -1.514021       -41.1986
  10   2.0000      -1.444935       -39.3187
  11   2.0000      -1.406096       -38.2618
  12   2.0000      -1.320301       -35.9272
  13   2.0000      -1.218390       -33.1541
  14   2.0000      -1.046761       -28.4838
  15   2.0000      -0.951562       -25.8933
  16   2.0000      -0.881552       -23.9882
  17   2.0000      -0.798809       -21.7367
  18   2.0000      -0.743468       -20.2308
  19   2.0000      -0.731378       -19.9018
  20   2.0000      -0.719910       -19.5897
  21   2.0000      -0.687864       -18.7177
  22   2.0000      -0.667954       -18.1760
  23   2.0000      -0.645940       -17.5769
  24   2.0000      -0.630957       -17.1692
  25   2.0000      -0.616011       -16.7625
  26   2.0000      -0.613546       -16.6954
  27   2.0000      -0.521672       -14.1954
  28   2.0000      -0.520330       -14.1589
  29   2.0000      -0.490504       -13.3473
  30   2.0000      -0.469760       -12.7828
  31   2.0000      -0.450994       -12.2722
  32   2.0000      -0.422814       -11.5053
  33   0.0000       0.103176         2.8076
  34   0.0000       0.121806         3.3145
  35   0.0000       0.134845         3.6693
  36   0.0000       0.142541         3.8787
  37   0.0000       0.175854         4.7852

MULLIKEN ATOMIC CHARGES
-----------------------
   0 N :   -0.299704
   1 C :   -0.023892
   2 N :   -0.072665
   3 C :    0.196125
   4 O :   -0.302270
   5 C :   -0.049357
   6 O :   -0.232639
   7 C :    0.314098
   8 O :   -0.226518
   9 H :    0.234570
  10 H :    0.152065
  11 H :    0.155097
  12 H :    0.155091
Sum of atomic charges:   -0.0000000

LOEWDIN ATOMIC CHARGES
----------------------
   0 N :   -0.028263
   1 C :   -0.282374
   2 N :    0.236846
   3 C :   -0.391729
   4 O :    0.142158
   5 C :   -0.229422
   6 O :    0.258081
   7 C :   -0.496485
   8 O :    0.183493
   9 H :    0.174598
  10 H :    0.136335
  11 H :    0.148382
  12 H :    0.148380

  Mayer bond orders larger than 0.1
B(  0-N ,  1-C ) :   1.9780 B(  0-N ,  9-H ) :   0.8503 B(  1-C ,  2-N ) :   0.9179
B(  1-C , 10-H ) :   0.9170 B(  2-N ,  3-C ) :   1.0456 B(  2-N ,  7-C ) :   0.9595
B(  3-C ,  4-O ) :   1.9626 B(  3-C ,  5-C ) :   0.9362 B(  5-C ,  6-O ) :   0.9007
B(  5-C , 11-H ) :   0.9107 B(  5-C , 12-H ) :   0.9107 B(  6-O ,  7-C ) :   1.0915
B(  7-C ,  8-O ) :   2.0818

MP2 TOTAL ENERGY:     -489.184089723 Eh
FINAL SINGLE POINT ENERGY      -489.184089723266

DIPOLE MOMENT
-------------
                                X             Y             Z
Electronic contribution:     -1.53758       0.80300       0.01453
Nuclear contribution   :      2.07190      -1.89920      -0.02187
                        -----------------------------------------
Total Dipole Moment    :      0.53432      -1.09619      -0.00735
                        -----------------------------------------
Magnitude (a.u.)       :      1.21950
Magnitude (Debye)      :      3.09973

                             ****ORCA TERMINATED NORMALLY****
TOTAL RUN TIME: 0 days 0 hours 11 minutes 26 seconds 94 msec
