                         Program Version 3.0.3 - RELEASE   -
|  1> ! RI-MP2 RIJK def2-TZVP def2-TZVP/C def2-TZVP/JK TIGHTSCF
|  2> % maxcore 2000
|  3> % mp2 density relaxed end
|  4> *xyz 0 1
|  5>  O        0.0064602191    -0.0421674022     0.1763689033
|  6>  C       -0.0133469605     1.1314475679    -0.0182530593
|  7>  C       -1.0377647881     2.2919836422    -0.0048531578
|  8>  O       -0.0281676528     2.9155243360     0.8719437280
|  9>  C        0.9764300753     2.3216717202    -0.0308201436
| 10>  C        0.7041464803     3.0181317114    -1.3694127951
| 11>  C       -0.0606095301     2.2421484251    -2.4150740890
| 12>  C       -0.8207240545     2.9956420719    -1.3497635153
| 13>  H       -2.0310461241     2.2368210683     0.4343005513
| 14>  H        1.9818949691     2.2959745998     0.3825640575
| 15>  H        1.2718144458     3.8992803891    -1.6400820489
| 16>  H       -0.0797449030     2.6687211299    -3.4124528387
| 17>  H       -0.0444744517     1.1568013219    -2.4052552322
| 18>  H       -1.4209127747     3.8595649785    -1.6053850001
| 19> *
| 20>
| 21>                          ****END OF INPUT****

CARTESIAN COORDINATES (ANGSTROEM)
---------------------------------
  O      0.006460   -0.042167    0.176369
  C     -0.013347    1.131448   -0.018253
  C     -1.037765    2.291984   -0.004853
  O     -0.028168    2.915524    0.871944
  C      0.976430    2.321672   -0.030820
  C      0.704146    3.018132   -1.369413
  C     -0.060610    2.242148   -2.415074
  C     -0.820724    2.995642   -1.349764
  H     -2.031046    2.236821    0.434301
  H      1.981895    2.295975    0.382564
  H      1.271814    3.899280   -1.640082
  H     -0.079745    2.668721   -3.412453
  H     -0.044474    1.156801   -2.405255
  H     -1.420913    3.859565   -1.605385

 Total Charge           Charge          ....    0
 Multiplicity           Mult            ....    1
 Number of Electrons    NEL             ....   58
 Basis Dimension        Dim             ....  284

ORBITAL ENERGIES
----------------

  NO   OCC          E(Eh)            E(eV)
   0   2.0000     -20.579734      -560.0030
   1   2.0000     -20.567012      -559.6568
   2   2.0000     -11.351578      -308.8921
   3   2.0000     -11.314412      -307.8808
   4   2.0000     -11.314386      -307.8801
   5   2.0000     -11.260377      -306.4104
   6   2.0000     -11.259556      -306.3881
   7   2.0000     -11.258926      -306.3709
   8   2.0000      -1.431667       -38.9576
   9   2.0000      -1.394785       -37.9540
  10   2.0000      -1.181132       -32.1402
  11   2.0000      -0.981845       -26.7174
  12   2.0000      -0.978924       -26.6379
  13   2.0000      -0.866084       -23.5673
  14   2.0000      -0.792478       -21.5644
  15   2.0000      -0.751215       -20.4416
  16   2.0000      -0.723549       -19.6888
  17   2.0000      -0.677624       -18.4391
  18   2.0000      -0.653636       -17.7863
  19   2.0000      -0.643377       -17.5072
  20   2.0000      -0.589885       -16.0516
  21   2.0000      -0.567517       -15.4429
  22   2.0000      -0.550814       -14.9884
  23   2.0000      -0.544268       -14.8103
  24   2.0000      -0.509065       -13.8524
  25   2.0000      -0.468427       -12.7466
  26   2.0000      -0.454856       -12.3773
  27   2.0000      -0.422562       -11.4985
  28   2.0000      -0.399570       -10.8728
  29   0.0000       0.131845         3.5877
  30   0.0000       0.153864         4.1869
  31   0.0000       0.163428         4.4471
  32   0.0000       0.167604         4.5607
  33   0.0000       0.175586         4.7779

MULLIKEN ATOMIC CHARGES
-----------------------
   0 O :   -0.232420
   1 C :    0.147053
   2 C :    0.006760
   3 O :   -0.270842
   4 C :    0.006764
   5 C :   -0.133484
   6 C :   -0.276966
   7 C :   -0.133483
   8 H :    0.152358
   9 H :    0.152358
  10 H :    0.144320
  11 H :    0.139053
  12 H :    0.154208
  13 H :    0.144320
Sum of atomic charges:   -0.0000000

LOEWDIN ATOMIC CHARGES
----------------------
   0 O :    0.175602
   1 C :   -0.291447
   2 C :   -0.199655
   3 O :    0.184081
   4 C :   -0.199655
   5 C :   -0.168285
   6 C :   -0.188773
   7 C :   -0.168284
   8 H :    0.140850
   9 H :    0.140850
  10 H :    0.145283
  11 H :    0.141105
  12 H :    0.143044
  13 H :    0.145283

  Mayer bond orders larger than 0.1
B(  0-O ,  1-C ) :   2.0802 B(  1-C ,  2-C ) :   0.9116 B(  1-C ,  4-C ) :   0.9115
B(  2-C ,  3-O ) :   0.9195 B(  2-C ,  7-C ) :   0.9077 B(  2-C ,  8-H ) :   0.8983
B(  3-O ,  4-C ) :   0.9195 B(  4-C ,  5-C ) :   0.9077 B(  4-C ,  9-H ) :   0.8982
B(  5-C ,  6-C ) :   0.8877 B(  5-C ,  7-C ) :   0.8520 B(  5-C , 10-H ) :   0.9156
B(  6-C ,  7-C ) :   0.8877 B(  6-C , 11-H ) :   0.9198 B(  6-C , 12-H ) :   0.8995
B(  7-C , 13-H ) :   0.9156

MP2 TOTAL ENERGY:     -381.858728367 Eh
FINAL SINGLE POINT ENERGY      -381.858728367348

DIPOLE MOMENT
-------------
                                X             Y             Z
Electronic contribution:      0.08974      -2.52365       4.07631
Nuclear contribution   :     -0.11284       3.32388      -4.95336
                        -----------------------------------------
Total Dipole Moment    :     -0.02310       0.80024      -0.87706
                        -----------------------------------------
Magnitude (a.u.)       :      1.18749
Magnitude (Debye)      :      3.01837

                             ****ORCA TERMINATED NORMALLY****
TOTAL RUN TIME: 0 days 0 hours 11 minutes 22 seconds 503 msec
