                         Program Version 3.0.3 - RELEASE   -
|  1> ! RI-MP2 RIJK def2-TZVP def2-TZVP/C def2-TZVP/JK TIGHTSCF
|  2> % maxcore 2000
|  3> % mp2 density relaxed end
|  4> *xyz 0 1
|  5>  C       -0.1494822819     1.5905783393    -0.0346633054
|  6>  C        0.0264005639     0.0784537105    -0.0112891755
|  7>  C        0.9890308252    -0.6535551860    -0.9668163323
|  8>  C        2.4487628973    -0.1591770669    -0.9592326303
|  9>  C        2.6473346968    -0.9775510382     0.3315477701
| 10>  C        2.1177520099    -0.3301407687     1.6261298074
| 11>  C        2.5348760817     1.0661317289     2.0670993704
| 12>  C        0.6950068572    -0.7087605237     1.1435631757
| 13>  N        1.3023434170    -1.6917617053     0.1225611334
| 14>  H        0.8033347288     2.1249829570    -0.0427791038
| 15>  H       -0.7055274359     1.8975768668    -0.9275349588
| 16>  H       -0.7151370745     1.9342744331     0.8383250554
| 17>  H       -0.9587164064    -0.3851709169    -0.1461866766
| 18>  H        0.5851356721    -1.0042518106    -1.9197221797
| 19>  H        3.0174544649    -0.5821346444    -1.7911190461
| 20>  H        2.6365798978     0.9185018353    -0.9302011523
| 21>  H        3.5533517230    -1.5841793082     0.4042356042
| 22>  H        2.3440706994    -1.0304568018     2.4397232010
| 23>  H        2.4685740078     1.7996238746     1.2601796610
| 24>  H        1.9072038248     1.4221685924     2.8913961615
| 25>  H        3.5714566438     1.0617993252     2.4222473962
| 26>  H        0.0196653372    -1.1029000022     1.9077842346
| 27> *
| 28>
| 29>                          ****END OF INPUT****

CARTESIAN COORDINATES (ANGSTROEM)
---------------------------------
  C     -0.149482    1.590578   -0.034663
  C      0.026401    0.078454   -0.011289
  C      0.989031   -0.653555   -0.966816
  C      2.448763   -0.159177   -0.959233
  C      2.647335   -0.977551    0.331548
  C      2.117752   -0.330141    1.626130
  C      2.534876    1.066132    2.067099
  C      0.695007   -0.708761    1.143563
  N      1.302343   -1.691762    0.122561
  H      0.803335    2.124983   -0.042779
  H     -0.705527    1.897577   -0.927535
  H     -0.715137    1.934274    0.838325
  H     -0.958716   -0.385171   -0.146187
  H      0.585136   -1.004252   -1.919722
  H      3.017454   -0.582135   -1.791119
  H      2.636580    0.918502   -0.930201
  H      3.553352   -1.584179    0.404236
  H      2.344071   -1.030457    2.439723
  H      2.468574    1.799624    1.260180
  H      1.907204    1.422169    2.891396
  H      3.571457    1.061799    2.422247
  H      0.019665   -1.102900    1.907784

 Total Charge           Charge          ....    0
 Multiplicity           Mult            ....    1
 Number of Electrons    NEL             ....   68
 Basis Dimension        Dim             ....  357

ORBITAL ENERGIES
----------------

  NO   OCC          E(Eh)            E(eV)
   0   2.0000     -15.537608      -422.7998
   1   2.0000     -11.250357      -306.1378
   2   2.0000     -11.250351      -306.1376
   3   2.0000     -11.249996      -306.1280
   4   2.0000     -11.229410      -305.5678
   5   2.0000     -11.229390      -305.5672
   6   2.0000     -11.221669      -305.3571
   7   2.0000     -11.217707      -305.2493
   8   2.0000     -11.217704      -305.2492
   9   2.0000      -1.272583       -34.6287
  10   2.0000      -1.048129       -28.5210
  11   2.0000      -1.032254       -28.0891
  12   2.0000      -0.991280       -26.9741
  13   2.0000      -0.924554       -25.1584
  14   2.0000      -0.882177       -24.0052
  15   2.0000      -0.796738       -21.6804
  16   2.0000      -0.778252       -21.1773
  17   2.0000      -0.700470       -19.0608
  18   2.0000      -0.662111       -18.0170
  19   2.0000      -0.627571       -17.0771
  20   2.0000      -0.603364       -16.4184
  21   2.0000      -0.591497       -16.0955
  22   2.0000      -0.582492       -15.8504
  23   2.0000      -0.562470       -15.3056
  24   2.0000      -0.559466       -15.2239
  25   2.0000      -0.543817       -14.7980
  26   2.0000      -0.513350       -13.9690
  27   2.0000      -0.503082       -13.6896
  28   2.0000      -0.466201       -12.6860
  29   2.0000      -0.455209       -12.3869
  30   2.0000      -0.446236       -12.1427
  31   2.0000      -0.402350       -10.9485
  32   2.0000      -0.396898       -10.8001
  33   2.0000      -0.359938        -9.7944
  34   0.0000       0.127987         3.4827
  35   0.0000       0.155683         4.2363
  36   0.0000       0.156316         4.2536
  37   0.0000       0.167515         4.5583
  38   0.0000       0.193152         5.2559

MULLIKEN ATOMIC CHARGES
-----------------------
   0 C :   -0.389502
   1 C :   -0.130300
   2 C :    0.023363
   3 C :   -0.338635
   4 C :    0.023341
   5 C :   -0.130294
   6 C :   -0.389541
   7 C :    0.000814
   8 N :   -0.223032
   9 H :    0.112284
  10 H :    0.136490
  11 H :    0.134719
  12 H :    0.099976
  13 H :    0.112844
  14 H :    0.125787
  15 H :    0.121158
  16 H :    0.112843
  17 H :    0.099979
  18 H :    0.112299
  19 H :    0.134728
  20 H :    0.136494
  21 H :    0.114187
Sum of atomic charges:    0.0000000

LOEWDIN ATOMIC CHARGES
----------------------
   0 C :   -0.296387
   1 C :   -0.235471
   2 C :   -0.197103
   3 C :   -0.213321
   4 C :   -0.197104
   5 C :   -0.235465
   6 C :   -0.296391
   7 C :   -0.173465
   8 N :    0.129603
   9 H :    0.117488
  10 H :    0.126283
  11 H :    0.127220
  12 H :    0.161978
  13 H :    0.127214
  14 H :    0.139775
  15 H :    0.126661
  16 H :    0.127214
  17 H :    0.161978
  18 H :    0.117486
  19 H :    0.127223
  20 H :    0.126277
  21 H :    0.128307

  Mayer bond orders larger than 0.1
B(  0-C ,  1-C ) :   0.9056 B(  0-C ,  9-H ) :   0.9351 B(  0-C , 10-H ) :   0.9355
B(  0-C , 11-H ) :   0.9373 B(  1-C ,  2-C ) :   0.9686 B(  1-C ,  7-C ) :   0.9492
B(  1-C , 12-H ) :   0.9138 B(  2-C ,  3-C ) :   0.9266 B(  2-C ,  8-N ) :   0.9489
B(  2-C , 13-H ) :   0.9029 B(  3-C ,  4-C ) :   0.9266 B(  3-C , 14-H ) :   0.9145
B(  3-C , 15-H ) :   0.9263 B(  4-C ,  5-C ) :   0.9686 B(  4-C ,  8-N ) :   0.9489
B(  4-C , 16-H ) :   0.9029 B(  5-C ,  6-C ) :   0.9056 B(  5-C ,  7-C ) :   0.9492
B(  5-C , 17-H ) :   0.9138 B(  6-C , 18-H ) :   0.9351 B(  6-C , 19-H ) :   0.9373
B(  6-C , 20-H ) :   0.9355 B(  7-C ,  8-N ) :   0.9647 B(  7-C , 21-H ) :   0.9018

MP2 TOTAL ENERGY:     -366.500099820 Eh
FINAL SINGLE POINT ENERGY      -366.500099820467

DIPOLE MOMENT
-------------
                                X             Y             Z
Electronic contribution:     -0.19313      -6.27738      -1.31961
Nuclear contribution   :      0.27897       7.03506       1.39904
                        -----------------------------------------
Total Dipole Moment    :      0.08585       0.75768       0.07943
                        -----------------------------------------
Magnitude (a.u.)       :      0.76666
Magnitude (Debye)      :      1.94869

                             ****ORCA TERMINATED NORMALLY****
TOTAL RUN TIME: 0 days 0 hours 23 minutes 37 seconds 823 msec
