                         Program Version 3.0.3 - RELEASE   -
|  1> ! RI-MP2 RIJK def2-TZVP def2-TZVP/C def2-TZVP/JK TIGHTSCF
|  2> % maxcore 2000
|  3> % mp2 density relaxed end
|  4> *xyz 0 1
|  5>  N        0.1737448868     0.9204671055    -0.8830055314
|  6>  C       -0.0206303175     0.0821436831     0.0411029170
|  7>  O        0.8542789935    -0.0171601716     1.0994654493
|  8>  N        1.4938242275    -1.2631973716     1.4010945309
|  9>  C        0.7260046670    -2.2168305931     1.7772647159
| 10>  C       -0.7188205752    -2.3093101587     1.8873595905
| 11>  C       -1.6148751474    -1.6219112537     1.1622904941
| 12>  C       -1.3351568286    -0.6602908122     0.0950397248
| 13>  N       -2.2640690712    -0.4233749923    -0.7498256614
| 14>  H        1.0794707882     1.3773677862    -0.7704415624
| 15>  H        1.2997666059    -3.0966161139     2.0690768583
| 16>  H       -1.0785709059    -3.0698329650     2.5740867799
| 17>  H       -2.6720680734    -1.8383321392     1.2786534360
| 18>  H       -1.9201079597     0.2586050165    -1.4350183416
| 19> *
| 20>
| 21>                          ****END OF INPUT****

CARTESIAN COORDINATES (ANGSTROEM)
---------------------------------
  N      0.173745    0.920467   -0.883006
  C     -0.020630    0.082144    0.041103
  O      0.854279   -0.017160    1.099465
  N      1.493824   -1.263197    1.401095
  C      0.726005   -2.216831    1.777265
  C     -0.718821   -2.309310    1.887360
  C     -1.614875   -1.621911    1.162290
  C     -1.335157   -0.660291    0.095040
  N     -2.264069   -0.423375   -0.749826
  H      1.079471    1.377368   -0.770442
  H      1.299767   -3.096616    2.069077
  H     -1.078571   -3.069833    2.574087
  H     -2.672068   -1.838332    1.278653
  H     -1.920108    0.258605   -1.435018

 Total Charge           Charge          ....    0
 Multiplicity           Mult            ....    1
 Number of Electrons    NEL             ....   64
 Basis Dimension        Dim             ....  309

ORBITAL ENERGIES
----------------

  NO   OCC          E(Eh)            E(eV)
   0   2.0000     -20.625778      -561.2560
   1   2.0000     -15.654603      -425.9834
   2   2.0000     -15.581053      -423.9820
   3   2.0000     -15.569796      -423.6757
   4   2.0000     -11.363078      -309.2051
   5   2.0000     -11.316116      -307.9272
   6   2.0000     -11.315733      -307.9168
   7   2.0000     -11.284281      -307.0609
   8   2.0000     -11.278503      -306.9037
   9   2.0000      -1.461213       -39.7616
  10   2.0000      -1.269017       -34.5317
  11   2.0000      -1.230003       -33.4701
  12   2.0000      -1.176731       -32.0205
  13   2.0000      -1.099084       -29.9076
  14   2.0000      -0.939772       -25.5725
  15   2.0000      -0.914087       -24.8736
  16   2.0000      -0.810617       -22.0580
  17   2.0000      -0.772483       -21.0203
  18   2.0000      -0.727342       -19.7920
  19   2.0000      -0.682683       -18.5768
  20   2.0000      -0.669178       -18.2092
  21   2.0000      -0.663886       -18.0653
  22   2.0000      -0.634176       -17.2568
  23   2.0000      -0.587980       -15.9998
  24   2.0000      -0.546626       -14.8744
  25   2.0000      -0.529588       -14.4108
  26   2.0000      -0.507725       -13.8159
  27   2.0000      -0.479773       -13.0553
  28   2.0000      -0.463134       -12.6025
  29   2.0000      -0.453564       -12.3421
  30   2.0000      -0.414478       -11.2785
  31   2.0000      -0.376428       -10.2431
  32   0.0000       0.034882         0.9492
  33   0.0000       0.093308         2.5390
  34   0.0000       0.139382         3.7928
  35   0.0000       0.161274         4.3885
  36   0.0000       0.176389         4.7998

MULLIKEN ATOMIC CHARGES
-----------------------
   0 N :   -0.371319
   1 C :    0.147884
   2 O :   -0.203572
   3 N :   -0.057182
   4 C :   -0.042034
   5 C :   -0.068524
   6 C :   -0.161562
   7 C :    0.108441
   8 N :   -0.291612
   9 H :    0.241395
  10 H :    0.152176
  11 H :    0.149584
  12 H :    0.150003
  13 H :    0.246321
Sum of atomic charges:    0.0000000

LOEWDIN ATOMIC CHARGES
----------------------
   0 N :   -0.005961
   1 C :   -0.382807
   2 O :    0.179929
   3 N :    0.071609
   4 C :   -0.243630
   5 C :   -0.146688
   6 C :   -0.093547
   7 C :   -0.251474
   8 N :    0.035554
   9 H :    0.178131
  10 H :    0.157936
  11 H :    0.160117
  12 H :    0.164976
  13 H :    0.175855

  Mayer bond orders larger than 0.1
B(  0-N ,  1-C ) :   1.9612 B(  0-N ,  9-H ) :   0.8518 B(  1-C ,  2-O ) :   1.0526
B(  1-C ,  7-C ) :   0.8935 B(  2-O ,  3-N ) :   0.7147 B(  3-N ,  4-C ) :   1.7889
B(  4-C ,  5-C ) :   0.9786 B(  4-C , 10-H ) :   0.9206 B(  5-C ,  6-C ) :   1.6979
B(  5-C , 11-H ) :   0.9108 B(  6-C ,  7-C ) :   0.9965 B(  6-C , 12-H ) :   0.9184
B(  7-C ,  8-N ) :   1.9231 B(  8-N , 13-H ) :   0.8533

MP2 TOTAL ENERGY:     -432.078133491 Eh
FINAL SINGLE POINT ENERGY      -432.078133490509

DIPOLE MOMENT
-------------
                                X             Y             Z
Electronic contribution:      1.88242       1.44698       0.11643
Nuclear contribution   :     -1.78992      -2.21247       0.52126
                        -----------------------------------------
Total Dipole Moment    :      0.09251      -0.76549       0.63768
                        -----------------------------------------
Magnitude (a.u.)       :      1.00058
Magnitude (Debye)      :      2.54328

                             ****ORCA TERMINATED NORMALLY****
TOTAL RUN TIME: 0 days 0 hours 16 minutes 14 seconds 831 msec
