                         Program Version 3.0.3 - RELEASE   -
|  1> ! RI-MP2 RIJK def2-TZVP def2-TZVP/C def2-TZVP/JK TIGHTSCF
|  2> % maxcore 2000
|  3> % mp2 density relaxed end
|  4> *xyz 0 1
|  5>  C       -0.2323193496     1.4383444703     0.1762636662
|  6>  C       -0.4549019529     0.0253564388    -0.3628217115
|  7>  N        0.6910145607    -0.4669335475    -1.1312645268
|  8>  C        0.7903795638     0.1033291826    -2.4920624218
|  9>  C        0.1039492737    -0.8976545967    -3.4357498953
| 10>  C        0.3510651592    -2.2342491768    -2.7404760521
| 11>  O        0.2738606936    -3.3328604850    -3.2259385126
| 12>  C        0.7508760046    -1.9283320254    -1.2820302425
| 13>  C        2.1404277537    -2.5051480044    -0.9737455447
| 14>  H        0.6734059962     1.4722232705     0.7882788807
| 15>  H       -0.1219331606     2.1724981647    -0.6280575334
| 16>  H       -1.0844726512     1.7495418780     0.7890668636
| 17>  H       -0.5920054660    -0.6525689075     0.4861123783
| 18>  H       -1.4001728618    -0.0052676031    -0.9390801624
| 19>  H        0.3437071856     1.0984148090    -2.5211328321
| 20>  H        1.8464966156     0.2176545621    -2.7660596921
| 21>  H       -0.9801292353    -0.7307397317    -3.4725123355
| 22>  H        0.4711288347    -0.9074088234    -4.4640736382
| 23>  H        0.0182646876    -2.4119613139    -0.6253333261
| 24>  H        2.9093987613    -2.0218271721    -1.5846421466
| 25>  H        2.3926230961    -2.3407375939     0.0769001305
| 26>  H        2.1556019411    -3.5778083547    -1.1862471458
| 27> *
| 28>
| 29>                          ****END OF INPUT****

CARTESIAN COORDINATES (ANGSTROEM)
---------------------------------
  C     -0.232319    1.438344    0.176264
  C     -0.454902    0.025356   -0.362822
  N      0.691015   -0.466934   -1.131265
  C      0.790380    0.103329   -2.492062
  C      0.103949   -0.897655   -3.435750
  C      0.351065   -2.234249   -2.740476
  O      0.273861   -3.332860   -3.225939
  C      0.750876   -1.928332   -1.282030
  C      2.140428   -2.505148   -0.973746
  H      0.673406    1.472223    0.788279
  H     -0.121933    2.172498   -0.628058
  H     -1.084473    1.749542    0.789067
  H     -0.592005   -0.652569    0.486112
  H     -1.400173   -0.005268   -0.939080
  H      0.343707    1.098415   -2.521133
  H      1.846497    0.217655   -2.766060
  H     -0.980129   -0.730740   -3.472512
  H      0.471129   -0.907409   -4.464074
  H      0.018265   -2.411961   -0.625333
  H      2.909399   -2.021827   -1.584642
  H      2.392623   -2.340738    0.076900
  H      2.155602   -3.577808   -1.186247

 Total Charge           Charge          ....    0
 Multiplicity           Mult            ....    1
 Number of Electrons    NEL             ....   70
 Basis Dimension        Dim             ....  357

ORBITAL ENERGIES
----------------

  NO   OCC          E(Eh)            E(eV)
   0   2.0000     -20.545951      -559.0837
   1   2.0000     -15.552970      -423.2178
   2   2.0000     -11.326494      -308.2096
   3   2.0000     -11.265240      -306.5428
   4   2.0000     -11.262140      -306.4584
   5   2.0000     -11.259296      -306.3810
   6   2.0000     -11.237379      -305.7846
   7   2.0000     -11.219477      -305.2975
   8   2.0000     -11.219109      -305.2875
   9   2.0000      -1.390376       -37.8340
  10   2.0000      -1.247113       -33.9357
  11   2.0000      -1.059873       -28.8406
  12   2.0000      -1.033770       -28.1303
  13   2.0000      -0.978028       -26.6135
  14   2.0000      -0.908073       -24.7099
  15   2.0000      -0.856423       -23.3044
  16   2.0000      -0.788580       -21.4584
  17   2.0000      -0.739870       -20.1329
  18   2.0000      -0.682127       -18.5616
  19   2.0000      -0.670937       -18.2571
  20   2.0000      -0.625498       -17.0207
  21   2.0000      -0.612635       -16.6707
  22   2.0000      -0.603250       -16.4153
  23   2.0000      -0.582054       -15.8385
  24   2.0000      -0.572496       -15.5784
  25   2.0000      -0.553853       -15.0711
  26   2.0000      -0.550269       -14.9736
  27   2.0000      -0.527229       -14.3466
  28   2.0000      -0.517961       -14.0944
  29   2.0000      -0.509917       -13.8756
  30   2.0000      -0.492222       -13.3940
  31   2.0000      -0.485825       -13.2200
  32   2.0000      -0.477673       -12.9982
  33   2.0000      -0.408394       -11.1130
  34   2.0000      -0.355126        -9.6635
  35   0.0000       0.117428         3.1954
  36   0.0000       0.141784         3.8581
  37   0.0000       0.152416         4.1474
  38   0.0000       0.156593         4.2611
  39   0.0000       0.164119         4.4659

MULLIKEN ATOMIC CHARGES
-----------------------
   0 C :   -0.369082
   1 C :   -0.154470
   2 N :   -0.153046
   3 C :   -0.190355
   4 C :   -0.222489
   5 C :    0.111749
   6 O :   -0.271618
   7 C :    0.017586
   8 C :   -0.395529
   9 H :    0.126919
  10 H :    0.116687
  11 H :    0.127296
  12 H :    0.117247
  13 H :    0.089206
  14 H :    0.127328
  15 H :    0.126734
  16 H :    0.138573
  17 H :    0.141019
  18 H :    0.113897
  19 H :    0.126232
  20 H :    0.133368
  21 H :    0.142746
Sum of atomic charges:    0.0000000

LOEWDIN ATOMIC CHARGES
----------------------
   0 C :   -0.318201
   1 C :   -0.318014
   2 N :    0.104869
   3 C :   -0.262557
   4 C :   -0.232994
   5 C :   -0.296927
   6 O :    0.156438
   7 C :   -0.267348
   8 C :   -0.282155
   9 H :    0.123117
  10 H :    0.116528
  11 H :    0.122491
  12 H :    0.133647
  13 H :    0.118631
  14 H :    0.133309
  15 H :    0.132729
  16 H :    0.153829
  17 H :    0.146445
  18 H :    0.157265
  19 H :    0.125041
  20 H :    0.124237
  21 H :    0.129621

  Mayer bond orders larger than 0.1
B(  0-C ,  1-C ) :   0.9404 B(  0-C ,  9-H ) :   0.9352 B(  0-C , 10-H ) :   0.9383
B(  0-C , 11-H ) :   0.9354 B(  1-C ,  2-N ) :   0.9023 B(  1-C , 12-H ) :   0.9289
B(  1-C , 13-H ) :   0.9150 B(  2-N ,  3-C ) :   0.8866 B(  2-N ,  7-C ) :   0.8780
B(  3-C ,  4-C ) :   0.9557 B(  3-C , 14-H ) :   0.9295 B(  3-C , 15-H ) :   0.9265
B(  4-C ,  5-C ) :   0.9019 B(  4-C , 16-H ) :   0.9019 B(  4-C , 17-H ) :   0.9181
B(  5-C ,  6-O ) :   2.0416 B(  5-C ,  7-C ) :   0.8513 B(  7-C ,  8-C ) :   0.9038
B(  7-C , 18-H ) :   0.9162 B(  8-C , 19-H ) :   0.9298 B(  8-C , 20-H ) :   0.9409
B(  8-C , 21-H ) :   0.9351

MP2 TOTAL ENERGY:     -403.675148559 Eh
FINAL SINGLE POINT ENERGY      -403.675148558633

DIPOLE MOMENT
-------------
                                X             Y             Z
Electronic contribution:     -0.44113      -6.72036      -5.42582
Nuclear contribution   :      0.25751       7.62233       5.74257
                        -----------------------------------------
Total Dipole Moment    :     -0.18363       0.90197       0.31675
                        -----------------------------------------
Magnitude (a.u.)       :      0.97344
Magnitude (Debye)      :      2.47430

                             ****ORCA TERMINATED NORMALLY****
TOTAL RUN TIME: 0 days 0 hours 33 minutes 25 seconds 162 msec
