                         Program Version 3.0.3 - RELEASE   -
|  1> ! RI-MP2 RIJK def2-TZVP def2-TZVP/C def2-TZVP/JK TIGHTSCF
|  2> % maxcore 2000
|  3> % mp2 density relaxed end
|  4> *xyz 0 1
|  5>  O       -0.4004384294     1.5005300038    -0.3089525335
|  6>  C       -0.1308782923     0.1525371814    -0.0902900529
|  7>  C       -1.3118303763    -0.7693363332     0.1319218366
|  8>  C       -2.6650605795    -0.2446235973    -0.3104033863
|  9>  C       -2.5110530128     0.0109425893    -1.8008773858
| 10>  N       -3.3811100813     0.5161657846    -2.5582941175
| 11>  O       -1.2616692486    -0.3955718771    -2.2221013512
| 12>  C       -0.4988712780    -0.8717119673    -1.1361140412
| 13>  H        0.0388027732     1.7720736276    -1.1222805393
| 14>  H        0.7628058174    -0.0560472086     0.4977746121
| 15>  H       -1.2563100742    -1.5196242378     0.9103310992
| 16>  H       -3.4529102766    -0.9838743234    -0.1416785047
| 17>  H       -2.9599694212     0.6813012279     0.1873278949
| 18>  H       -3.0317717663     0.5865042331    -3.5151462055
| 19>  H        0.1494159159    -1.6962898229    -1.4060076750
| 20> *
| 21>
| 22>                          ****END OF INPUT****

CARTESIAN COORDINATES (ANGSTROEM)
---------------------------------
  O     -0.400438    1.500530   -0.308953
  C     -0.130878    0.152537   -0.090290
  C     -1.311830   -0.769336    0.131922
  C     -2.665061   -0.244624   -0.310403
  C     -2.511053    0.010943   -1.800877
  N     -3.381110    0.516166   -2.558294
  O     -1.261669   -0.395572   -2.222101
  C     -0.498871   -0.871712   -1.136114
  H      0.038803    1.772074   -1.122281
  H      0.762806   -0.056047    0.497775
  H     -1.256310   -1.519624    0.910331
  H     -3.452910   -0.983874   -0.141679
  H     -2.959969    0.681301    0.187328
  H     -3.031772    0.586504   -3.515146
  H      0.149416   -1.696290   -1.406008

 Total Charge           Charge          ....    0
 Multiplicity           Mult            ....    1
 Number of Electrons    NEL             ....   60
 Basis Dimension        Dim             ....  290

ORBITAL ENERGIES
----------------

  NO   OCC          E(Eh)            E(eV)
   0   2.0000     -20.601297      -560.5898
   1   2.0000     -20.578703      -559.9750
   2   2.0000     -15.529111      -422.5686
   3   2.0000     -11.337567      -308.5109
   4   2.0000     -11.304646      -307.6150
   5   2.0000     -11.301587      -307.5318
   6   2.0000     -11.251861      -306.1787
   7   2.0000     -11.246743      -306.0394
   8   2.0000      -1.442465       -39.2515
   9   2.0000      -1.385727       -37.7075
  10   2.0000      -1.197771       -32.5930
  11   2.0000      -1.147326       -31.2203
  12   2.0000      -1.009028       -27.4570
  13   2.0000      -0.860974       -23.4283
  14   2.0000      -0.814038       -22.1511
  15   2.0000      -0.779717       -21.2172
  16   2.0000      -0.735028       -20.0011
  17   2.0000      -0.700840       -19.0708
  18   2.0000      -0.677161       -18.4265
  19   2.0000      -0.648641       -17.6504
  20   2.0000      -0.612431       -16.6651
  21   2.0000      -0.602025       -16.3819
  22   2.0000      -0.571056       -15.5392
  23   2.0000      -0.545491       -14.8436
  24   2.0000      -0.534301       -14.5391
  25   2.0000      -0.507073       -13.7982
  26   2.0000      -0.440441       -11.9850
  27   2.0000      -0.433692       -11.8014
  28   2.0000      -0.422998       -11.5104
  29   2.0000      -0.382877       -10.4186
  30   0.0000       0.132180         3.5968
  31   0.0000       0.146205         3.9784
  32   0.0000       0.163591         4.4515
  33   0.0000       0.176772         4.8102
  34   0.0000       0.182900         4.9770

MULLIKEN ATOMIC CHARGES
-----------------------
   0 O :   -0.465215
   1 C :    0.020048
   2 C :   -0.163860
   3 C :   -0.097615
   4 C :    0.075526
   5 N :   -0.369567
   6 O :   -0.266052
   7 C :    0.025337
   8 H :    0.337642
   9 H :    0.115689
  10 H :    0.144269
  11 H :    0.144789
  12 H :    0.140735
  13 H :    0.223262
  14 H :    0.135014
Sum of atomic charges:   -0.0000000

LOEWDIN ATOMIC CHARGES
----------------------
   0 O :    0.018369
   1 C :   -0.304340
   2 C :   -0.185375
   3 C :   -0.190701
   4 C :   -0.384596
   5 N :   -0.056866
   6 O :    0.256467
   7 C :   -0.251305
   8 H :    0.189382
   9 H :    0.136881
  10 H :    0.147771
  11 H :    0.156731
  12 H :    0.161005
  13 H :    0.168635
  14 H :    0.137943

  Mayer bond orders larger than 0.1
B(  0-O ,  1-C ) :   1.0024 B(  0-O ,  8-H ) :   0.8321 B(  1-C ,  2-C ) :   0.8514
B(  1-C ,  7-C ) :   0.8796 B(  1-C ,  9-H ) :   0.9386 B(  2-C ,  3-C ) :   0.9680
B(  2-C ,  7-C ) :   0.8782 B(  2-C , 10-H ) :   0.9165 B(  3-C ,  4-C ) :   0.9266
B(  3-C , 11-H ) :   0.9136 B(  3-C , 12-H ) :   0.8940 B(  4-C ,  5-N ) :   2.0801
B(  4-C ,  6-O ) :   1.0392 B(  5-N , 13-H ) :   0.8546 B(  6-O ,  7-C ) :   0.9262
B(  7-C , 14-H ) :   0.9300

MP2 TOTAL ENERGY:     -399.142889193 Eh
FINAL SINGLE POINT ENERGY      -399.142889193107

DIPOLE MOMENT
-------------
                                X             Y             Z
Electronic contribution:      0.40117       0.62165      -2.29009
Nuclear contribution   :      0.68953      -1.29654       2.61511
                        -----------------------------------------
Total Dipole Moment    :      1.09070      -0.67489       0.32502
                        -----------------------------------------
Magnitude (a.u.)       :      1.32315
Magnitude (Debye)      :      3.36319

                             ****ORCA TERMINATED NORMALLY****
TOTAL RUN TIME: 0 days 0 hours 10 minutes 56 seconds 111 msec
