                         Program Version 3.0.3 - RELEASE   -
|  1> ! RI-MP2 RIJK def2-TZVP def2-TZVP/C def2-TZVP/JK TIGHTSCF
|  2> % maxcore 2000
|  3> % mp2 density relaxed end
|  4> *xyz 0 1
|  5>  O        0.5986985979     1.1036747892    -0.3221006104
|  6>  C        0.2774563955    -0.2301810483    -0.0153901601
|  7>  C       -0.1344289342    -0.6212889209     1.4373972698
|  8>  C       -1.4133080035     0.2403311232     1.2317184840
|  9>  C       -1.2386579616    -0.5669613035    -0.1024405207
| 10>  C       -0.9070097438    -1.8029188154     0.7906559873
| 11>  C       -2.0851374738    -0.5253732655    -1.3292380929
| 12>  C       -3.4407479777     0.0820388295    -1.2917804143
| 13>  N       -2.3443135140     0.7630604092    -1.9968923282
| 14>  H        1.5262193353     1.2515485565    -0.1146443583
| 15>  H        0.9508438444    -0.9339931944    -0.5234167652
| 16>  H        0.5005509149    -0.6569068794     2.3232490174
| 17>  H       -2.2783638849    -0.0288455484     1.8434933382
| 18>  H       -1.2676705575     1.3189036607     1.1784998480
| 19>  H       -0.3131350395    -2.5983864252     0.3296694187
| 20>  H       -1.7381684339    -2.2084669695     1.3712403603
| 21>  H       -1.9055668693    -1.3412435629    -2.0282711168
| 22>  H       -4.2282750462    -0.3029858687    -1.9337064103
| 23>  H       -3.7849768813     0.4846818851    -0.3426470000
| 24>  H       -1.9697108067     1.5165051287    -1.4245900164
| 25> *
| 26>
| 27>                          ****END OF INPUT****

CARTESIAN COORDINATES (ANGSTROEM)
---------------------------------
  O      0.598699    1.103675   -0.322101
  C      0.277456   -0.230181   -0.015390
  C     -0.134429   -0.621289    1.437397
  C     -1.413308    0.240331    1.231718
  C     -1.238658   -0.566961   -0.102441
  C     -0.907010   -1.802919    0.790656
  C     -2.085137   -0.525373   -1.329238
  C     -3.440748    0.082039   -1.291780
  N     -2.344314    0.763060   -1.996892
  H      1.526219    1.251549   -0.114644
  H      0.950844   -0.933993   -0.523417
  H      0.500551   -0.656907    2.323249
  H     -2.278364   -0.028846    1.843493
  H     -1.267671    1.318904    1.178500
  H     -0.313135   -2.598386    0.329669
  H     -1.738168   -2.208467    1.371240
  H     -1.905567   -1.341244   -2.028271
  H     -4.228275   -0.302986   -1.933706
  H     -3.784977    0.484682   -0.342647
  H     -1.969711    1.516505   -1.424590

 Total Charge           Charge          ....    0
 Multiplicity           Mult            ....    1
 Number of Electrons    NEL             ....   68
 Basis Dimension        Dim             ....  345

ORBITAL ENERGIES
----------------

  NO   OCC          E(Eh)            E(eV)
   0   2.0000     -20.562177      -559.5253
   1   2.0000     -15.547365      -423.0653
   2   2.0000     -11.288388      -307.1727
   3   2.0000     -11.252877      -306.2063
   4   2.0000     -11.251653      -306.1731
   5   2.0000     -11.247737      -306.0665
   6   2.0000     -11.245213      -305.9978
   7   2.0000     -11.234491      -305.7060
   8   2.0000     -11.229728      -305.5764
   9   2.0000      -1.373497       -37.3748
  10   2.0000      -1.253890       -34.1201
  11   2.0000      -1.203312       -32.7438
  12   2.0000      -0.926970       -25.2241
  13   2.0000      -0.912685       -24.8354
  14   2.0000      -0.896293       -24.3894
  15   2.0000      -0.867677       -23.6107
  16   2.0000      -0.798335       -21.7238
  17   2.0000      -0.737489       -20.0681
  18   2.0000      -0.700460       -19.0605
  19   2.0000      -0.696868       -18.9628
  20   2.0000      -0.642550       -17.4847
  21   2.0000      -0.635363       -17.2891
  22   2.0000      -0.599490       -16.3129
  23   2.0000      -0.570298       -15.5186
  24   2.0000      -0.535580       -14.5739
  25   2.0000      -0.514680       -14.0052
  26   2.0000      -0.500287       -13.6135
  27   2.0000      -0.495579       -13.4854
  28   2.0000      -0.462218       -12.5776
  29   2.0000      -0.454019       -12.3545
  30   2.0000      -0.439177       -11.9506
  31   2.0000      -0.434597       -11.8260
  32   2.0000      -0.415866       -11.3163
  33   2.0000      -0.373308       -10.1582
  34   0.0000       0.135549         3.6885
  35   0.0000       0.150859         4.1051
  36   0.0000       0.156815         4.2672
  37   0.0000       0.167775         4.5654
  38   0.0000       0.188016         5.1162

MULLIKEN ATOMIC CHARGES
-----------------------
   0 O :   -0.473414
   1 C :    0.036152
   2 C :   -0.085845
   3 C :   -0.253322
   4 C :   -0.048705
   5 C :   -0.230135
   6 C :   -0.061760
   7 C :   -0.169533
   8 N :   -0.357028
   9 H :    0.322347
  10 H :    0.096761
  11 H :    0.143928
  12 H :    0.118673
  13 H :    0.133737
  14 H :    0.117400
  15 H :    0.119298
  16 H :    0.118289
  17 H :    0.119871
  18 H :    0.124123
  19 H :    0.229161
Sum of atomic charges:    0.0000000

LOEWDIN ATOMIC CHARGES
----------------------
   0 O :   -0.008531
   1 C :   -0.270192
   2 C :   -0.176833
   3 C :   -0.176484
   4 C :   -0.196267
   5 C :   -0.169837
   6 C :   -0.247433
   7 C :   -0.261461
   8 N :   -0.007504
   9 H :    0.178855
  10 H :    0.130702
  11 H :    0.122876
  12 H :    0.128856
  13 H :    0.131381
  14 H :    0.129605
  15 H :    0.132972
  16 H :    0.146578
  17 H :    0.122824
  18 H :    0.121819
  19 H :    0.168074

  Mayer bond orders larger than 0.1
B(  0-O ,  1-C ) :   1.1213 B(  0-O ,  4-C ) :  -0.1333 B(  0-O ,  9-H ) :   0.8414
B(  1-C ,  2-C ) :   0.8421 B(  1-C ,  4-C ) :   0.8643 B(  1-C , 10-H ) :   0.9812
B(  2-C ,  3-C ) :   0.8967 B(  2-C ,  5-C ) :   0.8974 B(  2-C , 11-H ) :   0.8892
B(  3-C ,  4-C ) :   0.9128 B(  3-C , 12-H ) :   0.9369 B(  3-C , 13-H ) :   0.9186
B(  4-C ,  5-C ) :   0.8603 B(  4-C ,  6-C ) :   0.8930 B(  5-C , 14-H ) :   0.9309
B(  5-C , 15-H ) :   0.9216 B(  6-C ,  7-C ) :   0.9399 B(  6-C ,  8-N ) :   0.9244
B(  6-C , 16-H ) :   0.9203 B(  7-C ,  8-N ) :   0.9330 B(  7-C , 17-H ) :   0.9236
B(  7-C , 18-H ) :   0.9159 B(  8-N , 19-H ) :   0.8749

MP2 TOTAL ENERGY:     -402.383555742 Eh
FINAL SINGLE POINT ENERGY      -402.383555742105

DIPOLE MOMENT
-------------
                                X             Y             Z
Electronic contribution:      2.09216       1.51023      -1.70039
Nuclear contribution   :     -1.61370      -1.91488       2.58562
                        -----------------------------------------
Total Dipole Moment    :      0.47847      -0.40465       0.88523
                        -----------------------------------------
Magnitude (a.u.)       :      1.08457
Magnitude (Debye)      :      2.75676

                             ****ORCA TERMINATED NORMALLY****
TOTAL RUN TIME: 0 days 0 hours 17 minutes 19 seconds 424 msec
