                         Program Version 3.0.3 - RELEASE   -
|  1> ! RI-MP2 RIJK def2-TZVP def2-TZVP/C def2-TZVP/JK TIGHTSCF
|  2> % maxcore 2000
|  3> % mp2 density relaxed end
|  4> *xyz 0 1
|  5>  C        0.5425136620     1.4044713775     0.2020164055
|  6>  C       -0.2807977909     0.1519610190    -0.1243103743
|  7>  C        0.1999685268    -0.5181432246    -1.3896089526
|  8>  O        1.4364455103    -1.2430659880    -1.3227870196
|  9>  C        0.2389063725    -1.9698260287    -1.6335401866
| 10>  C       -0.1951698185    -3.0405456017    -0.6607639039
| 11>  C        0.6951626672    -4.2862156087    -0.7542126445
| 12>  H        1.5963704730     1.1449043237     0.3394196084
| 13>  H        0.4818248210     2.1407738215    -0.6068974991
| 14>  H        0.1856898732     1.8838687279     1.1182663056
| 15>  H       -0.2312819504    -0.5495599766     0.7131806192
| 16>  H       -1.3373125902     0.4213812396    -0.2542304938
| 17>  H        0.1262290485     0.1186768424    -2.2762342484
| 18>  H        0.1907044670    -2.2850667054    -2.6801455258
| 19>  H       -0.1749722348    -2.6494628525     0.3603242198
| 20>  H       -1.2372940499    -3.3074595186    -0.8808165190
| 21>  H        0.6658652023    -4.7200457959    -1.7597462283
| 22>  H        1.7352124352    -4.0311769972    -0.5303373110
| 23>  H        0.3718645057    -5.0564928035    -0.0479473315
| 24> *
| 25>
| 26>                          ****END OF INPUT****

CARTESIAN COORDINATES (ANGSTROEM)
---------------------------------
  C      0.542514    1.404471    0.202016
  C     -0.280798    0.151961   -0.124310
  C      0.199969   -0.518143   -1.389609
  O      1.436446   -1.243066   -1.322787
  C      0.238906   -1.969826   -1.633540
  C     -0.195170   -3.040546   -0.660764
  C      0.695163   -4.286216   -0.754213
  H      1.596370    1.144904    0.339420
  H      0.481825    2.140774   -0.606897
  H      0.185690    1.883869    1.118266
  H     -0.231282   -0.549560    0.713181
  H     -1.337313    0.421381   -0.254230
  H      0.126229    0.118677   -2.276234
  H      0.190704   -2.285067   -2.680146
  H     -0.174972   -2.649463    0.360324
  H     -1.237294   -3.307460   -0.880817
  H      0.665865   -4.720046   -1.759746
  H      1.735212   -4.031177   -0.530337
  H      0.371865   -5.056493   -0.047947

 Total Charge           Charge          ....    0
 Multiplicity           Mult            ....    1
 Number of Electrons    NEL             ....   56
 Basis Dimension        Dim             ....  289

ORBITAL ENERGIES
----------------

  NO   OCC          E(Eh)            E(eV)
   0   2.0000     -20.556077      -559.3593
   1   2.0000     -11.279865      -306.9407
   2   2.0000     -11.279088      -306.9196
   3   2.0000     -11.227494      -305.5156
   4   2.0000     -11.227489      -305.5155
   5   2.0000     -11.214904      -305.1731
   6   2.0000     -11.214904      -305.1730
   7   2.0000      -1.400092       -38.0984
   8   2.0000      -1.049978       -28.5713
   9   2.0000      -1.047713       -28.5097
  10   2.0000      -0.926265       -25.2049
  11   2.0000      -0.883860       -24.0511
  12   2.0000      -0.825159       -22.4537
  13   2.0000      -0.768015       -20.8987
  14   2.0000      -0.692249       -18.8371
  15   2.0000      -0.639089       -17.3905
  16   2.0000      -0.620880       -16.8950
  17   2.0000      -0.594672       -16.1818
  18   2.0000      -0.565178       -15.3793
  19   2.0000      -0.553358       -15.0576
  20   2.0000      -0.531734       -14.4692
  21   2.0000      -0.520677       -14.1683
  22   2.0000      -0.510959       -13.9039
  23   2.0000      -0.497778       -13.5452
  24   2.0000      -0.480498       -13.0750
  25   2.0000      -0.471702       -12.8357
  26   2.0000      -0.434614       -11.8265
  27   2.0000      -0.413106       -11.2412
  28   0.0000       0.143258         3.8982
  29   0.0000       0.149968         4.0808
  30   0.0000       0.165394         4.5006
  31   0.0000       0.170832         4.6486
  32   0.0000       0.199863         5.4385

MULLIKEN ATOMIC CHARGES
-----------------------
   0 C :   -0.396963
   1 C :   -0.188577
   2 C :    0.038390
   3 O :   -0.351652
   4 C :    0.038392
   5 C :   -0.188577
   6 C :   -0.396963
   7 H :    0.142663
   8 H :    0.121566
   9 H :    0.132805
  10 H :    0.109458
  11 H :    0.107417
  12 H :    0.109067
  13 H :    0.109066
  14 H :    0.109458
  15 H :    0.107417
  16 H :    0.121566
  17 H :    0.142663
  18 H :    0.132804
Sum of atomic charges:    0.0000000

LOEWDIN ATOMIC CHARGES
----------------------
   0 C :   -0.312974
   1 C :   -0.278367
   2 C :   -0.271546
   3 O :    0.152739
   4 C :   -0.271548
   5 C :   -0.278366
   6 C :   -0.312974
   7 H :    0.126730
   8 H :    0.120829
   9 H :    0.120603
  10 H :    0.138660
  11 H :    0.141964
  12 H :    0.137731
  13 H :    0.137731
  14 H :    0.138660
  15 H :    0.141963
  16 H :    0.120829
  17 H :    0.126730
  18 H :    0.120603

  Mayer bond orders larger than 0.1
B(  0-C ,  1-C ) :   0.9240 B(  0-C ,  7-H ) :   0.9366 B(  0-C ,  8-H ) :   0.9380
B(  0-C ,  9-H ) :   0.9406 B(  1-C ,  2-C ) :   0.9102 B(  1-C , 10-H ) :   0.9377
B(  1-C , 11-H ) :   0.9246 B(  2-C ,  3-O ) :   0.8786 B(  2-C ,  4-C ) :   0.9899
B(  2-C , 12-H ) :   0.9104 B(  3-O ,  4-C ) :   0.8786 B(  4-C ,  5-C ) :   0.9102
B(  4-C , 13-H ) :   0.9104 B(  5-C ,  6-C ) :   0.9240 B(  5-C , 14-H ) :   0.9377
B(  5-C , 15-H ) :   0.9246 B(  6-C , 16-H ) :   0.9380 B(  6-C , 17-H ) :   0.9366
B(  6-C , 18-H ) :   0.9406

MP2 TOTAL ENERGY:     -310.371961208 Eh
FINAL SINGLE POINT ENERGY      -310.371961207701

DIPOLE MOMENT
-------------
                                X             Y             Z
Electronic contribution:      1.50893       0.52065      -2.85762
Nuclear contribution   :     -2.23126      -0.54576       2.89179
                        -----------------------------------------
Total Dipole Moment    :     -0.72233      -0.02512       0.03418
                        -----------------------------------------
Magnitude (a.u.)       :      0.72358
Magnitude (Debye)      :      1.83919

                             ****ORCA TERMINATED NORMALLY****
TOTAL RUN TIME: 0 days 0 hours 12 minutes 30 seconds 792 msec
