                         Program Version 3.0.3 - RELEASE   -
|  1> ! RI-MP2 RIJK def2-TZVP def2-TZVP/C def2-TZVP/JK TIGHTSCF
|  2> % maxcore 2000
|  3> % mp2 density relaxed end
|  4> *xyz 0 1
|  5>  O        0.3634973881     0.8865730611    -0.9345665610
|  6>  C        0.0891149182    -0.2136411085    -0.0979850834
|  7>  C        0.1703393958     0.0151730799     1.4338221135
|  8>  C       -1.2942312009    -0.4889590526     1.6021734738
|  9>  C       -2.2660502830     0.5186018496     2.2345103610
| 10>  C       -2.5362466182     1.6979272651     1.3335215362
| 11>  C       -2.6119961301     1.5630898818     0.0075147150
| 12>  C       -2.4303513586     0.2266448611    -0.6676973522
| 13>  C       -1.4076497653    -0.6671957800     0.0487257666
| 14>  H       -0.1364450066     1.6393976709    -0.5964242741
| 15>  H        0.7389440837    -1.0158104919    -0.4574981143
| 16>  H        0.9365603283    -0.5589781744     1.9611681410
| 17>  H        0.3011211980     1.0722647071     1.6888167421
| 18>  H       -1.3516463135    -1.4381254112     2.1408370060
| 19>  H       -3.2184911163     0.0160297513     2.4605240444
| 20>  H       -1.8699029285     0.8536931194     3.2007028133
| 21>  H       -2.7041969279     2.6671934194     1.7956987767
| 22>  H       -2.8482616294     2.4209071552    -0.6176799849
| 23>  H       -3.3994839355    -0.2914909634    -0.7034162131
| 24>  H       -2.1182564511     0.3633090703    -1.7083376942
| 25>  H       -1.5573840375    -1.7058779102    -0.2587889021
| 26> *
| 27>
| 28>                          ****END OF INPUT****

CARTESIAN COORDINATES (ANGSTROEM)
---------------------------------
  O      0.363497    0.886573   -0.934567
  C      0.089115   -0.213641   -0.097985
  C      0.170339    0.015173    1.433822
  C     -1.294231   -0.488959    1.602173
  C     -2.266050    0.518602    2.234510
  C     -2.536247    1.697927    1.333522
  C     -2.611996    1.563090    0.007515
  C     -2.430351    0.226645   -0.667697
  C     -1.407650   -0.667196    0.048726
  H     -0.136445    1.639398   -0.596424
  H      0.738944   -1.015810   -0.457498
  H      0.936560   -0.558978    1.961168
  H      0.301121    1.072265    1.688817
  H     -1.351646   -1.438125    2.140837
  H     -3.218491    0.016030    2.460524
  H     -1.869903    0.853693    3.200703
  H     -2.704197    2.667193    1.795699
  H     -2.848262    2.420907   -0.617680
  H     -3.399484   -0.291491   -0.703416
  H     -2.118256    0.363309   -1.708338
  H     -1.557384   -1.705878   -0.258789

 Total Charge           Charge          ....    0
 Multiplicity           Mult            ....    1
 Number of Electrons    NEL             ....   68
 Basis Dimension        Dim             ....  351

ORBITAL ENERGIES
----------------

  NO   OCC          E(Eh)            E(eV)
   0   2.0000     -20.547729      -559.1321
   1   2.0000     -11.270489      -306.6856
   2   2.0000     -11.229143      -305.5605
   3   2.0000     -11.228122      -305.5327
   4   2.0000     -11.227522      -305.5164
   5   2.0000     -11.226886      -305.4991
   6   2.0000     -11.225007      -305.4480
   7   2.0000     -11.223478      -305.4064
   8   2.0000     -11.214940      -305.1740
   9   2.0000      -1.356036       -36.8996
  10   2.0000      -1.143080       -31.1048
  11   2.0000      -1.063558       -28.9409
  12   2.0000      -1.010262       -27.4906
  13   2.0000      -0.932192       -25.3662
  14   2.0000      -0.868206       -23.6251
  15   2.0000      -0.830813       -22.6076
  16   2.0000      -0.769242       -20.9321
  17   2.0000      -0.698203       -18.9991
  18   2.0000      -0.679556       -18.4916
  19   2.0000      -0.658156       -17.9093
  20   2.0000      -0.633151       -17.2289
  21   2.0000      -0.601200       -16.3595
  22   2.0000      -0.589714       -16.0469
  23   2.0000      -0.571358       -15.5474
  24   2.0000      -0.547426       -14.8962
  25   2.0000      -0.542996       -14.7757
  26   2.0000      -0.532030       -14.4773
  27   2.0000      -0.518884       -14.1195
  28   2.0000      -0.505651       -13.7595
  29   2.0000      -0.439202       -11.9513
  30   2.0000      -0.438269       -11.9259
  31   2.0000      -0.414702       -11.2846
  32   2.0000      -0.403228       -10.9724
  33   2.0000      -0.350925        -9.5491
  34   0.0000       0.130919         3.5625
  35   0.0000       0.143691         3.9100
  36   0.0000       0.154961         4.2167
  37   0.0000       0.166839         4.5399
  38   0.0000       0.169379         4.6090

MULLIKEN ATOMIC CHARGES
-----------------------
   0 O :   -0.447234
   1 C :   -0.016160
   2 C :   -0.232093
   3 C :   -0.044053
   4 C :   -0.204967
   5 C :   -0.165541
   6 C :   -0.286801
   7 C :   -0.189685
   8 C :   -0.031263
   9 H :    0.321807
  10 H :    0.098557
  11 H :    0.116641
  12 H :    0.108071
  13 H :    0.100710
  14 H :    0.120612
  15 H :    0.125138
  16 H :    0.124136
  17 H :    0.128879
  18 H :    0.123024
  19 H :    0.145537
  20 H :    0.104686
Sum of atomic charges:   -0.0000000

LOEWDIN ATOMIC CHARGES
----------------------
   0 O :   -0.009733
   1 C :   -0.301805
   2 C :   -0.205721
   3 C :   -0.198428
   4 C :   -0.236019
   5 C :   -0.175050
   6 C :   -0.187171
   7 C :   -0.237976
   8 C :   -0.183398
   9 H :    0.173836
  10 H :    0.135903
  11 H :    0.128519
  12 H :    0.136381
  13 H :    0.142948
  14 H :    0.148837
  15 H :    0.143945
  16 H :    0.140152
  17 H :    0.141359
  18 H :    0.149823
  19 H :    0.149510
  20 H :    0.144090

  Mayer bond orders larger than 0.1
B(  0-O ,  1-C ) :   0.9801 B(  0-O ,  9-H ) :   0.8349 B(  1-C ,  2-C ) :   0.9535
B(  1-C ,  8-C ) :   0.9057 B(  1-C , 10-H ) :   0.9327 B(  2-C ,  3-C ) :   0.9412
B(  2-C , 11-H ) :   0.9185 B(  2-C , 12-H ) :   0.8986 B(  3-C ,  4-C ) :   0.9116
B(  3-C ,  8-C ) :   0.9440 B(  3-C , 13-H ) :   0.9154 B(  4-C ,  5-C ) :   0.9486
B(  4-C , 14-H ) :   0.9053 B(  4-C , 15-H ) :   0.9358 B(  5-C ,  6-C ) :   1.7490
B(  5-C , 16-H ) :   0.9344 B(  6-C ,  7-C ) :   0.9376 B(  6-C , 17-H ) :   0.9410
B(  7-C ,  8-C ) :   0.9134 B(  7-C , 18-H ) :   0.9075 B(  7-C , 19-H ) :   0.9243
B(  8-C , 20-H ) :   0.9110

MP2 TOTAL ENERGY:     -386.414671068 Eh
FINAL SINGLE POINT ENERGY      -386.414671067898

DIPOLE MOMENT
-------------
                                X             Y             Z
Electronic contribution:      1.22108       0.62900      -1.93054
Nuclear contribution   :     -1.71176      -0.75986       2.45665
                        -----------------------------------------
Total Dipole Moment    :     -0.49068      -0.13086       0.52611
                        -----------------------------------------
Magnitude (a.u.)       :      0.73122
Magnitude (Debye)      :      1.85862

                             ****ORCA TERMINATED NORMALLY****
TOTAL RUN TIME: 0 days 0 hours 18 minutes 58 seconds 790 msec
