                         Program Version 3.0.3 - RELEASE   -
|  1> ! RI-MP2 RIJK def2-TZVP def2-TZVP/C def2-TZVP/JK TIGHTSCF
|  2> % maxcore 2000
|  3> % mp2 density relaxed end
|  4> *xyz 0 1
|  5>  C       -0.0737885413     1.4991727880     0.0531181329
|  6>  C        0.0350233859     0.0124161578    -0.0236471737
|  7>  C       -0.0517190032    -0.7976735016    -1.1176091038
|  8>  N        0.1069828594    -2.0970291234    -0.6508610721
|  9>  C        0.2962580485    -1.9906769919     0.7122198241
| 10>  N        0.2586868947    -0.7529652105     1.1165779361
| 11>  C        0.0893113429    -3.2448654047    -1.4825565948
| 12>  N        0.0312813121    -4.4291099518    -0.7956940901
| 13>  O        0.1532020117    -3.1535107325    -2.6850519563
| 14>  H        0.8374510503     1.9361433709     0.4750770373
| 15>  H       -0.2368586658     1.9330532660    -0.9366592004
| 16>  H       -0.9040132117     1.7988883022     0.7016225180
| 17>  H       -0.2083729463    -0.6123772436    -2.1656241228
| 18>  H        0.4967643854    -2.8492290619     1.3351481054
| 19>  H       -0.4000626706    -4.4631076429     0.1132554886
| 20>  H       -0.1016149819    -5.2383442903    -1.3814591383
| 21> *
| 22>
| 23>                          ****END OF INPUT****

CARTESIAN COORDINATES (ANGSTROEM)
---------------------------------
  C     -0.073789    1.499173    0.053118
  C      0.035023    0.012416   -0.023647
  C     -0.051719   -0.797674   -1.117609
  N      0.106983   -2.097029   -0.650861
  C      0.296258   -1.990677    0.712220
  N      0.258687   -0.752965    1.116578
  C      0.089311   -3.244865   -1.482557
  N      0.031281   -4.429110   -0.795694
  O      0.153202   -3.153511   -2.685052
  H      0.837451    1.936143    0.475077
  H     -0.236859    1.933053   -0.936659
  H     -0.904013    1.798888    0.701623
  H     -0.208373   -0.612377   -2.165624
  H      0.496764   -2.849229    1.335148
  H     -0.400063   -4.463108    0.113255
  H     -0.101615   -5.238344   -1.381459

 Total Charge           Charge          ....    0
 Multiplicity           Mult            ....    1
 Number of Electrons    NEL             ....   66
 Basis Dimension        Dim             ....  321

ORBITAL ENERGIES
----------------

  NO   OCC          E(Eh)            E(eV)
   0   2.0000     -20.545310      -559.0663
   1   2.0000     -15.637730      -425.5243
   2   2.0000     -15.608663      -424.7333
   3   2.0000     -15.560286      -423.4169
   4   2.0000     -11.413161      -310.5679
   5   2.0000     -11.315486      -307.9100
   6   2.0000     -11.261805      -306.4493
   7   2.0000     -11.259814      -306.3951
   8   2.0000     -11.223872      -305.4171
   9   2.0000      -1.431418       -38.9509
  10   2.0000      -1.349232       -36.7145
  11   2.0000      -1.246152       -33.9095
  12   2.0000      -1.186620       -32.2896
  13   2.0000      -1.046516       -28.4772
  14   2.0000      -0.958361       -26.0783
  15   2.0000      -0.894544       -24.3418
  16   2.0000      -0.803019       -21.8513
  17   2.0000      -0.788608       -21.4591
  18   2.0000      -0.769837       -20.9483
  19   2.0000      -0.702745       -19.1227
  20   2.0000      -0.661127       -17.9902
  21   2.0000      -0.654813       -17.8184
  22   2.0000      -0.633852       -17.2480
  23   2.0000      -0.601363       -16.3639
  24   2.0000      -0.586411       -15.9570
  25   2.0000      -0.554214       -15.0809
  26   2.0000      -0.547047       -14.8859
  27   2.0000      -0.538065       -14.6415
  28   2.0000      -0.485817       -13.2198
  29   2.0000      -0.451417       -12.2837
  30   2.0000      -0.443858       -12.0780
  31   2.0000      -0.407818       -11.0973
  32   2.0000      -0.327755        -8.9187
  33   0.0000       0.105452         2.8695
  34   0.0000       0.123599         3.3633
  35   0.0000       0.153029         4.1641
  36   0.0000       0.164027         4.4634
  37   0.0000       0.189532         5.1574

MULLIKEN ATOMIC CHARGES
-----------------------
   0 C :   -0.429200
   1 C :    0.127618
   2 C :   -0.156578
   3 N :   -0.046291
   4 C :   -0.012666
   5 N :   -0.286197
   6 C :    0.357333
   7 N :   -0.505004
   8 O :   -0.334797
   9 H :    0.146022
  10 H :    0.135873
  11 H :    0.144171
  12 H :    0.169502
  13 H :    0.149945
  14 H :    0.266843
  15 H :    0.273427
Sum of atomic charges:   -0.0000000

LOEWDIN ATOMIC CHARGES
----------------------
   0 C :   -0.271994
   1 C :   -0.272499
   2 C :   -0.165072
   3 N :    0.260207
   4 C :   -0.289820
   5 N :    0.120190
   6 C :   -0.499578
   7 N :   -0.025496
   8 O :    0.108526
   9 H :    0.134290
  10 H :    0.130905
  11 H :    0.133583
  12 H :    0.147974
  13 H :    0.131487
  14 H :    0.173753
  15 H :    0.183544

  Mayer bond orders larger than 0.1
B(  0-C ,  1-C ) :   0.8760 B(  0-C ,  9-H ) :   0.9352 B(  0-C , 10-H ) :   0.9523
B(  0-C , 11-H ) :   0.9343 B(  1-C ,  2-C ) :   1.5311 B(  1-C ,  5-N ) :   1.1880
B(  2-C ,  3-N ) :   1.0635 B(  2-C , 12-H ) :   0.9247 B(  3-N ,  4-C ) :   1.1143
B(  3-N ,  6-C ) :   0.9431 B(  4-C ,  5-N ) :   1.6326 B(  4-C , 13-H ) :   0.9165
B(  6-C ,  7-N ) :   1.1521 B(  6-C ,  8-O ) :   1.9694 B(  7-N , 14-H ) :   0.8605
B(  7-N , 15-H ) :   0.8613

MP2 TOTAL ENERGY:     -433.424305782 Eh
FINAL SINGLE POINT ENERGY      -433.424305782107

DIPOLE MOMENT
-------------
                                X             Y             Z
Electronic contribution:      0.59940      -5.09828      -1.76307
Nuclear contribution   :     -1.06220       4.18109       1.99970
                        -----------------------------------------
Total Dipole Moment    :     -0.46280      -0.91720       0.23663
                        -----------------------------------------
Magnitude (a.u.)       :      1.05424
Magnitude (Debye)      :      2.67967

                             ****ORCA TERMINATED NORMALLY****
TOTAL RUN TIME: 0 days 0 hours 14 minutes 47 seconds 870 msec
