                         Program Version 3.0.3 - RELEASE   -
|  1> ! RI-MP2 RIJK def2-TZVP def2-TZVP/C def2-TZVP/JK TIGHTSCF
|  2> % maxcore 2000
|  3> % mp2 density relaxed end
|  4> *xyz 0 1
|  5>  C        0.0266155064     1.5002870192     0.0840481185
|  6>  C        0.0077309723     0.0026522779    -0.0292636490
|  7>  C        0.8968669906    -0.8104034215    -1.0079464206
|  8>  C        0.6901538895    -1.8276290135     0.1321254001
|  9>  O        0.6730143632    -0.7096478161     1.0747903079
| 10>  C       -0.7927021710    -2.1733726832     0.0289876294
| 11>  C       -1.3128625836    -3.3784265368    -0.6995001822
| 12>  C       -1.4300790548    -3.2818504936     0.8079220366
| 13>  C       -1.3538702456    -0.7420733000    -0.0911708861
| 14>  H        1.0518238735     1.8716929255     0.1652089092
| 15>  H       -0.4404295509     1.9552445147    -0.7957108953
| 16>  H       -0.5290502986     1.8249211939     0.9700433982
| 17>  H        0.5200028682    -1.0453582177    -2.0069841351
| 18>  H        1.9169185648    -0.4246144025    -1.0389203793
| 19>  H        1.3995238595    -2.6180112907     0.3801694921
| 20>  H       -2.2162546513    -3.2712402990    -1.2915823831
| 21>  H       -0.5968588086    -4.0837552254    -1.1111502104
| 22>  H       -0.7936945929    -3.9207834702     1.4125595582
| 23>  H       -2.4137639403    -3.1077065106     1.2322849639
| 24>  H       -1.9904081329    -0.4615823155     0.7527183359
| 25>  H       -1.8972154475    -0.5566615149    -1.0231066990
| 26> *
| 27>
| 28>                          ****END OF INPUT****

CARTESIAN COORDINATES (ANGSTROEM)
---------------------------------
  C      0.026616    1.500287    0.084048
  C      0.007731    0.002652   -0.029264
  C      0.896867   -0.810403   -1.007946
  C      0.690154   -1.827629    0.132125
  O      0.673014   -0.709648    1.074790
  C     -0.792702   -2.173373    0.028988
  C     -1.312863   -3.378427   -0.699500
  C     -1.430079   -3.281850    0.807922
  C     -1.353870   -0.742073   -0.091171
  H      1.051824    1.871693    0.165209
  H     -0.440430    1.955245   -0.795711
  H     -0.529050    1.824921    0.970043
  H      0.520003   -1.045358   -2.006984
  H      1.916919   -0.424614   -1.038920
  H      1.399524   -2.618011    0.380169
  H     -2.216255   -3.271240   -1.291582
  H     -0.596859   -4.083755   -1.111150
  H     -0.793695   -3.920783    1.412560
  H     -2.413764   -3.107707    1.232285
  H     -1.990408   -0.461582    0.752718
  H     -1.897215   -0.556662   -1.023107

 Total Charge           Charge          ....    0
 Multiplicity           Mult            ....    1
 Number of Electrons    NEL             ....   68
 Basis Dimension        Dim             ....  351

ORBITAL ENERGIES
----------------

  NO   OCC          E(Eh)            E(eV)
   0   2.0000     -20.539005      -558.8947
   1   2.0000     -11.288747      -307.1824
   2   2.0000     -11.282088      -307.0012
   3   2.0000     -11.235286      -305.7277
   4   2.0000     -11.225074      -305.4498
   5   2.0000     -11.224354      -305.4302
   6   2.0000     -11.223647      -305.4110
   7   2.0000     -11.222320      -305.3748
   8   2.0000     -11.218213      -305.2631
   9   2.0000      -1.381084       -37.5812
  10   2.0000      -1.147977       -31.2380
  11   2.0000      -1.052115       -28.6295
  12   2.0000      -0.996904       -27.1271
  13   2.0000      -0.950796       -25.8725
  14   2.0000      -0.870880       -23.6979
  15   2.0000      -0.823415       -22.4062
  16   2.0000      -0.753115       -20.4933
  17   2.0000      -0.728395       -19.8206
  18   2.0000      -0.671805       -18.2807
  19   2.0000      -0.658712       -17.9245
  20   2.0000      -0.617894       -16.8138
  21   2.0000      -0.614171       -16.7125
  22   2.0000      -0.590605       -16.0712
  23   2.0000      -0.580353       -15.7922
  24   2.0000      -0.537794       -14.6341
  25   2.0000      -0.530445       -14.4341
  26   2.0000      -0.512764       -13.9530
  27   2.0000      -0.502020       -13.6607
  28   2.0000      -0.487734       -13.2719
  29   2.0000      -0.466741       -12.7007
  30   2.0000      -0.447304       -12.1717
  31   2.0000      -0.412329       -11.2200
  32   2.0000      -0.404478       -11.0064
  33   2.0000      -0.395323       -10.7573
  34   0.0000       0.138445         3.7673
  35   0.0000       0.151050         4.1103
  36   0.0000       0.166130         4.5206
  37   0.0000       0.170940         4.6515
  38   0.0000       0.186774         5.0824

MULLIKEN ATOMIC CHARGES
-----------------------
   0 C :   -0.408715
   1 C :    0.116778
   2 C :   -0.192761
   3 C :    0.033099
   4 O :   -0.308273
   5 C :    0.035833
   6 C :   -0.313393
   7 C :   -0.281135
   8 C :   -0.189430
   9 H :    0.139857
  10 H :    0.133464
  11 H :    0.140237
  12 H :    0.119358
  13 H :    0.116019
  14 H :    0.129676
  15 H :    0.126779
  16 H :    0.126736
  17 H :    0.125761
  18 H :    0.127862
  19 H :    0.108326
  20 H :    0.113922
Sum of atomic charges:    0.0000000

LOEWDIN ATOMIC CHARGES
----------------------
   0 C :   -0.270150
   1 C :   -0.318240
   2 C :   -0.177232
   3 C :   -0.221509
   4 O :    0.172765
   5 C :   -0.224915
   6 C :   -0.209438
   7 C :   -0.203849
   8 C :   -0.162173
   9 H :    0.131372
  10 H :    0.133081
  11 H :    0.133660
  12 H :    0.130464
  13 H :    0.138770
  14 H :    0.134044
  15 H :    0.132723
  16 H :    0.133304
  17 H :    0.134280
  18 H :    0.133645
  19 H :    0.141341
  20 H :    0.138057

  Mayer bond orders larger than 0.1
B(  0-C ,  1-C ) :   0.8599 B(  0-C ,  9-H ) :   0.9416 B(  0-C , 10-H ) :   0.9369
B(  0-C , 11-H ) :   0.9405 B(  1-C ,  2-C ) :   0.9360 B(  1-C ,  4-O ) :   0.9351
B(  1-C ,  8-C ) :   0.9568 B(  2-C ,  3-C ) :   0.9414 B(  2-C , 12-H ) :   0.9146
B(  2-C , 13-H ) :   0.9184 B(  3-C ,  4-O ) :   0.9657 B(  3-C ,  5-C ) :   0.9383
B(  3-C , 14-H ) :   0.8923 B(  5-C ,  6-C ) :   0.8444 B(  5-C ,  7-C ) :   0.8405
B(  5-C ,  8-C ) :   0.9282 B(  6-C ,  7-C ) :   0.9362 B(  6-C , 15-H ) :   0.9178
B(  6-C , 16-H ) :   0.9222 B(  7-C , 17-H ) :   0.9248 B(  7-C , 18-H ) :   0.9255
B(  8-C , 19-H ) :   0.9008 B(  8-C , 20-H ) :   0.9020

MP2 TOTAL ENERGY:     -386.389485832 Eh
FINAL SINGLE POINT ENERGY      -386.389485831527

DIPOLE MOMENT
-------------
                                X             Y             Z
Electronic contribution:      2.24327      -0.98657       2.04574
Nuclear contribution   :     -2.47524       0.98219      -2.69375
                        -----------------------------------------
Total Dipole Moment    :     -0.23197      -0.00438      -0.64801
                        -----------------------------------------
Magnitude (a.u.)       :      0.68829
Magnitude (Debye)      :      1.74950

                             ****ORCA TERMINATED NORMALLY****
TOTAL RUN TIME: 0 days 0 hours 19 minutes 1 seconds 237 msec
