                         Program Version 3.0.3 - RELEASE   -
|  1> ! RI-MP2 RIJK def2-TZVP def2-TZVP/C def2-TZVP/JK TIGHTSCF
|  2> % maxcore 2000
|  3> % mp2 density relaxed end
|  4> *xyz 0 1
|  5>  C       -0.0221860060     1.4262749408    -0.0047767551
|  6>  C        0.0195794895    -0.0281014858     0.0042776961
|  7>  C        0.0545457788    -1.2336826226     0.0123742994
|  8>  C        0.1036571683    -2.6644042725     0.0314522295
|  9>  C        0.8916698485    -3.6025904093     0.9794713194
| 10>  C        0.1508419122    -4.5639653122     0.0345117754
| 11>  C       -1.1277790538    -3.6598220814    -0.0197360257
| 12>  C       -1.1582415513    -3.6577389852    -1.5593824271
| 13>  C        0.3402045713    -3.6252658579    -1.2057622632
| 14>  H        0.6094043537     1.8460905315     0.7862522705
| 15>  H        0.3325745118     1.8303337337    -0.9596940939
| 16>  H       -1.0408442577     1.7979312054     0.1539452535
| 17>  H        1.9826798218    -3.5665275943     0.8978447487
| 18>  H        0.5820774737    -3.5994967153     2.0294281014
| 19>  H        0.1597656344    -5.6536281956     0.0138099070
| 20>  H       -1.9540110789    -3.6660819533     0.6931028977
| 21>  H       -1.5273464858    -4.5677961394    -2.0427498340
| 22>  H       -1.5690879572    -2.7661740750    -2.0419232855
| 23>  H        1.2103370367    -3.5915959816    -1.8634656540
| 24> *
| 25>
| 26>                          ****END OF INPUT****

CARTESIAN COORDINATES (ANGSTROEM)
---------------------------------
  C     -0.022186    1.426275   -0.004777
  C      0.019579   -0.028101    0.004278
  C      0.054546   -1.233683    0.012374
  C      0.103657   -2.664404    0.031452
  C      0.891670   -3.602590    0.979471
  C      0.150842   -4.563965    0.034512
  C     -1.127779   -3.659822   -0.019736
  C     -1.158242   -3.657739   -1.559382
  C      0.340205   -3.625266   -1.205762
  H      0.609404    1.846091    0.786252
  H      0.332575    1.830334   -0.959694
  H     -1.040844    1.797931    0.153945
  H      1.982680   -3.566528    0.897845
  H      0.582077   -3.599497    2.029428
  H      0.159766   -5.653628    0.013810
  H     -1.954011   -3.666082    0.693103
  H     -1.527346   -4.567796   -2.042750
  H     -1.569088   -2.766174   -2.041923
  H      1.210337   -3.591596   -1.863466

 Total Charge           Charge          ....    0
 Multiplicity           Mult            ....    1
 Number of Electrons    NEL             ....   64
 Basis Dimension        Dim             ....  339

ORBITAL ENERGIES
----------------

  NO   OCC          E(Eh)            E(eV)
   0   2.0000     -11.260091      -306.4027
   1   2.0000     -11.244231      -305.9711
   2   2.0000     -11.243987      -305.9645
   3   2.0000     -11.243904      -305.9622
   4   2.0000     -11.240208      -305.8616
   5   2.0000     -11.225917      -305.4727
   6   2.0000     -11.222641      -305.3836
   7   2.0000     -11.221338      -305.3481
   8   2.0000     -11.212709      -305.1133
   9   2.0000      -1.243346       -33.8332
  10   2.0000      -1.054583       -28.6967
  11   2.0000      -1.004107       -27.3231
  12   2.0000      -0.967236       -26.3198
  13   2.0000      -0.870705       -23.6931
  14   2.0000      -0.862433       -23.4680
  15   2.0000      -0.832672       -22.6582
  16   2.0000      -0.728244       -19.8165
  17   2.0000      -0.684433       -18.6244
  18   2.0000      -0.633621       -17.2417
  19   2.0000      -0.622905       -16.9501
  20   2.0000      -0.598598       -16.2887
  21   2.0000      -0.593362       -16.1462
  22   2.0000      -0.583299       -15.8724
  23   2.0000      -0.582306       -15.8454
  24   2.0000      -0.476205       -12.9582
  25   2.0000      -0.463977       -12.6254
  26   2.0000      -0.452653       -12.3173
  27   2.0000      -0.449676       -12.2363
  28   2.0000      -0.431125       -11.7315
  29   2.0000      -0.429855       -11.6969
  30   2.0000      -0.356566        -9.7027
  31   2.0000      -0.346430        -9.4268
  32   0.0000       0.134064         3.6481
  33   0.0000       0.154533         4.2051
  34   0.0000       0.162855         4.4315
  35   0.0000       0.166980         4.5438
  36   0.0000       0.179731         4.8907

MULLIKEN ATOMIC CHARGES
-----------------------
   0 C :   -0.480749
   1 C :    0.080777
   2 C :    0.028415
   3 C :   -0.248233
   4 C :   -0.165372
   5 C :   -0.148925
   6 C :   -0.077085
   7 C :   -0.226728
   8 C :   -0.077085
   9 H :    0.163222
  10 H :    0.162672
  11 H :    0.162671
  12 H :    0.110433
  13 H :    0.110433
  14 H :    0.126541
  15 H :    0.125063
  16 H :    0.111035
  17 H :    0.117852
  18 H :    0.125063
Sum of atomic charges:   -0.0000000

LOEWDIN ATOMIC CHARGES
----------------------
   0 C :   -0.295919
   1 C :   -0.088782
   2 C :   -0.049830
   3 C :   -0.162577
   4 C :   -0.166256
   5 C :   -0.142568
   6 C :   -0.107756
   7 C :   -0.201546
   8 C :   -0.107757
   9 H :    0.141360
  10 H :    0.140795
  11 H :    0.140790
  12 H :    0.129401
  13 H :    0.129401
  14 H :    0.126767
  15 H :    0.128489
  16 H :    0.127265
  17 H :    0.130237
  18 H :    0.128489

  Mayer bond orders larger than 0.1
B(  0-C ,  1-C ) :   0.8287 B(  0-C ,  9-H ) :   0.9492 B(  0-C , 10-H ) :   0.9476
B(  0-C , 11-H ) :   0.9476 B(  1-C ,  2-C ) :   2.6675 B(  1-C ,  3-C ) :  -0.2106
B(  2-C ,  3-C ) :   1.1734 B(  3-C ,  4-C ) :   0.8909 B(  3-C ,  6-C ) :   0.8282
B(  3-C ,  8-C ) :   0.8282 B(  4-C ,  5-C ) :   0.9416 B(  4-C , 12-H ) :   0.9226
B(  4-C , 13-H ) :   0.9226 B(  5-C ,  6-C ) :   0.8662 B(  5-C ,  8-C ) :   0.8662
B(  5-C , 14-H ) :   0.9075 B(  6-C ,  7-C ) :   0.9335 B(  6-C , 15-H ) :   0.8962
B(  7-C ,  8-C ) :   0.9335 B(  7-C , 16-H ) :   0.9244 B(  7-C , 17-H ) :   0.9168
B(  8-C , 18-H ) :   0.8962

MP2 TOTAL ENERGY:     -347.999525395 Eh
FINAL SINGLE POINT ENERGY      -347.999525394824

DIPOLE MOMENT
-------------
                                X             Y             Z
Electronic contribution:      0.31017      -1.63755       0.33581
Nuclear contribution   :     -0.32924       1.77929      -0.35521
                        -----------------------------------------
Total Dipole Moment    :     -0.01907       0.14174      -0.01940
                        -----------------------------------------
Magnitude (a.u.)       :      0.14433
Magnitude (Debye)      :      0.36685

                             ****ORCA TERMINATED NORMALLY****
TOTAL RUN TIME: 0 days 0 hours 18 minutes 4 seconds 627 msec
