                         Program Version 3.0.3 - RELEASE   -
|  1> ! RI-MP2 RIJK def2-TZVP def2-TZVP/C def2-TZVP/JK TIGHTSCF
|  2> % maxcore 2000
|  3> % mp2 density relaxed end
|  4> *xyz 0 1
|  5>  O        0.1200485208     0.0303937041     0.0535238577
|  6>  C        0.0354470423     1.2304598776     0.0132975022
|  7>  N       -1.0234597727     2.1000571725    -0.0135546026
|  8>  C       -0.2195017211     3.3251287662     0.0455715023
|  9>  C        1.0445587050     2.4114436021     0.0190365806
| 10>  C        1.9903946252     2.4548272577     1.2146002668
| 11>  C        2.9904609461     1.2784198582     1.1692109499
| 12>  C        3.8868151424     1.2713872755     2.3218719357
| 13>  N        4.5879660626     1.2863801953     3.2403398039
| 14>  H       -2.0190460321     1.9421916314     0.0374162863
| 15>  H       -0.3429637303     3.9869931503    -0.8165443488
| 16>  H       -0.3462056019     3.8976508822     0.9703990424
| 17>  H        1.5979423130     2.4794188388    -0.9226384294
| 18>  H        2.5373761070     3.4035335073     1.2331271605
| 19>  H        1.4160527301     2.4003635816     2.1461864646
| 20>  H        2.4422660742     0.3313884747     1.1264225999
| 21>  H        3.5970137694     1.3323807943     0.2574145581
| 22> *
| 23>
| 24>                          ****END OF INPUT****

CARTESIAN COORDINATES (ANGSTROEM)
---------------------------------
  O      0.120049    0.030394    0.053524
  C      0.035447    1.230460    0.013298
  N     -1.023460    2.100057   -0.013555
  C     -0.219502    3.325129    0.045572
  C      1.044559    2.411444    0.019037
  C      1.990395    2.454827    1.214600
  C      2.990461    1.278420    1.169211
  C      3.886815    1.271387    2.321872
  N      4.587966    1.286380    3.240340
  H     -2.019046    1.942192    0.037416
  H     -0.342964    3.986993   -0.816544
  H     -0.346206    3.897651    0.970399
  H      1.597942    2.479419   -0.922638
  H      2.537376    3.403534    1.233127
  H      1.416053    2.400364    2.146186
  H      2.442266    0.331388    1.126423
  H      3.597014    1.332381    0.257415

 Total Charge           Charge          ....    0
 Multiplicity           Mult            ....    1
 Number of Electrons    NEL             ....   66
 Basis Dimension        Dim             ....  327

ORBITAL ENERGIES
----------------

  NO   OCC          E(Eh)            E(eV)
   0   2.0000     -20.541065      -558.9508
   1   2.0000     -15.601335      -424.5339
   2   2.0000     -15.566744      -423.5926
   3   2.0000     -11.365736      -309.2774
   4   2.0000     -11.297670      -307.4252
   5   2.0000     -11.282319      -307.0075
   6   2.0000     -11.273099      -306.7566
   7   2.0000     -11.271503      -306.7132
   8   2.0000     -11.268052      -306.6193
   9   2.0000      -1.402926       -38.1756
  10   2.0000      -1.285231       -34.9729
  11   2.0000      -1.217060       -33.1179
  12   2.0000      -1.110332       -30.2137
  13   2.0000      -1.019819       -27.7507
  14   2.0000      -0.925558       -25.1857
  15   2.0000      -0.894374       -24.3372
  16   2.0000      -0.784128       -21.3372
  17   2.0000      -0.706461       -19.2238
  18   2.0000      -0.692517       -18.8444
  19   2.0000      -0.689635       -18.7659
  20   2.0000      -0.668274       -18.1847
  21   2.0000      -0.644310       -17.5326
  22   2.0000      -0.585689       -15.9374
  23   2.0000      -0.575545       -15.6614
  24   2.0000      -0.564430       -15.3589
  25   2.0000      -0.557222       -15.1628
  26   2.0000      -0.545481       -14.8433
  27   2.0000      -0.526683       -14.3318
  28   2.0000      -0.516792       -14.0626
  29   2.0000      -0.456572       -12.4240
  30   2.0000      -0.454149       -12.3580
  31   2.0000      -0.426734       -11.6120
  32   2.0000      -0.415520       -11.3069
  33   0.0000       0.114780         3.1233
  34   0.0000       0.129510         3.5241
  35   0.0000       0.144697         3.9374
  36   0.0000       0.148705         4.0465
  37   0.0000       0.178034         4.8446

MULLIKEN ATOMIC CHARGES
-----------------------
   0 O :   -0.320938
   1 C :    0.205353
   2 N :   -0.317546
   3 C :   -0.105972
   4 C :   -0.047889
   5 C :   -0.291529
   6 C :   -0.143891
   7 C :   -0.181151
   8 N :   -0.060202
   9 H :    0.242630
  10 H :    0.126753
  11 H :    0.130609
  12 H :    0.130966
  13 H :    0.143315
  14 H :    0.143072
  15 H :    0.193853
  16 H :    0.152567
Sum of atomic charges:   -0.0000000

LOEWDIN ATOMIC CHARGES
----------------------
   0 O :    0.099774
   1 C :   -0.428894
   2 N :    0.125433
   3 C :   -0.219902
   4 C :   -0.192899
   5 C :   -0.224146
   6 C :   -0.237188
   7 C :   -0.193420
   8 N :    0.054022
   9 H :    0.171917
  10 H :    0.124485
  11 H :    0.126883
  12 H :    0.158040
  13 H :    0.147008
  14 H :    0.151282
  15 H :    0.173321
  16 H :    0.164285

  Mayer bond orders larger than 0.1
B(  0-O ,  1-C ) :   1.9857 B(  1-C ,  2-N ) :   1.1871 B(  1-C ,  4-C ) :   0.8474
B(  2-N ,  3-C ) :   0.9052 B(  2-N ,  9-H ) :   0.8575 B(  3-C ,  4-C ) :   0.9092
B(  3-C , 10-H ) :   0.9272 B(  3-C , 11-H ) :   0.9276 B(  4-C ,  5-C ) :   0.8984
B(  4-C , 12-H ) :   0.9021 B(  5-C ,  6-C ) :   0.9117 B(  5-C , 13-H ) :   0.9316
B(  5-C , 14-H ) :   0.9236 B(  6-C ,  7-C ) :   0.9218 B(  6-C , 15-H ) :   0.9041
B(  6-C , 16-H ) :   0.9072 B(  7-C ,  8-N ) :   2.8839

MP2 TOTAL ENERGY:     -417.338113625 Eh
FINAL SINGLE POINT ENERGY      -417.338113625304

DIPOLE MOMENT
-------------
                                X             Y             Z
Electronic contribution:      1.01575      -4.22284       1.52691
Nuclear contribution   :     -2.42239       5.73101      -2.72494
                        -----------------------------------------
Total Dipole Moment    :     -1.40664       1.50817      -1.19803
                        -----------------------------------------
Magnitude (a.u.)       :      2.38506
Magnitude (Debye)      :      6.06233

                             ****ORCA TERMINATED NORMALLY****
TOTAL RUN TIME: 0 days 0 hours 14 minutes 34 seconds 663 msec
