                         Program Version 3.0.3 - RELEASE   -
|  1> ! RI-MP2 RIJK def2-TZVP def2-TZVP/C def2-TZVP/JK TIGHTSCF
|  2> % maxcore 2000
|  3> % mp2 density relaxed end
|  4> *xyz 0 1
|  5>  O       -0.1068890650     1.4347012123     0.0471292302
|  6>  C        0.0436181524     0.0722387911    -0.0368862200
|  7>  C        0.0228034136    -0.9219356056     1.1171546221
|  8>  N        0.9185772484    -2.0480979737     1.0181581915
|  9>  C        1.1800600809    -2.0183206346    -0.2345179746
| 10>  O        0.5253124318    -2.9163126841    -1.0951824771
| 11>  C       -0.3431411617    -1.6875474786    -1.2919310677
| 12>  C       -1.0375889151    -1.0010261513    -0.0462353067
| 13>  C        0.8330636458    -0.7409261450    -1.0547314379
| 14>  H        0.6316434319     1.7957517783     0.5509210510
| 15>  H       -0.3321283312    -0.6099287359     2.0928510116
| 16>  H       -0.9023587222    -1.7626460974    -2.2218638212
| 17>  H       -2.0973616076    -0.9328507957     0.1514480990
| 18>  H        1.4840163181    -0.3800603098    -1.8433910500
| 19> *
| 20>
| 21>                          ****END OF INPUT****

CARTESIAN COORDINATES (ANGSTROEM)
---------------------------------
  O     -0.106889    1.434701    0.047129
  C      0.043618    0.072239   -0.036886
  C      0.022803   -0.921936    1.117155
  N      0.918577   -2.048098    1.018158
  C      1.180060   -2.018321   -0.234518
  O      0.525312   -2.916313   -1.095182
  C     -0.343141   -1.687547   -1.291931
  C     -1.037589   -1.001026   -0.046235
  C      0.833064   -0.740926   -1.054731
  H      0.631643    1.795752    0.550921
  H     -0.332128   -0.609929    2.092851
  H     -0.902359   -1.762646   -2.221864
  H     -2.097362   -0.932851    0.151448
  H      1.484016   -0.380060   -1.843391

 Total Charge           Charge          ....    0
 Multiplicity           Mult            ....    1
 Number of Electrons    NEL             ....   64
 Basis Dimension        Dim             ....  309

ORBITAL ENERGIES
----------------

  NO   OCC          E(Eh)            E(eV)
   0   2.0000     -20.597588      -560.4889
   1   2.0000     -20.596201      -560.4511
   2   2.0000     -15.544230      -422.9800
   3   2.0000     -11.362547      -309.1906
   4   2.0000     -11.331949      -308.3580
   5   2.0000     -11.321119      -308.0633
   6   2.0000     -11.294097      -307.3280
   7   2.0000     -11.267873      -306.6144
   8   2.0000     -11.260156      -306.4044
   9   2.0000      -1.437688       -39.1215
  10   2.0000      -1.406417       -38.2706
  11   2.0000      -1.267353       -34.4864
  12   2.0000      -1.155485       -31.4423
  13   2.0000      -1.013462       -27.5777
  14   2.0000      -0.909310       -24.7436
  15   2.0000      -0.843817       -22.9614
  16   2.0000      -0.808793       -22.0084
  17   2.0000      -0.746051       -20.3011
  18   2.0000      -0.733411       -19.9571
  19   2.0000      -0.690756       -18.7964
  20   2.0000      -0.649687       -17.6789
  21   2.0000      -0.641186       -17.4476
  22   2.0000      -0.613960       -16.7067
  23   2.0000      -0.590576       -16.0704
  24   2.0000      -0.565207       -15.3801
  25   2.0000      -0.559683       -15.2298
  26   2.0000      -0.515423       -14.0254
  27   2.0000      -0.487980       -13.2786
  28   2.0000      -0.447089       -12.1659
  29   2.0000      -0.440395       -11.9838
  30   2.0000      -0.404109       -10.9964
  31   2.0000      -0.329693        -8.9714
  32   0.0000       0.081674         2.2225
  33   0.0000       0.126195         3.4339
  34   0.0000       0.147738         4.0202
  35   0.0000       0.167975         4.5708
  36   0.0000       0.171057         4.6547

MULLIKEN ATOMIC CHARGES
-----------------------
   0 O :   -0.442135
   1 C :    0.137047
   2 C :   -0.112832
   3 N :   -0.196989
   4 C :    0.099186
   5 O :   -0.261567
   6 C :    0.025006
   7 C :   -0.159503
   8 C :   -0.058081
   9 H :    0.338907
  10 H :    0.146815
  11 H :    0.156852
  12 H :    0.163846
  13 H :    0.163448
Sum of atomic charges:   -0.0000000

LOEWDIN ATOMIC CHARGES
----------------------
   0 O :    0.045622
   1 C :   -0.297123
   2 C :   -0.192366
   3 N :    0.139946
   4 C :   -0.308867
   5 O :    0.188008
   6 C :   -0.139796
   7 C :   -0.100915
   8 C :   -0.120411
   9 H :    0.193965
  10 H :    0.149783
  11 H :    0.149079
  12 H :    0.143802
  13 H :    0.149274

  Mayer bond orders larger than 0.1
B(  0-O ,  1-C ) :   1.0228 B(  0-O ,  9-H ) :   0.8275 B(  1-C ,  2-C ) :   0.8629
B(  1-C ,  7-C ) :   0.8719 B(  1-C ,  8-C ) :   0.9242 B(  2-C ,  3-N ) :   0.9981
B(  2-C ,  7-C ) :   0.7935 B(  2-C , 10-H ) :   0.9353 B(  3-N ,  4-C ) :   1.7871
B(  4-C ,  5-O ) :   1.0276 B(  4-C ,  8-C ) :   0.8897 B(  5-O ,  6-C ) :   0.8617
B(  6-C ,  7-C ) :   0.9071 B(  6-C ,  8-C ) :   0.8956 B(  6-C , 11-H ) :   0.9013
B(  7-C , 12-H ) :   0.9040 B(  8-C , 13-H ) :   0.9036

MP2 TOTAL ENERGY:     -435.816152338 Eh
FINAL SINGLE POINT ENERGY      -435.816152338381

DIPOLE MOMENT
-------------
                                X             Y             Z
Electronic contribution:      2.01888      -2.00525       0.07083
Nuclear contribution   :     -2.15580       3.18188      -0.34269
                        -----------------------------------------
Total Dipole Moment    :     -0.13691       1.17663      -0.27187
                        -----------------------------------------
Magnitude (a.u.)       :      1.21537
Magnitude (Debye)      :      3.08922

                             ****ORCA TERMINATED NORMALLY****
TOTAL RUN TIME: 0 days 0 hours 18 minutes 24 seconds 973 msec
