                         Program Version 3.0.3 - RELEASE   -
|  1> ! RI-MP2 RIJK def2-TZVP def2-TZVP/C def2-TZVP/JK TIGHTSCF
|  2> % maxcore 2000
|  3> % mp2 density relaxed end
|  4> *xyz 0 1
|  5>  C        0.1880846459     1.6085344164    -0.2156837130
|  6>  C        0.0040261559     0.1070085169     0.0269773854
|  7>  N        0.5260671580    -0.6880841642    -1.0870087540
|  8>  C        1.7297935671    -1.3026831568    -0.8880676596
|  9>  O        2.4029097894    -1.8980934533    -1.6956823122
| 10>  C        2.0432685761    -1.0672513163     0.6071957208
| 11>  O        3.0864999929    -1.3193162605     1.1443184141
| 12>  C        0.7940388681    -0.4648341466     1.2401971530
| 13>  C        1.0742736258     0.4543196113     2.4242235622
| 14>  H        1.2470829579     1.8666095225    -0.3173927506
| 15>  H       -0.3199234592     1.9066363489    -1.1384622888
| 16>  H       -0.2367931891     2.1943056860     0.6042838561
| 17>  H       -1.0658991955    -0.0996677289     0.1446096747
| 18>  H        0.1361526610    -0.6270810760    -2.0159419590
| 19>  H        0.2275446030    -1.3381188492     1.5976358346
| 20>  H        1.6295752100     1.3461504941     2.1227396237
| 21>  H        0.1485108309     0.7737133878     2.9116736665
| 22>  H        1.6852798318    -0.0797556320     3.1560675063
| 23> *
| 24>
| 25>                          ****END OF INPUT****

CARTESIAN COORDINATES (ANGSTROEM)
---------------------------------
  C      0.188085    1.608534   -0.215684
  C      0.004026    0.107009    0.026977
  N      0.526067   -0.688084   -1.087009
  C      1.729794   -1.302683   -0.888068
  O      2.402910   -1.898093   -1.695682
  C      2.043269   -1.067251    0.607196
  O      3.086500   -1.319316    1.144318
  C      0.794039   -0.464834    1.240197
  C      1.074274    0.454320    2.424224
  H      1.247083    1.866610   -0.317393
  H     -0.319923    1.906636   -1.138462
  H     -0.236793    2.194306    0.604284
  H     -1.065899   -0.099668    0.144610
  H      0.136153   -0.627081   -2.015942
  H      0.227545   -1.338119    1.597636
  H      1.629575    1.346150    2.122740
  H      0.148511    0.773713    2.911674
  H      1.685280   -0.079756    3.156068

 Total Charge           Charge          ....    0
 Multiplicity           Mult            ....    1
 Number of Electrons    NEL             ....   68
 Basis Dimension        Dim             ....  333

ORBITAL ENERGIES
----------------

  NO   OCC          E(Eh)            E(eV)
   0   2.0000     -20.574496      -559.8605
   1   2.0000     -20.536018      -558.8135
   2   2.0000     -15.603934      -424.6046
   3   2.0000     -11.362020      -309.1763
   4   2.0000     -11.347647      -308.7852
   5   2.0000     -11.304438      -307.6094
   6   2.0000     -11.267897      -306.6151
   7   2.0000     -11.244311      -305.9732
   8   2.0000     -11.240058      -305.8575
   9   2.0000      -1.420820       -38.6625
  10   2.0000      -1.388834       -37.7921
  11   2.0000      -1.272929       -34.6382
  12   2.0000      -1.095130       -29.8000
  13   2.0000      -1.026554       -27.9340
  14   2.0000      -0.954845       -25.9827
  15   2.0000      -0.904585       -24.6150
  16   2.0000      -0.809275       -22.0215
  17   2.0000      -0.760069       -20.6825
  18   2.0000      -0.715600       -19.4725
  19   2.0000      -0.675929       -18.3930
  20   2.0000      -0.664083       -18.0706
  21   2.0000      -0.643129       -17.5004
  22   2.0000      -0.629689       -17.1347
  23   2.0000      -0.609189       -16.5769
  24   2.0000      -0.571553       -15.5527
  25   2.0000      -0.564389       -15.3578
  26   2.0000      -0.560900       -15.2629
  27   2.0000      -0.554367       -15.0851
  28   2.0000      -0.539942       -14.6926
  29   2.0000      -0.516923       -14.0662
  30   2.0000      -0.489672       -13.3246
  31   2.0000      -0.484243       -13.1769
  32   2.0000      -0.410615       -11.1734
  33   2.0000      -0.397061       -10.8046
  34   0.0000       0.079340         2.1590
  35   0.0000       0.114625         3.1191
  36   0.0000       0.141548         3.8517
  37   0.0000       0.144410         3.9296
  38   0.0000       0.171716         4.6726

MULLIKEN ATOMIC CHARGES
-----------------------
   0 C :   -0.433933
   1 C :    0.054893
   2 N :   -0.291489
   3 C :    0.182702
   4 O :   -0.307876
   5 C :    0.136825
   6 O :   -0.244513
   7 C :   -0.045341
   8 C :   -0.414472
   9 H :    0.146784
  10 H :    0.137668
  11 H :    0.140603
  12 H :    0.119571
  13 H :    0.242056
  14 H :    0.133142
  15 H :    0.138240
  16 H :    0.142605
  17 H :    0.162536
Sum of atomic charges:   -0.0000000

LOEWDIN ATOMIC CHARGES
----------------------
   0 C :   -0.289981
   1 C :   -0.265129
   2 N :    0.156396
   3 C :   -0.433392
   4 O :    0.114843
   5 C :   -0.264058
   6 O :    0.195451
   7 C :   -0.223207
   8 C :   -0.280880
   9 H :    0.129518
  10 H :    0.126041
  11 H :    0.129265
  12 H :    0.146693
  13 H :    0.187218
  14 H :    0.178179
  15 H :    0.129249
  16 H :    0.126669
  17 H :    0.137125

  Mayer bond orders larger than 0.1
B(  0-C ,  1-C ) :   0.9132 B(  0-C ,  9-H ) :   0.9304 B(  0-C , 10-H ) :   0.9334
B(  0-C , 11-H ) :   0.9337 B(  1-C ,  2-N ) :   0.8257 B(  1-C ,  7-C ) :   0.8967
B(  1-C , 12-H ) :   0.9266 B(  2-N ,  3-C ) :   1.1768 B(  2-N , 13-H ) :   0.8595
B(  3-C ,  4-O ) :   2.0137 B(  3-C ,  5-C ) :   0.8740 B(  5-C ,  6-O ) :   2.0012
B(  5-C ,  7-C ) :   0.8699 B(  7-C ,  8-C ) :   0.9077 B(  7-C , 14-H ) :   0.8946
B(  8-C , 15-H ) :   0.9274 B(  8-C , 16-H ) :   0.9433 B(  8-C , 17-H ) :   0.9277

MP2 TOTAL ENERGY:     -438.423575216 Eh
FINAL SINGLE POINT ENERGY      -438.423575216328

DIPOLE MOMENT
-------------
                                X             Y             Z
Electronic contribution:      5.94204      -8.48076      -4.78098
Nuclear contribution   :     -7.93031       9.73252       5.18399
                        -----------------------------------------
Total Dipole Moment    :     -1.98827       1.25176       0.40301
                        -----------------------------------------
Magnitude (a.u.)       :      2.38381
Magnitude (Debye)      :      6.05916

                             ****ORCA TERMINATED NORMALLY****
TOTAL RUN TIME: 0 days 0 hours 17 minutes 38 seconds 766 msec
