                         Program Version 3.0.3 - RELEASE   -
|  1> ! RI-MP2 RIJK def2-TZVP def2-TZVP/C def2-TZVP/JK TIGHTSCF
|  2> % maxcore 2000
|  3> % mp2 density relaxed end
|  4> *xyz 0 1
|  5>  C        0.1328151574     1.4003773531    -0.2406924672
|  6>  C        0.0193388010    -0.0480765078     0.1638221877
|  7>  O        1.2133941452    -0.8433265642     0.1259376718
|  8>  C        0.5764462509    -0.6056861546     1.4073130697
|  9>  C        1.3631187764     0.2534084461     2.3964818325
| 10>  O        1.8237124343    -0.4639841685     3.5231863595
| 11>  C        0.0133682997    -1.8973771190     1.9698478434
| 12>  O        1.0824053215    -2.8208898533     2.1849199710
| 13>  H        1.0086786826     1.8800137092     0.1995952571
| 14>  H        0.2100904551     1.4816617959    -1.3296568408
| 15>  H       -0.7616112200     1.9496659357     0.0723592102
| 16>  H       -0.8510407758    -0.5597633664    -0.2538474870
| 17>  H        2.1898988592     0.7295023877     1.8491157102
| 18>  H        0.7175225622     1.0534028706     2.7818506185
| 19>  H        2.0383897396    -1.3623115216     3.2345214323
| 20>  H       -0.4537251563    -1.7353873326     2.9440712767
| 21>  H       -0.7319438121    -2.3195463542     1.2831783343
| 22>  H        1.5210438692    -2.9142266660     1.3293278502
| 23> *
| 24>
| 25>                          ****END OF INPUT****

CARTESIAN COORDINATES (ANGSTROEM)
---------------------------------
  C      0.132815    1.400377   -0.240692
  C      0.019339   -0.048077    0.163822
  O      1.213394   -0.843327    0.125938
  C      0.576446   -0.605686    1.407313
  C      1.363119    0.253408    2.396482
  O      1.823712   -0.463984    3.523186
  C      0.013368   -1.897377    1.969848
  O      1.082405   -2.820890    2.184920
  H      1.008679    1.880014    0.199595
  H      0.210090    1.481662   -1.329657
  H     -0.761611    1.949666    0.072359
  H     -0.851041   -0.559763   -0.253847
  H      2.189899    0.729502    1.849116
  H      0.717523    1.053403    2.781851
  H      2.038390   -1.362312    3.234521
  H     -0.453725   -1.735387    2.944071
  H     -0.731944   -2.319546    1.283178
  H      1.521044   -2.914227    1.329328

 Total Charge           Charge          ....    0
 Multiplicity           Mult            ....    1
 Number of Electrons    NEL             ....   64
 Basis Dimension        Dim             ....  308

ORBITAL ENERGIES
----------------

  NO   OCC          E(Eh)            E(eV)
   0   2.0000     -20.575725      -559.8939
   1   2.0000     -20.572573      -559.8082
   2   2.0000     -20.548162      -559.1439
   3   2.0000     -11.303151      -307.5744
   4   2.0000     -11.299151      -307.4655
   5   2.0000     -11.291453      -307.2560
   6   2.0000     -11.283467      -307.0388
   7   2.0000     -11.237332      -305.7833
   8   2.0000      -1.423781       -38.7431
   9   2.0000      -1.374883       -37.4125
  10   2.0000      -1.353571       -36.8326
  11   2.0000      -1.031875       -28.0788
  12   2.0000      -1.013682       -27.5837
  13   2.0000      -0.936019       -25.4704
  14   2.0000      -0.859404       -23.3856
  15   2.0000      -0.791435       -21.5360
  16   2.0000      -0.732765       -19.9396
  17   2.0000      -0.693369       -18.8675
  18   2.0000      -0.662078       -18.0161
  19   2.0000      -0.647407       -17.6169
  20   2.0000      -0.618665       -16.8347
  21   2.0000      -0.604821       -16.4580
  22   2.0000      -0.598063       -16.2741
  23   2.0000      -0.579907       -15.7801
  24   2.0000      -0.566102       -15.4044
  25   2.0000      -0.543477       -14.7888
  26   2.0000      -0.515865       -14.0374
  27   2.0000      -0.508978       -13.8500
  28   2.0000      -0.480739       -13.0816
  29   2.0000      -0.462585       -12.5876
  30   2.0000      -0.435005       -11.8371
  31   2.0000      -0.425365       -11.5748
  32   0.0000       0.132729         3.6117
  33   0.0000       0.151050         4.1103
  34   0.0000       0.162232         4.4146
  35   0.0000       0.172644         4.6979
  36   0.0000       0.195635         5.3235

MULLIKEN ATOMIC CHARGES
-----------------------
   0 C :   -0.395344
   1 C :    0.063392
   2 O :   -0.363740
   3 C :    0.025790
   4 C :   -0.029019
   5 O :   -0.477244
   6 C :   -0.003817
   7 O :   -0.495572
   8 H :    0.142271
   9 H :    0.145301
  10 H :    0.135638
  11 H :    0.111146
  12 H :    0.113723
  13 H :    0.113386
  14 H :    0.334912
  15 H :    0.131789
  16 H :    0.109106
  17 H :    0.338283
Sum of atomic charges:    0.0000000

LOEWDIN ATOMIC CHARGES
----------------------
   0 C :   -0.288477
   1 C :   -0.271643
   2 O :    0.157616
   3 C :   -0.318351
   4 C :   -0.310780
   5 O :   -0.040127
   6 C :   -0.297823
   7 O :   -0.048381
   8 H :    0.130721
   9 H :    0.132083
  10 H :    0.132839
  11 H :    0.138701
  12 H :    0.126936
  13 H :    0.134428
  14 H :    0.173321
  15 H :    0.140218
  16 H :    0.126264
  17 H :    0.182455

  Mayer bond orders larger than 0.1
B(  0-C ,  1-C ) :   0.9002 B(  0-C ,  8-H ) :   0.9395 B(  0-C ,  9-H ) :   0.9338
B(  0-C , 10-H ) :   0.9255 B(  1-C ,  2-O ) :   0.8763 B(  1-C ,  3-C ) :   0.9557
B(  1-C , 11-H ) :   0.8975 B(  2-O ,  3-C ) :   0.8429 B(  3-C ,  4-C ) :   0.9069
B(  3-C ,  6-C ) :   0.9419 B(  4-C ,  5-O ) :   0.9820 B(  4-C , 12-H ) :   0.9376
B(  4-C , 13-H ) :   0.9272 B(  5-O , 14-H ) :   0.8101 B(  6-C ,  7-O ) :   0.8575
B(  6-C , 15-H ) :   0.9273 B(  6-C , 16-H ) :   0.9077 B(  7-O , 17-H ) :   0.8259

MP2 TOTAL ENERGY:     -421.395562781 Eh
FINAL SINGLE POINT ENERGY      -421.395562781105

DIPOLE MOMENT
-------------
                                X             Y             Z
Electronic contribution:      2.22354      -4.13723       1.57705
Nuclear contribution   :     -3.02354       4.52772      -2.43356
                        -----------------------------------------
Total Dipole Moment    :     -0.80000       0.39049      -0.85651
                        -----------------------------------------
Magnitude (a.u.)       :      1.23535
Magnitude (Debye)      :      3.14001

                             ****ORCA TERMINATED NORMALLY****
TOTAL RUN TIME: 0 days 0 hours 10 minutes 58 seconds 172 msec
