                         Program Version 3.0.3 - RELEASE   -
|  1> ! RI-MP2 RIJK def2-TZVP def2-TZVP/C def2-TZVP/JK TIGHTSCF
|  2> % maxcore 2000
|  3> % mp2 density relaxed end
|  4> *xyz 0 1
|  5>  O       -0.5656682685     1.2880237698     1.4029226824
|  6>  C       -0.2605911397     1.8331741967     0.3673591514
|  7>  C        1.1303677424     1.7533148179    -0.1843491456
|  8>  C        2.2318056082     2.0348331666     0.8219381002
|  9>  N        1.9944304821     0.6890554166     0.3640681244
| 10>  C        1.3162817320     2.1585046955    -1.6173696327
| 11>  O        0.4568674274     2.7744084550    -2.2146018533
| 12>  C        2.5765949902     1.8022831376    -2.2392150059
| 13>  C        3.6180115193     1.5388215933    -2.7811985526
| 14>  H       -0.9812129312     2.4094226917    -0.2371189481
| 15>  H        3.1436594599     2.5003337803     0.4592612112
| 16>  H        1.8972165182     2.3299010119     1.8128402586
| 17>  H        1.4254533127     0.1969540003     1.0561576639
| 18>  H        4.5353653570     1.2981711867    -3.2619076039
| 19> *
| 20>
| 21>                          ****END OF INPUT****

CARTESIAN COORDINATES (ANGSTROEM)
---------------------------------
  O     -0.565668    1.288024    1.402923
  C     -0.260591    1.833174    0.367359
  C      1.130368    1.753315   -0.184349
  C      2.231806    2.034833    0.821938
  N      1.994430    0.689055    0.364068
  C      1.316282    2.158505   -1.617370
  O      0.456867    2.774408   -2.214602
  C      2.576595    1.802283   -2.239215
  C      3.618012    1.538822   -2.781199
  H     -0.981213    2.409423   -0.237119
  H      3.143659    2.500334    0.459261
  H      1.897217    2.329901    1.812840
  H      1.425453    0.196954    1.056158
  H      4.535365    1.298171   -3.261908

 Total Charge           Charge          ....    0
 Multiplicity           Mult            ....    1
 Number of Electrons    NEL             ....   64
 Basis Dimension        Dim             ....  309

ORBITAL ENERGIES
----------------

  NO   OCC          E(Eh)            E(eV)
   0   2.0000     -20.579347      -559.9925
   1   2.0000     -20.576216      -559.9073
   2   2.0000     -15.599728      -424.4902
   3   2.0000     -11.382856      -309.7432
   4   2.0000     -11.353576      -308.9465
   5   2.0000     -11.306657      -307.6698
   6   2.0000     -11.303267      -307.5775
   7   2.0000     -11.272464      -306.7393
   8   2.0000     -11.261790      -306.4489
   9   2.0000      -1.425353       -38.7858
  10   2.0000      -1.415903       -38.5287
  11   2.0000      -1.307419       -35.5767
  12   2.0000      -1.075021       -29.2528
  13   2.0000      -1.005762       -27.3682
  14   2.0000      -0.914862       -24.8947
  15   2.0000      -0.910911       -24.7871
  16   2.0000      -0.797700       -21.7065
  17   2.0000      -0.752651       -20.4807
  18   2.0000      -0.740605       -20.1529
  19   2.0000      -0.719708       -19.5842
  20   2.0000      -0.671140       -18.2627
  21   2.0000      -0.655228       -17.8297
  22   2.0000      -0.619243       -16.8505
  23   2.0000      -0.596763       -16.2387
  24   2.0000      -0.558214       -15.1898
  25   2.0000      -0.547655       -14.9025
  26   2.0000      -0.504250       -13.7213
  27   2.0000      -0.481020       -13.0892
  28   2.0000      -0.443057       -12.0562
  29   2.0000      -0.430839       -11.7237
  30   2.0000      -0.429997       -11.7008
  31   2.0000      -0.418359       -11.3841
  32   0.0000       0.065899         1.7932
  33   0.0000       0.100464         2.7338
  34   0.0000       0.148640         4.0447
  35   0.0000       0.151872         4.1326
  36   0.0000       0.160624         4.3708

MULLIKEN ATOMIC CHARGES
-----------------------
   0 O :   -0.293620
   1 C :    0.102869
   2 C :    0.071584
   3 C :   -0.167172
   4 N :   -0.357743
   5 C :    0.034486
   6 O :   -0.269766
   7 C :    0.080272
   8 C :   -0.098184
   9 H :    0.137851
  10 H :    0.150286
  11 H :    0.157918
  12 H :    0.245813
  13 H :    0.205406
Sum of atomic charges:    0.0000000

LOEWDIN ATOMIC CHARGES
----------------------
   0 O :    0.130195
   1 C :   -0.245450
   2 C :   -0.265079
   3 C :   -0.207354
   4 N :    0.053310
   5 C :   -0.292399
   6 O :    0.181828
   7 C :   -0.049907
   8 C :   -0.025934
   9 H :    0.132125
  10 H :    0.136423
  11 H :    0.135168
  12 H :    0.183162
  13 H :    0.133912

  Mayer bond orders larger than 0.1
B(  0-O ,  1-C ) :   1.8991 B(  1-C ,  2-C ) :   0.9041 B(  1-C ,  9-H ) :   0.9363
B(  2-C ,  3-C ) :   0.8407 B(  2-C ,  4-N ) :   0.8997 B(  2-C ,  5-C ) :   0.9830
B(  2-C ,  7-C ) :  -0.1426 B(  3-C ,  4-N ) :   0.9474 B(  3-C , 10-H ) :   0.9137
B(  3-C , 11-H ) :   0.9087 B(  4-N , 12-H ) :   0.8480 B(  5-C ,  6-O ) :   1.9659
B(  5-C ,  7-C ) :   1.0209 B(  7-C ,  8-C ) :   2.6005 B(  8-C , 13-H ) :   0.8888

MP2 TOTAL ENERGY:     -435.904797167 Eh
FINAL SINGLE POINT ENERGY      -435.904797166884

DIPOLE MOMENT
-------------
                                X             Y             Z
Electronic contribution:     -2.14823       0.19823      -2.55384
Nuclear contribution   :      3.12387      -0.07247       2.73631
                        -----------------------------------------
Total Dipole Moment    :      0.97564       0.12576       0.18248
                        -----------------------------------------
Magnitude (a.u.)       :      1.00050
Magnitude (Debye)      :      2.54306

                             ****ORCA TERMINATED NORMALLY****
TOTAL RUN TIME: 0 days 0 hours 14 minutes 18 seconds 11 msec
