                         Program Version 3.0.3 - RELEASE   -
|  1> ! RI-MP2 RIJK def2-TZVP def2-TZVP/C def2-TZVP/JK TIGHTSCF
|  2> % maxcore 2000
|  3> % mp2 density relaxed end
|  4> *xyz 0 1
|  5>  C       -0.6325906603     1.4063361367     0.0141331081
|  6>  C        0.0276040896     0.0458390728    -0.0394971579
|  7>  O        1.1821594788     0.0013679505    -0.9170794777
|  8>  C        1.9806606837    -0.6487711778     0.0811590208
|  9>  C        2.8739454576     0.3195806455     0.8836643777
| 10>  C        1.7365802790     0.5005454443     1.9354334466
| 11>  C        0.8411595121    -0.4994506977     1.1642941319
| 12>  C        0.2917557625    -1.6743549896     1.8997817974
| 13>  O        0.5039510588    -1.9237625306     3.0614499638
| 14>  H        0.0679108459     2.1844462243     0.3272720519
| 15>  H       -1.0087201486     1.6705854754    -0.9790987255
| 16>  H       -1.4800721191     1.3933772769     0.7078124362
| 17>  H       -0.7066937381    -0.7073178469    -0.3670891920
| 18>  H        2.3907631130    -1.6035992882    -0.2596330525
| 19>  H        3.7743955647    -0.1491098355     1.2885744908
| 20>  H        3.1567924862     1.2061186038     0.3126786270
| 21>  H        1.9842532938     0.1127081123     2.9246154625
| 22>  H        1.3339639495     1.5086219714     2.0479607224
| 23>  H       -0.3331704591    -2.3553514077     1.2753763782
| 24> *
| 25>
| 26>                          ****END OF INPUT****

CARTESIAN COORDINATES (ANGSTROEM)
---------------------------------
  C     -0.632591    1.406336    0.014133
  C      0.027604    0.045839   -0.039497
  O      1.182159    0.001368   -0.917079
  C      1.980661   -0.648771    0.081159
  C      2.873945    0.319581    0.883664
  C      1.736580    0.500545    1.935433
  C      0.841160   -0.499451    1.164294
  C      0.291756   -1.674355    1.899782
  O      0.503951   -1.923763    3.061450
  H      0.067911    2.184446    0.327272
  H     -1.008720    1.670585   -0.979099
  H     -1.480072    1.393377    0.707812
  H     -0.706694   -0.707318   -0.367089
  H      2.390763   -1.603599   -0.259633
  H      3.774396   -0.149110    1.288574
  H      3.156792    1.206119    0.312679
  H      1.984253    0.112708    2.924615
  H      1.333964    1.508622    2.047961
  H     -0.333170   -2.355351    1.275376

 Total Charge           Charge          ....    0
 Multiplicity           Mult            ....    1
 Number of Electrons    NEL             ....   68
 Basis Dimension        Dim             ....  339

ORBITAL ENERGIES
----------------

  NO   OCC          E(Eh)            E(eV)
   0   2.0000     -20.562171      -559.5251
   1   2.0000     -20.560483      -559.4792
   2   2.0000     -11.336763      -308.4890
   3   2.0000     -11.304178      -307.6023
   4   2.0000     -11.301816      -307.5380
   5   2.0000     -11.252014      -306.1829
   6   2.0000     -11.234603      -305.7091
   7   2.0000     -11.233500      -305.6791
   8   2.0000     -11.229256      -305.5636
   9   2.0000      -1.402171       -38.1550
  10   2.0000      -1.394549       -37.9476
  11   2.0000      -1.126578       -30.6557
  12   2.0000      -1.042470       -28.3670
  13   2.0000      -0.968817       -26.3628
  14   2.0000      -0.897109       -24.4116
  15   2.0000      -0.837859       -22.7993
  16   2.0000      -0.828558       -22.5462
  17   2.0000      -0.730834       -19.8870
  18   2.0000      -0.714076       -19.4310
  19   2.0000      -0.670877       -18.2555
  20   2.0000      -0.651979       -17.7412
  21   2.0000      -0.627905       -17.0862
  22   2.0000      -0.619664       -16.8619
  23   2.0000      -0.590059       -16.0563
  24   2.0000      -0.574788       -15.6408
  25   2.0000      -0.548274       -14.9193
  26   2.0000      -0.533244       -14.5103
  27   2.0000      -0.527701       -14.3595
  28   2.0000      -0.504601       -13.7309
  29   2.0000      -0.497972       -13.5505
  30   2.0000      -0.469661       -12.7801
  31   2.0000      -0.430174       -11.7056
  32   2.0000      -0.418463       -11.3870
  33   2.0000      -0.405691       -11.0394
  34   0.0000       0.107676         2.9300
  35   0.0000       0.141076         3.8389
  36   0.0000       0.152268         4.1434
  37   0.0000       0.161591         4.3971
  38   0.0000       0.178108         4.8466

MULLIKEN ATOMIC CHARGES
-----------------------
   0 C :   -0.411542
   1 C :    0.054518
   2 O :   -0.321912
   3 C :   -0.019013
   4 C :   -0.186926
   5 C :   -0.327354
   6 C :    0.214605
   7 C :    0.049240
   8 O :   -0.268306
   9 H :    0.132315
  10 H :    0.148330
  11 H :    0.136009
  12 H :    0.082652
  13 H :    0.112591
  14 H :    0.123180
  15 H :    0.120429
  16 H :    0.149957
  17 H :    0.129958
  18 H :    0.081267
Sum of atomic charges:   -0.0000000

LOEWDIN ATOMIC CHARGES
----------------------
   0 C :   -0.288872
   1 C :   -0.261194
   2 O :    0.161990
   3 C :   -0.204195
   4 C :   -0.213897
   5 C :   -0.186106
   6 C :   -0.198705
   7 C :   -0.267636
   8 O :    0.136118
   9 H :    0.126166
  10 H :    0.133027
  11 H :    0.132041
  12 H :    0.140558
  13 H :    0.128239
  14 H :    0.135349
  15 H :    0.135917
  16 H :    0.143605
  17 H :    0.130873
  18 H :    0.116720

  Mayer bond orders larger than 0.1
B(  0-C ,  1-C ) :   0.9089 B(  0-C ,  9-H ) :   0.9385 B(  0-C , 10-H ) :   0.9333
B(  0-C , 11-H ) :   0.9265 B(  1-C ,  2-O ) :   0.9380 B(  1-C ,  6-C ) :   0.9095
B(  1-C , 12-H ) :   0.9003 B(  2-O ,  3-C ) :   0.9758 B(  3-C ,  4-C ) :   0.8981
B(  3-C ,  6-C ) :   0.8631 B(  3-C , 13-H ) :   0.9321 B(  4-C ,  5-C ) :   0.9573
B(  4-C , 14-H ) :   0.9122 B(  4-C , 15-H ) :   0.9140 B(  5-C ,  6-C ) :   0.8755
B(  5-C , 16-H ) :   0.9006 B(  5-C , 17-H ) :   0.9259 B(  6-C ,  7-C ) :   0.8659
B(  7-C ,  8-O ) :   1.9825 B(  7-C , 18-H ) :   0.9520

MP2 TOTAL ENERGY:     -422.294273757 Eh
FINAL SINGLE POINT ENERGY      -422.294273756913

DIPOLE MOMENT
-------------
                                X             Y             Z
Electronic contribution:      0.33645      -5.24122       1.22341
Nuclear contribution   :     -0.44487       5.57283      -1.56808
                        -----------------------------------------
Total Dipole Moment    :     -0.10842       0.33161      -0.34466
                        -----------------------------------------
Magnitude (a.u.)       :      0.49042
Magnitude (Debye)      :      1.24655

                             ****ORCA TERMINATED NORMALLY****
TOTAL RUN TIME: 0 days 0 hours 18 minutes 14 seconds 567 msec
