                         Program Version 3.0.3 - RELEASE   -
|  1> ! RI-MP2 RIJK def2-TZVP def2-TZVP/C def2-TZVP/JK TIGHTSCF
|  2> % maxcore 2000
|  3> % mp2 density relaxed end
|  4> *xyz 0 1
|  5>  O       -0.0879255143     1.3906858608     0.2588155113
|  6>  C        0.0262327054    -0.0068167621     0.0522720999
|  7>  C       -1.3846982143    -0.5822262652     0.0401042491
|  8>  C       -1.3893460759    -2.0988627899    -0.1631617898
|  9>  O       -0.7680500430    -2.8180246724     0.8987046335
| 10>  C       -1.7910834314    -3.3597423523     1.6996399071
| 11>  O       -2.9656492043    -3.4422067776     0.8992193624
| 12>  C       -2.8081025398    -2.6610835649    -0.2035910729
| 13>  O       -3.6629669409    -2.4772379670    -1.0159293821
| 14>  H        0.7977260492     1.7611231233     0.3134514625
| 15>  H        0.5236863793    -0.2335136778    -0.9057014244
| 16>  H        0.6112431652    -0.4892085552     0.8490696540
| 17>  H       -1.8840134386    -0.3262111940     0.9817997377
| 18>  H       -1.9650312111    -0.1249930086    -0.7683211917
| 19>  H       -0.8730614146    -2.3588007270    -1.0942446251
| 20>  H       -1.5055077720    -4.3655001020     2.0206330175
| 21>  H       -2.0079072187    -2.7272200384     2.5731216808
| 22> *
| 23>
| 24>                          ****END OF INPUT****

CARTESIAN COORDINATES (ANGSTROEM)
---------------------------------
  O     -0.087926    1.390686    0.258816
  C      0.026233   -0.006817    0.052272
  C     -1.384698   -0.582226    0.040104
  C     -1.389346   -2.098863   -0.163162
  O     -0.768050   -2.818025    0.898705
  C     -1.791083   -3.359742    1.699640
  O     -2.965649   -3.442207    0.899219
  C     -2.808103   -2.661084   -0.203591
  O     -3.662967   -2.477238   -1.015929
  H      0.797726    1.761123    0.313451
  H      0.523686   -0.233514   -0.905701
  H      0.611243   -0.489209    0.849070
  H     -1.884013   -0.326211    0.981800
  H     -1.965031   -0.124993   -0.768321
  H     -0.873061   -2.358801   -1.094245
  H     -1.505508   -4.365500    2.020633
  H     -2.007907   -2.727220    2.573122

 Total Charge           Charge          ....    0
 Multiplicity           Mult            ....    1
 Number of Electrons    NEL             ....   70
 Basis Dimension        Dim             ....  327

ORBITAL ENERGIES
----------------

  NO   OCC          E(Eh)            E(eV)
   0   2.0000     -20.621067      -561.1278
   1   2.0000     -20.596826      -560.4681
   2   2.0000     -20.567477      -559.6695
   3   2.0000     -20.557592      -559.4005
   4   2.0000     -11.393414      -310.0306
   5   2.0000     -11.364365      -309.2401
   6   2.0000     -11.321245      -308.0667
   7   2.0000     -11.290470      -307.2293
   8   2.0000     -11.245492      -306.0054
   9   2.0000      -1.501097       -40.8469
  10   2.0000      -1.414285       -38.4847
  11   2.0000      -1.372665       -37.3521
  12   2.0000      -1.367791       -37.2195
  13   2.0000      -1.088541       -29.6207
  14   2.0000      -0.995280       -27.0830
  15   2.0000      -0.920497       -25.0480
  16   2.0000      -0.838456       -22.8156
  17   2.0000      -0.822454       -22.3801
  18   2.0000      -0.741922       -20.1887
  19   2.0000      -0.733695       -19.9649
  20   2.0000      -0.702913       -19.1272
  21   2.0000      -0.672867       -18.3097
  22   2.0000      -0.665422       -18.1071
  23   2.0000      -0.629637       -17.1333
  24   2.0000      -0.610430       -16.6106
  25   2.0000      -0.607548       -16.5322
  26   2.0000      -0.591199       -16.0873
  27   2.0000      -0.577524       -15.7152
  28   2.0000      -0.555212       -15.1081
  29   2.0000      -0.534721       -14.5505
  30   2.0000      -0.505320       -13.7505
  31   2.0000      -0.481179       -13.0935
  32   2.0000      -0.457201       -12.4411
  33   2.0000      -0.453959       -12.3528
  34   2.0000      -0.447248       -12.1702
  35   0.0000       0.125968         3.4278
  36   0.0000       0.138228         3.7614
  37   0.0000       0.153521         4.1775
  38   0.0000       0.165567         4.5053
  39   0.0000       0.181348         4.9347

MULLIKEN ATOMIC CHARGES
-----------------------
   0 O :   -0.461745
   1 C :   -0.073880
   2 C :   -0.209275
   3 C :    0.047356
   4 O :   -0.325391
   5 C :    0.112771
   6 O :   -0.228549
   7 C :    0.258643
   8 O :   -0.276567
   9 H :    0.319108
  10 H :    0.092199
  11 H :    0.114223
  12 H :    0.118354
  13 H :    0.142758
  14 H :    0.130281
  15 H :    0.132854
  16 H :    0.106861
Sum of atomic charges:    0.0000000

LOEWDIN ATOMIC CHARGES
----------------------
   0 O :   -0.046693
   1 C :   -0.350018
   2 C :   -0.238669
   3 C :   -0.278783
   4 O :    0.175461
   5 C :   -0.331421
   6 O :    0.256257
   7 C :   -0.449835
   8 O :    0.155404
   9 H :    0.174386
  10 H :    0.116507
  11 H :    0.119248
  12 H :    0.147415
  13 H :    0.155887
  14 H :    0.159440
  15 H :    0.122057
  16 H :    0.113355

  Mayer bond orders larger than 0.1
B(  0-O ,  1-C ) :   1.0245 B(  0-O ,  9-H ) :   0.8473 B(  1-C ,  2-C ) :   0.9303
B(  1-C , 10-H ) :   0.9276 B(  1-C , 11-H ) :   0.9319 B(  2-C ,  3-C ) :   0.9282
B(  2-C , 12-H ) :   0.9040 B(  2-C , 13-H ) :   0.9191 B(  3-C ,  4-O ) :   0.8849
B(  3-C ,  7-C ) :   0.9035 B(  3-C , 14-H ) :   0.9010 B(  4-O ,  5-C ) :   0.9683
B(  5-C ,  6-O ) :   0.9106 B(  5-C , 15-H ) :   0.9273 B(  5-C , 16-H ) :   0.9220
B(  6-O ,  7-C ) :   1.1042 B(  7-C ,  8-O ) :   2.0393

MP2 TOTAL ENERGY:     -495.367446517 Eh
FINAL SINGLE POINT ENERGY      -495.367446516608

DIPOLE MOMENT
-------------
                                X             Y             Z
Electronic contribution:     -4.83632      -4.79240      -0.93879
Nuclear contribution   :      6.24890       4.80593       1.57703
                        -----------------------------------------
Total Dipole Moment    :      1.41258       0.01353       0.63823
                        -----------------------------------------
Magnitude (a.u.)       :      1.55013
Magnitude (Debye)      :      3.94012

                             ****ORCA TERMINATED NORMALLY****
TOTAL RUN TIME: 0 days 0 hours 13 minutes 40 seconds 861 msec
