                         Program Version 3.0.3 - RELEASE   -
|  1> ! RI-MP2 RIJK def2-TZVP def2-TZVP/C def2-TZVP/JK TIGHTSCF
|  2> % maxcore 2000
|  3> % mp2 density relaxed end
|  4> *xyz 0 1
|  5>  C       -0.6313319494     0.5265392816     0.1568923540
|  6>  O        0.5528434407    -0.2550888443     0.1893577283
|  7>  C        1.0240083829    -0.6575898336    -1.0779991977
|  8>  C        0.7554833061    -2.1448454850    -1.3075322804
|  9>  O        1.4359490801    -2.9532965640    -0.3687482454
| 10>  C        0.5166146549    -3.3066531529     0.6462743452
| 11>  C       -0.8512086677    -3.0305960909     0.0417291272
| 12>  O       -1.9364375698    -3.2758768416     0.4721557230
| 13>  O       -0.6362459142    -2.4191736380    -1.1587246690
| 14>  H       -0.4704389019     1.4672272091    -0.3891159188
| 15>  H       -1.4678304008    -0.0139682880    -0.3023505413
| 16>  H       -0.8830839093     0.7601619268     1.1937755721
| 17>  H        0.5686294820    -0.0739198501    -1.8895286617
| 18>  H        2.1102362664    -0.5075264426    -1.1136648655
| 19>  H        1.0646559134    -2.4458027951    -2.3154211718
| 20>  H        0.6233071469    -4.3663605299     0.8957110213
| 21>  H        0.6460256797    -2.7040154516     1.5529304006
| 22> *
| 23>
| 24>                          ****END OF INPUT****

CARTESIAN COORDINATES (ANGSTROEM)
---------------------------------
  C     -0.631332    0.526539    0.156892
  O      0.552843   -0.255089    0.189358
  C      1.024008   -0.657590   -1.077999
  C      0.755483   -2.144845   -1.307532
  O      1.435949   -2.953297   -0.368748
  C      0.516615   -3.306653    0.646274
  C     -0.851209   -3.030596    0.041729
  O     -1.936438   -3.275877    0.472156
  O     -0.636246   -2.419174   -1.158725
  H     -0.470439    1.467227   -0.389116
  H     -1.467830   -0.013968   -0.302351
  H     -0.883084    0.760162    1.193776
  H      0.568629   -0.073920   -1.889529
  H      2.110236   -0.507526   -1.113665
  H      1.064656   -2.445803   -2.315421
  H      0.623307   -4.366361    0.895711
  H      0.646026   -2.704015    1.552930

 Total Charge           Charge          ....    0
 Multiplicity           Mult            ....    1
 Number of Electrons    NEL             ....   70
 Basis Dimension        Dim             ....  327

ORBITAL ENERGIES
----------------

  NO   OCC          E(Eh)            E(eV)
   0   2.0000     -20.617591      -561.0332
   1   2.0000     -20.591829      -560.3321
   2   2.0000     -20.573812      -559.8419
   3   2.0000     -20.555142      -559.3339
   4   2.0000     -11.391913      -309.9897
   5   2.0000     -11.364536      -309.2448
   6   2.0000     -11.309790      -307.7550
   7   2.0000     -11.296251      -307.3866
   8   2.0000     -11.280554      -306.9595
   9   2.0000      -1.499180       -40.7948
  10   2.0000      -1.412799       -38.4442
  11   2.0000      -1.388965       -37.7957
  12   2.0000      -1.363998       -37.1163
  13   2.0000      -1.061367       -28.8813
  14   2.0000      -0.986425       -26.8420
  15   2.0000      -0.922973       -25.1154
  16   2.0000      -0.857284       -23.3279
  17   2.0000      -0.823178       -22.3998
  18   2.0000      -0.744753       -20.2658
  19   2.0000      -0.724150       -19.7051
  20   2.0000      -0.681976       -18.5575
  21   2.0000      -0.666607       -18.1393
  22   2.0000      -0.655032       -17.8243
  23   2.0000      -0.647606       -17.6222
  24   2.0000      -0.617532       -16.8039
  25   2.0000      -0.605653       -16.4806
  26   2.0000      -0.598014       -16.2728
  27   2.0000      -0.575955       -15.6725
  28   2.0000      -0.558376       -15.1942
  29   2.0000      -0.545226       -14.8364
  30   2.0000      -0.499836       -13.6012
  31   2.0000      -0.482443       -13.1279
  32   2.0000      -0.472818       -12.8660
  33   2.0000      -0.452473       -12.3124
  34   2.0000      -0.422971       -11.5096
  35   0.0000       0.138435         3.7670
  36   0.0000       0.155682         4.2363
  37   0.0000       0.161143         4.3849
  38   0.0000       0.164192         4.4679
  39   0.0000       0.194469         5.2918

MULLIKEN ATOMIC CHARGES
-----------------------
   0 C :   -0.230954
   1 O :   -0.335747
   2 C :   -0.042308
   3 C :    0.239123
   4 O :   -0.332273
   5 C :   -0.031853
   6 C :    0.230194
   7 O :   -0.278870
   8 O :   -0.256984
   9 H :    0.122735
  10 H :    0.145951
  11 H :    0.140019
  12 H :    0.110582
  13 H :    0.127707
  14 H :    0.121597
  15 H :    0.142311
  16 H :    0.128773
Sum of atomic charges:   -0.0000000

LOEWDIN ATOMIC CHARGES
----------------------
   0 C :   -0.351045
   1 O :    0.137973
   2 C :   -0.309893
   3 C :   -0.364148
   4 O :    0.183328
   5 C :   -0.274017
   6 C :   -0.467489
   7 O :    0.149411
   8 O :    0.274809
   9 H :    0.104409
  10 H :    0.108507
  11 H :    0.115794
  12 H :    0.131703
  13 H :    0.137813
  14 H :    0.139931
  15 H :    0.141244
  16 H :    0.141670

  Mayer bond orders larger than 0.1
B(  0-C ,  1-O ) :   0.8819 B(  0-C ,  9-H ) :   0.9357 B(  0-C , 10-H ) :   0.9315
B(  0-C , 11-H ) :   0.9391 B(  1-O ,  2-C ) :   0.8966 B(  2-C ,  3-C ) :   0.9503
B(  2-C , 12-H ) :   0.9243 B(  2-C , 13-H ) :   0.9165 B(  3-C ,  4-O ) :   0.9351
B(  3-C ,  8-O ) :   0.8903 B(  3-C , 14-H ) :   0.9254 B(  4-O ,  5-C ) :   0.9416
B(  5-C ,  6-C ) :   0.9513 B(  5-C , 15-H ) :   0.9085 B(  5-C , 16-H ) :   0.9005
B(  6-C ,  7-O ) :   2.0430 B(  6-C ,  8-O ) :   1.0608

MP2 TOTAL ENERGY:     -495.355191294 Eh
FINAL SINGLE POINT ENERGY      -495.355191293729

DIPOLE MOMENT
-------------
                                X             Y             Z
Electronic contribution:     -1.17721      -6.38080      -0.18669
Nuclear contribution   :      1.89627       7.00612      -0.24465
                        -----------------------------------------
Total Dipole Moment    :      0.71906       0.62532      -0.43133
                        -----------------------------------------
Magnitude (a.u.)       :      1.04600
Magnitude (Debye)      :      2.65872

                             ****ORCA TERMINATED NORMALLY****
TOTAL RUN TIME: 0 days 0 hours 15 minutes 8 seconds 699 msec
