                         Program Version 3.0.3 - RELEASE   -
|  1> ! RI-MP2 RIJK def2-TZVP def2-TZVP/C def2-TZVP/JK TIGHTSCF
|  2> % maxcore 2000
|  3> % mp2 density relaxed end
|  4> *xyz 0 1
|  5>  O        0.0741573212     1.4629051518     0.0697047441
|  6>  C        0.0610385832     0.0545560885     0.0860193660
|  7>  C        0.2122276978    -0.6732240043     1.4215889717
|  8>  C       -0.9123528031    -0.3501321464     2.3174182390
|  9>  N       -1.1454155002    -1.3530982242     1.2598280612
| 10>  C       -1.3538017397    -0.5603318623     0.0034919836
| 11>  C       -2.6258535968     0.2767592408    -0.1985979653
| 12>  O       -2.9573708562    -0.4445796089    -1.4047674521
| 13>  C       -1.8294030509    -1.3268555349    -1.2370230896
| 14>  H        0.9831172247     1.7668543780     0.1617560298
| 15>  H        0.7226482187    -0.3636985771    -0.6847419826
| 16>  H        1.0857125148    -1.2284595231     1.7477306385
| 17>  H       -0.8990980537    -0.7830630430     3.3124108776
| 18>  H       -1.3927398125     0.6224326102     2.2459153611
| 19>  H       -3.3791803933     0.1391011289     0.5882512057
| 20>  H       -2.4669386463     1.3443117315    -0.3818728461
| 21>  H       -1.1578111425    -1.3094555805    -2.1050487353
| 22>  H       -2.1313050551    -2.3595132150    -1.0233456773
| 23> *
| 24>
| 25>                          ****END OF INPUT****

CARTESIAN COORDINATES (ANGSTROEM)
---------------------------------
  O      0.074157    1.462905    0.069705
  C      0.061039    0.054556    0.086019
  C      0.212228   -0.673224    1.421589
  C     -0.912353   -0.350132    2.317418
  N     -1.145416   -1.353098    1.259828
  C     -1.353802   -0.560332    0.003492
  C     -2.625854    0.276759   -0.198598
  O     -2.957371   -0.444580   -1.404767
  C     -1.829403   -1.326856   -1.237023
  H      0.983117    1.766854    0.161756
  H      0.722648   -0.363699   -0.684742
  H      1.085713   -1.228460    1.747731
  H     -0.899098   -0.783063    3.312411
  H     -1.392740    0.622433    2.245915
  H     -3.379180    0.139101    0.588251
  H     -2.466939    1.344312   -0.381873
  H     -1.157811   -1.309456   -2.105049
  H     -2.131305   -2.359513   -1.023346

 Total Charge           Charge          ....    0
 Multiplicity           Mult            ....    1
 Number of Electrons    NEL             ....   68
 Basis Dimension        Dim             ....  333

ORBITAL ENERGIES
----------------

  NO   OCC          E(Eh)            E(eV)
   0   2.0000     -20.575145      -559.8782
   1   2.0000     -20.545184      -559.0629
   2   2.0000     -15.572557      -423.7508
   3   2.0000     -11.301325      -307.5247
   4   2.0000     -11.275334      -306.8174
   5   2.0000     -11.273905      -306.7785
   6   2.0000     -11.270538      -306.6869
   7   2.0000     -11.269715      -306.6645
   8   2.0000     -11.265986      -306.5631
   9   2.0000      -1.388003       -37.7695
  10   2.0000      -1.374310       -37.3969
  11   2.0000      -1.294412       -35.2227
  12   2.0000      -1.030848       -28.0508
  13   2.0000      -0.956515       -26.0281
  14   2.0000      -0.935335       -25.4518
  15   2.0000      -0.880059       -23.9476
  16   2.0000      -0.810828       -22.0637
  17   2.0000      -0.728616       -19.8267
  18   2.0000      -0.715778       -19.4773
  19   2.0000      -0.705093       -19.1866
  20   2.0000      -0.680028       -18.5045
  21   2.0000      -0.641655       -17.4603
  22   2.0000      -0.609244       -16.5784
  23   2.0000      -0.596570       -16.2335
  24   2.0000      -0.572527       -15.5792
  25   2.0000      -0.560683       -15.2569
  26   2.0000      -0.553482       -15.0610
  27   2.0000      -0.509294       -13.8586
  28   2.0000      -0.489836       -13.3291
  29   2.0000      -0.474015       -12.8986
  30   2.0000      -0.431123       -11.7314
  31   2.0000      -0.419501       -11.4152
  32   2.0000      -0.414561       -11.2808
  33   2.0000      -0.388579       -10.5738
  34   0.0000       0.123123         3.3503
  35   0.0000       0.155250         4.2246
  36   0.0000       0.163088         4.4378
  37   0.0000       0.169643         4.6162
  38   0.0000       0.185416         5.0454

MULLIKEN ATOMIC CHARGES
-----------------------
   0 O :   -0.448291
   1 C :    0.004234
   2 C :   -0.094762
   3 C :   -0.165945
   4 N :   -0.230556
   5 C :    0.072913
   6 C :   -0.048996
   7 O :   -0.327916
   8 C :   -0.011313
   9 H :    0.318508
  10 H :    0.094178
  11 H :    0.135939
  12 H :    0.137540
  13 H :    0.142527
  14 H :    0.100069
  15 H :    0.125161
  16 H :    0.091992
  17 H :    0.104718
Sum of atomic charges:   -0.0000000

LOEWDIN ATOMIC CHARGES
----------------------
   0 O :   -0.006493
   1 C :   -0.294319
   2 C :   -0.203261
   3 C :   -0.241841
   4 N :    0.140238
   5 C :   -0.256900
   6 C :   -0.232917
   7 O :    0.113269
   8 C :   -0.229020
   9 H :    0.178586
  10 H :    0.137657
  11 H :    0.131711
  12 H :    0.134847
  13 H :    0.133484
  14 H :    0.124296
  15 H :    0.126498
  16 H :    0.119131
  17 H :    0.125034

  Mayer bond orders larger than 0.1
B(  0-O ,  1-C ) :   1.1377 B(  0-O ,  5-C ) :  -0.1125 B(  0-O ,  9-H ) :   0.8408
B(  1-C ,  2-C ) :   0.9365 B(  1-C ,  5-C ) :   0.9132 B(  1-C , 10-H ) :   0.9522
B(  2-C ,  3-C ) :   0.9533 B(  2-C ,  4-N ) :   0.8706 B(  2-C , 11-H ) :   0.9025
B(  3-C ,  4-N ) :   0.8734 B(  3-C , 12-H ) :   0.9304 B(  3-C , 13-H ) :   0.9023
B(  4-N ,  5-C ) :   0.9717 B(  5-C ,  6-C ) :   0.9848 B(  5-C ,  8-C ) :   0.9530
B(  6-C ,  7-O ) :   0.9652 B(  6-C , 14-H ) :   0.8976 B(  6-C , 15-H ) :   0.9008
B(  7-O ,  8-C ) :   0.9721 B(  8-C , 16-H ) :   0.9077 B(  8-C , 17-H ) :   0.8992

MP2 TOTAL ENERGY:     -438.287564805 Eh
FINAL SINGLE POINT ENERGY      -438.287564804767

DIPOLE MOMENT
-------------
                                X             Y             Z
Electronic contribution:     -0.43195      -0.05703      -1.15790
Nuclear contribution   :      1.74061       0.35964       1.68100
                        -----------------------------------------
Total Dipole Moment    :      1.30866       0.30261       0.52310
                        -----------------------------------------
Magnitude (a.u.)       :      1.44145
Magnitude (Debye)      :      3.66388

                             ****ORCA TERMINATED NORMALLY****
TOTAL RUN TIME: 0 days 0 hours 18 minutes 7 seconds 95 msec
