                         Program Version 3.0.3 - RELEASE   -
|  1> ! RI-MP2 RIJK def2-TZVP def2-TZVP/C def2-TZVP/JK TIGHTSCF
|  2> % maxcore 2000
|  3> % mp2 density relaxed end
|  4> *xyz 0 1
|  5>  C       -0.6165149799     1.3322869643     0.2127669679
|  6>  C       -0.1186373504    -0.0723596704     0.0561487356
|  7>  C       -0.1532699651    -0.8340048294    -1.0885046430
|  8>  N        0.3988801779    -2.0594985057    -0.8068438735
|  9>  C        0.7916080518    -2.0940517492     0.5062809035
| 10>  C        0.4836724950    -0.8795835413     1.0795632090
| 11>  C        0.7333086741    -0.4590454774     2.4794353246
| 12>  C       -0.3523612660    -0.5679586154     3.5345016318
| 13>  C        0.8555523276    -1.4673091082     3.5944180178
| 14>  H        0.1897259028     2.0251126834     0.4846026998
| 15>  H       -1.0639443928     1.6988735749    -0.7159321235
| 16>  H       -1.3748106708     1.4083301564     1.0010395595
| 17>  H       -0.5280704679    -0.6037763006    -2.0736620077
| 18>  H        0.4995580494    -2.8141282293    -1.4613413099
| 19>  H        1.2645932482    -2.9680348851     0.9245078933
| 20>  H        1.3674295251     0.4194602220     2.5829876335
| 21>  H       -0.4412987800     0.2281815334     4.2657751387
| 22>  H       -1.2943763160    -1.0127969353     3.2336140248
| 23>  H        0.7115711962    -2.5138884563     3.3503126300
| 24>  H        1.5948700110    -1.2896357608     4.3674947277
| 25> *
| 26>
| 27>                          ****END OF INPUT****

CARTESIAN COORDINATES (ANGSTROEM)
---------------------------------
  C     -0.616515    1.332287    0.212767
  C     -0.118637   -0.072360    0.056149
  C     -0.153270   -0.834005   -1.088505
  N      0.398880   -2.059499   -0.806844
  C      0.791608   -2.094052    0.506281
  C      0.483672   -0.879584    1.079563
  C      0.733309   -0.459045    2.479435
  C     -0.352361   -0.567959    3.534502
  C      0.855552   -1.467309    3.594418
  H      0.189726    2.025113    0.484603
  H     -1.063944    1.698874   -0.715932
  H     -1.374811    1.408330    1.001040
  H     -0.528070   -0.603776   -2.073662
  H      0.499558   -2.814128   -1.461341
  H      1.264593   -2.968035    0.924508
  H      1.367430    0.419460    2.582988
  H     -0.441299    0.228182    4.265775
  H     -1.294376   -1.012797    3.233614
  H      0.711571   -2.513888    3.350313
  H      1.594870   -1.289636    4.367495

 Total Charge           Charge          ....    0
 Multiplicity           Mult            ....    1
 Number of Electrons    NEL             ....   66
 Basis Dimension        Dim             ....  345

ORBITAL ENERGIES
----------------

  NO   OCC          E(Eh)            E(eV)
   0   2.0000     -15.593957      -424.3331
   1   2.0000     -11.242745      -305.9307
   2   2.0000     -11.240595      -305.8721
   3   2.0000     -11.226405      -305.4860
   4   2.0000     -11.218038      -305.2583
   5   2.0000     -11.216174      -305.2076
   6   2.0000     -11.211804      -305.0887
   7   2.0000     -11.207694      -304.9769
   8   2.0000     -11.206488      -304.9440
   9   2.0000      -1.281713       -34.8772
  10   2.0000      -1.136141       -30.9160
  11   2.0000      -1.054050       -28.6822
  12   2.0000      -0.984779       -26.7972
  13   2.0000      -0.922061       -25.0906
  14   2.0000      -0.844339       -22.9756
  15   2.0000      -0.814620       -22.1669
  16   2.0000      -0.753119       -20.4934
  17   2.0000      -0.721299       -19.6276
  18   2.0000      -0.718559       -19.5530
  19   2.0000      -0.649375       -17.6704
  20   2.0000      -0.612553       -16.6684
  21   2.0000      -0.583071       -15.8662
  22   2.0000      -0.576243       -15.6804
  23   2.0000      -0.571124       -15.5411
  24   2.0000      -0.536374       -14.5955
  25   2.0000      -0.530802       -14.4439
  26   2.0000      -0.509600       -13.8669
  27   2.0000      -0.504235       -13.7209
  28   2.0000      -0.492439       -13.3999
  29   2.0000      -0.424452       -11.5499
  30   2.0000      -0.407478       -11.0880
  31   2.0000      -0.319270        -8.6878
  32   2.0000      -0.287759        -7.8303
  33   0.0000       0.137574         3.7436
  34   0.0000       0.147649         4.0177
  35   0.0000       0.165652         4.5076
  36   0.0000       0.170954         4.6519
  37   0.0000       0.179553         4.8859

MULLIKEN ATOMIC CHARGES
-----------------------
   0 C :   -0.429200
   1 C :   -0.053144
   2 C :   -0.092113
   3 N :   -0.256454
   4 C :   -0.121287
   5 C :    0.068465
   6 C :   -0.174571
   7 C :   -0.253795
   8 C :   -0.240715
   9 H :    0.135259
  10 H :    0.131253
  11 H :    0.142432
  12 H :    0.136275
  13 H :    0.240653
  14 H :    0.141816
  15 H :    0.121171
  16 H :    0.123423
  17 H :    0.131574
  18 H :    0.122348
  19 H :    0.126610
Sum of atomic charges:   -0.0000000

LOEWDIN ATOMIC CHARGES
----------------------
   0 C :   -0.273058
   1 C :   -0.187722
   2 C :   -0.221610
   3 N :    0.175149
   4 C :   -0.213142
   5 C :   -0.156779
   6 C :   -0.191384
   7 C :   -0.222585
   8 C :   -0.224440
   9 H :    0.128089
  10 H :    0.128395
  11 H :    0.129701
  12 H :    0.131787
  13 H :    0.188578
  14 H :    0.132968
  15 H :    0.153225
  16 H :    0.127934
  17 H :    0.133593
  18 H :    0.131891
  19 H :    0.129409

  Mayer bond orders larger than 0.1
B(  0-C ,  1-C ) :   0.8608 B(  0-C ,  9-H ) :   0.9415 B(  0-C , 10-H ) :   0.9491
B(  0-C , 11-H ) :   0.9428 B(  1-C ,  2-C ) :   1.5039 B(  1-C ,  5-C ) :   1.2514
B(  2-C ,  3-N ) :   1.1166 B(  2-C , 12-H ) :   0.9119 B(  3-N ,  4-C ) :   1.1435
B(  3-N , 13-H ) :   0.8791 B(  4-C ,  5-C ) :   1.4378 B(  4-C , 14-H ) :   0.9071
B(  5-C ,  6-C ) :   0.8944 B(  6-C ,  7-C ) :   0.8768 B(  6-C ,  8-C ) :   0.8987
B(  6-C , 15-H ) :   0.9293 B(  7-C ,  8-C ) :   0.9101 B(  7-C , 16-H ) :   0.9278
B(  7-C , 17-H ) :   0.9286 B(  8-C , 18-H ) :   0.9293 B(  8-C , 19-H ) :   0.9321

MP2 TOTAL ENERGY:     -365.371253869 Eh
FINAL SINGLE POINT ENERGY      -365.371253868762

DIPOLE MOMENT
-------------
                                X             Y             Z
Electronic contribution:      1.40131      -3.43019      -4.40312
Nuclear contribution   :     -1.34663       2.98526       3.94313
                        -----------------------------------------
Total Dipole Moment    :      0.05468      -0.44493      -0.45999
                        -----------------------------------------
Magnitude (a.u.)       :      0.64229
Magnitude (Debye)      :      1.63258

                             ****ORCA TERMINATED NORMALLY****
TOTAL RUN TIME: 0 days 0 hours 18 minutes 25 seconds 393 msec
