                         Program Version 3.0.3 - RELEASE   -
|  1> ! RI-MP2 RIJK def2-TZVP def2-TZVP/C def2-TZVP/JK TIGHTSCF
|  2> % maxcore 2000
|  3> % mp2 density relaxed end
|  4> *xyz 0 1
|  5>  C        0.0775313342     1.3984804307     0.0253645527
|  6>  O       -0.1531210201     0.0122071171    -0.1205475032
|  7>  C        0.5529290766    -0.5833710082    -1.1826905076
|  8>  C        2.0691271059    -0.7660222347    -0.9252642444
|  9>  C        2.4641776681    -1.9951112911    -1.7314588115
| 10>  O        3.5563926241    -2.3226722449    -2.1041427289
| 11>  C        1.1503172282    -2.7876841745    -2.0278227200
| 12>  O        1.1011047638    -3.8123889291    -2.6502009063
| 13>  C        0.0099510348    -2.0046792454    -1.4005751377
| 14>  H        1.1187854694     1.6221161260     0.2982318585
| 15>  H       -0.1654843129     1.9470544637    -0.8974062247
| 16>  H       -0.5765315956     1.7479971904     0.8269765822
| 17>  H        0.4144437661     0.0111134183    -2.1007859999
| 18>  H        2.6951953463     0.0946572615    -1.1666669445
| 19>  H        2.2123761750    -1.0014672937     0.1390229731
| 20>  H       -0.2032503991    -2.4413064649    -0.4148236079
| 21>  H       -0.9069713050    -2.0554174710    -1.9896961499
| 22> *
| 23>
| 24>                          ****END OF INPUT****

CARTESIAN COORDINATES (ANGSTROEM)
---------------------------------
  C      0.077531    1.398480    0.025365
  O     -0.153121    0.012207   -0.120548
  C      0.552929   -0.583371   -1.182691
  C      2.069127   -0.766022   -0.925264
  C      2.464178   -1.995111   -1.731459
  O      3.556393   -2.322672   -2.104143
  C      1.150317   -2.787684   -2.027823
  O      1.101105   -3.812389   -2.650201
  C      0.009951   -2.004679   -1.400575
  H      1.118785    1.622116    0.298232
  H     -0.165484    1.947054   -0.897406
  H     -0.576532    1.747997    0.826977
  H      0.414444    0.011113   -2.100786
  H      2.695195    0.094657   -1.166667
  H      2.212376   -1.001467    0.139023
  H     -0.203250   -2.441306   -0.414824
  H     -0.906971   -2.055417   -1.989696

 Total Charge           Charge          ....    0
 Multiplicity           Mult            ....    1
 Number of Electrons    NEL             ....   68
 Basis Dimension        Dim             ....  327

ORBITAL ENERGIES
----------------

  NO   OCC          E(Eh)            E(eV)
   0   2.0000     -20.583125      -560.0953
   1   2.0000     -20.579619      -559.9999
   2   2.0000     -20.578047      -559.9571
   3   2.0000     -11.352434      -308.9154
   4   2.0000     -11.350738      -308.8693
   5   2.0000     -11.318529      -307.9928
   6   2.0000     -11.292397      -307.2817
   7   2.0000     -11.260071      -306.4021
   8   2.0000     -11.257126      -306.3220
   9   2.0000      -1.428926       -38.8831
  10   2.0000      -1.405209       -38.2377
  11   2.0000      -1.404325       -38.2136
  12   2.0000      -1.138090       -30.9690
  13   2.0000      -1.000588       -27.2274
  14   2.0000      -0.968220       -26.3466
  15   2.0000      -0.895141       -24.3580
  16   2.0000      -0.825601       -22.4657
  17   2.0000      -0.736906       -20.0522
  18   2.0000      -0.717357       -19.5203
  19   2.0000      -0.698169       -18.9982
  20   2.0000      -0.660020       -17.9600
  21   2.0000      -0.657022       -17.8785
  22   2.0000      -0.648476       -17.6459
  23   2.0000      -0.620877       -16.8949
  24   2.0000      -0.606675       -16.5085
  25   2.0000      -0.605549       -16.4778
  26   2.0000      -0.575371       -15.6567
  27   2.0000      -0.541991       -14.7483
  28   2.0000      -0.522205       -14.2099
  29   2.0000      -0.512256       -13.9392
  30   2.0000      -0.503510       -13.7012
  31   2.0000      -0.487288       -13.2598
  32   2.0000      -0.445719       -12.1286
  33   2.0000      -0.398741       -10.8503
  34   0.0000       0.053139         1.4460
  35   0.0000       0.123276         3.3545
  36   0.0000       0.145896         3.9700
  37   0.0000       0.152115         4.1393
  38   0.0000       0.173826         4.7301

MULLIKEN ATOMIC CHARGES
-----------------------
   0 C :   -0.230660
   1 O :   -0.289830
   2 C :    0.023476
   3 C :   -0.229630
   4 C :    0.141933
   5 O :   -0.226300
   6 C :    0.130015
   7 O :   -0.229520
   8 C :   -0.169309
   9 H :    0.121253
  10 H :    0.117954
  11 H :    0.148857
  12 H :    0.088404
  13 H :    0.153195
  14 H :    0.147331
  15 H :    0.149579
  16 H :    0.153251
Sum of atomic charges:    0.0000000

LOEWDIN ATOMIC CHARGES
----------------------
   0 C :   -0.349583
   1 O :    0.159144
   2 C :   -0.320796
   3 C :   -0.208663
   4 C :   -0.286846
   5 O :    0.197072
   6 C :   -0.287115
   7 O :    0.196245
   8 C :   -0.197842
   9 H :    0.103517
  10 H :    0.104565
  11 H :    0.116822
  12 H :    0.139549
  13 H :    0.147935
  14 H :    0.166102
  15 H :    0.168452
  16 H :    0.151441

  Mayer bond orders larger than 0.1
B(  0-C ,  1-O ) :   0.9063 B(  0-C ,  9-H ) :   0.9359 B(  0-C , 10-H ) :   0.9328
B(  0-C , 11-H ) :   0.9399 B(  1-O ,  2-C ) :   0.9967 B(  2-C ,  3-C ) :   0.8873
B(  2-C ,  8-C ) :   0.8899 B(  2-C , 12-H ) :   0.9374 B(  3-C ,  4-C ) :   0.8731
B(  3-C , 13-H ) :   0.8966 B(  3-C , 14-H ) :   0.8868 B(  4-C ,  5-O ) :   2.0127
B(  4-C ,  6-C ) :   0.8440 B(  6-C ,  7-O ) :   1.9989 B(  6-C ,  8-C ) :   0.8891
B(  8-C , 15-H ) :   0.8914 B(  8-C , 16-H ) :   0.9059

MP2 TOTAL ENERGY:     -458.242606324 Eh
FINAL SINGLE POINT ENERGY      -458.242606323910

DIPOLE MOMENT
-------------
                                X             Y             Z
Electronic contribution:      3.95436      -8.84714      -4.30972
Nuclear contribution   :     -4.62321      10.38452       4.98730
                        -----------------------------------------
Total Dipole Moment    :     -0.66885       1.53738       0.67758
                        -----------------------------------------
Magnitude (a.u.)       :      1.80832
Magnitude (Debye)      :      4.59637

                             ****ORCA TERMINATED NORMALLY****
TOTAL RUN TIME: 0 days 0 hours 26 minutes 21 seconds 864 msec
