                         Program Version 3.0.3 - RELEASE   -
|  1> ! RI-MP2 RIJK def2-TZVP def2-TZVP/C def2-TZVP/JK TIGHTSCF
|  2> % maxcore 2000
|  3> % mp2 density relaxed end
|  4> *xyz 0 1
|  5>  C       -0.0402719182     1.4794799173     0.0893954929
|  6>  C        0.0089647812    -0.0397229209     0.0090364392
|  7>  C        0.1926193494    -0.6109011221    -1.4301443600
|  8>  N       -1.1508069755    -1.2827717809    -1.4194914590
|  9>  C       -1.1933411441    -2.1734196535    -0.2009814505
| 10>  C       -0.0094398240    -2.8420122441     0.3941578598
| 11>  C        0.9658792243    -2.1549239785     0.9931979028
| 12>  C        0.9713002977    -0.6476663087     1.0389790072
| 13>  C       -1.3764052557    -0.7207982202    -0.0375662418
| 14>  H        0.9484905821     1.9149309319    -0.0957541310
| 15>  H       -0.7342972192     1.8931024011    -0.6496932665
| 16>  H       -0.3697177921     1.8120902812     1.0808081319
| 17>  H        0.1930111926     0.1606407689    -2.2040110859
| 18>  H        1.0358068776    -1.2883249327    -1.5944466748
| 19>  H       -2.0979068587    -2.7733585772    -0.2361120408
| 20>  H        0.0236672935    -3.9266864880     0.3518046900
| 21>  H        1.7997187580    -2.6769889558     1.4552111207
| 22>  H        1.9866490823    -0.2789753413     0.8356990324
| 23>  H        0.7298724364    -0.2957107271     2.0541230138
| 24>  H       -2.3151122474    -0.2575305594     0.2537959895
| 25> *
| 26>
| 27>                          ****END OF INPUT****

CARTESIAN COORDINATES (ANGSTROEM)
---------------------------------
  C     -0.040272    1.479480    0.089395
  C      0.008965   -0.039723    0.009036
  C      0.192619   -0.610901   -1.430144
  N     -1.150807   -1.282772   -1.419491
  C     -1.193341   -2.173420   -0.200981
  C     -0.009440   -2.842012    0.394158
  C      0.965879   -2.154924    0.993198
  C      0.971300   -0.647666    1.038979
  C     -1.376405   -0.720798   -0.037566
  H      0.948491    1.914931   -0.095754
  H     -0.734297    1.893102   -0.649693
  H     -0.369718    1.812090    1.080808
  H      0.193011    0.160641   -2.204011
  H      1.035807   -1.288325   -1.594447
  H     -2.097907   -2.773359   -0.236112
  H      0.023667   -3.926686    0.351805
  H      1.799719   -2.676989    1.455211
  H      1.986649   -0.278975    0.835699
  H      0.729872   -0.295711    2.054123
  H     -2.315112   -0.257531    0.253796

 Total Charge           Charge          ....    0
 Multiplicity           Mult            ....    1
 Number of Electrons    NEL             ....   66
 Basis Dimension        Dim             ....  345

ORBITAL ENERGIES
----------------

  NO   OCC          E(Eh)            E(eV)
   0   2.0000     -15.555678      -423.2915
   1   2.0000     -11.257531      -306.3330
   2   2.0000     -11.253094      -306.2123
   3   2.0000     -11.245054      -305.9935
   4   2.0000     -11.242503      -305.9241
   5   2.0000     -11.233983      -305.6922
   6   2.0000     -11.231511      -305.6250
   7   2.0000     -11.228049      -305.5307
   8   2.0000     -11.220583      -305.3276
   9   2.0000      -1.286033       -34.9947
  10   2.0000      -1.092429       -29.7265
  11   2.0000      -1.056819       -28.7575
  12   2.0000      -0.958645       -26.0861
  13   2.0000      -0.930646       -25.3242
  14   2.0000      -0.866952       -23.5910
  15   2.0000      -0.839257       -22.8373
  16   2.0000      -0.740680       -20.1549
  17   2.0000      -0.701410       -19.0863
  18   2.0000      -0.670678       -18.2501
  19   2.0000      -0.637132       -17.3372
  20   2.0000      -0.617956       -16.8154
  21   2.0000      -0.601789       -16.3755
  22   2.0000      -0.587413       -15.9843
  23   2.0000      -0.555355       -15.1120
  24   2.0000      -0.543982       -14.8025
  25   2.0000      -0.536337       -14.5945
  26   2.0000      -0.511957       -13.9310
  27   2.0000      -0.490612       -13.3502
  28   2.0000      -0.445138       -12.1128
  29   2.0000      -0.440089       -11.9754
  30   2.0000      -0.418171       -11.3790
  31   2.0000      -0.383124       -10.4253
  32   2.0000      -0.333418        -9.0728
  33   0.0000       0.130182         3.5424
  34   0.0000       0.142681         3.8825
  35   0.0000       0.163541         4.4502
  36   0.0000       0.169941         4.6243
  37   0.0000       0.186542         5.0761

MULLIKEN ATOMIC CHARGES
-----------------------
   0 C :   -0.445560
   1 C :    0.202241
   2 C :   -0.179800
   3 N :   -0.234220
   4 C :    0.010479
   5 C :   -0.227213
   6 C :   -0.145800
   7 C :   -0.225456
   8 C :   -0.142292
   9 H :    0.135856
  10 H :    0.145810
  11 H :    0.131689
  12 H :    0.119559
  13 H :    0.114254
  14 H :    0.119691
  15 H :    0.125605
  16 H :    0.124993
  17 H :    0.121754
  18 H :    0.120565
  19 H :    0.127843
Sum of atomic charges:    0.0000000

LOEWDIN ATOMIC CHARGES
----------------------
   0 C :   -0.269951
   1 C :   -0.265382
   2 C :   -0.199320
   3 N :    0.116815
   4 C :   -0.222042
   5 C :   -0.158157
   6 C :   -0.152799
   7 C :   -0.209262
   8 C :   -0.157002
   9 H :    0.127780
  10 H :    0.130233
  11 H :    0.127078
  12 H :    0.131780
  13 H :    0.127445
  14 H :    0.153390
  15 H :    0.145507
  16 H :    0.141652
  17 H :    0.149640
  18 H :    0.148818
  19 H :    0.133777

  Mayer bond orders larger than 0.1
B(  0-C ,  1-C ) :   0.8811 B(  0-C ,  9-H ) :   0.9388 B(  0-C , 10-H ) :   0.9394
B(  0-C , 11-H ) :   0.9374 B(  1-C ,  2-C ) :   0.9569 B(  1-C ,  7-C ) :   0.9260
B(  1-C ,  8-C ) :   0.9169 B(  2-C ,  3-N ) :   0.9429 B(  2-C , 12-H ) :   0.9124
B(  2-C , 13-H ) :   0.9162 B(  3-N ,  4-C ) :   0.8806 B(  3-N ,  8-C ) :   0.8853
B(  4-C ,  5-C ) :   0.9358 B(  4-C ,  8-C ) :   0.9410 B(  4-C , 14-H ) :   0.9442
B(  5-C ,  6-C ) :   1.7777 B(  5-C , 15-H ) :   0.9329 B(  6-C ,  7-C ) :   0.9452
B(  6-C , 16-H ) :   0.9300 B(  7-C , 17-H ) :   0.9183 B(  7-C , 18-H ) :   0.8963
B(  8-C , 19-H ) :   0.8919

MP2 TOTAL ENERGY:     -365.319450413 Eh
FINAL SINGLE POINT ENERGY      -365.319450413015

DIPOLE MOMENT
-------------
                                X             Y             Z
Electronic contribution:     -2.44466      -4.30145      -1.26392
Nuclear contribution   :      2.88197       4.54191       1.87677
                        -----------------------------------------
Total Dipole Moment    :      0.43731       0.24045       0.61286
                        -----------------------------------------
Magnitude (a.u.)       :      0.79035
Magnitude (Debye)      :      2.00890

                             ****ORCA TERMINATED NORMALLY****
TOTAL RUN TIME: 0 days 0 hours 21 minutes 16 seconds 798 msec
