                         Program Version 3.0.3 - RELEASE   -
|  1> ! RI-MP2 RIJK def2-TZVP def2-TZVP/C def2-TZVP/JK TIGHTSCF
|  2> % maxcore 2000
|  3> % mp2 density relaxed end
|  4> *xyz 0 1
|  5>  C       -0.3328013327     1.4800414446     0.0424211320
|  6>  C        0.1192010835     0.0108233260    -0.0508379429
|  7>  C        0.8791841612    -0.4657261356     1.1471480652
|  8>  C        2.2211801910    -0.7368217373     1.3108730822
|  9>  C        2.4314147924    -1.1319538805     2.6673123967
| 10>  N        3.6739090630    -1.4411490098     3.2370838750
| 11>  C        3.6627908549    -2.0744287824     4.5417486044
| 12>  C        1.2034392120    -1.0941207795     3.2959423340
| 13>  N        0.2741799311    -0.6767633674     2.3578725539
| 14>  H        0.5294606496     2.1427183106     0.1612063996
| 15>  H       -0.8781588126     1.7807984633    -0.8580890578
| 16>  H       -0.9920761267     1.6403485766     0.9019854421
| 17>  H       -0.7605797212    -0.6262266376    -0.2188588337
| 18>  H        0.7576965950    -0.1173381366    -0.9307104607
| 19>  H        2.9780457973    -0.6536723942     0.5445205024
| 20>  H        4.2781265459    -1.9195208446     2.5833360450
| 21>  H        4.6859285614    -2.3267875372     4.8318730735
| 22>  H        3.2694505709    -1.3735953170     5.2873757770
| 23>  H        3.0469946968    -2.9893645724     4.5875043445
| 24>  H        0.9124708101    -1.3202966917     4.3072071922
| 25>  H       -0.7087227328    -0.5724105473     2.5350389754
| 26> *
| 27>
| 28>                          ****END OF INPUT****

CARTESIAN COORDINATES (ANGSTROEM)
---------------------------------
  C     -0.332801    1.480041    0.042421
  C      0.119201    0.010823   -0.050838
  C      0.879184   -0.465726    1.147148
  C      2.221180   -0.736822    1.310873
  C      2.431415   -1.131954    2.667312
  N      3.673909   -1.441149    3.237084
  C      3.662791   -2.074429    4.541749
  C      1.203439   -1.094121    3.295942
  N      0.274180   -0.676763    2.357873
  H      0.529461    2.142718    0.161206
  H     -0.878159    1.780798   -0.858089
  H     -0.992076    1.640349    0.901985
  H     -0.760580   -0.626227   -0.218859
  H      0.757697   -0.117338   -0.930710
  H      2.978046   -0.653672    0.544521
  H      4.278127   -1.919521    2.583336
  H      4.685929   -2.326788    4.831873
  H      3.269451   -1.373595    5.287376
  H      3.046995   -2.989365    4.587504
  H      0.912471   -1.320297    4.307207
  H     -0.708723   -0.572411    2.535039

 Total Charge           Charge          ....    0
 Multiplicity           Mult            ....    1
 Number of Electrons    NEL             ....   68
 Basis Dimension        Dim             ....  351

ORBITAL ENERGIES
----------------

  NO   OCC          E(Eh)            E(eV)
   0   2.0000     -15.585373      -424.0996
   1   2.0000     -15.545528      -423.0153
   2   2.0000     -11.251729      -306.1751
   3   2.0000     -11.241795      -305.9048
   4   2.0000     -11.238986      -305.8284
   5   2.0000     -11.232957      -305.6643
   6   2.0000     -11.225486      -305.4610
   7   2.0000     -11.218575      -305.2729
   8   2.0000     -11.192622      -304.5667
   9   2.0000      -1.279126       -34.8068
  10   2.0000      -1.206707       -32.8362
  11   2.0000      -1.053524       -28.6678
  12   2.0000      -1.021167       -27.7874
  13   2.0000      -0.950121       -25.8541
  14   2.0000      -0.904759       -24.6198
  15   2.0000      -0.852701       -23.2032
  16   2.0000      -0.767889       -20.8953
  17   2.0000      -0.751065       -20.4375
  18   2.0000      -0.698820       -19.0159
  19   2.0000      -0.636226       -17.3126
  20   2.0000      -0.611358       -16.6359
  21   2.0000      -0.604622       -16.4526
  22   2.0000      -0.600241       -16.3334
  23   2.0000      -0.576667       -15.6919
  24   2.0000      -0.560069       -15.2403
  25   2.0000      -0.554550       -15.0901
  26   2.0000      -0.531183       -14.4542
  27   2.0000      -0.515037       -14.0149
  28   2.0000      -0.505994       -13.7688
  29   2.0000      -0.494927       -13.4677
  30   2.0000      -0.482588       -13.1319
  31   2.0000      -0.426569       -11.6075
  32   2.0000      -0.309810        -8.4304
  33   2.0000      -0.266164        -7.2427
  34   0.0000       0.127285         3.4636
  35   0.0000       0.149185         4.0595
  36   0.0000       0.158958         4.3255
  37   0.0000       0.171961         4.6793
  38   0.0000       0.178185         4.8486

MULLIKEN ATOMIC CHARGES
-----------------------
   0 C :   -0.365774
   1 C :   -0.272522
   2 C :    0.192066
   3 C :   -0.356173
   4 C :    0.218735
   5 N :   -0.335806
   6 C :   -0.299868
   7 C :   -0.219596
   8 N :   -0.279312
   9 H :    0.134858
  10 H :    0.126169
  11 H :    0.109208
  12 H :    0.120546
  13 H :    0.127725
  14 H :    0.116696
  15 H :    0.221590
  16 H :    0.135853
  17 H :    0.132170
  18 H :    0.117236
  19 H :    0.141226
  20 H :    0.234973
Sum of atomic charges:   -0.0000000

LOEWDIN ATOMIC CHARGES
----------------------
   0 C :   -0.312331
   1 C :   -0.264228
   2 C :   -0.241316
   3 C :   -0.161284
   4 C :   -0.266235
   5 N :    0.019247
   6 C :   -0.339532
   7 C :   -0.242910
   8 N :    0.189497
   9 H :    0.124182
  10 H :    0.118594
  11 H :    0.115879
  12 H :    0.140618
  13 H :    0.148573
  14 H :    0.138661
  15 H :    0.178525
  16 H :    0.115766
  17 H :    0.116777
  18 H :    0.102244
  19 H :    0.130599
  20 H :    0.188674

  Mayer bond orders larger than 0.1
B(  0-C ,  1-C ) :   0.9149 B(  0-C ,  9-H ) :   0.9373 B(  0-C , 10-H ) :   0.9348
B(  0-C , 11-H ) :   0.9381 B(  1-C ,  2-C ) :   0.8933 B(  1-C , 12-H ) :   0.9409
B(  1-C , 13-H ) :   0.9500 B(  2-C ,  3-C ) :   1.4808 B(  2-C ,  8-N ) :   1.1181
B(  3-C ,  4-C ) :   1.2379 B(  3-C , 14-H ) :   0.9253 B(  4-C ,  5-N ) :   1.0353
B(  4-C ,  7-C ) :   1.4701 B(  5-N ,  6-C ) :   0.9362 B(  5-N , 15-H ) :   0.8774
B(  6-C , 16-H ) :   0.9377 B(  6-C , 17-H ) :   0.9348 B(  6-C , 18-H ) :   0.9286
B(  7-C ,  8-N ) :   1.1000 B(  7-C , 19-H ) :   0.9073 B(  8-N , 20-H ) :   0.8772

MP2 TOTAL ENERGY:     -382.620045725 Eh
FINAL SINGLE POINT ENERGY      -382.620045724893

DIPOLE MOMENT
-------------
                                X             Y             Z
Electronic contribution:      1.08219      -1.94658       1.11139
Nuclear contribution   :     -1.60213       1.68906      -1.10567
                        -----------------------------------------
Total Dipole Moment    :     -0.51993      -0.25753       0.00572
                        -----------------------------------------
Magnitude (a.u.)       :      0.58024
Magnitude (Debye)      :      1.47487

                             ****ORCA TERMINATED NORMALLY****
TOTAL RUN TIME: 0 days 0 hours 18 minutes 34 seconds 257 msec
