                         Program Version 3.0.3 - RELEASE   -
|  1> ! RI-MP2 RIJK def2-TZVP def2-TZVP/C def2-TZVP/JK TIGHTSCF
|  2> % maxcore 2000
|  3> % mp2 density relaxed end
|  4> *xyz 0 1
|  5>  C        0.0005426367     1.2979742893     0.0095666453
|  6>  C        1.2922267496     1.7922214424    -0.0003919232
|  7>  N        2.0782945409     0.6792798286    -0.0142879713
|  8>  N        3.4205384214     0.5974828467    -0.0279216731
|  9>  N        3.9084248534    -0.5912290686    -0.0393419440
| 10>  C        3.0706212824    -1.6761220709    -0.0371669355
| 11>  N        1.7586099829    -1.6657305584    -0.0242268101
| 12>  C        1.2132055246    -0.4472950368    -0.0120812761
| 13>  N       -0.0475901241    -0.0660120807     0.0024456037
| 14>  H       -0.9081977049     1.8822003643     0.0217521844
| 15>  H        1.7072217996     2.7853853907     0.0010506100
| 16>  H        3.5798415976    -2.6333213863    -0.0474976301
| 17> *
| 18>
| 19>                          ****END OF INPUT****

CARTESIAN COORDINATES (ANGSTROEM)
---------------------------------
  C      0.000543    1.297974    0.009567
  C      1.292227    1.792221   -0.000392
  N      2.078295    0.679280   -0.014288
  N      3.420538    0.597483   -0.027922
  N      3.908425   -0.591229   -0.039342
  C      3.070621   -1.676122   -0.037167
  N      1.758610   -1.665731   -0.024227
  C      1.213206   -0.447295   -0.012081
  N     -0.047590   -0.066012    0.002446
  H     -0.908198    1.882200    0.021752
  H      1.707222    2.785385    0.001051
  H      3.579842   -2.633321   -0.047498

 Total Charge           Charge          ....    0
 Multiplicity           Mult            ....    1
 Number of Electrons    NEL             ....   62
 Basis Dimension        Dim             ....  297

ORBITAL ENERGIES
----------------

  NO   OCC          E(Eh)            E(eV)
   0   2.0000     -15.727537      -427.9680
   1   2.0000     -15.707432      -427.4210
   2   2.0000     -15.651306      -425.8937
   3   2.0000     -15.619347      -425.0240
   4   2.0000     -15.572044      -423.7369
   5   2.0000     -11.366800      -309.3063
   6   2.0000     -11.351079      -308.8786
   7   2.0000     -11.290009      -307.2168
   8   2.0000     -11.287647      -307.1525
   9   2.0000      -1.485452       -40.4212
  10   2.0000      -1.348824       -36.7034
  11   2.0000      -1.299742       -35.3678
  12   2.0000      -1.210720       -32.9454
  13   2.0000      -1.078650       -29.3515
  14   2.0000      -0.984184       -26.7810
  15   2.0000      -0.934044       -25.4166
  16   2.0000      -0.858070       -23.3493
  17   2.0000      -0.815896       -22.2017
  18   2.0000      -0.722735       -19.6666
  19   2.0000      -0.705081       -19.1862
  20   2.0000      -0.702132       -19.1060
  21   2.0000      -0.656148       -17.8547
  22   2.0000      -0.608850       -16.5677
  23   2.0000      -0.585484       -15.9318
  24   2.0000      -0.563389       -15.3306
  25   2.0000      -0.535611       -14.5747
  26   2.0000      -0.532121       -14.4797
  27   2.0000      -0.479616       -13.0510
  28   2.0000      -0.437733       -11.9113
  29   2.0000      -0.406639       -11.0652
  30   2.0000      -0.334791        -9.1101
  31   0.0000       0.025677         0.6987
  32   0.0000       0.096540         2.6270
  33   0.0000       0.159602         4.3430
  34   0.0000       0.166771         4.5381
  35   0.0000       0.177616         4.8332

MULLIKEN ATOMIC CHARGES
-----------------------
   0 C :   -0.061554
   1 C :   -0.104210
   2 N :    0.133544
   3 N :   -0.146974
   4 N :   -0.094101
   5 C :    0.012587
   6 N :   -0.186496
   7 C :    0.193161
   8 N :   -0.235544
   9 H :    0.155154
  10 H :    0.178253
  11 H :    0.156180
Sum of atomic charges:    0.0000000

LOEWDIN ATOMIC CHARGES
----------------------
   0 C :   -0.208822
   1 C :   -0.189411
   2 N :    0.236900
   3 N :    0.015420
   4 N :    0.045382
   5 C :   -0.301798
   6 N :    0.192903
   7 C :   -0.355865
   8 N :    0.134602
   9 H :    0.141970
  10 H :    0.147037
  11 H :    0.141682

  Mayer bond orders larger than 0.1
B(  0-C ,  1-C ) :   1.3900 B(  0-C ,  8-N ) :   1.2970 B(  0-C ,  9-H ) :   0.9337
B(  1-C ,  2-N ) :   1.1656 B(  1-C , 10-H ) :   0.9100 B(  2-N ,  3-N ) :   0.9280
B(  2-N ,  7-C ) :   0.9787 B(  3-N ,  4-N ) :   1.2953 B(  4-N ,  5-C ) :   1.2338
B(  5-C ,  6-N ) :   1.4517 B(  5-C , 11-H ) :   0.9337 B(  6-N ,  7-C ) :   1.3019
B(  7-C ,  8-N ) :   1.5236

MP2 TOTAL ENERGY:     -427.117689017 Eh
FINAL SINGLE POINT ENERGY      -427.117689017429

DIPOLE MOMENT
-------------
                                X             Y             Z
Electronic contribution:      1.17840      -1.14354      -0.01794
Nuclear contribution   :     -1.16090       1.92601       0.02211
                        -----------------------------------------
Total Dipole Moment    :      0.01750       0.78247       0.00417
                        -----------------------------------------
Magnitude (a.u.)       :      0.78267
Magnitude (Debye)      :      1.98940

                             ****ORCA TERMINATED NORMALLY****
TOTAL RUN TIME: 0 days 0 hours 15 minutes 1 seconds 508 msec
