                         Program Version 3.0.3 - RELEASE   -
|  1> ! RI-MP2 RIJK def2-TZVP def2-TZVP/C def2-TZVP/JK TIGHTSCF
|  2> % maxcore 2000
|  3> % mp2 density relaxed end
|  4> *xyz 0 1
|  5>  O       -0.2547750841     1.5250224028     0.2482357804
|  6>  N        0.0677121454     0.1796506647     0.0242653693
|  7>  C       -0.9545908638    -0.5874369579    -0.0024482011
|  8>  C       -2.3896431003    -0.1289953387     0.1101710236
|  9>  O       -2.9908599585    -0.1180606304    -1.1768257518
| 10>  C       -3.5787630073    -1.3322237983    -1.5825434007
| 11>  C       -2.6888887735    -2.5403469120    -1.7212900620
| 12>  C       -1.5110606067    -2.8261261890    -1.1678510860
| 13>  C       -0.6625860022    -2.0521181597    -0.1892531477
| 14>  H        0.6114126963     1.9441180813     0.2205119098
| 15>  H       -2.9479833152    -0.7831728250     0.7974583492
| 16>  H       -2.4302596156     0.8929632865     0.4851415802
| 17>  H       -4.4141689459    -1.5940867985    -0.9042800256
| 18>  H       -4.0318363522    -1.1153278156    -2.5568744751
| 19>  H       -3.1333907107    -3.3061696970    -2.3563203712
| 20>  H       -1.0879266036    -3.8009390118    -1.4044695578
| 21>  H        0.3953387879    -2.1543495301    -0.4516596789
| 22>  H       -0.7680890000    -2.5517065713     0.7896279654
| 23> *
| 24>
| 25>                          ****END OF INPUT****

CARTESIAN COORDINATES (ANGSTROEM)
---------------------------------
  O     -0.254775    1.525022    0.248236
  N      0.067712    0.179651    0.024265
  C     -0.954591   -0.587437   -0.002448
  C     -2.389643   -0.128995    0.110171
  O     -2.990860   -0.118061   -1.176826
  C     -3.578763   -1.332224   -1.582543
  C     -2.688889   -2.540347   -1.721290
  C     -1.511061   -2.826126   -1.167851
  C     -0.662586   -2.052118   -0.189253
  H      0.611413    1.944118    0.220512
  H     -2.947983   -0.783173    0.797458
  H     -2.430260    0.892963    0.485142
  H     -4.414169   -1.594087   -0.904280
  H     -4.031836   -1.115328   -2.556874
  H     -3.133391   -3.306170   -2.356320
  H     -1.087927   -3.800939   -1.404470
  H      0.395339   -2.154350   -0.451660
  H     -0.768089   -2.551707    0.789628

 Total Charge           Charge          ....    0
 Multiplicity           Mult            ....    1
 Number of Electrons    NEL             ....   68
 Basis Dimension        Dim             ....  333

ORBITAL ENERGIES
----------------

  NO   OCC          E(Eh)            E(eV)
   0   2.0000     -20.590445      -560.2945
   1   2.0000     -20.563980      -559.5743
   2   2.0000     -15.617615      -424.9769
   3   2.0000     -11.287380      -307.1452
   4   2.0000     -11.286646      -307.1253
   5   2.0000     -11.277916      -306.8877
   6   2.0000     -11.244534      -305.9793
   7   2.0000     -11.241271      -305.8905
   8   2.0000     -11.236034      -305.7480
   9   2.0000      -1.419785       -38.6343
  10   2.0000      -1.383813       -37.6555
  11   2.0000      -1.171607       -31.8810
  12   2.0000      -1.084631       -29.5143
  13   2.0000      -1.012558       -27.5531
  14   2.0000      -0.947089       -25.7716
  15   2.0000      -0.900637       -24.5076
  16   2.0000      -0.766991       -20.8709
  17   2.0000      -0.728300       -19.8180
  18   2.0000      -0.704655       -19.1746
  19   2.0000      -0.695006       -18.9121
  20   2.0000      -0.652730       -17.7617
  21   2.0000      -0.652139       -17.7456
  22   2.0000      -0.619703       -16.8630
  23   2.0000      -0.607936       -16.5428
  24   2.0000      -0.593604       -16.1528
  25   2.0000      -0.572937       -15.5904
  26   2.0000      -0.549119       -14.9423
  27   2.0000      -0.528795       -14.3893
  28   2.0000      -0.504278       -13.7221
  29   2.0000      -0.487062       -13.2536
  30   2.0000      -0.459618       -12.5068
  31   2.0000      -0.414972       -11.2920
  32   2.0000      -0.384697       -10.4681
  33   2.0000      -0.358163        -9.7461
  34   0.0000       0.129139         3.5140
  35   0.0000       0.144196         3.9238
  36   0.0000       0.156959         4.2711
  37   0.0000       0.158986         4.3262
  38   0.0000       0.169681         4.6173

MULLIKEN ATOMIC CHARGES
-----------------------
   0 O :   -0.372271
   1 N :   -0.090463
   2 C :    0.016985
   3 C :   -0.065063
   4 O :   -0.301290
   5 C :   -0.018156
   6 C :   -0.188612
   7 C :   -0.181628
   8 C :   -0.158097
   9 H :    0.337788
  10 H :    0.109023
  11 H :    0.153352
  12 H :    0.105914
  13 H :    0.134781
  14 H :    0.120854
  15 H :    0.124810
  16 H :    0.141259
  17 H :    0.130814
Sum of atomic charges:   -0.0000000

LOEWDIN ATOMIC CHARGES
----------------------
   0 O :   -0.074787
   1 N :    0.031716
   2 C :   -0.277856
   3 C :   -0.276224
   4 O :    0.171986
   5 C :   -0.322635
   6 C :   -0.187208
   7 C :   -0.173478
   8 C :   -0.222937
   9 H :    0.170810
  10 H :    0.131825
  11 H :    0.139835
  12 H :    0.129697
  13 H :    0.140293
  14 H :    0.150819
  15 H :    0.150021
  16 H :    0.157734
  17 H :    0.160391

  Mayer bond orders larger than 0.1
B(  0-O ,  1-N ) :   0.8176 B(  0-O ,  9-H ) :   0.8431 B(  1-N ,  2-C ) :   1.8619
B(  2-C ,  3-C ) :   0.9244 B(  2-C ,  8-C ) :   0.9567 B(  3-C ,  4-O ) :   0.8885
B(  3-C , 10-H ) :   0.9279 B(  3-C , 11-H ) :   0.9152 B(  4-O ,  5-C ) :   0.9649
B(  5-C ,  6-C ) :   0.8907 B(  5-C , 12-H ) :   0.9402 B(  5-C , 13-H ) :   0.9288
B(  6-C ,  7-C ) :   1.8311 B(  6-C , 14-H ) :   0.9145 B(  7-C ,  8-C ) :   0.9168
B(  7-C , 15-H ) :   0.9264 B(  8-C , 16-H ) :   0.9215 B(  8-C , 17-H ) :   0.8969

MP2 TOTAL ENERGY:     -438.302356868 Eh
FINAL SINGLE POINT ENERGY      -438.302356868133

DIPOLE MOMENT
-------------
                                X             Y             Z
Electronic contribution:      2.60819       4.38261       0.36886
Nuclear contribution   :     -2.71729      -4.92383      -0.08507
                        -----------------------------------------
Total Dipole Moment    :     -0.10911      -0.54123       0.28379
                        -----------------------------------------
Magnitude (a.u.)       :      0.62078
Magnitude (Debye)      :      1.57790

                             ****ORCA TERMINATED NORMALLY****
TOTAL RUN TIME: 0 days 0 hours 16 minutes 28 seconds 720 msec
