                         Program Version 3.0.3 - RELEASE   -
|  1> ! RI-MP2 RIJK def2-TZVP def2-TZVP/C def2-TZVP/JK TIGHTSCF
|  2> % maxcore 2000
|  3> % mp2 density relaxed end
|  4> *xyz 0 1
|  5>  C        0.0441387593    -1.3021380205     0.1033334519
|  6>  C        0.0406501656    -0.1023490239     0.0451666414
|  7>  C        0.0376288991     1.3582569442    -0.0666521314
|  8>  N       -0.6422364631     2.0014752555     1.0773368070
|  9>  C        0.0802115435     3.2238701891     1.4492010904
| 10>  C        1.4469356241     3.0077354070     0.8279093195
| 11>  C        1.4196754771     1.9795006907    -0.0077949348
| 12>  C       -0.5480034573     4.4629354510     0.9352774220
| 13>  N       -1.0699308020     5.4129920839     0.5327065201
| 14>  H        0.0456475593    -2.3623151284     0.1677882459
| 15>  H       -0.4276629186     1.6185790320    -1.0342335257
| 16>  H       -1.6290213536     2.1527684274     0.9159699344
| 17>  H        0.1357319402     3.3230351957     2.5422596504
| 18>  H        2.2859544762     3.6534983229     1.0480495537
| 19>  H        2.2412855802     1.5994016134    -0.5995220347
| 20> *
| 21>
| 22>                          ****END OF INPUT****

CARTESIAN COORDINATES (ANGSTROEM)
---------------------------------
  C      0.044139   -1.302138    0.103333
  C      0.040650   -0.102349    0.045167
  C      0.037629    1.358257   -0.066652
  N     -0.642236    2.001475    1.077337
  C      0.080212    3.223870    1.449201
  C      1.446936    3.007735    0.827909
  C      1.419675    1.979501   -0.007795
  C     -0.548003    4.462935    0.935277
  N     -1.069931    5.412992    0.532707
  H      0.045648   -2.362315    0.167788
  H     -0.427663    1.618579   -1.034234
  H     -1.629021    2.152768    0.915970
  H      0.135732    3.323035    2.542260
  H      2.285954    3.653498    1.048050
  H      2.241286    1.599402   -0.599522

 Total Charge           Charge          ....    0
 Multiplicity           Mult            ....    1
 Number of Electrons    NEL             ....   62
 Basis Dimension        Dim             ....  315

ORBITAL ENERGIES
----------------

  NO   OCC          E(Eh)            E(eV)
   0   2.0000     -15.581305      -423.9889
   1   2.0000     -15.578509      -423.9128
   2   2.0000     -11.327152      -308.2275
   3   2.0000     -11.313068      -307.8442
   4   2.0000     -11.278016      -306.8904
   5   2.0000     -11.264970      -306.5354
   6   2.0000     -11.263014      -306.4822
   7   2.0000     -11.243737      -305.9576
   8   2.0000     -11.235403      -305.7309
   9   2.0000      -1.276910       -34.7465
  10   2.0000      -1.220506       -33.2116
  11   2.0000      -1.078993       -29.3609
  12   2.0000      -1.074990       -29.2520
  13   2.0000      -1.007659       -27.4198
  14   2.0000      -0.895634       -24.3714
  15   2.0000      -0.795276       -21.6406
  16   2.0000      -0.761519       -20.7220
  17   2.0000      -0.736268       -20.0349
  18   2.0000      -0.705807       -19.2060
  19   2.0000      -0.657625       -17.8949
  20   2.0000      -0.613717       -16.7001
  21   2.0000      -0.609033       -16.5726
  22   2.0000      -0.582267       -15.8443
  23   2.0000      -0.565980       -15.4011
  24   2.0000      -0.554340       -15.0844
  25   2.0000      -0.480244       -13.0681
  26   2.0000      -0.468918       -12.7599
  27   2.0000      -0.425661       -11.5828
  28   2.0000      -0.405566       -11.0360
  29   2.0000      -0.397771       -10.8239
  30   2.0000      -0.389072       -10.5872
  31   0.0000       0.115435         3.1412
  32   0.0000       0.125123         3.4048
  33   0.0000       0.148759         4.0479
  34   0.0000       0.157635         4.2895
  35   0.0000       0.162324         4.4171

MULLIKEN ATOMIC CHARGES
-----------------------
   0 C :   -0.096042
   1 C :   -0.010710
   2 C :   -0.126585
   3 N :   -0.364688
   4 C :    0.233611
   5 C :   -0.175076
   6 C :   -0.175243
   7 C :   -0.253184
   8 N :   -0.057829
   9 H :    0.196417
  10 H :    0.139156
  11 H :    0.230826
  12 H :    0.150246
  13 H :    0.156148
  14 H :    0.152953
Sum of atomic charges:   -0.0000000

LOEWDIN ATOMIC CHARGES
----------------------
   0 C :   -0.084304
   1 C :   -0.082531
   2 C :   -0.257322
   3 N :    0.068787
   4 C :   -0.264776
   5 C :   -0.112411
   6 C :   -0.101329
   7 C :   -0.170396
   8 N :    0.063818
   9 H :    0.128745
  10 H :    0.166093
  11 H :    0.176417
  12 H :    0.170489
  13 H :    0.148665
  14 H :    0.150056

  Mayer bond orders larger than 0.1
B(  0-C ,  1-C ) :   2.6051 B(  0-C ,  2-C ) :  -0.1328 B(  0-C ,  9-H ) :   0.8878
B(  1-C ,  2-C ) :   1.1087 B(  2-C ,  3-N ) :   1.0067 B(  2-C ,  6-C ) :   0.9135
B(  2-C , 10-H ) :   0.9369 B(  3-N ,  4-C ) :   0.9645 B(  3-N , 11-H ) :   0.8808
B(  4-C ,  5-C ) :   0.9134 B(  4-C ,  7-C ) :   0.8955 B(  4-C , 12-H ) :   0.9073
B(  5-C ,  6-C ) :   1.8105 B(  5-C , 13-H ) :   0.9141 B(  6-C , 14-H ) :   0.9218
B(  7-C ,  8-N ) :   2.8538

MP2 TOTAL ENERGY:     -378.948651340 Eh
FINAL SINGLE POINT ENERGY      -378.948651340167

DIPOLE MOMENT
-------------
                                X             Y             Z
Electronic contribution:     -1.40757       2.35107       0.29463
Nuclear contribution   :      2.05016      -3.27113      -0.24624
                        -----------------------------------------
Total Dipole Moment    :      0.64258      -0.92006       0.04839
                        -----------------------------------------
Magnitude (a.u.)       :      1.12328
Magnitude (Debye)      :      2.85516

                             ****ORCA TERMINATED NORMALLY****
TOTAL RUN TIME: 0 days 0 hours 14 minutes 4 seconds 877 msec
