                         Program Version 3.0.3 - RELEASE   -
|  1> ! RI-MP2 RIJK def2-TZVP def2-TZVP/C def2-TZVP/JK TIGHTSCF
|  2> % maxcore 2000
|  3> % mp2 density relaxed end
|  4> *xyz 0 1
|  5>  C       -0.2243469900     1.6174593593    -0.1474766164
|  6>  C       -0.0201233385     0.0962475819    -0.0753078700
|  7>  O        0.7724047869    -0.2184712137     1.0703107629
|  8>  C       -1.3693051992    -0.6318354415     0.0874417824
|  9>  O       -1.8529193045    -0.3050100465     1.3911725937
| 10>  C        0.7285280457    -0.4408255568    -1.3064963411
| 11>  C        0.0151612874    -0.3408151340    -2.6415920719
| 12>  C        2.2115741648    -0.3874680427    -1.2841024890
| 13>  N        1.5077483246    -1.6803101573    -1.1358778535
| 14>  H        0.7464670978     2.1185562118    -0.1673826794
| 15>  H       -0.7876157686     1.9107566503    -1.0382944144
| 16>  H       -0.7780325365     1.9607471395     0.7306599951
| 17>  H        0.1527556188    -0.2330861292     1.8119622273
| 18>  H       -2.0828103712    -0.3116533120    -0.6823797548
| 19>  H       -1.2086721189    -1.7138611982    -0.0109672000
| 20>  H       -2.5510938157    -0.9220222804     1.6254286520
| 21>  H       -0.1942883214     0.6976008732    -2.9178041195
| 22>  H        0.6440747583    -0.7804562975    -3.4190715717
| 23>  H       -0.9321982969    -0.8906164112    -2.6418526965
| 24>  H        2.7552831677    -0.2630257637    -2.2170862738
| 25>  H        2.6942676533     0.0266073957    -0.4053181406
| 26>  H        1.5105398159    -1.9034681772    -0.1418290607
| 27> *
| 28>
| 29>                          ****END OF INPUT****

CARTESIAN COORDINATES (ANGSTROEM)
---------------------------------
  C     -0.224347    1.617459   -0.147477
  C     -0.020123    0.096248   -0.075308
  O      0.772405   -0.218471    1.070311
  C     -1.369305   -0.631835    0.087442
  O     -1.852919   -0.305010    1.391173
  C      0.728528   -0.440826   -1.306496
  C      0.015161   -0.340815   -2.641592
  C      2.211574   -0.387468   -1.284102
  N      1.507748   -1.680310   -1.135878
  H      0.746467    2.118556   -0.167383
  H     -0.787616    1.910757   -1.038294
  H     -0.778033    1.960747    0.730660
  H      0.152756   -0.233086    1.811962
  H     -2.082810   -0.311653   -0.682380
  H     -1.208672   -1.713861   -0.010967
  H     -2.551094   -0.922022    1.625429
  H     -0.194288    0.697601   -2.917804
  H      0.644075   -0.780456   -3.419072
  H     -0.932198   -0.890616   -2.641853
  H      2.755283   -0.263026   -2.217086
  H      2.694268    0.026607   -0.405318
  H      1.510540   -1.903468   -0.141829

 Total Charge           Charge          ....    0
 Multiplicity           Mult            ....    1
 Number of Electrons    NEL             ....   72
 Basis Dimension        Dim             ....  357

ORBITAL ENERGIES
----------------

  NO   OCC          E(Eh)            E(eV)
   0   2.0000     -20.577665      -559.9467
   1   2.0000     -20.551850      -559.2443
   2   2.0000     -15.540777      -422.8860
   3   2.0000     -11.293560      -307.3134
   4   2.0000     -11.287234      -307.1413
   5   2.0000     -11.258870      -306.3694
   6   2.0000     -11.239470      -305.8415
   7   2.0000     -11.217371      -305.2402
   8   2.0000     -11.213695      -305.1402
   9   2.0000      -1.391915       -37.8759
  10   2.0000      -1.355943       -36.8971
  11   2.0000      -1.248682       -33.9784
  12   2.0000      -1.053056       -28.6551
  13   2.0000      -0.973856       -26.5000
  14   2.0000      -0.937858       -25.5204
  15   2.0000      -0.869017       -23.6471
  16   2.0000      -0.842981       -22.9387
  17   2.0000      -0.740954       -20.1624
  18   2.0000      -0.735068       -20.0022
  19   2.0000      -0.675779       -18.3889
  20   2.0000      -0.666872       -18.1465
  21   2.0000      -0.655647       -17.8411
  22   2.0000      -0.601687       -16.3727
  23   2.0000      -0.595836       -16.2135
  24   2.0000      -0.581260       -15.8169
  25   2.0000      -0.555411       -15.1135
  26   2.0000      -0.552831       -15.0433
  27   2.0000      -0.542061       -14.7502
  28   2.0000      -0.539119       -14.6702
  29   2.0000      -0.506247       -13.7757
  30   2.0000      -0.490374       -13.3438
  31   2.0000      -0.474517       -12.9123
  32   2.0000      -0.459294       -12.4980
  33   2.0000      -0.441264       -12.0074
  34   2.0000      -0.431410       -11.7393
  35   2.0000      -0.374858       -10.2004
  36   0.0000       0.120749         3.2857
  37   0.0000       0.147972         4.0265
  38   0.0000       0.170571         4.6415
  39   0.0000       0.180927         4.9233
  40   0.0000       0.188956         5.1418

MULLIKEN ATOMIC CHARGES
-----------------------
   0 C :   -0.440833
   1 C :    0.248297
   2 O :   -0.512389
   3 C :   -0.135070
   4 O :   -0.498698
   5 C :    0.184876
   6 C :   -0.452029
   7 C :   -0.215338
   8 N :   -0.403629
   9 H :    0.142146
  10 H :    0.122429
  11 H :    0.144610
  12 H :    0.335917
  13 H :    0.115544
  14 H :    0.133291
  15 H :    0.327737
  16 H :    0.132723
  17 H :    0.149577
  18 H :    0.129863
  19 H :    0.114942
  20 H :    0.143445
  21 H :    0.232589
Sum of atomic charges:    0.0000000

LOEWDIN ATOMIC CHARGES
----------------------
   0 C :   -0.266774
   1 C :   -0.375452
   2 O :    0.008348
   3 C :   -0.303062
   4 O :   -0.053107
   5 C :   -0.304699
   6 C :   -0.263687
   7 C :   -0.243076
   8 N :    0.001687
   9 H :    0.130219
  10 H :    0.124801
  11 H :    0.129397
  12 H :    0.179917
  13 H :    0.124230
  14 H :    0.127483
  15 H :    0.176910
  16 H :    0.125549
  17 H :    0.135795
  18 H :    0.125446
  19 H :    0.123157
  20 H :    0.128435
  21 H :    0.168483

  Mayer bond orders larger than 0.1
B(  0-C ,  1-C ) :   0.9188 B(  0-C ,  9-H ) :   0.9411 B(  0-C , 10-H ) :   0.9312
B(  0-C , 11-H ) :   0.9251 B(  1-C ,  2-O ) :   0.9234 B(  1-C ,  3-C ) :   0.8979
B(  1-C ,  5-C ) :   0.9068 B(  2-O , 12-H ) :   0.8141 B(  3-C ,  4-O ) :   0.9673
B(  3-C , 13-H ) :   0.9340 B(  3-C , 14-H ) :   0.9278 B(  4-O , 15-H ) :   0.8429
B(  5-C ,  6-C ) :   0.8753 B(  5-C ,  7-C ) :   0.9385 B(  5-C ,  8-N ) :   0.8896
B(  6-C , 16-H ) :   0.9387 B(  6-C , 17-H ) :   0.9368 B(  6-C , 18-H ) :   0.9393
B(  7-C ,  8-N ) :   0.9283 B(  7-C , 19-H ) :   0.9169 B(  7-C , 20-H ) :   0.9059
B(  8-N , 21-H ) :   0.8655

MP2 TOTAL ENERGY:     -440.755374859 Eh
FINAL SINGLE POINT ENERGY      -440.755374858919

DIPOLE MOMENT
-------------
                                X             Y             Z
Electronic contribution:      0.87737      -2.65102       4.35983
Nuclear contribution   :     -1.89384       2.79970      -4.14473
                        -----------------------------------------
Total Dipole Moment    :     -1.01647       0.14868       0.21511
                        -----------------------------------------
Magnitude (a.u.)       :      1.04957
Magnitude (Debye)      :      2.66779

                             ****ORCA TERMINATED NORMALLY****
TOTAL RUN TIME: 0 days 0 hours 20 minutes 1 seconds 658 msec
