                         Program Version 3.0.3 - RELEASE   -
|  1> ! RI-MP2 RIJK def2-TZVP def2-TZVP/C def2-TZVP/JK TIGHTSCF
|  2> % maxcore 2000
|  3> % mp2 density relaxed end
|  4> *xyz 0 1
|  5>  C       -0.0479671531     1.5291516658     0.0671738427
|  6>  C       -0.0903869399     0.0069111437    -0.0841332558
|  7>  C        0.8217865355    -0.4886779985    -1.2041565031
|  8>  N        0.7508639435    -1.9405896724    -1.3227519514
|  9>  C        1.3640890221    -2.5869384372    -2.3409781613
| 10>  N        1.8632199795    -2.0426501761    -3.4235501282
| 11>  O        2.3046531565    -3.1294893287    -4.1446342965
| 12>  N        2.0565753932    -4.2754843504    -3.4376953430
| 13>  N        1.4930604624    -3.9711329526    -2.3535226446
| 14>  H        0.9650038225     1.8790445502     0.2926565042
| 15>  H       -0.3753510334     2.0272365707    -0.8514242939
| 16>  H       -0.7030856227     1.8601227903     0.8776020545
| 17>  H        0.2110220994    -0.4649614004     0.8612157101
| 18>  H       -1.1148750212    -0.3259941948    -0.2868694610
| 19>  H        0.5140008449    -0.0604408967    -2.1640050750
| 20>  H        1.8569119005    -0.1573171609    -1.0292869427
| 21>  H        0.6785705903    -2.4747793620    -0.4701572151
| 22> *
| 23>
| 24>                          ****END OF INPUT****

CARTESIAN COORDINATES (ANGSTROEM)
---------------------------------
  C     -0.047967    1.529152    0.067174
  C     -0.090387    0.006911   -0.084133
  C      0.821787   -0.488678   -1.204157
  N      0.750864   -1.940590   -1.322752
  C      1.364089   -2.586938   -2.340978
  N      1.863220   -2.042650   -3.423550
  O      2.304653   -3.129489   -4.144634
  N      2.056575   -4.275484   -3.437695
  N      1.493060   -3.971133   -2.353523
  H      0.965004    1.879045    0.292657
  H     -0.375351    2.027237   -0.851424
  H     -0.703086    1.860123    0.877602
  H      0.211022   -0.464961    0.861216
  H     -1.114875   -0.325994   -0.286869
  H      0.514001   -0.060441   -2.164005
  H      1.856912   -0.157317   -1.029287
  H      0.678571   -2.474779   -0.470157

 Total Charge           Charge          ....    0
 Multiplicity           Mult            ....    1
 Number of Electrons    NEL             ....   68
 Basis Dimension        Dim             ....  327

ORBITAL ENERGIES
----------------

  NO   OCC          E(Eh)            E(eV)
   0   2.0000     -20.687003      -562.9220
   1   2.0000     -15.727031      -427.9543
   2   2.0000     -15.645108      -425.7250
   3   2.0000     -15.632813      -425.3905
   4   2.0000     -15.602674      -424.5703
   5   2.0000     -11.362068      -309.1776
   6   2.0000     -11.280234      -306.9508
   7   2.0000     -11.244340      -305.9740
   8   2.0000     -11.231296      -305.6191
   9   2.0000      -1.575945       -42.8836
  10   2.0000      -1.333339       -36.2820
  11   2.0000      -1.294126       -35.2150
  12   2.0000      -1.174903       -31.9707
  13   2.0000      -1.069585       -29.1049
  14   2.0000      -0.962606       -26.1938
  15   2.0000      -0.917627       -24.9699
  16   2.0000      -0.860138       -23.4055
  17   2.0000      -0.830551       -22.6004
  18   2.0000      -0.763526       -20.7766
  19   2.0000      -0.716080       -19.4855
  20   2.0000      -0.679081       -18.4787
  21   2.0000      -0.658297       -17.9132
  22   2.0000      -0.654553       -17.8113
  23   2.0000      -0.596123       -16.2213
  24   2.0000      -0.584792       -15.9130
  25   2.0000      -0.567434       -15.4407
  26   2.0000      -0.528638       -14.3850
  27   2.0000      -0.522090       -14.2068
  28   2.0000      -0.511079       -13.9072
  29   2.0000      -0.500712       -13.6251
  30   2.0000      -0.498738       -13.5713
  31   2.0000      -0.494166       -13.4469
  32   2.0000      -0.478165       -13.0115
  33   2.0000      -0.372833       -10.1453
  34   0.0000       0.085834         2.3357
  35   0.0000       0.121984         3.3193
  36   0.0000       0.139896         3.8068
  37   0.0000       0.169022         4.5993
  38   0.0000       0.179238         4.8773

MULLIKEN ATOMIC CHARGES
-----------------------
   0 C :   -0.401296
   1 C :   -0.199994
   2 C :   -0.120433
   3 N :   -0.335298
   4 C :    0.221678
   5 N :   -0.164020
   6 O :   -0.005226
   7 N :   -0.011444
   8 N :   -0.133134
   9 H :    0.128901
  10 H :    0.131656
  11 H :    0.142499
  12 H :    0.107436
  13 H :    0.128091
  14 H :    0.138553
  15 H :    0.120524
  16 H :    0.251507
Sum of atomic charges:    0.0000000

LOEWDIN ATOMIC CHARGES
----------------------
   0 C :   -0.314276
   1 C :   -0.296721
   2 C :   -0.277627
   3 N :    0.089611
   4 C :   -0.475300
   5 N :    0.007470
   6 O :    0.180698
   7 N :   -0.057475
   8 N :    0.027899
   9 H :    0.123083
  10 H :    0.124102
  11 H :    0.124800
  12 H :    0.134920
  13 H :    0.139415
  14 H :    0.142226
  15 H :    0.130687
  16 H :    0.196487

  Mayer bond orders larger than 0.1
B(  0-C ,  1-C ) :   0.9307 B(  0-C ,  9-H ) :   0.9356 B(  0-C , 10-H ) :   0.9378
B(  0-C , 11-H ) :   0.9396 B(  1-C ,  2-C ) :   0.9281 B(  1-C , 12-H ) :   0.9279
B(  1-C , 13-H ) :   0.9280 B(  2-C ,  3-N ) :   0.8708 B(  2-C , 14-H ) :   0.9226
B(  2-C , 15-H ) :   0.9302 B(  3-N ,  4-C ) :   1.1582 B(  3-N , 16-H ) :   0.8611
B(  4-C ,  5-N ) :   1.5208 B(  4-C ,  8-N ) :   1.2061 B(  5-N ,  6-O ) :   0.9019
B(  5-N ,  7-N ) :   0.1299 B(  6-O ,  7-N ) :   0.9670 B(  6-O ,  8-N ) :   0.1014
B(  7-N ,  8-N ) :   1.4313

MP2 TOTAL ENERGY:     -450.533209633 Eh
FINAL SINGLE POINT ENERGY      -450.533209632779

DIPOLE MOMENT
-------------
                                X             Y             Z
Electronic contribution:      6.34304     -14.97244     -11.27311
Nuclear contribution   :     -6.84574      16.01146      12.55542
                        -----------------------------------------
Total Dipole Moment    :     -0.50269       1.03901       1.28231
                        -----------------------------------------
Magnitude (a.u.)       :      1.72527
Magnitude (Debye)      :      4.38529

                             ****ORCA TERMINATED NORMALLY****
TOTAL RUN TIME: 0 days 0 hours 17 minutes 43 seconds 784 msec
