                         Program Version 3.0.3 - RELEASE   -
|  1> ! RI-MP2 RIJK def2-TZVP def2-TZVP/C def2-TZVP/JK TIGHTSCF
|  2> % maxcore 2000
|  3> % mp2 density relaxed end
|  4> *xyz 0 1
|  5>  N       -0.0021804153     1.4553711354     0.0484978989
|  6>  C        0.0113039691     0.0209383274     0.0182365956
|  7>  C       -0.4403168209    -0.6856307367     1.2784672860
|  8>  C       -1.3561179208    -0.6895629778     0.0764512277
|  9>  C       -2.5611942449     0.0815213575     0.0400325539
| 10>  C       -3.5930817038     0.6954440227    -0.0161132677
| 11>  C        1.0240282277    -0.6257579588    -0.7923629976
| 12>  N        1.8468823302    -1.1024860697    -1.4523200226
| 13>  H        0.8912407535     1.8160767877     0.3677615574
| 14>  H       -0.1817537222     1.8377144993    -0.8745827310
| 15>  H        0.0398174566    -1.6184293960     1.5473429853
| 16>  H       -0.7043643901    -0.0267419846     2.0959313292
| 17>  H       -1.3925257253    -1.6236478135    -0.4758644714
| 18>  H       -4.4999756538     1.2462067572    -0.0567405936
| 19> *
| 20>
| 21>                          ****END OF INPUT****

CARTESIAN COORDINATES (ANGSTROEM)
---------------------------------
  N     -0.002180    1.455371    0.048498
  C      0.011304    0.020938    0.018237
  C     -0.440317   -0.685631    1.278467
  C     -1.356118   -0.689563    0.076451
  C     -2.561194    0.081521    0.040033
  C     -3.593082    0.695444   -0.016113
  C      1.024028   -0.625758   -0.792363
  N      1.846882   -1.102486   -1.452320
  H      0.891241    1.816077    0.367762
  H     -0.181754    1.837714   -0.874583
  H      0.039817   -1.618429    1.547343
  H     -0.704364   -0.026742    2.095931
  H     -1.392526   -1.623648   -0.475864
  H     -4.499976    1.246207   -0.056741

 Total Charge           Charge          ....    0
 Multiplicity           Mult            ....    1
 Number of Electrons    NEL             ....   56
 Basis Dimension        Dim             ....  284

ORBITAL ENERGIES
----------------

  NO   OCC          E(Eh)            E(eV)
   0   2.0000     -15.577760      -423.8924
   1   2.0000     -15.577550      -423.8867
   2   2.0000     -11.330526      -308.3193
   3   2.0000     -11.291114      -307.2468
   4   2.0000     -11.279583      -306.9331
   5   2.0000     -11.269861      -306.6685
   6   2.0000     -11.247616      -306.0632
   7   2.0000     -11.235282      -305.7276
   8   2.0000      -1.264123       -34.3985
   9   2.0000      -1.214119       -33.0379
  10   2.0000      -1.143671       -31.1209
  11   2.0000      -1.039297       -28.2807
  12   2.0000      -0.910051       -24.7637
  13   2.0000      -0.885974       -24.1086
  14   2.0000      -0.755113       -20.5477
  15   2.0000      -0.739803       -20.1311
  16   2.0000      -0.692112       -18.8333
  17   2.0000      -0.684246       -18.6193
  18   2.0000      -0.631644       -17.1879
  19   2.0000      -0.579928       -15.7806
  20   2.0000      -0.565020       -15.3750
  21   2.0000      -0.535030       -14.5589
  22   2.0000      -0.523968       -14.2579
  23   2.0000      -0.477843       -13.0028
  24   2.0000      -0.445529       -12.1235
  25   2.0000      -0.440719       -11.9926
  26   2.0000      -0.392492       -10.6802
  27   2.0000      -0.378887       -10.3100
  28   0.0000       0.119599         3.2545
  29   0.0000       0.143210         3.8969
  30   0.0000       0.146025         3.9736
  31   0.0000       0.158977         4.3260
  32   0.0000       0.159660         4.3446

MULLIKEN ATOMIC CHARGES
-----------------------
   0 N :   -0.536608
   1 C :    0.308202
   2 C :   -0.245507
   3 C :   -0.263696
   4 C :    0.001638
   5 C :   -0.134924
   6 C :   -0.248189
   7 N :   -0.057041
   8 H :    0.247243
   9 H :    0.250070
  10 H :    0.160078
  11 H :    0.160656
  12 H :    0.162692
  13 H :    0.195386
Sum of atomic charges:    0.0000000

LOEWDIN ATOMIC CHARGES
----------------------
   0 N :   -0.074374
   1 C :   -0.305132
   2 C :   -0.134873
   3 C :   -0.155601
   4 C :   -0.089763
   5 C :   -0.081050
   6 C :   -0.162885
   7 N :    0.064861
   8 H :    0.168272
   9 H :    0.170769
  10 H :    0.144781
  11 H :    0.151591
  12 H :    0.174843
  13 H :    0.128560

  Mayer bond orders larger than 0.1
B(  0-N ,  1-C ) :   1.0087 B(  0-N ,  8-H ) :   0.8841 B(  0-N ,  9-H ) :   0.8825
B(  1-C ,  2-C ) :   0.8437 B(  1-C ,  3-C ) :   0.8022 B(  1-C ,  6-C ) :   0.9699
B(  2-C ,  3-C ) :   0.8801 B(  2-C , 10-H ) :   0.9203 B(  2-C , 11-H ) :   0.9233
B(  3-C ,  4-C ) :   1.2088 B(  3-C ,  5-C ) :  -0.1286 B(  3-C , 12-H ) :   0.9331
B(  4-C ,  5-C ) :   2.5573 B(  5-C , 13-H ) :   0.8910 B(  6-C ,  7-N ) :   2.8546

MP2 TOTAL ENERGY:     -340.930668644 Eh
FINAL SINGLE POINT ENERGY      -340.930668644167

DIPOLE MOMENT
-------------
                                X             Y             Z
Electronic contribution:      1.51583      -1.39771      -2.30556
Nuclear contribution   :     -2.12163       1.95013       2.95465
                        -----------------------------------------
Total Dipole Moment    :     -0.60580       0.55242       0.64908
                        -----------------------------------------
Magnitude (a.u.)       :      1.04570
Magnitude (Debye)      :      2.65795

                             ****ORCA TERMINATED NORMALLY****
TOTAL RUN TIME: 0 days 0 hours 10 minutes 6 seconds 295 msec
