                         Program Version 3.0.3 - RELEASE   -
|  1> ! RI-MP2 RIJK def2-TZVP def2-TZVP/C def2-TZVP/JK TIGHTSCF
|  2> % maxcore 2000
|  3> % mp2 density relaxed end
|  4> *xyz 0 1
|  5>  C       -0.0329135772     1.5537865981     0.0341204649
|  6>  O        0.9828766290     1.9829139337    -0.8765824428
|  7>  C        2.0471115217     1.0282907381    -0.9148343588
|  8>  C        1.4241085617    -0.2712581313    -0.4698803145
|  9>  C        1.9906624226    -1.4246813324     0.3197881347
| 10>  O        0.8929966220    -1.9229766104     1.0893280649
| 11>  C       -0.0893605924    -0.8991860190     1.2687472707
| 12>  C        0.1266302531     0.0565367455     0.1220630381
| 13>  O        0.2059172890    -0.5884124245    -1.1557067614
| 14>  H        0.0986926591     2.0009804650     1.0326187281
| 15>  H       -0.9938803951     1.8822117391    -0.3727532486
| 16>  H        2.4357317693     1.0157606179    -1.9374208463
| 17>  H        2.8657020518     1.3019247485    -0.2297538528
| 18>  H        2.3605189974    -2.2524546766    -0.2924732418
| 19>  H        2.8111784927    -1.0675611240     0.9628434802
| 20>  H       -1.0690860551    -1.3860040671     1.2721957051
| 21>  H        0.0441631405    -0.3685065107     2.2252262602
| 22> *
| 23>
| 24>                          ****END OF INPUT****

CARTESIAN COORDINATES (ANGSTROEM)
---------------------------------
  C     -0.032914    1.553787    0.034120
  O      0.982877    1.982914   -0.876582
  C      2.047112    1.028291   -0.914834
  C      1.424109   -0.271258   -0.469880
  C      1.990662   -1.424681    0.319788
  O      0.892997   -1.922977    1.089328
  C     -0.089361   -0.899186    1.268747
  C      0.126630    0.056537    0.122063
  O      0.205917   -0.588412   -1.155707
  H      0.098693    2.000980    1.032619
  H     -0.993880    1.882212   -0.372753
  H      2.435732    1.015761   -1.937421
  H      2.865702    1.301925   -0.229754
  H      2.360519   -2.252455   -0.292473
  H      2.811178   -1.067561    0.962843
  H     -1.069086   -1.386004    1.272196
  H      0.044163   -0.368507    2.225226

 Total Charge           Charge          ....    0
 Multiplicity           Mult            ....    1
 Number of Electrons    NEL             ....   68
 Basis Dimension        Dim             ....  327

ORBITAL ENERGIES
----------------

  NO   OCC          E(Eh)            E(eV)
   0   2.0000     -20.578793      -559.9774
   1   2.0000     -20.567076      -559.6586
   2   2.0000     -20.567075      -559.6586
   3   2.0000     -11.296649      -307.3974
   4   2.0000     -11.296568      -307.3953
   5   2.0000     -11.296447      -307.3919
   6   2.0000     -11.296424      -307.3913
   7   2.0000     -11.295504      -307.3663
   8   2.0000     -11.294743      -307.3456
   9   2.0000      -1.450547       -39.4714
  10   2.0000      -1.384660       -37.6785
  11   2.0000      -1.362877       -37.0858
  12   2.0000      -1.044260       -28.4158
  13   2.0000      -1.028167       -27.9779
  14   2.0000      -0.977882       -26.6095
  15   2.0000      -0.899530       -24.4775
  16   2.0000      -0.819885       -22.3102
  17   2.0000      -0.781232       -21.2584
  18   2.0000      -0.726158       -19.7598
  19   2.0000      -0.685339       -18.6490
  20   2.0000      -0.666630       -18.1399
  21   2.0000      -0.659138       -17.9360
  22   2.0000      -0.621829       -16.9208
  23   2.0000      -0.616878       -16.7861
  24   2.0000      -0.572596       -15.5811
  25   2.0000      -0.572290       -15.5728
  26   2.0000      -0.559569       -15.2266
  27   2.0000      -0.537300       -14.6207
  28   2.0000      -0.527898       -14.3648
  29   2.0000      -0.515812       -14.0360
  30   2.0000      -0.460067       -12.5191
  31   2.0000      -0.447203       -12.1690
  32   2.0000      -0.425005       -11.5650
  33   2.0000      -0.411212       -11.1896
  34   0.0000       0.132710         3.6112
  35   0.0000       0.153568         4.1788
  36   0.0000       0.175352         4.7716
  37   0.0000       0.184097         5.0095
  38   0.0000       0.190623         5.1871

MULLIKEN ATOMIC CHARGES
-----------------------
   0 C :   -0.027871
   1 O :   -0.308449
   2 C :   -0.027872
   3 C :    0.082290
   4 C :   -0.027872
   5 O :   -0.308449
   6 C :   -0.027871
   7 C :    0.082287
   8 O :   -0.317161
   9 H :    0.095684
  10 H :    0.124558
  11 H :    0.124558
  12 H :    0.095684
  13 H :    0.124558
  14 H :    0.095684
  15 H :    0.124558
  16 H :    0.095684
Sum of atomic charges:    0.0000000

LOEWDIN ATOMIC CHARGES
----------------------
   0 C :   -0.256042
   1 O :    0.151647
   2 C :   -0.256041
   3 C :   -0.287180
   4 C :   -0.256042
   5 O :    0.151647
   6 C :   -0.256041
   7 C :   -0.287177
   8 O :    0.231715
   9 H :    0.129953
  10 H :    0.135925
  11 H :    0.135925
  12 H :    0.129954
  13 H :    0.135925
  14 H :    0.129953
  15 H :    0.135925
  16 H :    0.129954

  Mayer bond orders larger than 0.1
B(  0-C ,  1-O ) :   0.9503 B(  0-C ,  7-C ) :   0.9675 B(  0-C ,  9-H ) :   0.9155
B(  0-C , 10-H ) :   0.9083 B(  1-O ,  2-C ) :   0.9503 B(  2-C ,  3-C ) :   0.9675
B(  2-C , 11-H ) :   0.9083 B(  2-C , 12-H ) :   0.9155 B(  3-C ,  4-C ) :   0.9675
B(  3-C ,  7-C ) :   0.8689 B(  3-C ,  8-O ) :   0.8783 B(  4-C ,  5-O ) :   0.9503
B(  4-C , 13-H ) :   0.9083 B(  4-C , 14-H ) :   0.9155 B(  5-O ,  6-C ) :   0.9503
B(  6-C ,  7-C ) :   0.9675 B(  6-C , 15-H ) :   0.9083 B(  6-C , 16-H ) :   0.9155
B(  7-C ,  8-O ) :   0.8783

MP2 TOTAL ENERGY:     -458.203887964 Eh
FINAL SINGLE POINT ENERGY      -458.203887964185

DIPOLE MOMENT
-------------
                                X             Y             Z
Electronic contribution:     -1.32285      -1.11749      -2.28074
Nuclear contribution   :      1.71579       1.44943       2.95820
                        -----------------------------------------
Total Dipole Moment    :      0.39294       0.33194       0.67746
                        -----------------------------------------
Magnitude (a.u.)       :      0.85061
Magnitude (Debye)      :      2.16208

                             ****ORCA TERMINATED NORMALLY****
TOTAL RUN TIME: 0 days 0 hours 17 minutes 47 seconds 861 msec
