                         Program Version 3.0.3 - RELEASE   -
|  1> ! RI-MP2 RIJK def2-TZVP def2-TZVP/C def2-TZVP/JK TIGHTSCF
|  2> % maxcore 2000
|  3> % mp2 density relaxed end
|  4> *xyz 0 1
|  5>  C        0.0162301265     1.5970495676    -0.0868014251
|  6>  C        0.0365647201     0.0793870712     0.0206316351
|  7>  C        0.9884734494    -0.7062068261    -0.9063805690
|  8>  C        1.6606348099    -1.3600284330     0.2585979169
|  9>  N        2.3673177377    -0.3368590174    -0.5426755035
| 10>  C        3.3675680414    -0.9063178861    -1.4418316942
| 11>  C        0.7716423297    -0.5955929517     1.2163946447
| 12>  C        1.0540680011    -0.0742010625     2.5658518439
| 13>  N        0.1327745521    -1.2195948287     2.3683706096
| 14>  H        1.0366385334     1.9877768549    -0.0764841922
| 15>  H       -0.4694394751     1.9188886517    -1.0147275943
| 16>  H       -0.5361339384     2.0476727551     0.7455533507
| 17>  H       -0.9755071459    -0.3372680857    -0.0555158716
| 18>  H        0.7702183528    -1.1062719969    -1.8895973747
| 19>  H        2.0588767019    -2.3611794236     0.3703728554
| 20>  H        3.1000447418    -1.9009963818    -1.8376115626
| 21>  H        3.5134165697    -0.2295967005    -2.2898607270
| 22>  H        4.3192359592    -0.9967507615    -0.9088024018
| 23>  H        1.9875394533    -0.3184235476     3.0654147028
| 24>  H        0.6331479615     0.8903032554     2.8393578726
| 25>  H       -0.8325839021    -0.9055835629     2.4457030043
| 26> *
| 27>
| 28>                          ****END OF INPUT****

CARTESIAN COORDINATES (ANGSTROEM)
---------------------------------
  C      0.016230    1.597050   -0.086801
  C      0.036565    0.079387    0.020632
  C      0.988473   -0.706207   -0.906381
  C      1.660635   -1.360028    0.258598
  N      2.367318   -0.336859   -0.542676
  C      3.367568   -0.906318   -1.441832
  C      0.771642   -0.595593    1.216395
  C      1.054068   -0.074201    2.565852
  N      0.132775   -1.219595    2.368371
  H      1.036639    1.987777   -0.076484
  H     -0.469439    1.918889   -1.014728
  H     -0.536134    2.047673    0.745553
  H     -0.975507   -0.337268   -0.055516
  H      0.770218   -1.106272   -1.889597
  H      2.058877   -2.361179    0.370373
  H      3.100045   -1.900996   -1.837612
  H      3.513417   -0.229597   -2.289861
  H      4.319236   -0.996751   -0.908802
  H      1.987539   -0.318424    3.065415
  H      0.633148    0.890303    2.839358
  H     -0.832584   -0.905584    2.445703

 Total Charge           Charge          ....    0
 Multiplicity           Mult            ....    1
 Number of Electrons    NEL             ....   68
 Basis Dimension        Dim             ....  351

ORBITAL ENERGIES
----------------

  NO   OCC          E(Eh)            E(eV)
   0   2.0000     -15.561274      -423.4438
   1   2.0000     -15.554009      -423.2461
   2   2.0000     -11.263311      -306.4903
   3   2.0000     -11.257902      -306.3431
   4   2.0000     -11.255498      -306.2777
   5   2.0000     -11.248008      -306.0739
   6   2.0000     -11.247397      -306.0572
   7   2.0000     -11.238406      -305.8126
   8   2.0000     -11.211898      -305.0913
   9   2.0000      -1.296113       -35.2690
  10   2.0000      -1.247982       -33.9593
  11   2.0000      -1.069266       -29.0962
  12   2.0000      -0.982278       -26.7291
  13   2.0000      -0.892965       -24.2988
  14   2.0000      -0.884212       -24.0606
  15   2.0000      -0.849048       -23.1038
  16   2.0000      -0.789719       -21.4893
  17   2.0000      -0.730550       -19.8793
  18   2.0000      -0.697616       -18.9831
  19   2.0000      -0.655861       -17.8469
  20   2.0000      -0.623158       -16.9570
  21   2.0000      -0.597166       -16.2497
  22   2.0000      -0.585917       -15.9436
  23   2.0000      -0.569224       -15.4894
  24   2.0000      -0.552725       -15.0404
  25   2.0000      -0.541060       -14.7230
  26   2.0000      -0.503568       -13.7028
  27   2.0000      -0.495643       -13.4871
  28   2.0000      -0.489032       -13.3072
  29   2.0000      -0.470746       -12.8097
  30   2.0000      -0.427470       -11.6320
  31   2.0000      -0.416855       -11.3432
  32   2.0000      -0.388584       -10.5739
  33   2.0000      -0.346522        -9.4293
  34   0.0000       0.135203         3.6791
  35   0.0000       0.149353         4.0641
  36   0.0000       0.161747         4.4014
  37   0.0000       0.166293         4.5251
  38   0.0000       0.187321         5.0973

MULLIKEN ATOMIC CHARGES
-----------------------
   0 C :   -0.462583
   1 C :    0.065620
   2 C :   -0.081666
   3 C :   -0.103145
   4 N :   -0.241106
   5 C :   -0.321059
   6 C :    0.091411
   7 C :   -0.198909
   8 N :   -0.385688
   9 H :    0.157599
  10 H :    0.128685
  11 H :    0.122822
  12 H :    0.100232
  13 H :    0.133888
  14 H :    0.139282
  15 H :    0.105916
  16 H :    0.140837
  17 H :    0.142689
  18 H :    0.121909
  19 H :    0.126074
  20 H :    0.217191
Sum of atomic charges:   -0.0000000

LOEWDIN ATOMIC CHARGES
----------------------
   0 C :   -0.295480
   1 C :   -0.195584
   2 C :   -0.190562
   3 C :   -0.169706
   4 N :    0.108651
   5 C :   -0.329656
   6 C :   -0.256357
   7 C :   -0.236460
   8 N :    0.005422
   9 H :    0.131693
  10 H :    0.123869
  11 H :    0.121673
  12 H :    0.153826
  13 H :    0.131780
  14 H :    0.137275
  15 H :    0.106591
  16 H :    0.118352
  17 H :    0.118871
  18 H :    0.127209
  19 H :    0.123041
  20 H :    0.165551

  Mayer bond orders larger than 0.1
B(  0-C ,  1-C ) :   0.8558 B(  0-C ,  9-H ) :   0.9398 B(  0-C , 10-H ) :   0.9358
B(  0-C , 11-H ) :   0.9368 B(  1-C ,  2-C ) :   0.9309 B(  1-C ,  6-C ) :   0.9606
B(  1-C , 12-H ) :   0.9111 B(  2-C ,  3-C ) :   0.8793 B(  2-C ,  4-N ) :   0.8503
B(  2-C , 13-H ) :   0.9160 B(  3-C ,  4-N ) :   0.9281 B(  3-C ,  6-C ) :   0.8419
B(  3-C , 14-H ) :   0.9114 B(  4-N ,  5-C ) :   0.8749 B(  5-C , 15-H ) :   0.9228
B(  5-C , 16-H ) :   0.9400 B(  5-C , 17-H ) :   0.9405 B(  6-C ,  7-C ) :   0.9247
B(  6-C ,  8-N ) :   0.9177 B(  7-C ,  8-N ) :   0.9589 B(  7-C , 18-H ) :   0.9112
B(  7-C , 19-H ) :   0.9175 B(  8-N , 20-H ) :   0.8676

MP2 TOTAL ENERGY:     -382.512203021 Eh
FINAL SINGLE POINT ENERGY      -382.512203021191

DIPOLE MOMENT
-------------
                                X             Y             Z
Electronic contribution:     -0.80351      -2.84199       2.43506
Nuclear contribution   :      0.59750       3.00203      -2.90305
                        -----------------------------------------
Total Dipole Moment    :     -0.20601       0.16004      -0.46798
                        -----------------------------------------
Magnitude (a.u.)       :      0.53578
Magnitude (Debye)      :      1.36184

                             ****ORCA TERMINATED NORMALLY****
TOTAL RUN TIME: 0 days 0 hours 18 minutes 30 seconds 990 msec
