                         Program Version 3.0.3 - RELEASE   -
|  1> ! RI-MP2 RIJK def2-TZVP def2-TZVP/C def2-TZVP/JK TIGHTSCF
|  2> % maxcore 2000
|  3> % mp2 density relaxed end
|  4> *xyz 0 1
|  5>  C       -0.0011952019     1.5276497477    -0.0161374287
|  6>  C        1.5465881148     1.7783540388    -0.0313154359
|  7>  C        2.0284420328     0.3276813943     0.0164935780
|  8>  C        1.0883959846    -0.3963320199    -0.9996439309
|  9>  O        1.3574859209    -1.7871490187    -1.0776375212
| 10>  C        1.0045475941    -2.4439964960     0.1160856576
| 11>  O        1.3673953914    -1.7068536959     1.2588681108
| 12>  C        1.0972489427    -0.3245939806     1.0878632940
| 13>  C       -0.0190403170    -0.0053497225     0.0366210175
| 14>  H       -0.4919562926     1.9733058267     0.8538519707
| 15>  H       -0.4994376400     1.9126739633    -0.9104797424
| 16>  H        1.8777875052     2.2987958063    -0.9346204936
| 17>  H        1.8852747988     2.3594820192     0.8312936051
| 18>  H        3.0975029148     0.1180368668     0.0191643133
| 19>  H        1.0198709835    -0.0192076596    -2.0234729737
| 20>  H       -0.0813046246    -2.6343708192     0.1272334122
| 21>  H        1.5451594264    -3.3930878898     0.1464089464
| 22>  H        1.0372893500     0.1219452592     2.0839315275
| 23>  H       -0.9960232439    -0.4878750599     0.0573463135
| 24> *
| 25>
| 26>                          ****END OF INPUT****

CARTESIAN COORDINATES (ANGSTROEM)
---------------------------------
  C     -0.001195    1.527650   -0.016137
  C      1.546588    1.778354   -0.031315
  C      2.028442    0.327681    0.016494
  C      1.088396   -0.396332   -0.999644
  O      1.357486   -1.787149   -1.077638
  C      1.004548   -2.443996    0.116086
  O      1.367395   -1.706854    1.258868
  C      1.097249   -0.324594    1.087863
  C     -0.019040   -0.005350    0.036621
  H     -0.491956    1.973306    0.853852
  H     -0.499438    1.912674   -0.910480
  H      1.877788    2.298796   -0.934620
  H      1.885275    2.359482    0.831294
  H      3.097503    0.118037    0.019164
  H      1.019871   -0.019208   -2.023473
  H     -0.081305   -2.634371    0.127233
  H      1.545159   -3.393088    0.146409
  H      1.037289    0.121945    2.083932
  H     -0.996023   -0.487875    0.057346

 Total Charge           Charge          ....    0
 Multiplicity           Mult            ....    1
 Number of Electrons    NEL             ....   68
 Basis Dimension        Dim             ....  339

ORBITAL ENERGIES
----------------

  NO   OCC          E(Eh)            E(eV)
   0   2.0000     -20.560949      -559.4919
   1   2.0000     -20.560931      -559.4914
   2   2.0000     -11.325401      -308.1798
   3   2.0000     -11.287808      -307.1569
   4   2.0000     -11.287796      -307.1566
   5   2.0000     -11.238825      -305.8240
   6   2.0000     -11.232677      -305.6567
   7   2.0000     -11.229478      -305.5696
   8   2.0000     -11.228689      -305.5482
   9   2.0000      -1.428947       -38.8836
  10   2.0000      -1.341431       -36.5022
  11   2.0000      -1.181690       -32.1554
  12   2.0000      -0.992177       -26.9985
  13   2.0000      -0.953068       -25.9343
  14   2.0000      -0.903409       -24.5830
  15   2.0000      -0.890240       -24.2247
  16   2.0000      -0.782857       -21.3026
  17   2.0000      -0.722372       -19.6567
  18   2.0000      -0.705288       -19.1919
  19   2.0000      -0.690993       -18.8029
  20   2.0000      -0.675599       -18.3840
  21   2.0000      -0.631697       -17.1893
  22   2.0000      -0.600117       -16.3300
  23   2.0000      -0.580976       -15.8092
  24   2.0000      -0.575647       -15.6642
  25   2.0000      -0.551952       -15.0194
  26   2.0000      -0.522134       -14.2080
  27   2.0000      -0.516694       -14.0600
  28   2.0000      -0.496571       -13.5124
  29   2.0000      -0.482234       -13.1222
  30   2.0000      -0.475276       -12.9329
  31   2.0000      -0.425886       -11.5889
  32   2.0000      -0.398097       -10.8328
  33   2.0000      -0.392891       -10.6911
  34   0.0000       0.136546         3.7156
  35   0.0000       0.154801         4.2123
  36   0.0000       0.165519         4.5040
  37   0.0000       0.173468         4.7203
  38   0.0000       0.191139         5.2012

MULLIKEN ATOMIC CHARGES
-----------------------
   0 C :   -0.254270
   1 C :   -0.278079
   2 C :   -0.058910
   3 C :    0.066444
   4 O :   -0.324831
   5 C :    0.078685
   6 O :   -0.324831
   7 C :    0.066444
   8 C :   -0.153325
   9 H :    0.122563
  10 H :    0.122563
  11 H :    0.121209
  12 H :    0.121209
  13 H :    0.126572
  14 H :    0.111824
  15 H :    0.083708
  16 H :    0.131477
  17 H :    0.111824
  18 H :    0.129724
Sum of atomic charges:    0.0000000

LOEWDIN ATOMIC CHARGES
----------------------
   0 C :   -0.220796
   1 C :   -0.224380
   2 C :   -0.182729
   3 C :   -0.238310
   4 O :    0.176753
   5 C :   -0.378681
   6 O :    0.176753
   7 C :   -0.238310
   8 C :   -0.188082
   9 H :    0.135144
  10 H :    0.135144
  11 H :    0.134935
  12 H :    0.134935
  13 H :    0.138398
  14 H :    0.136157
  15 H :    0.106965
  16 H :    0.122297
  17 H :    0.136157
  18 H :    0.137649

  Mayer bond orders larger than 0.1
B(  0-C ,  1-C ) :   0.9599 B(  0-C ,  8-C ) :   0.9121 B(  0-C ,  9-H ) :   0.9229
B(  0-C , 10-H ) :   0.9229 B(  1-C ,  2-C ) :   0.9010 B(  1-C , 11-H ) :   0.9231
B(  1-C , 12-H ) :   0.9231 B(  2-C ,  3-C ) :   0.8824 B(  2-C ,  7-C ) :   0.8824
B(  2-C , 13-H ) :   0.9123 B(  3-C ,  4-O ) :   0.9099 B(  3-C ,  8-C ) :   0.8899
B(  3-C , 14-H ) :   0.9346 B(  4-O ,  5-C ) :   0.9742 B(  5-C ,  6-O ) :   0.9742
B(  5-C , 15-H ) :   0.9294 B(  5-C , 16-H ) :   0.9270 B(  6-O ,  7-C ) :   0.9099
B(  7-C ,  8-C ) :   0.8899 B(  7-C , 17-H ) :   0.9346 B(  8-C , 18-H ) :   0.9107

MP2 TOTAL ENERGY:     -422.310166783 Eh
FINAL SINGLE POINT ENERGY      -422.310166783438

DIPOLE MOMENT
-------------
                                X             Y             Z
Electronic contribution:      1.59366      -5.06856       0.16742
Nuclear contribution   :     -2.01176       5.64479      -0.18545
                        -----------------------------------------
Total Dipole Moment    :     -0.41810       0.57623      -0.01803
                        -----------------------------------------
Magnitude (a.u.)       :      0.71217
Magnitude (Debye)      :      1.81018

                             ****ORCA TERMINATED NORMALLY****
TOTAL RUN TIME: 0 days 0 hours 18 minutes 17 seconds 156 msec
