                         Program Version 3.0.3 - RELEASE   -
|  1> ! RI-MP2 RIJK def2-TZVP def2-TZVP/C def2-TZVP/JK TIGHTSCF
|  2> % maxcore 2000
|  3> % mp2 density relaxed end
|  4> *xyz 0 1
|  5>  C       -0.0953265880     1.4680451201     0.0271837838
|  6>  C        0.0328629224    -0.0264194956    -0.0256887853
|  7>  C        0.0451481997    -0.8734855285    -1.3031749053
|  8>  C       -0.2150218799    -2.0837283214    -0.3655817056
|  9>  O       -0.9404281484    -3.1932132295    -0.7743337002
| 10>  C        1.1019364225    -2.2094538430     0.4475976371
| 11>  C        0.7028465557    -0.8734241576     1.0843005535
| 12>  C        1.2970638300    -0.2922507937     2.3340190343
| 13>  C       -0.7558211866    -1.0814438144     0.7256505427
| 14>  H        0.8052340075     1.9603775267    -0.3596990695
| 15>  H       -0.9431812682     1.8072717110    -0.5787681873
| 16>  H       -0.2569057172     1.8301551570     1.0469542966
| 17>  H       -0.8344295337    -0.6595224743    -1.9186520826
| 18>  H        0.9481237766    -0.8896639994    -1.9276886910
| 19>  H       -0.4265312113    -3.6619642098    -1.4417626295
| 20>  H        1.0345749236    -3.0222671472     1.1776983046
| 21>  H        2.0465377549    -2.2782449611    -0.1079578700
| 22>  H        2.3334403873     0.0283713991     2.1721429438
| 23>  H        0.7349273636     0.5762767956     2.6901448014
| 24>  H        1.3028715997    -1.0322582253     3.1423913668
| 25>  H       -1.6653399002    -1.0378424586     1.3079033817
| 26> *
| 27>
| 28>                          ****END OF INPUT****

CARTESIAN COORDINATES (ANGSTROEM)
---------------------------------
  C     -0.095327    1.468045    0.027184
  C      0.032863   -0.026419   -0.025689
  C      0.045148   -0.873486   -1.303175
  C     -0.215022   -2.083728   -0.365582
  O     -0.940428   -3.193213   -0.774334
  C      1.101936   -2.209454    0.447598
  C      0.702847   -0.873424    1.084301
  C      1.297064   -0.292251    2.334019
  C     -0.755821   -1.081444    0.725651
  H      0.805234    1.960378   -0.359699
  H     -0.943181    1.807272   -0.578768
  H     -0.256906    1.830155    1.046954
  H     -0.834430   -0.659522   -1.918652
  H      0.948124   -0.889664   -1.927689
  H     -0.426531   -3.661964   -1.441763
  H      1.034575   -3.022267    1.177698
  H      2.046538   -2.278245   -0.107958
  H      2.333440    0.028371    2.172143
  H      0.734927    0.576277    2.690145
  H      1.302872   -1.032258    3.142391
  H     -1.665340   -1.037842    1.307903

 Total Charge           Charge          ....    0
 Multiplicity           Mult            ....    1
 Number of Electrons    NEL             ....   68
 Basis Dimension        Dim             ....  351

ORBITAL ENERGIES
----------------

  NO   OCC          E(Eh)            E(eV)
   0   2.0000     -20.560037      -559.4670
   1   2.0000     -11.288674      -307.1804
   2   2.0000     -11.236087      -305.7495
   3   2.0000     -11.235502      -305.7335
   4   2.0000     -11.219641      -305.3020
   5   2.0000     -11.218256      -305.2643
   6   2.0000     -11.218252      -305.2641
   7   2.0000     -11.217606      -305.2466
   8   2.0000     -11.217587      -305.2461
   9   2.0000      -1.371872       -37.3305
  10   2.0000      -1.223690       -33.2983
  11   2.0000      -1.009344       -27.4656
  12   2.0000      -1.001649       -27.2563
  13   2.0000      -0.925305       -25.1788
  14   2.0000      -0.919670       -25.0255
  15   2.0000      -0.827437       -22.5157
  16   2.0000      -0.727123       -19.7860
  17   2.0000      -0.694856       -18.9080
  18   2.0000      -0.690032       -18.7767
  19   2.0000      -0.644060       -17.5258
  20   2.0000      -0.612860       -16.6768
  21   2.0000      -0.601584       -16.3699
  22   2.0000      -0.592110       -16.1121
  23   2.0000      -0.558996       -15.2111
  24   2.0000      -0.556817       -15.1518
  25   2.0000      -0.542064       -14.7503
  26   2.0000      -0.533446       -14.5158
  27   2.0000      -0.520086       -14.1522
  28   2.0000      -0.509550       -13.8656
  29   2.0000      -0.482549       -13.1308
  30   2.0000      -0.431064       -11.7298
  31   2.0000      -0.402014       -10.9394
  32   2.0000      -0.370790       -10.0897
  33   2.0000      -0.354257        -9.6398
  34   0.0000       0.132381         3.6023
  35   0.0000       0.145051         3.9470
  36   0.0000       0.166795         4.5387
  37   0.0000       0.181515         4.9393
  38   0.0000       0.193604         5.2682

MULLIKEN ATOMIC CHARGES
-----------------------
   0 C :   -0.412183
   1 C :   -0.001236
   2 C :   -0.192060
   3 C :    0.223947
   4 O :   -0.458291
   5 C :   -0.192116
   6 C :   -0.001234
   7 C :   -0.412178
   8 C :   -0.235604
   9 H :    0.134293
  10 H :    0.136202
  11 H :    0.128182
  12 H :    0.103976
  13 H :    0.103226
  14 H :    0.319817
  15 H :    0.103985
  16 H :    0.103234
  17 H :    0.134293
  18 H :    0.128183
  19 H :    0.136202
  20 H :    0.149363
Sum of atomic charges:   -0.0000000

LOEWDIN ATOMIC CHARGES
----------------------
   0 C :   -0.272396
   1 C :   -0.190761
   2 C :   -0.165427
   3 C :   -0.313421
   4 O :    0.021932
   5 C :   -0.165431
   6 C :   -0.190761
   7 C :   -0.272396
   8 C :   -0.074151
   9 H :    0.129145
  10 H :    0.129121
  11 H :    0.128363
  12 H :    0.141515
  13 H :    0.122790
  14 H :    0.183298
  15 H :    0.141514
  16 H :    0.122793
  17 H :    0.129145
  18 H :    0.128364
  19 H :    0.129121
  20 H :    0.137646

  Mayer bond orders larger than 0.1
B(  0-C ,  1-C ) :   0.8712 B(  0-C ,  9-H ) :   0.9406 B(  0-C , 10-H ) :   0.9406
B(  0-C , 11-H ) :   0.9415 B(  1-C ,  2-C ) :   0.9496 B(  1-C ,  6-C ) :   0.8234
B(  1-C ,  8-C ) :   0.8483 B(  2-C ,  3-C ) :   0.9561 B(  2-C , 12-H ) :   0.9096
B(  2-C , 13-H ) :   0.9046 B(  3-C ,  4-O ) :   1.0022 B(  3-C ,  5-C ) :   0.9561
B(  3-C ,  8-C ) :   0.8965 B(  4-O , 14-H ) :   0.8349 B(  5-C ,  6-C ) :   0.9496
B(  5-C , 15-H ) :   0.9096 B(  5-C , 16-H ) :   0.9046 B(  6-C ,  7-C ) :   0.8712
B(  6-C ,  8-C ) :   0.8483 B(  7-C , 17-H ) :   0.9406 B(  7-C , 18-H ) :   0.9415
B(  7-C , 19-H ) :   0.9406 B(  8-C , 20-H ) :   0.8927

MP2 TOTAL ENERGY:     -386.376086434 Eh
FINAL SINGLE POINT ENERGY      -386.376086433935

DIPOLE MOMENT
-------------
                                X             Y             Z
Electronic contribution:     -2.87090      -5.50926      -2.47120
Nuclear contribution   :      3.34784       5.70074       2.32971
                        -----------------------------------------
Total Dipole Moment    :      0.47694       0.19149      -0.14149
                        -----------------------------------------
Magnitude (a.u.)       :      0.53307
Magnitude (Debye)      :      1.35495

                             ****ORCA TERMINATED NORMALLY****
TOTAL RUN TIME: 0 days 0 hours 19 minutes 16 seconds 373 msec
