                         Program Version 3.0.3 - RELEASE   -
|  1> ! RI-MP2 RIJK def2-TZVP def2-TZVP/C def2-TZVP/JK TIGHTSCF
|  2> % maxcore 2000
|  3> % mp2 density relaxed end
|  4> *xyz 0 1
|  5>  O        0.0067597254     1.4358491819     0.0485289580
|  6>  C        0.0376803139     0.0220112372     0.0121301540
|  7>  C        0.7748776801    -0.6502766878     1.2008286912
|  8>  C        0.0895060509    -1.9977031432     1.3806747598
|  9>  C       -1.2318259181    -1.9984652349     2.1231884499
| 10>  C       -1.2391798533    -1.9749246891     0.6313785310
| 11>  O       -1.7685227999    -3.1009611275     0.0007603561
| 12>  C       -1.3869507282    -0.6135060101    -0.0412809857
| 13>  O       -2.3271079292     0.2020521118     0.6478352112
| 14>  H       -0.3639362891     1.6781572248     0.9052846743
| 15>  H        0.5589033731    -0.2324012069    -0.9171521140
| 16>  H        1.8439638664    -0.7484248376     0.9960137170
| 17>  H        0.6834332855    -0.0251924387     2.0988304239
| 18>  H        0.6798556233    -2.9064338979     1.4021476120
| 19>  H       -1.5396209444    -2.9385996324     2.5665799582
| 20>  H       -1.5393648798    -1.1072643885     2.6586486314
| 21>  H       -1.2706503866    -3.2571830288    -0.8092192751
| 22>  H       -1.7128826200    -0.7611339038    -1.0804821924
| 23>  H       -2.3405959603     1.0459695115     0.1802027191
| 24> *
| 25>
| 26>                          ****END OF INPUT****

CARTESIAN COORDINATES (ANGSTROEM)
---------------------------------
  O      0.006760    1.435849    0.048529
  C      0.037680    0.022011    0.012130
  C      0.774878   -0.650277    1.200829
  C      0.089506   -1.997703    1.380675
  C     -1.231826   -1.998465    2.123188
  C     -1.239180   -1.974925    0.631379
  O     -1.768523   -3.100961    0.000760
  C     -1.386951   -0.613506   -0.041281
  O     -2.327108    0.202052    0.647835
  H     -0.363936    1.678157    0.905285
  H      0.558903   -0.232401   -0.917152
  H      1.843964   -0.748425    0.996014
  H      0.683433   -0.025192    2.098830
  H      0.679856   -2.906434    1.402148
  H     -1.539621   -2.938600    2.566580
  H     -1.539365   -1.107264    2.658649
  H     -1.270650   -3.257183   -0.809219
  H     -1.712883   -0.761134   -1.080482
  H     -2.340596    1.045970    0.180203

 Total Charge           Charge          ....    0
 Multiplicity           Mult            ....    1
 Number of Electrons    NEL             ....   70
 Basis Dimension        Dim             ....  339

ORBITAL ENERGIES
----------------

  NO   OCC          E(Eh)            E(eV)
   0   2.0000     -20.567780      -559.6778
   1   2.0000     -20.567109      -559.6595
   2   2.0000     -20.562490      -559.5338
   3   2.0000     -11.287683      -307.1535
   4   2.0000     -11.287288      -307.1427
   5   2.0000     -11.286102      -307.1104
   6   2.0000     -11.234726      -305.7124
   7   2.0000     -11.232079      -305.6404
   8   2.0000     -11.224429      -305.4323
   9   2.0000      -1.390432       -37.8356
  10   2.0000      -1.376500       -37.4565
  11   2.0000      -1.354746       -36.8645
  12   2.0000      -1.161083       -31.5947
  13   2.0000      -1.021030       -27.7836
  14   2.0000      -0.961144       -26.1541
  15   2.0000      -0.843042       -22.9403
  16   2.0000      -0.798724       -21.7344
  17   2.0000      -0.776956       -21.1420
  18   2.0000      -0.722286       -19.6544
  19   2.0000      -0.703562       -19.1449
  20   2.0000      -0.679298       -18.4846
  21   2.0000      -0.644972       -17.5506
  22   2.0000      -0.627591       -17.0776
  23   2.0000      -0.615841       -16.7579
  24   2.0000      -0.592140       -16.1129
  25   2.0000      -0.559366       -15.2211
  26   2.0000      -0.550491       -14.9796
  27   2.0000      -0.548534       -14.9264
  28   2.0000      -0.527213       -14.3462
  29   2.0000      -0.517590       -14.0843
  30   2.0000      -0.479897       -13.0586
  31   2.0000      -0.460596       -12.5334
  32   2.0000      -0.426480       -11.6051
  33   2.0000      -0.413268       -11.2456
  34   2.0000      -0.387043       -10.5320
  35   0.0000       0.128033         3.4840
  36   0.0000       0.134883         3.6703
  37   0.0000       0.163063         4.4372
  38   0.0000       0.166238         4.5236
  39   0.0000       0.180671         4.9163

MULLIKEN ATOMIC CHARGES
-----------------------
   0 O :   -0.483876
   1 C :    0.051632
   2 C :   -0.250468
   3 C :   -0.140919
   4 C :   -0.293595
   5 C :    0.202598
   6 O :   -0.453777
   7 C :    0.032830
   8 O :   -0.467004
   9 H :    0.320593
  10 H :    0.103909
  11 H :    0.130367
  12 H :    0.116796
  13 H :    0.134982
  14 H :    0.133961
  15 H :    0.141010
  16 H :    0.320533
  17 H :    0.082676
  18 H :    0.317753
Sum of atomic charges:   -0.0000000

LOEWDIN ATOMIC CHARGES
----------------------
   0 O :   -0.019971
   1 C :   -0.316192
   2 C :   -0.222326
   3 C :   -0.182789
   4 C :   -0.172080
   5 C :   -0.326958
   6 O :    0.029519
   7 C :   -0.289645
   8 O :   -0.015929
   9 H :    0.173648
  10 H :    0.145858
  11 H :    0.140239
  12 H :    0.138738
  13 H :    0.144560
  14 H :    0.144178
  15 H :    0.139280
  16 H :    0.180221
  17 H :    0.135999
  18 H :    0.173652

  Mayer bond orders larger than 0.1
B(  0-O ,  1-C ) :   0.9298 B(  0-O ,  9-H ) :   0.8331 B(  1-C ,  2-C ) :   0.9726
B(  1-C ,  7-C ) :   0.9003 B(  1-C , 10-H ) :   0.9167 B(  2-C ,  3-C ) :   0.8771
B(  2-C , 11-H ) :   0.9283 B(  2-C , 12-H ) :   0.9108 B(  3-C ,  4-C ) :   0.9175
B(  3-C ,  5-C ) :   0.8294 B(  3-C , 13-H ) :   0.9169 B(  4-C ,  5-C ) :   0.8889
B(  4-C , 14-H ) :   0.9235 B(  4-C , 15-H ) :   0.9140 B(  5-C ,  6-O ) :   1.0118
B(  5-C ,  7-C ) :   0.8885 B(  6-O , 16-H ) :   0.8400 B(  7-C ,  8-O ) :   1.0564
B(  7-C , 17-H ) :   0.9528 B(  8-O , 18-H ) :   0.8322

MP2 TOTAL ENERGY:     -459.425544750 Eh
FINAL SINGLE POINT ENERGY      -459.425544750054

DIPOLE MOMENT
-------------
                                X             Y             Z
Electronic contribution:     -2.30234       0.09051      -1.73380
Nuclear contribution   :      2.92253      -0.05643       1.50784
                        -----------------------------------------
Total Dipole Moment    :      0.62019       0.03408      -0.22596
                        -----------------------------------------
Magnitude (a.u.)       :      0.66095
Magnitude (Debye)      :      1.68000

                             ****ORCA TERMINATED NORMALLY****
TOTAL RUN TIME: 0 days 0 hours 16 minutes 13 seconds 53 msec
