                         Program Version 3.0.3 - RELEASE   -
|  1> ! RI-MP2 RIJK def2-TZVP def2-TZVP/C def2-TZVP/JK TIGHTSCF
|  2> % maxcore 2000
|  3> % mp2 density relaxed end
|  4> *xyz 0 1
|  5>  O       -0.0814866282     1.4097028604    -0.0251424527
|  6>  C       -0.0093289462     0.0004808934    -0.0688221512
|  7>  C       -1.3852639141    -0.6323022530    -0.3466040645
|  8>  C       -1.7871002045     0.0448789247    -1.6849290123
|  9>  C       -0.6198720228    -0.7691853821    -2.2698876388
| 10>  C       -0.8409868068    -1.8678695696    -1.2108767195
| 11>  O        0.5639996744    -2.0414424599    -0.9687569690
| 12>  C        0.6398720563    -0.6292490593    -1.3298110065
| 13>  H        0.8040159899     1.7460620297     0.1426825459
| 14>  H        0.4687844956    -0.4111913794     0.8279282347
| 15>  H       -2.0796440642    -0.7428794804     0.4835468594
| 16>  H       -2.7410891870    -0.3325783423    -2.0640145928
| 17>  H       -1.7660049488     1.1331816155    -1.7257578142
| 18>  H       -0.4533409559    -0.9657522782    -3.3273039772
| 19>  H       -1.4266259416    -2.7804252673    -1.3096444016
| 20>  H        1.6252078640    -0.3014639822    -1.6616795796
| 21> *
| 22>
| 23>                          ****END OF INPUT****

CARTESIAN COORDINATES (ANGSTROEM)
---------------------------------
  O     -0.081487    1.409703   -0.025142
  C     -0.009329    0.000481   -0.068822
  C     -1.385264   -0.632302   -0.346604
  C     -1.787100    0.044879   -1.684929
  C     -0.619872   -0.769185   -2.269888
  C     -0.840987   -1.867870   -1.210877
  O      0.564000   -2.041442   -0.968757
  C      0.639872   -0.629249   -1.329811
  H      0.804016    1.746062    0.142683
  H      0.468784   -0.411191    0.827928
  H     -2.079644   -0.742879    0.483547
  H     -2.741089   -0.332578   -2.064015
  H     -1.766005    1.133182   -1.725758
  H     -0.453341   -0.965752   -3.327304
  H     -1.426626   -2.780425   -1.309644
  H      1.625208   -0.301464   -1.661680

 Total Charge           Charge          ....    0
 Multiplicity           Mult            ....    1
 Number of Electrons    NEL             ....   60
 Basis Dimension        Dim             ....  296

ORBITAL ENERGIES
----------------

  NO   OCC          E(Eh)            E(eV)
   0   2.0000     -20.564400      -559.5858
   1   2.0000     -20.551505      -559.2349
   2   2.0000     -11.289500      -307.2029
   3   2.0000     -11.289405      -307.2003
   4   2.0000     -11.284054      -307.0547
   5   2.0000     -11.237451      -305.7866
   6   2.0000     -11.236973      -305.7736
   7   2.0000     -11.224806      -305.4425
   8   2.0000      -1.400683       -38.1145
   9   2.0000      -1.368024       -37.2258
  10   2.0000      -1.145476       -31.1700
  11   2.0000      -0.972943       -26.4751
  12   2.0000      -0.935788       -25.4641
  13   2.0000      -0.881833       -23.9959
  14   2.0000      -0.772906       -21.0318
  15   2.0000      -0.736956       -20.0536
  16   2.0000      -0.715494       -19.4696
  17   2.0000      -0.704513       -19.1708
  18   2.0000      -0.633964       -17.2510
  19   2.0000      -0.631428       -17.1820
  20   2.0000      -0.593520       -16.1505
  21   2.0000      -0.571053       -15.5391
  22   2.0000      -0.540994       -14.7212
  23   2.0000      -0.517667       -14.0864
  24   2.0000      -0.487683       -13.2705
  25   2.0000      -0.478298       -13.0151
  26   2.0000      -0.457727       -12.4554
  27   2.0000      -0.446831       -12.1589
  28   2.0000      -0.413996       -11.2654
  29   2.0000      -0.393028       -10.6948
  30   0.0000       0.130773         3.5585
  31   0.0000       0.157382         4.2826
  32   0.0000       0.167289         4.5522
  33   0.0000       0.178479         4.8567
  34   0.0000       0.195173         5.3109

MULLIKEN ATOMIC CHARGES
-----------------------
   0 O :   -0.463365
   1 C :   -0.023333
   2 C :   -0.016908
   3 C :   -0.267494
   4 C :   -0.120344
   5 C :   -0.048518
   6 O :   -0.321628
   7 C :    0.050127
   8 H :    0.321109
   9 H :    0.101062
  10 H :    0.135775
  11 H :    0.119937
  12 H :    0.138715
  13 H :    0.128521
  14 H :    0.126928
  15 H :    0.139415
Sum of atomic charges:    0.0000000

LOEWDIN ATOMIC CHARGES
----------------------
   0 O :   -0.007292
   1 C :   -0.306964
   2 C :   -0.165674
   3 C :   -0.205239
   4 C :   -0.163896
   5 C :   -0.210466
   6 O :    0.158321
   7 C :   -0.211699
   8 H :    0.177511
   9 H :    0.137414
  10 H :    0.133294
  11 H :    0.140002
  12 H :    0.131979
  13 H :    0.134053
  14 H :    0.130224
  15 H :    0.128432

  Mayer bond orders larger than 0.1
B(  0-O ,  1-C ) :   1.0992 B(  0-O ,  8-H ) :   0.8427 B(  1-C ,  2-C ) :   0.8903
B(  1-C ,  7-C ) :   0.8863 B(  1-C ,  9-H ) :   0.9593 B(  2-C ,  3-C ) :   0.9245
B(  2-C ,  5-C ) :   0.8469 B(  2-C , 10-H ) :   0.9089 B(  3-C ,  4-C ) :   0.9536
B(  3-C , 11-H ) :   0.9312 B(  3-C , 12-H ) :   0.9058 B(  4-C ,  5-C ) :   0.9356
B(  4-C ,  7-C ) :   0.8720 B(  4-C , 13-H ) :   0.9216 B(  5-C ,  6-O ) :   0.9584
B(  5-C , 14-H ) :   0.9143 B(  6-O ,  7-C ) :   0.8894 B(  7-C , 15-H ) :   0.9012

MP2 TOTAL ENERGY:     -383.061527434 Eh
FINAL SINGLE POINT ENERGY      -383.061527434086

DIPOLE MOMENT
-------------
                                X             Y             Z
Electronic contribution:      2.18326      -1.18953       0.75266
Nuclear contribution   :     -2.12812       1.46891      -0.88363
                        -----------------------------------------
Total Dipole Moment    :      0.05513       0.27937      -0.13098
                        -----------------------------------------
Magnitude (a.u.)       :      0.31344
Magnitude (Debye)      :      0.79670

                             ****ORCA TERMINATED NORMALLY****
TOTAL RUN TIME: 0 days 0 hours 11 minutes 51 seconds 825 msec
