                         Program Version 3.0.3 - RELEASE   -
|  1> ! RI-MP2 RIJK def2-TZVP def2-TZVP/C def2-TZVP/JK TIGHTSCF
|  2> % maxcore 2000
|  3> % mp2 density relaxed end
|  4> *xyz 0 1
|  5>  N       -0.0006739516     1.5024987806    -0.0586378300
|  6>  C        0.0235688497     0.0513058819    -0.0378282039
|  7>  C        0.9682226315    -0.5466949225    -0.9936431215
|  8>  N        1.7339766878    -0.9285326094    -1.7717021998
|  9>  C       -0.0281700186    -0.5986251816     1.3587982220
| 10>  C       -1.5305730086    -0.2564632551     1.5754607972
| 11>  C       -1.7890222263    -1.7279683507     1.8886173769
| 12>  N       -0.7276446933    -1.8630282073     0.7977434994
| 13>  C       -1.3495996631    -0.6390777292     0.0781016028
| 14>  H        0.9259719889     1.8692284514     0.1419387343
| 15>  H       -0.2409979299     1.8335182459    -0.9892635751
| 16>  H        0.7690283985    -0.6806730244     2.0986073985
| 17>  H       -1.9587435031     0.6580136654     1.9883611289
| 18>  H       -1.4643832217    -2.1162979841     2.8589243687
| 19>  H       -2.7561300746    -2.1558465558     1.6070000591
| 20>  H       -2.1106557556    -0.7688294251    -0.6923086377
| 21> *
| 22>
| 23>                          ****END OF INPUT****

CARTESIAN COORDINATES (ANGSTROEM)
---------------------------------
  N     -0.000674    1.502499   -0.058638
  C      0.023569    0.051306   -0.037828
  C      0.968223   -0.546695   -0.993643
  N      1.733977   -0.928533   -1.771702
  C     -0.028170   -0.598625    1.358798
  C     -1.530573   -0.256463    1.575461
  C     -1.789022   -1.727968    1.888617
  N     -0.727645   -1.863028    0.797743
  C     -1.349600   -0.639078    0.078102
  H      0.925972    1.869228    0.141939
  H     -0.240998    1.833518   -0.989264
  H      0.769028   -0.680673    2.098607
  H     -1.958744    0.658014    1.988361
  H     -1.464383   -2.116298    2.858924
  H     -2.756130   -2.155847    1.607000
  H     -2.110656   -0.768829   -0.692309

 Total Charge           Charge          ....    0
 Multiplicity           Mult            ....    1
 Number of Electrons    NEL             ....   64
 Basis Dimension        Dim             ....  321

ORBITAL ENERGIES
----------------

  NO   OCC          E(Eh)            E(eV)
   0   2.0000     -15.586056      -424.1181
   1   2.0000     -15.578208      -423.9046
   2   2.0000     -15.570274      -423.6887
   3   2.0000     -11.323879      -308.1384
   4   2.0000     -11.299720      -307.4810
   5   2.0000     -11.299661      -307.4794
   6   2.0000     -11.271358      -306.7092
   7   2.0000     -11.269602      -306.6615
   8   2.0000     -11.268233      -306.6242
   9   2.0000      -1.348456       -36.6934
  10   2.0000      -1.230753       -33.4905
  11   2.0000      -1.202037       -32.7091
  12   2.0000      -1.038595       -28.2616
  13   2.0000      -0.954870       -25.9833
  14   2.0000      -0.908998       -24.7351
  15   2.0000      -0.888026       -24.1644
  16   2.0000      -0.751288       -20.4436
  17   2.0000      -0.722307       -19.6550
  18   2.0000      -0.692934       -18.8557
  19   2.0000      -0.678675       -18.4677
  20   2.0000      -0.659666       -17.9504
  21   2.0000      -0.623221       -16.9587
  22   2.0000      -0.564376       -15.3575
  23   2.0000      -0.526579       -14.3290
  24   2.0000      -0.522573       -14.2199
  25   2.0000      -0.505119       -13.7450
  26   2.0000      -0.487166       -13.2565
  27   2.0000      -0.463781       -12.6201
  28   2.0000      -0.452703       -12.3187
  29   2.0000      -0.440793       -11.9946
  30   2.0000      -0.436197       -11.8695
  31   2.0000      -0.396039       -10.7768
  32   0.0000       0.115669         3.1475
  33   0.0000       0.144296         3.9265
  34   0.0000       0.149202         4.0600
  35   0.0000       0.158286         4.3072
  36   0.0000       0.188410         5.1269

MULLIKEN ATOMIC CHARGES
-----------------------
   0 N :   -0.557544
   1 C :    0.259141
   2 C :   -0.261760
   3 N :   -0.043483
   4 C :   -0.076741
   5 C :   -0.063652
   6 C :   -0.146730
   7 N :   -0.203016
   8 C :   -0.076726
   9 H :    0.246160
  10 H :    0.246162
  11 H :    0.152012
  12 H :    0.127472
  13 H :    0.123346
  14 H :    0.123346
  15 H :    0.152013
Sum of atomic charges:    0.0000000

LOEWDIN ATOMIC CHARGES
----------------------
   0 N :   -0.088077
   1 C :   -0.306221
   2 C :   -0.154705
   3 N :    0.068293
   4 C :   -0.124577
   5 C :   -0.159612
   6 C :   -0.231788
   7 N :    0.141286
   8 C :   -0.124574
   9 H :    0.166772
  10 H :    0.166772
  11 H :    0.133758
  12 H :    0.128556
  13 H :    0.125179
  14 H :    0.125179
  15 H :    0.133758

  Mayer bond orders larger than 0.1
B(  0-N ,  1-C ) :   0.9580 B(  0-N ,  9-H ) :   0.8854 B(  0-N , 10-H ) :   0.8854
B(  1-C ,  2-C ) :   0.9647 B(  1-C ,  4-C ) :   0.8804 B(  1-C ,  8-C ) :   0.8804
B(  2-C ,  3-N ) :   2.8782 B(  4-C ,  5-C ) :   0.9574 B(  4-C ,  7-N ) :   0.9740
B(  4-C , 11-H ) :   0.8693 B(  5-C ,  6-C ) :   0.9518 B(  5-C ,  8-C ) :   0.9574
B(  5-C , 12-H ) :   0.9128 B(  6-C ,  7-N ) :   0.9134 B(  6-C , 13-H ) :   0.9263
B(  6-C , 14-H ) :   0.9263 B(  7-N ,  8-C ) :   0.9740 B(  8-C , 15-H ) :   0.8693

MP2 TOTAL ENERGY:     -396.144191208 Eh
FINAL SINGLE POINT ENERGY      -396.144191207747

DIPOLE MOMENT
-------------
                                X             Y             Z
Electronic contribution:      3.38784      -1.16804      -3.45879
Nuclear contribution   :     -4.37996       2.19864       4.44998
                        -----------------------------------------
Total Dipole Moment    :     -0.99212       1.03060       0.99119
                        -----------------------------------------
Magnitude (a.u.)       :      1.74037
Magnitude (Debye)      :      4.42367

                             ****ORCA TERMINATED NORMALLY****
TOTAL RUN TIME: 0 days 0 hours 17 minutes 6 seconds 548 msec
