                         Program Version 3.0.3 - RELEASE   -
|  1> ! RI-MP2 RIJK def2-TZVP def2-TZVP/C def2-TZVP/JK TIGHTSCF
|  2> % maxcore 2000
|  3> % mp2 density relaxed end
|  4> *xyz 0 1
|  5>  C       -0.1718100134     1.5184293359     0.0691219222
|  6>  C        0.0963803532     0.0423263896    -0.0049090797
|  7>  N       -0.7460146713    -0.9451495463     0.7098605723
|  8>  C        0.6756486729    -0.7958272254     1.1069087439
|  9>  C        1.5291620604    -1.8726688792     0.4916057187
| 10>  O        2.4183211668    -2.4675502909     1.0414180041
| 11>  C        1.1334745475    -1.9663171419    -0.9859125775
| 12>  C        0.5944842798    -0.5683069818    -1.2998683471
| 13>  O        0.6402130610     0.0051859728    -2.3565447691
| 14>  H        0.7046072866     2.0873400021    -0.2532312517
| 15>  H       -1.0004270990     1.7887353508    -0.5921974146
| 16>  H       -0.4266074550     1.8212481066     1.0894303777
| 17>  H       -1.3168963525    -0.4395920835     1.3865572215
| 18>  H        0.9332687479    -0.3826656850     2.0756421897
| 19>  H        1.9595577185    -2.2618370443    -1.6328922653
| 20>  H        0.3196935166    -2.6932014595    -1.0912757752
| 21> *
| 22>
| 23>                          ****END OF INPUT****

CARTESIAN COORDINATES (ANGSTROEM)
---------------------------------
  C     -0.171810    1.518429    0.069122
  C      0.096380    0.042326   -0.004909
  N     -0.746015   -0.945150    0.709861
  C      0.675649   -0.795827    1.106909
  C      1.529162   -1.872669    0.491606
  O      2.418321   -2.467550    1.041418
  C      1.133475   -1.966317   -0.985913
  C      0.594484   -0.568307   -1.299868
  O      0.640213    0.005186   -2.356545
  H      0.704607    2.087340   -0.253231
  H     -1.000427    1.788735   -0.592197
  H     -0.426607    1.821248    1.089430
  H     -1.316896   -0.439592    1.386557
  H      0.933269   -0.382666    2.075642
  H      1.959558   -2.261837   -1.632892
  H      0.319694   -2.693201   -1.091276

 Total Charge           Charge          ....    0
 Multiplicity           Mult            ....    1
 Number of Electrons    NEL             ....   66
 Basis Dimension        Dim             ....  321

ORBITAL ENERGIES
----------------

  NO   OCC          E(Eh)            E(eV)
   0   2.0000     -20.568043      -559.6849
   1   2.0000     -20.566287      -559.6371
   2   2.0000     -15.606186      -424.6659
   3   2.0000     -11.353036      -308.9318
   4   2.0000     -11.352790      -308.9251
   5   2.0000     -11.306679      -307.6704
   6   2.0000     -11.298559      -307.4494
   7   2.0000     -11.258373      -306.3559
   8   2.0000     -11.251055      -306.1568
   9   2.0000      -1.415113       -38.5072
  10   2.0000      -1.408478       -38.3266
  11   2.0000      -1.313382       -35.7389
  12   2.0000      -1.080239       -29.3948
  13   2.0000      -1.028968       -27.9996
  14   2.0000      -0.945978       -25.7414
  15   2.0000      -0.896756       -24.4020
  16   2.0000      -0.773902       -21.0589
  17   2.0000      -0.753254       -20.4971
  18   2.0000      -0.713427       -19.4133
  19   2.0000      -0.670268       -18.2389
  20   2.0000      -0.661442       -17.9987
  21   2.0000      -0.649624       -17.6772
  22   2.0000      -0.617505       -16.8032
  23   2.0000      -0.608248       -16.5513
  24   2.0000      -0.600086       -16.3292
  25   2.0000      -0.571492       -15.5511
  26   2.0000      -0.550820       -14.9886
  27   2.0000      -0.530487       -14.4353
  28   2.0000      -0.510323       -13.8866
  29   2.0000      -0.501851       -13.6560
  30   2.0000      -0.467918       -12.7327
  31   2.0000      -0.414588       -11.2815
  32   2.0000      -0.403678       -10.9846
  33   0.0000       0.107419         2.9230
  34   0.0000       0.121627         3.3097
  35   0.0000       0.131052         3.5661
  36   0.0000       0.155164         4.2222
  37   0.0000       0.161537         4.3957

MULLIKEN ATOMIC CHARGES
-----------------------
   0 C :   -0.375991
   1 C :    0.159679
   2 N :   -0.374802
   3 C :   -0.077260
   4 C :    0.103151
   5 O :   -0.255939
   6 C :   -0.137816
   7 C :    0.073992
   8 O :   -0.259963
   9 H :    0.151104
  10 H :    0.157278
  11 H :    0.131658
  12 H :    0.229849
  13 H :    0.156512
  14 H :    0.159174
  15 H :    0.159375
Sum of atomic charges:    0.0000000

LOEWDIN ATOMIC CHARGES
----------------------
   0 C :   -0.262294
   1 C :   -0.259431
   2 N :    0.049472
   3 C :   -0.178751
   4 C :   -0.303546
   5 O :    0.167056
   6 C :   -0.176759
   7 C :   -0.277187
   8 O :    0.171335
   9 H :    0.140782
  10 H :    0.139761
  11 H :    0.130982
  12 H :    0.178957
  13 H :    0.147446
  14 H :    0.157137
  15 H :    0.175039

  Mayer bond orders larger than 0.1
B(  0-C ,  1-C ) :   0.9115 B(  0-C ,  9-H ) :   0.9180 B(  0-C , 10-H ) :   0.9337
B(  0-C , 11-H ) :   0.9326 B(  1-C ,  2-N ) :   0.8567 B(  1-C ,  3-C ) :   0.7424
B(  1-C ,  7-C ) :   0.8798 B(  2-N ,  3-C ) :   0.9496 B(  2-N , 12-H ) :   0.8632
B(  3-C ,  4-C ) :   0.8858 B(  3-C ,  6-C ) :  -0.1253 B(  3-C , 13-H ) :   0.9138
B(  4-C ,  5-O ) :   2.0360 B(  4-C ,  6-C ) :   0.9255 B(  6-C ,  7-C ) :   0.9243
B(  6-C , 14-H ) :   0.8943 B(  6-C , 15-H ) :   0.8741 B(  7-C ,  8-O ) :   2.0380

MP2 TOTAL ENERGY:     -437.183399323 Eh
FINAL SINGLE POINT ENERGY      -437.183399322933

DIPOLE MOMENT
-------------
                                X             Y             Z
Electronic contribution:      2.68480      -4.20537      -1.11911
Nuclear contribution   :     -3.39584       4.97322       1.83398
                        -----------------------------------------
Total Dipole Moment    :     -0.71105       0.76785       0.71487
                        -----------------------------------------
Magnitude (a.u.)       :      1.26737
Magnitude (Debye)      :      3.22140

                             ****ORCA TERMINATED NORMALLY****
TOTAL RUN TIME: 0 days 0 hours 16 minutes 55 seconds 332 msec
