                         Program Version 3.0.3 - RELEASE   -
|  1> ! RI-MP2 RIJK def2-TZVP def2-TZVP/C def2-TZVP/JK TIGHTSCF
|  2> % maxcore 2000
|  3> % mp2 density relaxed end
|  4> *xyz 0 1
|  5>  C       -0.1461355167     1.3672251273     0.6651666322
|  6>  C       -0.0712624163    -0.1058821364     0.2532017869
|  7>  C       -1.4078973873    -0.6448148139    -0.2216864603
|  8>  C       -1.5747953456    -2.1691929342    -0.4101042091
|  9>  C       -2.7506745593    -2.0213122376     0.5770066970
| 10>  C       -2.7379715366    -2.8561545578     1.8558270877
| 11>  C       -3.7740901200    -2.3771168826     2.8519910528
| 12>  O       -4.6219805250    -3.0777082105     3.3439012145
| 13>  O       -2.4192039132    -0.6353308005     0.8232443930
| 14>  H        0.8181692774     1.7233589800     1.0389011658
| 15>  H       -0.4324500038     2.0011877319    -0.1811645474
| 16>  H       -0.8908476512     1.5052816281     1.4541779057
| 17>  H        0.6589231181    -0.2413906233    -0.5560187146
| 18>  H        0.2734688115    -0.7154268800     1.0977718863
| 19>  H       -1.7610186460    -0.0641943819    -1.0867209780
| 20>  H       -1.8209688469    -2.5184269474    -1.4134272845
| 21>  H       -0.7393593973    -2.7542697285    -0.0166563889
| 22>  H       -3.7337643552    -2.1007403210     0.0915228606
| 23>  H       -2.9221933972    -3.9115909509     1.6318615053
| 24>  H       -1.7477568664    -2.7575098857     2.3210674365
| 25>  H       -3.6988274030    -1.2973736251     3.1041113486
| 26> *
| 27>
| 28>                          ****END OF INPUT****

CARTESIAN COORDINATES (ANGSTROEM)
---------------------------------
  C     -0.146136    1.367225    0.665167
  C     -0.071262   -0.105882    0.253202
  C     -1.407897   -0.644815   -0.221686
  C     -1.574795   -2.169193   -0.410104
  C     -2.750675   -2.021312    0.577007
  C     -2.737972   -2.856155    1.855827
  C     -3.774090   -2.377117    2.851991
  O     -4.621981   -3.077708    3.343901
  O     -2.419204   -0.635331    0.823244
  H      0.818169    1.723359    1.038901
  H     -0.432450    2.001188   -0.181165
  H     -0.890848    1.505282    1.454178
  H      0.658923   -0.241391   -0.556019
  H      0.273469   -0.715427    1.097772
  H     -1.761019   -0.064194   -1.086721
  H     -1.820969   -2.518427   -1.413427
  H     -0.739359   -2.754270   -0.016656
  H     -3.733764   -2.100740    0.091523
  H     -2.922193   -3.911591    1.631862
  H     -1.747757   -2.757510    2.321067
  H     -3.698827   -1.297374    3.104111

 Total Charge           Charge          ....    0
 Multiplicity           Mult            ....    1
 Number of Electrons    NEL             ....   70
 Basis Dimension        Dim             ....  351

ORBITAL ENERGIES
----------------

  NO   OCC          E(Eh)            E(eV)
   0   2.0000     -20.556210      -559.3629
   1   2.0000     -20.553852      -559.2988
   2   2.0000     -11.327755      -308.2439
   3   2.0000     -11.300394      -307.4993
   4   2.0000     -11.291553      -307.2588
   5   2.0000     -11.242708      -305.9296
   6   2.0000     -11.240215      -305.8618
   7   2.0000     -11.231034      -305.6120
   8   2.0000     -11.218276      -305.2648
   9   2.0000      -1.392938       -37.9038
  10   2.0000      -1.388033       -37.7703
  11   2.0000      -1.069170       -29.0936
  12   2.0000      -1.057455       -28.7748
  13   2.0000      -1.001333       -27.2477
  14   2.0000      -0.909303       -24.7434
  15   2.0000      -0.832401       -22.6508
  16   2.0000      -0.792918       -21.5764
  17   2.0000      -0.769898       -20.9500
  18   2.0000      -0.698287       -19.0014
  19   2.0000      -0.674469       -18.3532
  20   2.0000      -0.652961       -17.7680
  21   2.0000      -0.629919       -17.1410
  22   2.0000      -0.627197       -17.0669
  23   2.0000      -0.584807       -15.9134
  24   2.0000      -0.579486       -15.7686
  25   2.0000      -0.558723       -15.2036
  26   2.0000      -0.549257       -14.9460
  27   2.0000      -0.536700       -14.6043
  28   2.0000      -0.512240       -13.9388
  29   2.0000      -0.504676       -13.7329
  30   2.0000      -0.491891       -13.3850
  31   2.0000      -0.474866       -12.9218
  32   2.0000      -0.456998       -12.4355
  33   2.0000      -0.421204       -11.4615
  34   2.0000      -0.410738       -11.1767
  35   0.0000       0.128120         3.4863
  36   0.0000       0.137429         3.7396
  37   0.0000       0.146502         3.9865
  38   0.0000       0.148341         4.0366
  39   0.0000       0.165158         4.4942

MULLIKEN ATOMIC CHARGES
-----------------------
   0 C :   -0.398570
   1 C :   -0.207131
   2 C :    0.090559
   3 C :   -0.259334
   4 C :    0.069860
   5 C :   -0.181046
   6 C :    0.086558
   7 O :   -0.266700
   8 O :   -0.342922
   9 H :    0.134652
  10 H :    0.120683
  11 H :    0.145670
  12 H :    0.112245
  13 H :    0.103563
  14 H :    0.085739
  15 H :    0.138556
  16 H :    0.123556
  17 H :    0.099225
  18 H :    0.123179
  19 H :    0.122765
  20 H :    0.098893
Sum of atomic charges:   -0.0000000

LOEWDIN ATOMIC CHARGES
----------------------
   0 C :   -0.314701
   1 C :   -0.281253
   2 C :   -0.277877
   3 C :   -0.201585
   4 C :   -0.280586
   5 C :   -0.247542
   6 C :   -0.288510
   7 O :    0.128556
   8 O :    0.150644
   9 H :    0.121483
  10 H :    0.121382
  11 H :    0.127105
  12 H :    0.141742
  13 H :    0.137462
  14 H :    0.136946
  15 H :    0.131252
  16 H :    0.136990
  17 H :    0.139158
  18 H :    0.149983
  19 H :    0.152862
  20 H :    0.116488

  Mayer bond orders larger than 0.1
B(  0-C ,  1-C ) :   0.9270 B(  0-C ,  9-H ) :   0.9395 B(  0-C , 10-H ) :   0.9360
B(  0-C , 11-H ) :   0.9363 B(  1-C ,  2-C ) :   0.9370 B(  1-C , 12-H ) :   0.9270
B(  1-C , 13-H ) :   0.9263 B(  2-C ,  3-C ) :   0.9215 B(  2-C ,  8-O ) :   0.9130
B(  2-C , 14-H ) :   0.9176 B(  3-C ,  4-C ) :   0.9180 B(  3-C , 15-H ) :   0.9294
B(  3-C , 16-H ) :   0.9341 B(  4-C ,  5-C ) :   0.9056 B(  4-C ,  8-O ) :   0.9171
B(  4-C , 17-H ) :   0.9156 B(  5-C ,  6-C ) :   0.8903 B(  5-C , 18-H ) :   0.9073
B(  5-C , 19-H ) :   0.9069 B(  6-C ,  7-O ) :   1.9868 B(  6-C , 20-H ) :   0.9356

MP2 TOTAL ENERGY:     -423.513644279 Eh
FINAL SINGLE POINT ENERGY      -423.513644278814

DIPOLE MOMENT
-------------
                                X             Y             Z
Electronic contribution:     -8.28263      -4.94235       4.35428
Nuclear contribution   :      9.41214       5.03804      -5.34500
                        -----------------------------------------
Total Dipole Moment    :      1.12951       0.09569      -0.99072
                        -----------------------------------------
Magnitude (a.u.)       :      1.50548
Magnitude (Debye)      :      3.82662

                             ****ORCA TERMINATED NORMALLY****
TOTAL RUN TIME: 0 days 0 hours 30 minutes 3 seconds 545 msec
