                         Program Version 3.0.3 - RELEASE   -
|  1> ! RI-MP2 RIJK def2-TZVP def2-TZVP/C def2-TZVP/JK TIGHTSCF
|  2> % maxcore 2000
|  3> % mp2 density relaxed end
|  4> *xyz 0 1
|  5>  O        0.2322468175     1.3080356902    -0.0331366374
|  6>  C        0.1142681741    -0.0215014921    -0.0492785406
|  7>  N        0.2677947056    -0.7122718454    -1.1644788274
|  8>  N        0.0787248664    -1.9899113219    -0.7137926656
|  9>  C        0.1064940657    -3.0943540411    -1.6447379832
| 10>  C       -1.1626023943    -3.2760295075    -2.3652283542
| 11>  N       -2.1569852666    -3.4432917662    -2.9270158708
| 12>  C       -0.1802496436    -1.9821410663     0.6078947403
| 13>  N       -0.1589047488    -0.7473311300     1.0713390252
| 14>  H        0.0763604924     1.5917236836     0.8760154694
| 15>  H        0.9087208192    -2.9148494176    -2.3654657782
| 16>  H        0.3398122711    -4.0115636976    -1.0962127320
| 17>  H       -0.3683229187    -2.8794109082     1.1788129244
| 18> *
| 19>
| 20>                          ****END OF INPUT****

CARTESIAN COORDINATES (ANGSTROEM)
---------------------------------
  O      0.232247    1.308036   -0.033137
  C      0.114268   -0.021501   -0.049279
  N      0.267795   -0.712272   -1.164479
  N      0.078725   -1.989911   -0.713793
  C      0.106494   -3.094354   -1.644738
  C     -1.162602   -3.276030   -2.365228
  N     -2.156985   -3.443292   -2.927016
  C     -0.180250   -1.982141    0.607895
  N     -0.158905   -0.747331    1.071339
  H      0.076360    1.591724    0.876015
  H      0.908721   -2.914849   -2.365466
  H      0.339812   -4.011564   -1.096213
  H     -0.368323   -2.879411    1.178813

 Total Charge           Charge          ....    0
 Multiplicity           Mult            ....    1
 Number of Electrons    NEL             ....   64
 Basis Dimension        Dim             ....  303

ORBITAL ENERGIES
----------------

  NO   OCC          E(Eh)            E(eV)
   0   2.0000     -20.612667      -560.8992
   1   2.0000     -15.678306      -426.6284
   2   2.0000     -15.598387      -424.4537
   3   2.0000     -15.593163      -424.3115
   4   2.0000     -15.579746      -423.9464
   5   2.0000     -11.368638      -309.3564
   6   2.0000     -11.355776      -309.0064
   7   2.0000     -11.348646      -308.8123
   8   2.0000     -11.293037      -307.2992
   9   2.0000      -1.465353       -39.8743
  10   2.0000      -1.413904       -38.4743
  11   2.0000      -1.247938       -33.9581
  12   2.0000      -1.226834       -33.3838
  13   2.0000      -1.155139       -31.4329
  14   2.0000      -1.036233       -28.1973
  15   2.0000      -0.880673       -23.9643
  16   2.0000      -0.848392       -23.0859
  17   2.0000      -0.789251       -21.4766
  18   2.0000      -0.747768       -20.3478
  19   2.0000      -0.710819       -19.3424
  20   2.0000      -0.687770       -18.7152
  21   2.0000      -0.658732       -17.9250
  22   2.0000      -0.641748       -17.4628
  23   2.0000      -0.589251       -16.0343
  24   2.0000      -0.586248       -15.9526
  25   2.0000      -0.567224       -15.4350
  26   2.0000      -0.531307       -14.4576
  27   2.0000      -0.489949       -13.3322
  28   2.0000      -0.482420       -13.1273
  29   2.0000      -0.470957       -12.8154
  30   2.0000      -0.434056       -11.8113
  31   2.0000      -0.373742       -10.1700
  32   0.0000       0.104694         2.8489
  33   0.0000       0.118840         3.2338
  34   0.0000       0.143658         3.9091
  35   0.0000       0.148332         4.0363
  36   0.0000       0.152825         4.1586

MULLIKEN ATOMIC CHARGES
-----------------------
   0 O :   -0.407013
   1 C :    0.299934
   2 N :   -0.278918
   3 N :    0.103670
   4 C :   -0.074368
   5 C :   -0.156267
   6 N :   -0.045107
   7 C :    0.005993
   8 N :   -0.341651
   9 H :    0.352355
  10 H :    0.191908
  11 H :    0.185408
  12 H :    0.164057
Sum of atomic charges:   -0.0000000

LOEWDIN ATOMIC CHARGES
----------------------
   0 O :    0.097772
   1 C :   -0.503617
   2 N :    0.059807
   3 N :    0.191481
   4 C :   -0.227007
   5 C :   -0.179646
   6 N :    0.085551
   7 C :   -0.294183
   8 N :    0.080107
   9 H :    0.207439
  10 H :    0.172780
  11 H :    0.169053
  12 H :    0.140463

  Mayer bond orders larger than 0.1
B(  0-O ,  1-C ) :   1.1382 B(  0-O ,  9-H ) :   0.8133 B(  1-C ,  2-N ) :   1.5264
B(  1-C ,  8-N ) :   1.2883 B(  2-N ,  3-N ) :   0.9685 B(  2-N ,  7-C ) :   0.1000
B(  3-N ,  4-C ) :   0.8910 B(  3-N ,  7-C ) :   1.2360 B(  4-C ,  5-C ) :   0.9059
B(  4-C , 10-H ) :   0.9039 B(  4-C , 11-H ) :   0.9158 B(  5-C ,  6-N ) :   2.8324
B(  7-C ,  8-N ) :   1.4942 B(  7-C , 12-H ) :   0.9154

MP2 TOTAL ENERGY:     -448.221762837 Eh
FINAL SINGLE POINT ENERGY      -448.221762836673

DIPOLE MOMENT
-------------
                                X             Y             Z
Electronic contribution:     -1.00740       1.21828      -0.66746
Nuclear contribution   :      2.00097      -2.09172       1.58142
                        -----------------------------------------
Total Dipole Moment    :      0.99357      -0.87344       0.91396
                        -----------------------------------------
Magnitude (a.u.)       :      1.60792
Magnitude (Debye)      :      4.08700

                             ****ORCA TERMINATED NORMALLY****
TOTAL RUN TIME: 0 days 0 hours 13 minutes 24 seconds 103 msec
