                         Program Version 3.0.3 - RELEASE   -
|  1> ! RI-MP2 RIJK def2-TZVP def2-TZVP/C def2-TZVP/JK TIGHTSCF
|  2> % maxcore 2000
|  3> % mp2 density relaxed end
|  4> *xyz 0 1
|  5>  C       -0.2756362719     1.7266681750     0.2043555587
|  6>  C        0.0002515809     0.2356231467    -0.0562436889
|  7>  C        0.7949023456    -0.4443868413     1.0588330612
|  8>  C        2.2687134454    -0.1270352001     1.0260510413
|  9>  O        2.8298785169     0.5160182349     0.1741506229
| 10>  C        3.0440614665    -0.6909408660     2.1544668181
| 11>  N        3.6394781526    -1.1321139465     3.0419896436
| 12>  C       -1.2945498740    -0.5069365830    -0.3344081014
| 13>  O       -1.6090166714    -1.5592354399     0.1591544230
| 14>  H        0.6635389353     2.2804330567     0.2685880552
| 15>  H       -0.8667776875     2.1633983649    -0.6066650653
| 16>  H       -0.8280179493     1.8687834036     1.1393434422
| 17>  H        0.5818680472     0.1711704285    -0.9883984775
| 18>  H        0.4070098243    -0.1813214121     2.0518879007
| 19>  H        0.6800731167    -1.5355298782     1.0011060803
| 20>  H       -1.9597910573     0.0060416168    -1.0653888440
| 21> *
| 22>
| 23>                          ****END OF INPUT****

CARTESIAN COORDINATES (ANGSTROEM)
---------------------------------
  C     -0.275636    1.726668    0.204356
  C      0.000252    0.235623   -0.056244
  C      0.794902   -0.444387    1.058833
  C      2.268713   -0.127035    1.026051
  O      2.829879    0.516018    0.174151
  C      3.044061   -0.690941    2.154467
  N      3.639478   -1.132114    3.041990
  C     -1.294550   -0.506937   -0.334408
  O     -1.609017   -1.559235    0.159154
  H      0.663539    2.280433    0.268588
  H     -0.866778    2.163398   -0.606665
  H     -0.828018    1.868783    1.139343
  H      0.581868    0.171170   -0.988398
  H      0.407010   -0.181321    2.051888
  H      0.680073   -1.535530    1.001106
  H     -1.959791    0.006042   -1.065389

 Total Charge           Charge          ....    0
 Multiplicity           Mult            ....    1
 Number of Electrons    NEL             ....   66
 Basis Dimension        Dim             ....  321

ORBITAL ENERGIES
----------------

  NO   OCC          E(Eh)            E(eV)
   0   2.0000     -20.607862      -560.7684
   1   2.0000     -20.578043      -559.9570
   2   2.0000     -15.614496      -424.8920
   3   2.0000     -11.406382      -310.3834
   4   2.0000     -11.352093      -308.9062
   5   2.0000     -11.301780      -307.5371
   6   2.0000     -11.278561      -306.9053
   7   2.0000     -11.276123      -306.8389
   8   2.0000     -11.251807      -306.1772
   9   2.0000      -1.451743       -39.5039
  10   2.0000      -1.418163       -38.5902
  11   2.0000      -1.250405       -34.0253
  12   2.0000      -1.132011       -30.8036
  13   2.0000      -1.035593       -28.1799
  14   2.0000      -0.932670       -25.3792
  15   2.0000      -0.896105       -24.3843
  16   2.0000      -0.787436       -21.4272
  17   2.0000      -0.750959       -20.4346
  18   2.0000      -0.704669       -19.1750
  19   2.0000      -0.676369       -18.4049
  20   2.0000      -0.670162       -18.2360
  21   2.0000      -0.641711       -17.4619
  22   2.0000      -0.613488       -16.6939
  23   2.0000      -0.600068       -16.3287
  24   2.0000      -0.583285       -15.8720
  25   2.0000      -0.562077       -15.2949
  26   2.0000      -0.552747       -15.0410
  27   2.0000      -0.526208       -14.3188
  28   2.0000      -0.509471       -13.8634
  29   2.0000      -0.502073       -13.6621
  30   2.0000      -0.494224       -13.4485
  31   2.0000      -0.487038       -13.2530
  32   2.0000      -0.440079       -11.9752
  33   0.0000       0.056611         1.5405
  34   0.0000       0.107213         2.9174
  35   0.0000       0.126529         3.4430
  36   0.0000       0.138321         3.7639
  37   0.0000       0.154605         4.2070

MULLIKEN ATOMIC CHARGES
-----------------------
   0 C :   -0.450175
   1 C :    0.016927
   2 C :   -0.312371
   3 C :    0.313019
   4 O :   -0.245036
   5 C :   -0.150657
   6 N :   -0.033719
   7 C :    0.096558
   8 O :   -0.265037
   9 H :    0.164391
  10 H :    0.144292
  11 H :    0.137749
  12 H :    0.129776
  13 H :    0.164428
  14 H :    0.194097
  15 H :    0.095757
Sum of atomic charges:    0.0000000

LOEWDIN ATOMIC CHARGES
----------------------
   0 C :   -0.280268
   1 C :   -0.276823
   2 C :   -0.201210
   3 C :   -0.317741
   4 O :    0.205839
   5 C :   -0.133329
   6 N :    0.102512
   7 C :   -0.268595
   8 O :    0.139607
   9 H :    0.132977
  10 H :    0.129150
  11 H :    0.127635
  12 H :    0.177217
  13 H :    0.168214
  14 H :    0.175936
  15 H :    0.118878

  Mayer bond orders larger than 0.1
B(  0-C ,  1-C ) :   0.9009 B(  0-C ,  9-H ) :   0.9331 B(  0-C , 10-H ) :   0.9345
B(  0-C , 11-H ) :   0.9265 B(  1-C ,  2-C ) :   0.8870 B(  1-C ,  7-C ) :   0.8548
B(  1-C , 12-H ) :   0.8979 B(  2-C ,  3-C ) :   0.9386 B(  2-C , 13-H ) :   0.9013
B(  2-C , 14-H ) :   0.8807 B(  3-C ,  4-O ) :   1.9392 B(  3-C ,  5-C ) :   0.9072
B(  5-C ,  6-N ) :   2.7965 B(  7-C ,  8-O ) :   1.9845 B(  7-C , 15-H ) :   0.9498

MP2 TOTAL ENERGY:     -437.188008792 Eh
FINAL SINGLE POINT ENERGY      -437.188008792461

DIPOLE MOMENT
-------------
                                X             Y             Z
Electronic contribution:      6.78854      -4.93349       2.79095
Nuclear contribution   :     -7.72828       5.79745      -3.48322
                        -----------------------------------------
Total Dipole Moment    :     -0.93974       0.86396      -0.69228
                        -----------------------------------------
Magnitude (a.u.)       :      1.45216
Magnitude (Debye)      :      3.69111

                             ****ORCA TERMINATED NORMALLY****
TOTAL RUN TIME: 0 days 0 hours 14 minutes 51 seconds 492 msec
