                         Program Version 3.0.3 - RELEASE   -
|  1> ! RI-MP2 RIJK def2-TZVP def2-TZVP/C def2-TZVP/JK TIGHTSCF
|  2> % maxcore 2000
|  3> % mp2 density relaxed end
|  4> *xyz 0 1
|  5>  O       -0.2736080104     0.6323223736     1.3050992778
|  6>  C       -0.1840033715     1.3855269216     0.3636100056
|  7>  C       -1.4081848698     1.8129269905    -0.4479643003
|  8>  C       -1.2042858686     3.0978727083    -1.2762149101
|  9>  C       -0.2795465412     4.0767171988    -0.5338510685
| 10>  C        1.1152860097     3.4631424689    -0.4786789459
| 11>  O        1.9019582585     3.8257722966     0.6761795503
| 12>  C        2.0872806972     2.4420283854     1.0560051125
| 13>  C        1.1500165264     1.9689827472    -0.0701225426
| 14>  H       -1.6931391298     0.9682624434    -1.0880848657
| 15>  H       -2.2249167497     1.9307577015     0.2720636050
| 16>  H       -0.7631162008     2.8561335086    -2.2519972386
| 17>  H       -2.1736563370     3.5584923076    -1.4876605272
| 18>  H       -0.2581995208     5.0565532472    -1.0201059656
| 19>  H       -0.6381078180     4.2300305358     0.4914947836
| 20>  H        1.6634343373     3.6757401870    -1.4070982973
| 21>  H        3.1330189699     2.1282828934     0.9568981987
| 22>  H        1.7388741153     2.2324197587     2.0722339192
| 23>  H        1.5964332334     1.2940055659    -0.8069645109
| 24> *
| 25>
| 26>                          ****END OF INPUT****

CARTESIAN COORDINATES (ANGSTROEM)
---------------------------------
  O     -0.273608    0.632322    1.305099
  C     -0.184003    1.385527    0.363610
  C     -1.408185    1.812927   -0.447964
  C     -1.204286    3.097873   -1.276215
  C     -0.279547    4.076717   -0.533851
  C      1.115286    3.463142   -0.478679
  O      1.901958    3.825772    0.676180
  C      2.087281    2.442028    1.056005
  C      1.150017    1.968983   -0.070123
  H     -1.693139    0.968262   -1.088085
  H     -2.224917    1.930758    0.272064
  H     -0.763116    2.856134   -2.251997
  H     -2.173656    3.558492   -1.487661
  H     -0.258200    5.056553   -1.020106
  H     -0.638108    4.230031    0.491495
  H      1.663434    3.675740   -1.407098
  H      3.133019    2.128283    0.956898
  H      1.738874    2.232420    2.072234
  H      1.596433    1.294006   -0.806965

 Total Charge           Charge          ....    0
 Multiplicity           Mult            ....    1
 Number of Electrons    NEL             ....   68
 Basis Dimension        Dim             ....  339

ORBITAL ENERGIES
----------------

  NO   OCC          E(Eh)            E(eV)
   0   2.0000     -20.553122      -559.2789
   1   2.0000     -20.548376      -559.1498
   2   2.0000     -11.335113      -308.4441
   3   2.0000     -11.294216      -307.3312
   4   2.0000     -11.284472      -307.0661
   5   2.0000     -11.247918      -306.0714
   6   2.0000     -11.244351      -305.9743
   7   2.0000     -11.243579      -305.9533
   8   2.0000     -11.234552      -305.7077
   9   2.0000      -1.395337       -37.9690
  10   2.0000      -1.382467       -37.6188
  11   2.0000      -1.114391       -30.3241
  12   2.0000      -1.030120       -28.0310
  13   2.0000      -0.999790       -27.2057
  14   2.0000      -0.921103       -25.0645
  15   2.0000      -0.833013       -22.6674
  16   2.0000      -0.814539       -22.1647
  17   2.0000      -0.713103       -19.4045
  18   2.0000      -0.702999       -19.1296
  19   2.0000      -0.671151       -18.2629
  20   2.0000      -0.660877       -17.9834
  21   2.0000      -0.633064       -17.2266
  22   2.0000      -0.602793       -16.4028
  23   2.0000      -0.591620       -16.0988
  24   2.0000      -0.590029       -16.0555
  25   2.0000      -0.557109       -15.1597
  26   2.0000      -0.534990       -14.5578
  27   2.0000      -0.521402       -14.1881
  28   2.0000      -0.503453       -13.6996
  29   2.0000      -0.487208       -13.2576
  30   2.0000      -0.466935       -12.7060
  31   2.0000      -0.452339       -12.3088
  32   2.0000      -0.431224       -11.7342
  33   2.0000      -0.397431       -10.8146
  34   0.0000       0.114185         3.1071
  35   0.0000       0.131486         3.5779
  36   0.0000       0.159707         4.3459
  37   0.0000       0.163866         4.4590
  38   0.0000       0.166504         4.5308

MULLIKEN ATOMIC CHARGES
-----------------------
   0 O :   -0.275399
   1 C :    0.095260
   2 C :   -0.244430
   3 C :   -0.226065
   4 C :   -0.227228
   5 C :    0.046892
   6 O :   -0.328143
   7 C :   -0.041689
   8 C :   -0.049099
   9 H :    0.146002
  10 H :    0.140052
  11 H :    0.117142
  12 H :    0.135609
  13 H :    0.133630
  14 H :    0.127847
  15 H :    0.090205
  16 H :    0.098311
  17 H :    0.122351
  18 H :    0.138749
Sum of atomic charges:   -0.0000000

LOEWDIN ATOMIC CHARGES
----------------------
   0 O :    0.156398
   1 C :   -0.302951
   2 C :   -0.229187
   3 C :   -0.254935
   4 C :   -0.241853
   5 C :   -0.260621
   6 O :    0.133915
   7 C :   -0.236132
   8 C :   -0.184424
   9 H :    0.154570
  10 H :    0.154576
  11 H :    0.139990
  12 H :    0.139464
  13 H :    0.139851
  14 H :    0.148310
  15 H :    0.136338
  16 H :    0.118918
  17 H :    0.125582
  18 H :    0.162190

  Mayer bond orders larger than 0.1
B(  0-O ,  1-C ) :   2.0323 B(  1-C ,  2-C ) :   0.9067 B(  1-C ,  8-C ) :   0.8685
B(  2-C ,  3-C ) :   0.9133 B(  2-C ,  9-H ) :   0.9097 B(  2-C , 10-H ) :   0.9188
B(  3-C ,  4-C ) :   0.8962 B(  3-C , 11-H ) :   0.9295 B(  3-C , 12-H ) :   0.9281
B(  4-C ,  5-C ) :   0.8973 B(  4-C , 13-H ) :   0.9253 B(  4-C , 14-H ) :   0.9309
B(  5-C ,  6-O ) :   1.0021 B(  5-C ,  8-C ) :   0.9104 B(  5-C , 15-H ) :   0.9242
B(  6-O ,  7-C ) :   0.9402 B(  7-C ,  8-C ) :   0.9512 B(  7-C , 16-H ) :   0.9174
B(  7-C , 17-H ) :   0.9056 B(  8-C , 18-H ) :   0.8917

MP2 TOTAL ENERGY:     -422.330593983 Eh
FINAL SINGLE POINT ENERGY      -422.330593982598

DIPOLE MOMENT
-------------
                                X             Y             Z
Electronic contribution:      2.48516      -2.38387       3.64935
Nuclear contribution   :     -2.73481       2.49837      -4.77670
                        -----------------------------------------
Total Dipole Moment    :     -0.24965       0.11450      -1.12735
                        -----------------------------------------
Magnitude (a.u.)       :      1.16032
Magnitude (Debye)      :      2.94930

                             ****ORCA TERMINATED NORMALLY****
TOTAL RUN TIME: 0 days 0 hours 18 minutes 26 seconds 999 msec
