                         Program Version 3.0.3 - RELEASE   -
|  1> ! RI-MP2 RIJK def2-TZVP def2-TZVP/C def2-TZVP/JK TIGHTSCF
|  2> % maxcore 2000
|  3> % mp2 density relaxed end
|  4> *xyz 0 1
|  5>  C        0.3270794069     1.5333645949     0.0706207831
|  6>  C        0.0292507601     0.0699160752     0.0042290632
|  7>  C       -0.2422271702    -0.6576827320    -1.0855387802
|  8>  C       -0.3884750419    -2.1008032254    -0.7477490977
|  9>  N        0.8587125193    -2.6947502528    -0.1672957096
| 10>  C       -0.2081597144    -2.2103628099     0.7270002304
| 11>  C       -0.9399076574    -3.2083457794     1.5984445531
| 12>  O       -1.1895594090    -4.4425868736     0.9410935028
| 13>  C        0.0426633202    -0.7983882538     1.2551046277
| 14>  H        1.3453149019     1.7140269407     0.4381611523
| 15>  H        0.2342358616     2.0076629498    -0.9101209101
| 16>  H       -0.3497589961     2.0468231262     0.7659908886
| 17>  H       -0.3012250785    -0.2708274783    -2.0964907498
| 18>  H       -1.0418216778    -2.7533942321    -1.3191486587
| 19>  H        0.7506432961    -3.7102351734    -0.2059938475
| 20>  H       -0.3222762048    -3.4600639344     2.4692700622
| 21>  H       -1.8696786007    -2.7597367548     1.9803340577
| 22>  H       -1.8850297168    -4.2935119008     0.2926001529
| 23>  H        1.0014151172    -0.7316616647     1.7836854553
| 24>  H       -0.7355058457    -0.4841843716     1.9663672544
| 25> *
| 26>
| 27>                          ****END OF INPUT****

CARTESIAN COORDINATES (ANGSTROEM)
---------------------------------
  C      0.327079    1.533365    0.070621
  C      0.029251    0.069916    0.004229
  C     -0.242227   -0.657683   -1.085539
  C     -0.388475   -2.100803   -0.747749
  N      0.858713   -2.694750   -0.167296
  C     -0.208160   -2.210363    0.727000
  C     -0.939908   -3.208346    1.598445
  O     -1.189559   -4.442587    0.941094
  C      0.042663   -0.798388    1.255105
  H      1.345315    1.714027    0.438161
  H      0.234236    2.007663   -0.910121
  H     -0.349759    2.046823    0.765991
  H     -0.301225   -0.270827   -2.096491
  H     -1.041822   -2.753394   -1.319149
  H      0.750643   -3.710235   -0.205994
  H     -0.322276   -3.460064    2.469270
  H     -1.869679   -2.759737    1.980334
  H     -1.885030   -4.293512    0.292600
  H      1.001415   -0.731662    1.783685
  H     -0.735506   -0.484184    1.966367

 Total Charge           Charge          ....    0
 Multiplicity           Mult            ....    1
 Number of Electrons    NEL             ....   68
 Basis Dimension        Dim             ....  345

ORBITAL ENERGIES
----------------

  NO   OCC          E(Eh)            E(eV)
   0   2.0000     -20.569029      -559.7117
   1   2.0000     -15.548933      -423.1080
   2   2.0000     -11.287105      -307.1378
   3   2.0000     -11.260137      -306.4039
   4   2.0000     -11.256911      -306.3161
   5   2.0000     -11.235190      -305.7251
   6   2.0000     -11.230417      -305.5952
   7   2.0000     -11.223813      -305.4155
   8   2.0000     -11.216498      -305.2164
   9   2.0000      -1.374352       -37.3980
  10   2.0000      -1.265228       -34.4286
  11   2.0000      -1.096887       -29.8478
  12   2.0000      -0.997660       -27.1477
  13   2.0000      -0.966550       -26.3012
  14   2.0000      -0.927118       -25.2282
  15   2.0000      -0.846343       -23.0302
  16   2.0000      -0.763514       -20.7763
  17   2.0000      -0.722271       -19.6540
  18   2.0000      -0.710235       -19.3265
  19   2.0000      -0.682324       -18.5670
  20   2.0000      -0.622377       -16.9358
  21   2.0000      -0.612399       -16.6642
  22   2.0000      -0.595226       -16.1969
  23   2.0000      -0.583091       -15.8667
  24   2.0000      -0.556018       -15.1300
  25   2.0000      -0.548533       -14.9263
  26   2.0000      -0.525976       -14.3125
  27   2.0000      -0.512868       -13.9559
  28   2.0000      -0.496165       -13.5013
  29   2.0000      -0.488849       -13.3022
  30   2.0000      -0.453748       -12.3471
  31   2.0000      -0.449719       -12.2375
  32   2.0000      -0.376398       -10.2423
  33   2.0000      -0.329827        -8.9751
  34   0.0000       0.127873         3.4796
  35   0.0000       0.140687         3.8283
  36   0.0000       0.145895         3.9700
  37   0.0000       0.160047         4.3551
  38   0.0000       0.183411         4.9909

MULLIKEN ATOMIC CHARGES
-----------------------
   0 C :   -0.426887
   1 C :    0.016547
   2 C :   -0.224075
   3 C :   -0.060673
   4 N :   -0.387754
   5 C :    0.119854
   6 C :   -0.017630
   7 O :   -0.474948
   8 C :   -0.209179
   9 H :    0.143993
  10 H :    0.136992
  11 H :    0.134461
  12 H :    0.126250
  13 H :    0.105209
  14 H :    0.227103
  15 H :    0.120642
  16 H :    0.114170
  17 H :    0.320162
  18 H :    0.124108
  19 H :    0.111654
Sum of atomic charges:   -0.0000000

LOEWDIN ATOMIC CHARGES
----------------------
   0 C :   -0.274439
   1 C :   -0.168994
   2 C :   -0.126401
   3 C :   -0.220693
   4 N :    0.028301
   5 C :   -0.285881
   6 C :   -0.311050
   7 O :   -0.040921
   8 C :   -0.166259
   9 H :    0.133124
  10 H :    0.130788
  11 H :    0.130026
  12 H :    0.139022
  13 H :    0.131013
  14 H :    0.171326
  15 H :    0.136962
  16 H :    0.125166
  17 H :    0.174171
  18 H :    0.150645
  19 H :    0.144093

  Mayer bond orders larger than 0.1
B(  0-C ,  1-C ) :   0.8865 B(  0-C ,  9-H ) :   0.9323 B(  0-C , 10-H ) :   0.9467
B(  0-C , 11-H ) :   0.9305 B(  1-C ,  2-C ) :   1.7919 B(  1-C ,  8-C ) :   0.9829
B(  2-C ,  3-C ) :   0.9171 B(  2-C , 12-H ) :   0.9210 B(  3-C ,  4-N ) :   0.9204
B(  3-C ,  5-C ) :   0.8855 B(  3-C , 13-H ) :   0.9269 B(  4-N ,  5-C ) :   0.9356
B(  4-N , 14-H ) :   0.8633 B(  5-C ,  6-C ) :   0.8988 B(  5-C ,  8-C ) :   0.9274
B(  6-C ,  7-O ) :   0.9010 B(  6-C , 15-H ) :   0.9274 B(  6-C , 16-H ) :   0.9359
B(  7-O , 17-H ) :   0.8433 B(  8-C , 18-H ) :   0.8813 B(  8-C , 19-H ) :   0.9196

MP2 TOTAL ENERGY:     -402.444175060 Eh
FINAL SINGLE POINT ENERGY      -402.444175059972

DIPOLE MOMENT
-------------
                                X             Y             Z
Electronic contribution:     -0.05733      -4.95976      -1.50314
Nuclear contribution   :     -0.77846       5.37093       1.57014
                        -----------------------------------------
Total Dipole Moment    :     -0.83579       0.41117       0.06700
                        -----------------------------------------
Magnitude (a.u.)       :      0.93386
Magnitude (Debye)      :      2.37369

                             ****ORCA TERMINATED NORMALLY****
TOTAL RUN TIME: 0 days 0 hours 18 minutes 17 seconds 907 msec
