                         Program Version 3.0.3 - RELEASE   -
|  1> ! RI-MP2 RIJK def2-TZVP def2-TZVP/C def2-TZVP/JK TIGHTSCF
|  2> % maxcore 2000
|  3> % mp2 density relaxed end
|  4> *xyz 0 1
|  5>  C       -0.1024878742     1.5781833928     0.0631642297
|  6>  C        0.0501979926     0.0638340598     0.0011255613
|  7>  C        1.1324533096    -0.5519881854    -0.9525516799
|  8>  C        1.7704101690    -1.2654214290     0.2289855906
|  9>  O        2.2511306073    -2.5444120336     0.0676651696
| 10>  C        2.1908936633    -0.3072311595     1.2831035498
| 11>  C        0.7007658776    -0.6616233807     1.1996471169
| 12>  C        0.0053742504    -1.2390274205     2.2928648327
| 13>  C       -0.5989668556    -1.7463357906     3.2040531610
| 14>  H        0.8496113158     2.0781384399     0.2697480260
| 15>  H       -0.4807789796     1.9692496234    -0.8875899274
| 16>  H       -0.8087264970     1.8656380479     0.8489668336
| 17>  H       -0.9212603597    -0.3936507534    -0.2042747245
| 18>  H        0.7024175552    -1.2536748138    -1.6696635387
| 19>  H        1.7811172370     0.1509083731    -1.4866173379
| 20>  H        2.7621490001    -2.7920146949     0.8448386560
| 21>  H        2.6806468417    -0.7530930819     2.1450567067
| 22>  H        2.5437540234     0.6954746581     1.0474584644
| 23>  H       -1.1315083469    -2.1876224617     4.0091019001
| 24> *
| 25>
| 26>                          ****END OF INPUT****

CARTESIAN COORDINATES (ANGSTROEM)
---------------------------------
  C     -0.102488    1.578183    0.063164
  C      0.050198    0.063834    0.001126
  C      1.132453   -0.551988   -0.952552
  C      1.770410   -1.265421    0.228986
  O      2.251131   -2.544412    0.067665
  C      2.190894   -0.307231    1.283104
  C      0.700766   -0.661623    1.199647
  C      0.005374   -1.239027    2.292865
  C     -0.598967   -1.746336    3.204053
  H      0.849611    2.078138    0.269748
  H     -0.480779    1.969250   -0.887590
  H     -0.808726    1.865638    0.848967
  H     -0.921260   -0.393651   -0.204275
  H      0.702418   -1.253675   -1.669664
  H      1.781117    0.150908   -1.486617
  H      2.762149   -2.792015    0.844839
  H      2.680647   -0.753093    2.145057
  H      2.543754    0.695475    1.047458
  H     -1.131508   -2.187622    4.009102

 Total Charge           Charge          ....    0
 Multiplicity           Mult            ....    1
 Number of Electrons    NEL             ....   66
 Basis Dimension        Dim             ....  339

ORBITAL ENERGIES
----------------

  NO   OCC          E(Eh)            E(eV)
   0   2.0000     -20.577388      -559.9392
   1   2.0000     -11.305602      -307.6411
   2   2.0000     -11.254123      -306.2402
   3   2.0000     -11.243174      -305.9423
   4   2.0000     -11.241881      -305.9071
   5   2.0000     -11.233591      -305.6816
   6   2.0000     -11.229205      -305.5622
   7   2.0000     -11.219591      -305.3006
   8   2.0000     -11.216442      -305.2149
   9   2.0000      -1.391250       -37.8578
  10   2.0000      -1.195382       -32.5280
  11   2.0000      -1.036117       -28.1942
  12   2.0000      -1.019838       -27.7512
  13   2.0000      -0.955384       -25.9973
  14   2.0000      -0.886259       -24.1163
  15   2.0000      -0.810479       -22.0542
  16   2.0000      -0.775016       -21.0893
  17   2.0000      -0.731750       -19.9119
  18   2.0000      -0.692984       -18.8571
  19   2.0000      -0.675875       -18.3915
  20   2.0000      -0.623845       -16.9757
  21   2.0000      -0.598745       -16.2927
  22   2.0000      -0.582404       -15.8480
  23   2.0000      -0.570851       -15.5336
  24   2.0000      -0.553093       -15.0504
  25   2.0000      -0.536768       -14.6062
  26   2.0000      -0.506432       -13.7807
  27   2.0000      -0.493967       -13.4415
  28   2.0000      -0.466944       -12.7062
  29   2.0000      -0.447220       -12.1695
  30   2.0000      -0.422891       -11.5074
  31   2.0000      -0.371424       -10.1070
  32   2.0000      -0.330018        -8.9803
  33   0.0000       0.130542         3.5522
  34   0.0000       0.149478         4.0675
  35   0.0000       0.155534         4.2323
  36   0.0000       0.166894         4.5414
  37   0.0000       0.170763         4.6467

MULLIKEN ATOMIC CHARGES
-----------------------
   0 C :   -0.417485
   1 C :   -0.027615
   2 C :   -0.218016
   3 C :    0.167681
   4 O :   -0.423142
   5 C :   -0.299299
   6 C :   -0.155328
   7 C :   -0.031377
   8 C :   -0.123082
   9 H :    0.118330
  10 H :    0.135009
  11 H :    0.140143
  12 H :    0.107024
  13 H :    0.122825
  14 H :    0.115530
  15 H :    0.327263
  16 H :    0.143965
  17 H :    0.128931
  18 H :    0.188646
Sum of atomic charges:   -0.0000000

LOEWDIN ATOMIC CHARGES
----------------------
   0 C :   -0.293311
   1 C :   -0.190703
   2 C :   -0.163995
   3 C :   -0.304331
   4 O :    0.050012
   5 C :   -0.158720
   6 C :   -0.161005
   7 C :   -0.083153
   8 C :   -0.097728
   9 H :    0.121777
  10 H :    0.125561
  11 H :    0.128549
  12 H :    0.157203
  13 H :    0.143703
  14 H :    0.132741
  15 H :    0.188275
  16 H :    0.146949
  17 H :    0.132425
  18 H :    0.125751

  Mayer bond orders larger than 0.1
B(  0-C ,  1-C ) :   0.8956 B(  0-C ,  9-H ) :   0.9353 B(  0-C , 10-H ) :   0.9378
B(  0-C , 11-H ) :   0.9370 B(  1-C ,  2-C ) :   0.9990 B(  1-C ,  6-C ) :   0.8880
B(  1-C , 12-H ) :   0.9159 B(  2-C ,  3-C ) :   0.9875 B(  2-C , 13-H ) :   0.9023
B(  2-C , 14-H ) :   0.9066 B(  3-C ,  4-O ) :   1.1267 B(  3-C ,  5-C ) :   0.9551
B(  3-C ,  6-C ) :   0.7152 B(  4-O , 15-H ) :   0.8323 B(  5-C ,  6-C ) :   0.7920
B(  5-C , 16-H ) :   0.9271 B(  5-C , 17-H ) :   0.8953 B(  6-C ,  7-C ) :   1.2203
B(  6-C ,  8-C ) :  -0.1591 B(  7-C ,  8-C ) :   2.5902 B(  8-C , 18-H ) :   0.8797

MP2 TOTAL ENERGY:     -385.146452586 Eh
FINAL SINGLE POINT ENERGY      -385.146452586387

DIPOLE MOMENT
-------------
                                X             Y             Z
Electronic contribution:      0.92001      -6.10622       2.79269
Nuclear contribution   :     -0.62765       6.37437      -2.61328
                        -----------------------------------------
Total Dipole Moment    :      0.29237       0.26815       0.17941
                        -----------------------------------------
Magnitude (a.u.)       :      0.43540
Magnitude (Debye)      :      1.10670

                             ****ORCA TERMINATED NORMALLY****
TOTAL RUN TIME: 0 days 0 hours 19 minutes 22 seconds 331 msec
