                         Program Version 3.0.3 - RELEASE   -
|  1> ! RI-MP2 RIJK def2-TZVP def2-TZVP/C def2-TZVP/JK TIGHTSCF
|  2> % maxcore 2000
|  3> % mp2 density relaxed end
|  4> *xyz 0 1
|  5>  C        0.0001072403     1.4859309265    -0.0382380705
|  6>  N        0.0081924725     0.0257219694    -0.0297379288
|  7>  C        0.7295459825    -0.5260225636     1.1214810817
|  8>  C        2.1437926450    -0.1661852725     1.1261794310
|  9>  C        3.3093266266     0.1223377914     1.1551081225
| 10>  C       -1.3350997329    -0.5334997140    -0.0903578767
| 11>  C       -2.0110203288    -0.2051706992    -1.3507861021
| 12>  N       -2.5614058239     0.0525284967    -2.3328368591
| 13>  H        1.0291554265     1.8491744384    -0.0323725820
| 14>  H       -0.4893764923     1.8432072693    -0.9472872340
| 15>  H       -0.5275169295     1.9132946614     0.8350360272
| 16>  H        0.2759199919    -0.2093367028     2.0824355680
| 17>  H        0.6422772347    -1.6191617995     1.0834725828
| 18>  H        4.3413211642     0.3729813507     1.1729757083
| 19>  H       -1.2713707204    -1.6254157638    -0.0189094617
| 20>  H       -1.9874125562    -0.1963093584     0.7399569434
| 21> *
| 22>
| 23>                          ****END OF INPUT****

CARTESIAN COORDINATES (ANGSTROEM)
---------------------------------
  C      0.000107    1.485931   -0.038238
  N      0.008192    0.025722   -0.029738
  C      0.729546   -0.526023    1.121481
  C      2.143793   -0.166185    1.126179
  C      3.309327    0.122338    1.155108
  C     -1.335100   -0.533500   -0.090358
  C     -2.011020   -0.205171   -1.350786
  N     -2.561406    0.052528   -2.332837
  H      1.029155    1.849174   -0.032373
  H     -0.489376    1.843207   -0.947287
  H     -0.527517    1.913295    0.835036
  H      0.275920   -0.209337    2.082436
  H      0.642277   -1.619162    1.083473
  H      4.341321    0.372981    1.172976
  H     -1.271371   -1.625416   -0.018909
  H     -1.987413   -0.196309    0.739957

 Total Charge           Charge          ....    0
 Multiplicity           Mult            ....    1
 Number of Electrons    NEL             ....   58
 Basis Dimension        Dim             ....  296

ORBITAL ENERGIES
----------------

  NO   OCC          E(Eh)            E(eV)
   0   2.0000     -15.587987      -424.1707
   1   2.0000     -15.575584      -423.8332
   2   2.0000     -11.318763      -307.9992
   3   2.0000     -11.303195      -307.5756
   4   2.0000     -11.277801      -306.8846
   5   2.0000     -11.259651      -306.3907
   6   2.0000     -11.247315      -306.0550
   7   2.0000     -11.237552      -305.7893
   8   2.0000      -1.273282       -34.6478
   9   2.0000      -1.219525       -33.1850
  10   2.0000      -1.071350       -29.1529
  11   2.0000      -1.014215       -27.5982
  12   2.0000      -0.979591       -26.6560
  13   2.0000      -0.870772       -23.6949
  14   2.0000      -0.745115       -20.2756
  15   2.0000      -0.714161       -19.4333
  16   2.0000      -0.690772       -18.7969
  17   2.0000      -0.683908       -18.6101
  18   2.0000      -0.635848       -17.3023
  19   2.0000      -0.611418       -16.6375
  20   2.0000      -0.589864       -16.0510
  21   2.0000      -0.559087       -15.2135
  22   2.0000      -0.554674       -15.0934
  23   2.0000      -0.540168       -14.6987
  24   2.0000      -0.471869       -12.8402
  25   2.0000      -0.465139       -12.6571
  26   2.0000      -0.409293       -11.1374
  27   2.0000      -0.405834       -11.0433
  28   2.0000      -0.392086       -10.6692
  29   0.0000       0.113541         3.0896
  30   0.0000       0.145322         3.9544
  31   0.0000       0.154648         4.2082
  32   0.0000       0.159630         4.3438
  33   0.0000       0.165350         4.4994

MULLIKEN ATOMIC CHARGES
-----------------------
   0 C :   -0.343311
   1 N :   -0.124762
   2 C :   -0.318411
   3 C :   -0.028474
   4 C :   -0.093304
   5 C :   -0.077489
   6 C :   -0.170190
   7 N :   -0.051802
   8 H :    0.162584
   9 H :    0.163518
  10 H :    0.109071
  11 H :    0.134931
  12 H :    0.144982
  13 H :    0.196526
  14 H :    0.155698
  15 H :    0.140434
Sum of atomic charges:    0.0000000

LOEWDIN ATOMIC CHARGES
----------------------
   0 C :   -0.308296
   1 N :    0.076179
   2 C :   -0.271531
   3 C :   -0.109387
   4 C :   -0.087177
   5 C :   -0.276843
   6 C :   -0.186721
   7 N :    0.066092
   8 H :    0.129362
   9 H :    0.128304
  10 H :    0.106858
  11 H :    0.141656
  12 H :    0.155150
  13 H :    0.129057
  14 H :    0.160851
  15 H :    0.146444

  Mayer bond orders larger than 0.1
B(  0-C ,  1-N ) :   0.8934 B(  0-C ,  8-H ) :   0.9333 B(  0-C ,  9-H ) :   0.9305
B(  0-C , 10-H ) :   0.9220 B(  1-N ,  2-C ) :   0.9720 B(  1-N ,  5-C ) :   0.9556
B(  2-C ,  3-C ) :   1.1069 B(  2-C ,  4-C ) :  -0.1169 B(  2-C , 11-H ) :   0.9460
B(  2-C , 12-H ) :   0.8920 B(  3-C ,  4-C ) :   2.6419 B(  4-C , 13-H ) :   0.8905
B(  5-C ,  6-C ) :   0.9258 B(  5-C , 14-H ) :   0.8983 B(  5-C , 15-H ) :   0.9099
B(  6-C ,  7-N ) :   2.8737

MP2 TOTAL ENERGY:     -342.126432884 Eh
FINAL SINGLE POINT ENERGY      -342.126432883949

DIPOLE MOMENT
-------------
                                X             Y             Z
Electronic contribution:     -1.27445      -1.95916      -3.50213
Nuclear contribution   :      1.85104       1.79752       4.94845
                        -----------------------------------------
Total Dipole Moment    :      0.57660      -0.16165       1.44632
                        -----------------------------------------
Magnitude (a.u.)       :      1.56539
Magnitude (Debye)      :      3.97890

                             ****ORCA TERMINATED NORMALLY****
TOTAL RUN TIME: 0 days 0 hours 11 minutes 31 seconds 207 msec
