                         Program Version 3.0.3 - RELEASE   -
|  1> ! RI-MP2 RIJK def2-TZVP def2-TZVP/C def2-TZVP/JK TIGHTSCF
|  2> % maxcore 2000
|  3> % mp2 density relaxed end
|  4> *xyz 0 1
|  5>  N        0.5110724969     0.5077538811    -0.7494824565
|  6>  C       -0.0344052243     0.0552988753     0.4088166342
|  7>  O        0.3356382204     0.4128636661     1.5105672874
|  8>  C       -1.1763517751    -0.9297538019     0.2782425345
|  9>  C       -1.7835816864    -1.4964636631    -0.9951934738
| 10>  O       -1.0287830389    -1.3674124592    -2.1882409357
| 11>  C       -0.1158634788    -2.4633711421    -2.1678571951
| 12>  O        0.1807250096    -2.7199295900    -0.8119570911
| 13>  C       -0.9914743615    -2.3933019889    -0.1024980725
| 14>  H        1.2590034874     1.1780312101    -0.6856508106
| 15>  H        0.1419744084     0.2222596460    -1.6423648527
| 16>  H       -1.8891325841    -0.7929189609     1.0861213361
| 17>  H       -2.8568382489    -1.5379767110    -1.1420957287
| 18>  H       -0.5817069977    -3.3421996353    -2.6423933580
| 19>  H        0.8003137211    -2.1770383649    -2.6898907121
| 20>  H       -1.3968106281    -3.1885299214     0.5125289447
| 21> *
| 22>
| 23>                          ****END OF INPUT****

CARTESIAN COORDINATES (ANGSTROEM)
---------------------------------
  N      0.511072    0.507754   -0.749482
  C     -0.034405    0.055299    0.408817
  O      0.335638    0.412864    1.510567
  C     -1.176352   -0.929754    0.278243
  C     -1.783582   -1.496464   -0.995193
  O     -1.028783   -1.367412   -2.188241
  C     -0.115863   -2.463371   -2.167857
  O      0.180725   -2.719930   -0.811957
  C     -0.991474   -2.393302   -0.102498
  H      1.259003    1.178031   -0.685651
  H      0.141974    0.222260   -1.642365
  H     -1.889133   -0.792919    1.086121
  H     -2.856838   -1.537977   -1.142096
  H     -0.581707   -3.342200   -2.642393
  H      0.800314   -2.177038   -2.689891
  H     -1.396811   -3.188530    0.512529

 Total Charge           Charge          ....    0
 Multiplicity           Mult            ....    1
 Number of Electrons    NEL             ....   68
 Basis Dimension        Dim             ....  321

ORBITAL ENERGIES
----------------

  NO   OCC          E(Eh)            E(eV)
   0   2.0000     -20.598219      -560.5060
   1   2.0000     -20.591290      -560.3175
   2   2.0000     -20.511411      -558.1439
   3   2.0000     -15.573294      -423.7709
   4   2.0000     -11.354922      -308.9831
   5   2.0000     -11.353354      -308.9405
   6   2.0000     -11.315437      -307.9087
   7   2.0000     -11.314246      -307.8763
   8   2.0000     -11.261376      -306.4376
   9   2.0000      -1.472431       -40.0669
  10   2.0000      -1.377117       -37.4733
  11   2.0000      -1.362716       -37.0814
  12   2.0000      -1.206682       -32.8355
  13   2.0000      -1.154468       -31.4147
  14   2.0000      -0.944398       -25.6984
  15   2.0000      -0.889355       -24.2006
  16   2.0000      -0.850881       -23.1536
  17   2.0000      -0.788094       -21.4451
  18   2.0000      -0.758724       -20.6459
  19   2.0000      -0.719828       -19.5875
  20   2.0000      -0.710660       -19.3380
  21   2.0000      -0.652345       -17.7512
  22   2.0000      -0.648948       -17.6588
  23   2.0000      -0.642647       -17.4873
  24   2.0000      -0.601353       -16.3637
  25   2.0000      -0.593149       -16.1404
  26   2.0000      -0.562985       -15.3196
  27   2.0000      -0.553056       -15.0494
  28   2.0000      -0.542090       -14.7510
  29   2.0000      -0.496128       -13.5003
  30   2.0000      -0.446179       -12.1411
  31   2.0000      -0.421585       -11.4719
  32   2.0000      -0.409627       -11.1465
  33   2.0000      -0.402546       -10.9538
  34   0.0000       0.138307         3.7635
  35   0.0000       0.150233         4.0880
  36   0.0000       0.162403         4.4192
  37   0.0000       0.170947         4.6517
  38   0.0000       0.191002         5.1974

MULLIKEN ATOMIC CHARGES
-----------------------
   0 N :   -0.465711
   1 C :    0.281642
   2 O :   -0.348935
   3 C :   -0.175355
   4 C :    0.067706
   5 O :   -0.365201
   6 C :    0.113791
   7 O :   -0.308270
   8 C :    0.012846
   9 H :    0.249587
  10 H :    0.275280
  11 H :    0.146254
  12 H :    0.145656
  13 H :    0.099441
  14 H :    0.129940
  15 H :    0.141329
Sum of atomic charges:   -0.0000000

LOEWDIN ATOMIC CHARGES
----------------------
   0 N :    0.000261
   1 C :   -0.468207
   2 O :    0.085047
   3 C :   -0.147111
   4 C :   -0.252560
   5 O :    0.159953
   6 C :   -0.349374
   7 O :    0.191085
   8 C :   -0.246036
   9 H :    0.172603
  10 H :    0.170351
  11 H :    0.171280
  12 H :    0.139516
  13 H :    0.111482
  14 H :    0.121341
  15 H :    0.140368

  Mayer bond orders larger than 0.1
B(  0-N ,  1-C ) :   1.1910 B(  0-N ,  9-H ) :   0.8600 B(  0-N , 10-H ) :   0.8389
B(  1-C ,  2-O ) :   1.9639 B(  1-C ,  3-C ) :   0.8959 B(  3-C ,  4-C ) :   0.8263
B(  3-C ,  8-C ) :   0.8485 B(  3-C , 11-H ) :   0.9211 B(  4-C ,  5-O ) :   0.8857
B(  4-C ,  8-C ) :   0.8670 B(  4-C , 12-H ) :   0.9294 B(  5-O ,  6-C ) :   0.9183
B(  6-C ,  7-O ) :   0.9606 B(  6-C , 13-H ) :   0.9176 B(  6-C , 14-H ) :   0.9309
B(  7-O ,  8-C ) :   0.9605 B(  8-C , 15-H ) :   0.9323

MP2 TOTAL ENERGY:     -474.273531033 Eh
FINAL SINGLE POINT ENERGY      -474.273531033347

DIPOLE MOMENT
-------------
                                X             Y             Z
Electronic contribution:      0.77177       0.91739       1.76148
Nuclear contribution   :     -1.43654      -1.49873      -3.06575
                        -----------------------------------------
Total Dipole Moment    :     -0.66478      -0.58134      -1.30427
                        -----------------------------------------
Magnitude (a.u.)       :      1.57512
Magnitude (Debye)      :      4.00363

                             ****ORCA TERMINATED NORMALLY****
TOTAL RUN TIME: 0 days 0 hours 16 minutes 57 seconds 394 msec
