                         Program Version 3.0.3 - RELEASE   -
|  1> ! RI-MP2 RIJK def2-TZVP def2-TZVP/C def2-TZVP/JK TIGHTSCF
|  2> % maxcore 2000
|  3> % mp2 density relaxed end
|  4> *xyz 0 1
|  5>  C       -0.0790387958     1.5387371750    -0.0020152660
|  6>  C        1.4729844651     1.5259950832    -0.0713088253
|  7>  C        1.4336014372     0.0983746353     0.5394850952
|  8>  C       -0.0502258438    -0.0116758367     0.0935297663
|  9>  N        2.3921108731    -0.8971022363     0.1101147362
| 10>  C        3.2265650730    -1.6361753424     0.9244394476
| 11>  C        3.9496998330    -2.4432536283     0.0881309168
| 12>  N        3.5893126703    -2.2255243600    -1.2211469012
| 13>  C        2.6592199120    -1.2985583750    -1.1693526448
| 14>  H       -0.4426411212     1.9978697009     0.9210224295
| 15>  H       -0.6148018163     1.9791944972    -0.8441009527
| 16>  H        1.8285539778     1.5000443288    -1.1047488575
| 17>  H        2.0303433041     2.2911500498     0.4731288585
| 18>  H        1.4983581029     0.1509757857     1.6284858038
| 19>  H       -0.7444606868    -0.5099936435     0.7734129342
| 20>  H       -0.1291777942    -0.4762708073    -0.8928867308
| 21>  H        3.2173370433    -1.5121000561     1.9950363066
| 22>  H        4.7070179770    -3.1658354141     0.3519136083
| 23>  H        2.1448199594    -0.8799823161    -2.0212284347
| 24> *
| 25>
| 26>                          ****END OF INPUT****

CARTESIAN COORDINATES (ANGSTROEM)
---------------------------------
  C     -0.079039    1.538737   -0.002015
  C      1.472984    1.525995   -0.071309
  C      1.433601    0.098375    0.539485
  C     -0.050226   -0.011676    0.093530
  N      2.392111   -0.897102    0.110115
  C      3.226565   -1.636175    0.924439
  C      3.949700   -2.443254    0.088131
  N      3.589313   -2.225524   -1.221147
  C      2.659220   -1.298558   -1.169353
  H     -0.442641    1.997870    0.921022
  H     -0.614802    1.979194   -0.844101
  H      1.828554    1.500044   -1.104749
  H      2.030343    2.291150    0.473129
  H      1.498358    0.150976    1.628486
  H     -0.744461   -0.509994    0.773413
  H     -0.129178   -0.476271   -0.892887
  H      3.217337   -1.512100    1.995036
  H      4.707018   -3.165835    0.351914
  H      2.144820   -0.879982   -2.021228

 Total Charge           Charge          ....    0
 Multiplicity           Mult            ....    1
 Number of Electrons    NEL             ....   66
 Basis Dimension        Dim             ....  339

ORBITAL ENERGIES
----------------

  NO   OCC          E(Eh)            E(eV)
   0   2.0000     -15.613764      -424.8721
   1   2.0000     -15.537503      -422.7969
   2   2.0000     -11.288113      -307.1652
   3   2.0000     -11.285010      -307.0807
   4   2.0000     -11.251767      -306.1761
   5   2.0000     -11.239499      -305.8423
   6   2.0000     -11.239388      -305.8393
   7   2.0000     -11.238115      -305.8046
   8   2.0000     -11.234543      -305.7075
   9   2.0000      -1.338356       -36.4185
  10   2.0000      -1.191359       -32.4185
  11   2.0000      -1.125046       -30.6141
  12   2.0000      -1.000701       -27.2305
  13   2.0000      -0.924457       -25.1558
  14   2.0000      -0.918692       -24.9989
  15   2.0000      -0.815398       -22.1881
  16   2.0000      -0.796487       -21.6735
  17   2.0000      -0.759922       -20.6785
  18   2.0000      -0.720052       -19.5936
  19   2.0000      -0.669493       -18.2178
  20   2.0000      -0.620287       -16.8789
  21   2.0000      -0.612294       -16.6614
  22   2.0000      -0.599265       -16.3068
  23   2.0000      -0.571885       -15.5618
  24   2.0000      -0.564021       -15.3478
  25   2.0000      -0.559869       -15.2348
  26   2.0000      -0.509288       -13.8584
  27   2.0000      -0.491304       -13.3691
  28   2.0000      -0.467970       -12.7341
  29   2.0000      -0.467264       -12.7149
  30   2.0000      -0.427316       -11.6279
  31   2.0000      -0.374684       -10.1957
  32   2.0000      -0.313140        -8.5210
  33   0.0000       0.126674         3.4470
  34   0.0000       0.141152         3.8409
  35   0.0000       0.154877         4.2144
  36   0.0000       0.160747         4.3741
  37   0.0000       0.167441         4.5563

MULLIKEN ATOMIC CHARGES
-----------------------
   0 C :   -0.221207
   1 C :   -0.215655
   2 C :   -0.115497
   3 C :   -0.215649
   4 N :    0.027295
   5 C :   -0.124715
   6 C :   -0.124846
   7 N :   -0.280152
   8 C :   -0.027211
   9 H :    0.121574
  10 H :    0.126227
  11 H :    0.129076
  12 H :    0.128660
  13 H :    0.115457
  14 H :    0.128662
  15 H :    0.129088
  16 H :    0.142583
  17 H :    0.131606
  18 H :    0.144705
Sum of atomic charges:   -0.0000000

LOEWDIN ATOMIC CHARGES
----------------------
   0 C :   -0.239427
   1 C :   -0.214170
   2 C :   -0.224293
   3 C :   -0.214163
   4 N :    0.260944
   5 C :   -0.227674
   6 C :   -0.266983
   7 N :    0.082899
   8 C :   -0.304334
   9 H :    0.135065
  10 H :    0.126161
  11 H :    0.139640
  12 H :    0.126831
  13 H :    0.155959
  14 H :    0.126832
  15 H :    0.139643
  16 H :    0.135263
  17 H :    0.131507
  18 H :    0.130301

  Mayer bond orders larger than 0.1
B(  0-C ,  1-C ) :   0.9348 B(  0-C ,  3-C ) :   0.9348 B(  0-C ,  9-H ) :   0.9273
B(  0-C , 10-H ) :   0.9285 B(  1-C ,  2-C ) :   0.9086 B(  1-C , 11-H ) :   0.9238
B(  1-C , 12-H ) :   0.9315 B(  2-C ,  3-C ) :   0.9086 B(  2-C ,  4-N ) :   0.8661
B(  2-C , 13-H ) :   0.9258 B(  3-C , 14-H ) :   0.9315 B(  3-C , 15-H ) :   0.9238
B(  4-N ,  5-C ) :   1.0995 B(  4-N ,  8-C ) :   1.1455 B(  5-C ,  6-C ) :   1.5187
B(  5-C , 16-H ) :   0.9125 B(  6-C ,  7-N ) :   1.2842 B(  6-C , 17-H ) :   0.9391
B(  7-N ,  8-C ) :   1.5817 B(  8-C , 18-H ) :   0.9223

MP2 TOTAL ENERGY:     -381.413265781 Eh
FINAL SINGLE POINT ENERGY      -381.413265781267

DIPOLE MOMENT
-------------
                                X             Y             Z
Electronic contribution:      5.44048      -5.49905      -1.02662
Nuclear contribution   :     -6.44030       6.58508       1.91998
                        -----------------------------------------
Total Dipole Moment    :     -0.99982       1.08603       0.89336
                        -----------------------------------------
Magnitude (a.u.)       :      1.72546
Magnitude (Debye)      :      4.38576

                             ****ORCA TERMINATED NORMALLY****
TOTAL RUN TIME: 0 days 0 hours 17 minutes 57 seconds 888 msec
