                         Program Version 3.0.3 - RELEASE   -
|  1> ! RI-MP2 RIJK def2-TZVP def2-TZVP/C def2-TZVP/JK TIGHTSCF
|  2> % maxcore 2000
|  3> % mp2 density relaxed end
|  4> *xyz 0 1
|  5>  C       -0.0049216697     1.5138949159    -0.0895499949
|  6>  C        0.0187445064     0.0605478145    -0.0350472218
|  7>  C        0.0359696682    -1.1426669331     0.0094529491
|  8>  C        0.0538795113    -2.5968993018     0.0308604273
|  9>  O        1.0122132402    -3.1598009244    -0.8403484028
| 10>  C        0.1101870330    -3.2828302490     1.4204238586
| 11>  O       -1.2238203130    -3.8431960583     1.2122383827
| 12>  C       -1.3247481997    -3.2779636426    -0.0365511544
| 13>  N       -2.2107411455    -3.3451376972    -0.9167445547
| 14>  H        0.8674616157     1.9019020145    -0.6262878634
| 15>  H       -0.9025390809     1.8756712018    -0.6022521559
| 16>  H        0.0038439494     1.9467865347     0.9165464764
| 17>  H        0.7812543800    -2.8830542621    -1.7351547183
| 18>  H        0.8660567843    -4.0672053640     1.4847612640
| 19>  H        0.1317165050    -2.6209156140     2.2864710236
| 20>  H       -2.9884504147    -3.9426294450    -0.6312392154
| 21> *
| 22>
| 23>                          ****END OF INPUT****

CARTESIAN COORDINATES (ANGSTROEM)
---------------------------------
  C     -0.004922    1.513895   -0.089550
  C      0.018745    0.060548   -0.035047
  C      0.035970   -1.142667    0.009453
  C      0.053880   -2.596899    0.030860
  O      1.012213   -3.159801   -0.840348
  C      0.110187   -3.282830    1.420424
  O     -1.223820   -3.843196    1.212238
  C     -1.324748   -3.277964   -0.036551
  N     -2.210741   -3.345138   -0.916745
  H      0.867462    1.901902   -0.626288
  H     -0.902539    1.875671   -0.602252
  H      0.003844    1.946787    0.916546
  H      0.781254   -2.883054   -1.735155
  H      0.866057   -4.067205    1.484761
  H      0.131717   -2.620916    2.286471
  H     -2.988450   -3.942629   -0.631239

 Total Charge           Charge          ....    0
 Multiplicity           Mult            ....    1
 Number of Electrons    NEL             ....   66
 Basis Dimension        Dim             ....  321

ORBITAL ENERGIES
----------------

  NO   OCC          E(Eh)            E(eV)
   0   2.0000     -20.600573      -560.5701
   1   2.0000     -20.584563      -560.1344
   2   2.0000     -15.546422      -423.0396
   3   2.0000     -11.346566      -308.7558
   4   2.0000     -11.339797      -308.5716
   5   2.0000     -11.307817      -307.7013
   6   2.0000     -11.258897      -306.3702
   7   2.0000     -11.249059      -306.1025
   8   2.0000     -11.233423      -305.6770
   9   2.0000      -1.448176       -39.4069
  10   2.0000      -1.388488       -37.7827
  11   2.0000      -1.205731       -32.8096
  12   2.0000      -1.086320       -29.5603
  13   2.0000      -1.037500       -28.2318
  14   2.0000      -0.963245       -26.2112
  15   2.0000      -0.907379       -24.6910
  16   2.0000      -0.793861       -21.6021
  17   2.0000      -0.755854       -20.5678
  18   2.0000      -0.711184       -19.3523
  19   2.0000      -0.689054       -18.7501
  20   2.0000      -0.656471       -17.8635
  21   2.0000      -0.641150       -17.4466
  22   2.0000      -0.607053       -16.5187
  23   2.0000      -0.600136       -16.3305
  24   2.0000      -0.598757       -16.2930
  25   2.0000      -0.569107       -15.4862
  26   2.0000      -0.542582       -14.7644
  27   2.0000      -0.518885       -14.1196
  28   2.0000      -0.492385       -13.3985
  29   2.0000      -0.444539       -12.0965
  30   2.0000      -0.416201       -11.3254
  31   2.0000      -0.391992       -10.6666
  32   2.0000      -0.383931       -10.4473
  33   0.0000       0.125795         3.4231
  34   0.0000       0.139459         3.7949
  35   0.0000       0.158073         4.3014
  36   0.0000       0.160561         4.3691
  37   0.0000       0.177514         4.8304

MULLIKEN ATOMIC CHARGES
-----------------------
   0 C :   -0.488238
   1 C :    0.050035
   2 C :   -0.113194
   3 C :    0.250908
   4 O :   -0.458774
   5 C :   -0.034374
   6 O :   -0.260091
   7 C :    0.090769
   8 N :   -0.369293
   9 H :    0.167961
  10 H :    0.171135
  11 H :    0.166177
  12 H :    0.336001
  13 H :    0.127013
  14 H :    0.130340
  15 H :    0.233623
Sum of atomic charges:   -0.0000000

LOEWDIN ATOMIC CHARGES
----------------------
   0 C :   -0.288228
   1 C :   -0.073356
   2 C :   -0.044397
   3 C :   -0.332555
   4 O :    0.036707
   5 C :   -0.171094
   6 O :    0.218635
   7 C :   -0.365452
   8 N :   -0.041236
   9 H :    0.144309
  10 H :    0.144635
  11 H :    0.143727
  12 H :    0.191661
  13 H :    0.131612
  14 H :    0.128544
  15 H :    0.176488

  Mayer bond orders larger than 0.1
B(  0-C ,  1-C ) :   0.8504 B(  0-C ,  9-H ) :   0.9447 B(  0-C , 10-H ) :   0.9462
B(  0-C , 11-H ) :   0.9472 B(  1-C ,  2-C ) :   2.6864 B(  2-C ,  3-C ) :   1.0510
B(  3-C ,  4-O ) :   0.9202 B(  3-C ,  5-C ) :   0.9054 B(  3-C ,  7-C ) :   0.9032
B(  4-O , 12-H ) :   0.8299 B(  5-C ,  6-O ) :   0.8980 B(  5-C , 13-H ) :   0.9085
B(  5-C , 14-H ) :   0.9210 B(  6-O ,  7-C ) :   1.0769 B(  7-C ,  8-N ) :   2.0952
B(  8-N , 15-H ) :   0.8470

MP2 TOTAL ENERGY:     -437.117316493 Eh
FINAL SINGLE POINT ENERGY      -437.117316493024

DIPOLE MOMENT
-------------
                                X             Y             Z
Electronic contribution:     -1.11799      -6.10567      -0.18011
Nuclear contribution   :      1.40331       6.89873       0.50758
                        -----------------------------------------
Total Dipole Moment    :      0.28532       0.79306       0.32747
                        -----------------------------------------
Magnitude (a.u.)       :      0.90421
Magnitude (Debye)      :      2.29831

                             ****ORCA TERMINATED NORMALLY****
TOTAL RUN TIME: 0 days 0 hours 13 minutes 45 seconds 278 msec
