                         Program Version 3.0.3 - RELEASE   -
|  1> ! RI-MP2 RIJK def2-TZVP def2-TZVP/C def2-TZVP/JK TIGHTSCF
|  2> % maxcore 2000
|  3> % mp2 density relaxed end
|  4> *xyz 0 1
|  5>  C       -0.2216097778     1.5956933520     0.0932985378
|  6>  C        0.0000107773     0.0782597385    -0.0046510374
|  7>  C       -1.3636997800    -0.6211992215     0.0775260822
|  8>  C        0.7069726785    -0.3117777729    -1.3454477846
|  9>  O        2.1277355716    -0.4189257174    -1.2333509930
| 10>  C        2.5662818073    -0.8513986594     0.0485809992
| 11>  C        1.4868843911    -1.6889947298     0.7648868680
| 12>  N        0.8176907810    -0.3869247091     1.1575259710
| 13>  C        2.2050437912     0.2218820807     1.0862559852
| 14>  H        0.6664904490     2.1705250586    -0.1803814217
| 15>  H       -1.0251837750     1.8984543485    -0.5850784952
| 16>  H       -0.5109842481     1.8690265359     1.1124655945
| 17>  H       -1.9763654450    -0.3783043293    -0.7975922080
| 18>  H       -1.2577877237    -1.7093625965     0.1194852845
| 19>  H       -1.8979324579    -0.2996114089     0.9756173599
| 20>  H        0.3025158387    -1.2673588149    -1.7087173426
| 21>  H        0.5156082896     0.4345027168    -2.1227010088
| 22>  H        3.5910979404    -1.2137817936    -0.0695562145
| 23>  H        0.8863574436    -2.3937003812     0.1870798443
| 24>  H        1.8679039109    -2.1900089894     1.6589118414
| 25>  H        2.7015872140     0.0927281562     2.0531261604
| 26>  H        2.2709326033     1.2633461466     0.7728817475
| 27> *
| 28>
| 29>                          ****END OF INPUT****

CARTESIAN COORDINATES (ANGSTROEM)
---------------------------------
  C     -0.221610    1.595693    0.093299
  C      0.000011    0.078260   -0.004651
  C     -1.363700   -0.621199    0.077526
  C      0.706973   -0.311778   -1.345448
  O      2.127736   -0.418926   -1.233351
  C      2.566282   -0.851399    0.048581
  C      1.486884   -1.688995    0.764887
  N      0.817691   -0.386925    1.157526
  C      2.205044    0.221882    1.086256
  H      0.666490    2.170525   -0.180381
  H     -1.025184    1.898454   -0.585078
  H     -0.510984    1.869027    1.112466
  H     -1.976365   -0.378304   -0.797592
  H     -1.257788   -1.709363    0.119485
  H     -1.897932   -0.299611    0.975617
  H      0.302516   -1.267359   -1.708717
  H      0.515608    0.434503   -2.122701
  H      3.591098   -1.213782   -0.069556
  H      0.886357   -2.393700    0.187080
  H      1.867904   -2.190009    1.658912
  H      2.701587    0.092728    2.053126
  H      2.270933    1.263346    0.772882

 Total Charge           Charge          ....    0
 Multiplicity           Mult            ....    1
 Number of Electrons    NEL             ....   70
 Basis Dimension        Dim             ....  357

ORBITAL ENERGIES
----------------

  NO   OCC          E(Eh)            E(eV)
   0   2.0000     -20.552225      -559.2545
   1   2.0000     -15.551940      -423.1898
   2   2.0000     -11.281550      -306.9866
   3   2.0000     -11.271298      -306.7076
   4   2.0000     -11.265046      -306.5375
   5   2.0000     -11.252507      -306.1963
   6   2.0000     -11.246543      -306.0340
   7   2.0000     -11.213314      -305.1298
   8   2.0000     -11.213291      -305.1292
   9   2.0000      -1.378659       -37.5152
  10   2.0000      -1.235812       -33.6281
  11   2.0000      -1.085947       -29.5501
  12   2.0000      -0.954190       -25.9648
  13   2.0000      -0.943624       -25.6773
  14   2.0000      -0.910498       -24.7759
  15   2.0000      -0.896559       -24.3966
  16   2.0000      -0.812340       -22.1049
  17   2.0000      -0.712481       -19.3876
  18   2.0000      -0.687545       -18.7091
  19   2.0000      -0.666372       -18.1329
  20   2.0000      -0.632026       -17.1983
  21   2.0000      -0.626884       -17.0584
  22   2.0000      -0.589613       -16.0442
  23   2.0000      -0.578777       -15.7493
  24   2.0000      -0.556137       -15.1333
  25   2.0000      -0.544761       -14.8237
  26   2.0000      -0.535064       -14.5598
  27   2.0000      -0.530538       -14.4367
  28   2.0000      -0.513967       -13.9857
  29   2.0000      -0.491876       -13.3846
  30   2.0000      -0.476979       -12.9793
  31   2.0000      -0.462895       -12.5960
  32   2.0000      -0.457707       -12.4549
  33   2.0000      -0.402777       -10.9601
  34   2.0000      -0.351136        -9.5549
  35   0.0000       0.136228         3.7069
  36   0.0000       0.158349         4.3089
  37   0.0000       0.166058         4.5187
  38   0.0000       0.182332         4.9615
  39   0.0000       0.189977         5.1695

MULLIKEN ATOMIC CHARGES
-----------------------
   0 C :   -0.436625
   1 C :    0.110683
   2 C :   -0.393703
   3 C :   -0.096170
   4 O :   -0.315620
   5 C :    0.104874
   6 C :   -0.222180
   7 N :   -0.185821
   8 C :   -0.201284
   9 H :    0.135057
  10 H :    0.133258
  11 H :    0.145561
  12 H :    0.129635
  13 H :    0.123033
  14 H :    0.137363
  15 H :    0.102157
  16 H :    0.123200
  17 H :    0.114304
  18 H :    0.124885
  19 H :    0.129650
  20 H :    0.120911
  21 H :    0.116833
Sum of atomic charges:   -0.0000000

LOEWDIN ATOMIC CHARGES
----------------------
   0 C :   -0.275113
   1 C :   -0.362476
   2 C :   -0.272165
   3 C :   -0.267248
   4 O :    0.165120
   5 C :   -0.305617
   6 C :   -0.231969
   7 N :    0.114334
   8 C :   -0.229121
   9 H :    0.123196
  10 H :    0.128392
  11 H :    0.130919
  12 H :    0.126061
  13 H :    0.122982
  14 H :    0.129736
  15 H :    0.123388
  16 H :    0.132638
  17 H :    0.128432
  18 H :    0.125989
  19 H :    0.135348
  20 H :    0.131611
  21 H :    0.125564

  Mayer bond orders larger than 0.1
B(  0-C ,  1-C ) :   0.9049 B(  0-C ,  9-H ) :   0.9289 B(  0-C , 10-H ) :   0.9344
B(  0-C , 11-H ) :   0.9387 B(  1-C ,  2-C ) :   0.9253 B(  1-C ,  3-C ) :   0.8982
B(  1-C ,  7-N ) :   0.9070 B(  2-C , 12-H ) :   0.9384 B(  2-C , 13-H ) :   0.9195
B(  2-C , 14-H ) :   0.9387 B(  3-C ,  4-O ) :   0.9463 B(  3-C , 15-H ) :   0.9286
B(  3-C , 16-H ) :   0.9189 B(  4-O ,  5-C ) :   0.9165 B(  5-C ,  6-C ) :   0.9160
B(  5-C ,  8-C ) :   0.9230 B(  5-C , 17-H ) :   0.9239 B(  6-C ,  7-N ) :   0.9006
B(  6-C , 18-H ) :   0.9225 B(  6-C , 19-H ) :   0.9178 B(  7-N ,  8-C ) :   0.8834
B(  8-C , 20-H ) :   0.9146 B(  8-C , 21-H ) :   0.9274

MP2 TOTAL ENERGY:     -403.626555057 Eh
FINAL SINGLE POINT ENERGY      -403.626555056568

DIPOLE MOMENT
-------------
                                X             Y             Z
Electronic contribution:      5.28597      -1.63083      -0.66633
Nuclear contribution   :     -5.37953       1.52588       0.68594
                        -----------------------------------------
Total Dipole Moment    :     -0.09355      -0.10494       0.01960
                        -----------------------------------------
Magnitude (a.u.)       :      0.14195
Magnitude (Debye)      :      0.36081

                             ****ORCA TERMINATED NORMALLY****
TOTAL RUN TIME: 0 days 0 hours 21 minutes 55 seconds 532 msec
