                         Program Version 3.0.3 - RELEASE   -
|  1> ! RI-MP2 RIJK def2-TZVP def2-TZVP/C def2-TZVP/JK TIGHTSCF
|  2> % maxcore 2000
|  3> % mp2 density relaxed end
|  4> *xyz 0 1
|  5>  C       -0.1926896254     1.3160858911    -0.3010830256
|  6>  O       -0.0524532989    -0.0605749575    -0.0473563780
|  7>  C       -1.2836464671    -0.7517978228    -0.0447359872
|  8>  C       -1.0305700716    -2.2442825473     0.2049574881
|  9>  C       -0.3027343906    -2.4549477091     1.5357641126
| 10>  C       -2.3871165245    -3.0050455323     0.1107796467
| 11>  C       -2.3277755899    -3.7230596493    -1.2592046849
| 12>  O       -1.2504899111    -3.1303435470    -1.9710998209
| 13>  C       -0.2621428033    -2.8361126744    -0.9987474785
| 14>  H        0.8077100032     1.7558142827    -0.2912347168
| 15>  H       -0.6554924923     1.5056238874    -1.2824319031
| 16>  H       -0.8063906421     1.8127089048     0.4673935736
| 17>  H       -1.9468009601    -0.3473228993     0.7401314598
| 18>  H       -1.7964395594    -0.6230298590    -1.0123714453
| 19>  H       -0.8961979673    -2.0703778572     2.3726741366
| 20>  H       -0.1185903075    -3.5191589825     1.7164000389
| 21>  H        0.6563736114    -1.9307765710     1.5416155722
| 22>  H       -2.5009286837    -3.7178728571     0.9316358802
| 23>  H       -3.2326655749    -2.3121055455     0.1656780199
| 24>  H       -2.1462243250    -4.8011849088    -1.1218584229
| 25>  H       -3.2329483835    -3.6052406944    -1.8605216191
| 26>  H        0.4524030657    -2.1342493764    -1.4327002120
| 27>  H        0.2751442580    -3.7514132251    -0.6970256741
| 28> *
| 29>
| 30>                          ****END OF INPUT****

CARTESIAN COORDINATES (ANGSTROEM)
---------------------------------
  C     -0.192690    1.316086   -0.301083
  O     -0.052453   -0.060575   -0.047356
  C     -1.283646   -0.751798   -0.044736
  C     -1.030570   -2.244283    0.204957
  C     -0.302734   -2.454948    1.535764
  C     -2.387117   -3.005046    0.110780
  C     -2.327776   -3.723060   -1.259205
  O     -1.250490   -3.130344   -1.971100
  C     -0.262143   -2.836113   -0.998747
  H      0.807710    1.755814   -0.291235
  H     -0.655492    1.505624   -1.282432
  H     -0.806391    1.812709    0.467394
  H     -1.946801   -0.347323    0.740131
  H     -1.796440   -0.623030   -1.012371
  H     -0.896198   -2.070378    2.372674
  H     -0.118590   -3.519159    1.716400
  H      0.656374   -1.930777    1.541616
  H     -2.500929   -3.717873    0.931636
  H     -3.232666   -2.312106    0.165678
  H     -2.146224   -4.801185   -1.121858
  H     -3.232948   -3.605241   -1.860522
  H      0.452403   -2.134249   -1.432700
  H      0.275144   -3.751413   -0.697026

 Total Charge           Charge          ....    0
 Multiplicity           Mult            ....    1
 Number of Electrons    NEL             ....   72
 Basis Dimension        Dim             ....  363

ORBITAL ENERGIES
----------------

  NO   OCC          E(Eh)            E(eV)
   0   2.0000     -20.554476      -559.3157
   1   2.0000     -20.546529      -559.0995
   2   2.0000     -11.271513      -306.7135
   3   2.0000     -11.270827      -306.6948
   4   2.0000     -11.269786      -306.6665
   5   2.0000     -11.261514      -306.4414
   6   2.0000     -11.234665      -305.7108
   7   2.0000     -11.223486      -305.4066
   8   2.0000     -11.211589      -305.0828
   9   2.0000      -1.378736       -37.5173
  10   2.0000      -1.371898       -37.3312
  11   2.0000      -1.094375       -29.7795
  12   2.0000      -0.998843       -27.1799
  13   2.0000      -0.953709       -25.9517
  14   2.0000      -0.921259       -25.0687
  15   2.0000      -0.877633       -23.8816
  16   2.0000      -0.815492       -22.1907
  17   2.0000      -0.751647       -20.4534
  18   2.0000      -0.682855       -18.5814
  19   2.0000      -0.673595       -18.3294
  20   2.0000      -0.651375       -17.7248
  21   2.0000      -0.643169       -17.5015
  22   2.0000      -0.627900       -17.0860
  23   2.0000      -0.601758       -16.3747
  24   2.0000      -0.576855       -15.6970
  25   2.0000      -0.557627       -15.1738
  26   2.0000      -0.549036       -14.9400
  27   2.0000      -0.545476       -14.8431
  28   2.0000      -0.514323       -13.9954
  29   2.0000      -0.491714       -13.3802
  30   2.0000      -0.484488       -13.1836
  31   2.0000      -0.470519       -12.8035
  32   2.0000      -0.451277       -12.2799
  33   2.0000      -0.447891       -12.1877
  34   2.0000      -0.421088       -11.4584
  35   2.0000      -0.411580       -11.1997
  36   0.0000       0.132438         3.6038
  37   0.0000       0.155548         4.2327
  38   0.0000       0.166756         4.5377
  39   0.0000       0.173471         4.7204
  40   0.0000       0.190625         5.1872

MULLIKEN ATOMIC CHARGES
-----------------------
   0 C :   -0.222057
   1 O :   -0.313423
   2 C :   -0.155558
   3 C :    0.223672
   4 C :   -0.455292
   5 C :   -0.316582
   6 C :   -0.028101
   7 O :   -0.326163
   8 C :   -0.068247
   9 H :    0.138950
  10 H :    0.114134
  11 H :    0.110425
  12 H :    0.100871
  13 H :    0.118976
  14 H :    0.128127
  15 H :    0.129091
  16 H :    0.153301
  17 H :    0.127746
  18 H :    0.121131
  19 H :    0.082397
  20 H :    0.113689
  21 H :    0.134777
  22 H :    0.088135
Sum of atomic charges:   -0.0000000

LOEWDIN ATOMIC CHARGES
----------------------
   0 C :   -0.361786
   1 O :    0.140748
   2 C :   -0.294267
   3 C :   -0.299661
   4 C :   -0.273124
   5 C :   -0.213020
   6 C :   -0.306233
   7 O :    0.148934
   8 C :   -0.269923
   9 H :    0.113182
  10 H :    0.102647
  11 H :    0.101426
  12 H :    0.123188
  13 H :    0.130539
  14 H :    0.126471
  15 H :    0.123974
  16 H :    0.131265
  17 H :    0.138506
  18 H :    0.139136
  19 H :    0.117329
  20 H :    0.123982
  21 H :    0.134545
  22 H :    0.122143

  Mayer bond orders larger than 0.1
B(  0-C ,  1-O ) :   0.9199 B(  0-C ,  9-H ) :   0.9400 B(  0-C , 10-H ) :   0.9372
B(  0-C , 11-H ) :   0.9360 B(  1-O ,  2-C ) :   0.9292 B(  2-C ,  3-C ) :   0.9042
B(  2-C , 12-H ) :   0.9190 B(  2-C , 13-H ) :   0.9231 B(  3-C ,  4-C ) :   0.8882
B(  3-C ,  5-C ) :   0.8617 B(  3-C ,  8-C ) :   0.9176 B(  4-C , 14-H ) :   0.9365
B(  4-C , 15-H ) :   0.9316 B(  4-C , 16-H ) :   0.9364 B(  5-C ,  6-C ) :   0.9695
B(  5-C , 17-H ) :   0.9202 B(  5-C , 18-H ) :   0.9248 B(  6-C ,  7-O ) :   0.9502
B(  6-C , 19-H ) :   0.9261 B(  6-C , 20-H ) :   0.9234 B(  7-O ,  8-C ) :   0.9157
B(  8-C , 21-H ) :   0.9140 B(  8-C , 22-H ) :   0.9241

MP2 TOTAL ENERGY:     -424.720058024 Eh
FINAL SINGLE POINT ENERGY      -424.720058024188

DIPOLE MOMENT
-------------
                                X             Y             Z
Electronic contribution:      0.70777      -1.65953      -3.82143
Nuclear contribution   :     -1.11614       1.90130       4.34768
                        -----------------------------------------
Total Dipole Moment    :     -0.40837       0.24177       0.52625
                        -----------------------------------------
Magnitude (a.u.)       :      0.70863
Magnitude (Debye)      :      1.80120

                             ****ORCA TERMINATED NORMALLY****
TOTAL RUN TIME: 0 days 0 hours 19 minutes 21 seconds 742 msec
