                         Program Version 3.0.3 - RELEASE   -
|  1> ! RI-MP2 RIJK def2-TZVP def2-TZVP/C def2-TZVP/JK TIGHTSCF
|  2> % maxcore 2000
|  3> % mp2 density relaxed end
|  4> *xyz 0 1
|  5>  C        0.1172445741     1.3248408267    -0.7565175278
|  6>  C        0.0594674693    -0.0738574660    -0.3715074704
|  7>  C        0.0116718155    -1.2396896148    -0.0495141692
|  8>  C       -0.0417570920    -2.5496103159     0.3134784782
|  9>  C       -0.0898402025    -3.7156451506     0.6376629325
| 10>  C       -0.1578703282    -5.1138425488     1.0273237855
| 11>  C       -1.4358399339    -5.8289171626     0.5463389854
| 12>  C       -1.5190167605    -5.9293084741    -0.9744427483
| 13>  O       -1.3857854061    -7.1120101762     1.1598385882
| 14>  H        1.1455906655     1.6337372776    -0.9762921539
| 15>  H       -0.4850386151     1.5154381528    -1.6521616453
| 16>  H       -0.2608897131     1.9730915744     0.0422343964
| 17>  H        0.7111017695    -5.6617816105     0.6393308489
| 18>  H       -0.1171203479    -5.2035082026     2.1197405176
| 19>  H       -2.3025522290    -5.2607333553     0.9195110798
| 20>  H       -0.6706396128    -6.5015547884    -1.3640802887
| 21>  H       -2.4430070684    -6.4338384795    -1.2796252147
| 22>  H       -1.5123557237    -4.9355270201    -1.4308906445
| 23>  H       -2.1244672908    -7.6303099461     0.8259181005
| 24> *
| 25>
| 26>                          ****END OF INPUT****

CARTESIAN COORDINATES (ANGSTROEM)
---------------------------------
  C      0.117245    1.324841   -0.756518
  C      0.059467   -0.073857   -0.371507
  C      0.011672   -1.239690   -0.049514
  C     -0.041757   -2.549610    0.313478
  C     -0.089840   -3.715645    0.637663
  C     -0.157870   -5.113843    1.027324
  C     -1.435840   -5.828917    0.546339
  C     -1.519017   -5.929308   -0.974443
  O     -1.385785   -7.112010    1.159839
  H      1.145591    1.633737   -0.976292
  H     -0.485039    1.515438   -1.652162
  H     -0.260890    1.973092    0.042234
  H      0.711102   -5.661782    0.639331
  H     -0.117120   -5.203508    2.119741
  H     -2.302552   -5.260733    0.919511
  H     -0.670640   -6.501555   -1.364080
  H     -2.443007   -6.433838   -1.279625
  H     -1.512356   -4.935527   -1.430891
  H     -2.124467   -7.630310    0.825918

 Total Charge           Charge          ....    0
 Multiplicity           Mult            ....    1
 Number of Electrons    NEL             ....   66
 Basis Dimension        Dim             ....  339

ORBITAL ENERGIES
----------------

  NO   OCC          E(Eh)            E(eV)
   0   2.0000     -20.560686      -559.4847
   1   2.0000     -11.292059      -307.2725
   2   2.0000     -11.254578      -306.2526
   3   2.0000     -11.250717      -306.1476
   4   2.0000     -11.245302      -306.0002
   5   2.0000     -11.243098      -305.9403
   6   2.0000     -11.238502      -305.8152
   7   2.0000     -11.237274      -305.7818
   8   2.0000     -11.221383      -305.3494
   9   2.0000      -1.368245       -37.2318
  10   2.0000      -1.096237       -29.8301
  11   2.0000      -1.070894       -29.1405
  12   2.0000      -1.024590       -27.8805
  13   2.0000      -0.976734       -26.5783
  14   2.0000      -0.941624       -25.6229
  15   2.0000      -0.830918       -22.6104
  16   2.0000      -0.790781       -21.5182
  17   2.0000      -0.710503       -19.3338
  18   2.0000      -0.645787       -17.5728
  19   2.0000      -0.638381       -17.3712
  20   2.0000      -0.621575       -16.9139
  21   2.0000      -0.605818       -16.4851
  22   2.0000      -0.594931       -16.1889
  23   2.0000      -0.594773       -16.1846
  24   2.0000      -0.567759       -15.4495
  25   2.0000      -0.545041       -14.8313
  26   2.0000      -0.524562       -14.2741
  27   2.0000      -0.497759       -13.5447
  28   2.0000      -0.460742       -12.5374
  29   2.0000      -0.455861       -12.4046
  30   2.0000      -0.446291       -12.1442
  31   2.0000      -0.335847        -9.1389
  32   2.0000      -0.334609        -9.1052
  33   0.0000       0.126970         3.4550
  34   0.0000       0.131898         3.5891
  35   0.0000       0.133069         3.6210
  36   0.0000       0.134611         3.6630
  37   0.0000       0.165721         4.5095

MULLIKEN ATOMIC CHARGES
-----------------------
   0 C :   -0.460093
   1 C :    0.012398
   2 C :   -0.029954
   3 C :   -0.033317
   4 C :   -0.097913
   5 C :   -0.212180
   6 C :    0.109225
   7 C :   -0.440127
   8 O :   -0.458766
   9 H :    0.166831
  10 H :    0.165886
  11 H :    0.166682
  12 H :    0.147310
  13 H :    0.155376
  14 H :    0.085944
  15 H :    0.135062
  16 H :    0.124734
  17 H :    0.148578
  18 H :    0.314326
Sum of atomic charges:    0.0000000

LOEWDIN ATOMIC CHARGES
----------------------
   0 C :   -0.291663
   1 C :   -0.058762
   2 C :   -0.077386
   3 C :   -0.070795
   4 C :   -0.032427
   5 C :   -0.229400
   6 C :   -0.364179
   7 C :   -0.302223
   8 O :   -0.022232
   9 H :    0.143974
  10 H :    0.143672
  11 H :    0.143854
  12 H :    0.161668
  13 H :    0.164183
  14 H :    0.135870
  15 H :    0.126987
  16 H :    0.120606
  17 H :    0.133719
  18 H :    0.174535

  Mayer bond orders larger than 0.1
B(  0-C ,  1-C ) :   0.8123 B(  0-C ,  9-H ) :   0.9452 B(  0-C , 10-H ) :   0.9462
B(  0-C , 11-H ) :   0.9453 B(  1-C ,  2-C ) :   2.5781 B(  1-C ,  4-C ) :   0.1112
B(  2-C ,  3-C ) :   1.3038 B(  3-C ,  4-C ) :   2.5586 B(  4-C ,  5-C ) :   0.8787
B(  5-C ,  6-C ) :   0.9074 B(  5-C ,  8-O ) :  -0.1084 B(  5-C , 12-H ) :   0.9334
B(  5-C , 13-H ) :   0.9206 B(  6-C ,  7-C ) :   0.9285 B(  6-C ,  8-O ) :   0.9927
B(  6-C , 14-H ) :   0.9340 B(  7-C , 15-H ) :   0.9332 B(  7-C , 16-H ) :   0.9332
B(  7-C , 17-H ) :   0.9250 B(  8-O , 18-H ) :   0.8452

MP2 TOTAL ENERGY:     -385.157463468 Eh
FINAL SINGLE POINT ENERGY      -385.157463467990

DIPOLE MOMENT
-------------
                                X             Y             Z
Electronic contribution:      1.95416       1.63896       3.12232
Nuclear contribution   :     -2.42827      -1.40657      -3.61036
                        -----------------------------------------
Total Dipole Moment    :     -0.47411       0.23239      -0.48804
                        -----------------------------------------
Magnitude (a.u.)       :      0.71901
Magnitude (Debye)      :      1.82757

                             ****ORCA TERMINATED NORMALLY****
TOTAL RUN TIME: 0 days 0 hours 13 minutes 16 seconds 443 msec
