                         Program Version 3.0.3 - RELEASE   -
|  1> ! RI-MP2 RIJK def2-TZVP def2-TZVP/C def2-TZVP/JK TIGHTSCF
|  2> % maxcore 2000
|  3> % mp2 density relaxed end
|  4> *xyz 0 1
|  5>  C        0.0570306425     1.5598681743     0.4396349781
|  6>  C       -0.0007277445     0.0848943191     0.0969157753
|  7>  C       -1.3701427033    -0.4102922842    -0.3700102690
|  8>  C       -1.8302440623     0.2007958585    -1.6110436379
|  9>  C       -2.2125143592     0.7051861040    -2.6407129685
| 10>  C       -2.6385902554     1.3246313300    -3.8675029851
| 11>  O       -3.6401615421     1.0270633293    -4.4781601964
| 12>  C        1.2145513558    -0.5668990552    -0.5134478524
| 13>  C        0.8236815985    -0.8798925463     0.9130792139
| 14>  H        1.0626765956     1.8487592587     0.7586051880
| 15>  H       -0.2124065104     2.1764516428    -0.4245086318
| 16>  H       -0.6349418583     1.8049365154     1.2543267415
| 17>  H       -1.3473102010    -1.4991997619    -0.5046691319
| 18>  H       -2.1207101751    -0.2208801326     0.4107408048
| 19>  H       -1.9600749604     2.1243482959    -4.2296133427
| 20>  H        1.0647357136    -1.3358758846    -1.2640398125
| 21>  H        2.0917030779     0.0485549851    -0.6812755800
| 22>  H        1.4335676898    -0.4738803543     1.7129697146
| 23>  H        0.4124797183    -1.8612513839     1.1262882820
| 24> *
| 25>
| 26>                          ****END OF INPUT****

CARTESIAN COORDINATES (ANGSTROEM)
---------------------------------
  C      0.057031    1.559868    0.439635
  C     -0.000728    0.084894    0.096916
  C     -1.370143   -0.410292   -0.370010
  C     -1.830244    0.200796   -1.611044
  C     -2.212514    0.705186   -2.640713
  C     -2.638590    1.324631   -3.867503
  O     -3.640162    1.027063   -4.478160
  C      1.214551   -0.566899   -0.513448
  C      0.823682   -0.879893    0.913079
  H      1.062677    1.848759    0.758605
  H     -0.212407    2.176452   -0.424509
  H     -0.634942    1.804937    1.254327
  H     -1.347310   -1.499200   -0.504669
  H     -2.120710   -0.220880    0.410741
  H     -1.960075    2.124348   -4.229613
  H      1.064736   -1.335876   -1.264040
  H      2.091703    0.048555   -0.681276
  H      1.433568   -0.473880    1.712970
  H      0.412480   -1.861251    1.126288

 Total Charge           Charge          ....    0
 Multiplicity           Mult            ....    1
 Number of Electrons    NEL             ....   66
 Basis Dimension        Dim             ....  339

ORBITAL ENERGIES
----------------

  NO   OCC          E(Eh)            E(eV)
   0   2.0000     -20.564281      -559.5825
   1   2.0000     -11.354970      -308.9844
   2   2.0000     -11.269778      -306.6663
   3   2.0000     -11.265420      -306.5477
   4   2.0000     -11.257004      -306.3186
   5   2.0000     -11.238952      -305.8274
   6   2.0000     -11.236054      -305.7486
   7   2.0000     -11.234755      -305.7132
   8   2.0000     -11.227831      -305.5248
   9   2.0000      -1.399548       -38.0836
  10   2.0000      -1.174579       -31.9619
  11   2.0000      -1.081205       -29.4211
  12   2.0000      -1.004265       -27.3274
  13   2.0000      -0.967531       -26.3279
  14   2.0000      -0.890234       -24.2245
  15   2.0000      -0.837268       -22.7832
  16   2.0000      -0.767267       -20.8784
  17   2.0000      -0.720467       -19.6049
  18   2.0000      -0.679341       -18.4858
  19   2.0000      -0.655510       -17.8373
  20   2.0000      -0.648238       -17.6395
  21   2.0000      -0.645035       -17.5523
  22   2.0000      -0.596539       -16.2326
  23   2.0000      -0.572231       -15.5712
  24   2.0000      -0.552036       -15.0216
  25   2.0000      -0.547570       -14.9001
  26   2.0000      -0.523619       -14.2484
  27   2.0000      -0.512108       -13.9352
  28   2.0000      -0.450942       -12.2707
  29   2.0000      -0.431095       -11.7307
  30   2.0000      -0.414501       -11.2792
  31   2.0000      -0.400513       -10.8985
  32   2.0000      -0.397958       -10.8290
  33   0.0000       0.083264         2.2657
  34   0.0000       0.123450         3.3592
  35   0.0000       0.152434         4.1479
  36   0.0000       0.157102         4.2750
  37   0.0000       0.166367         4.5271

MULLIKEN ATOMIC CHARGES
-----------------------
   0 C :   -0.420648
   1 C :    0.122545
   2 C :   -0.303366
   3 C :   -0.011400
   4 C :    0.069252
   5 C :    0.023733
   6 O :   -0.256422
   7 C :   -0.296749
   8 C :   -0.281094
   9 H :    0.130036
  10 H :    0.145451
  11 H :    0.131849
  12 H :    0.157946
  13 H :    0.156425
  14 H :    0.103038
  15 H :    0.134358
  16 H :    0.132074
  17 H :    0.133591
  18 H :    0.129384
Sum of atomic charges:    0.0000000

LOEWDIN ATOMIC CHARGES
----------------------
   0 C :   -0.261110
   1 C :   -0.270251
   2 C :   -0.202025
   3 C :   -0.019510
   4 C :   -0.067038
   5 C :   -0.296756
   6 O :    0.144106
   7 C :   -0.205430
   8 C :   -0.207874
   9 H :    0.129943
  10 H :    0.130968
  11 H :    0.128265
  12 H :    0.168135
  13 H :    0.167098
  14 H :    0.123085
  15 H :    0.135799
  16 H :    0.134685
  17 H :    0.134634
  18 H :    0.133278

  Mayer bond orders larger than 0.1
B(  0-C ,  1-C ) :   0.9250 B(  0-C ,  9-H ) :   0.9290 B(  0-C , 10-H ) :   0.9375
B(  0-C , 11-H ) :   0.9355 B(  1-C ,  2-C ) :   0.8915 B(  1-C ,  7-C ) :   0.8777
B(  1-C ,  8-C ) :   0.8747 B(  2-C ,  3-C ) :   1.0271 B(  2-C , 12-H ) :   0.9254
B(  2-C , 13-H ) :   0.9184 B(  3-C ,  4-C ) :   2.6990 B(  4-C ,  5-C ) :   0.8378
B(  4-C , 14-H ) :  -0.1122 B(  5-C ,  6-O ) :   2.0207 B(  5-C , 14-H ) :   1.0132
B(  7-C ,  8-C ) :   0.9016 B(  7-C , 15-H ) :   0.9248 B(  7-C , 16-H ) :   0.9285
B(  8-C , 17-H ) :   0.9304 B(  8-C , 18-H ) :   0.9223

MP2 TOTAL ENERGY:     -385.166790975 Eh
FINAL SINGLE POINT ENERGY      -385.166790975252

DIPOLE MOMENT
-------------
                                X             Y             Z
Electronic contribution:     -8.69872       0.85218      -9.76020
Nuclear contribution   :      9.74791      -0.86528      10.83767
                        -----------------------------------------
Total Dipole Moment    :      1.04919      -0.01310       1.07748
                        -----------------------------------------
Magnitude (a.u.)       :      1.50397
Magnitude (Debye)      :      3.82278

                             ****ORCA TERMINATED NORMALLY****
TOTAL RUN TIME: 0 days 0 hours 15 minutes 59 seconds 217 msec
