                         Program Version 3.0.3 - RELEASE   -
|  1> ! RI-MP2 RIJK def2-TZVP def2-TZVP/C def2-TZVP/JK TIGHTSCF
|  2> % maxcore 2000
|  3> % mp2 density relaxed end
|  4> *xyz 0 1
|  5>  C        0.0898487608    -6.3146978093    -0.0514522509
|  6>  C        0.0703712258    -5.1050744363    -0.0355941211
|  7>  C        0.0491723735    -3.7530003218    -0.0172345370
|  8>  C        0.0301168436    -2.5340874959    -0.0014110567
|  9>  C        0.0112942373    -1.1850104389     0.0175556211
| 10>  C       -0.0000883669     0.0299939779     0.0440017413
| 11>  C       -0.0104046585     1.4583773417     0.0423426821
| 12>  C        0.5111727290     2.2057655936     1.2321903131
| 13>  N        1.2697900056     2.2119713384    -0.0171137053
| 14>  H        0.1064046277    -7.3763202582    -0.0665229188
| 15>  H       -0.8041982869     1.9181475092    -0.5410674217
| 16>  H        0.0461852270     3.1518668435     1.4934956998
| 17>  H        0.8729061469     1.6181993379     2.0704797213
| 18>  H        2.0429717851     1.5531889582     0.0441144728
| 19> *
| 20>
| 21>                          ****END OF INPUT****

CARTESIAN COORDINATES (ANGSTROEM)
---------------------------------
  C      0.089849   -6.314698   -0.051452
  C      0.070371   -5.105074   -0.035594
  C      0.049172   -3.753000   -0.017235
  C      0.030117   -2.534087   -0.001411
  C      0.011294   -1.185010    0.017556
  C     -0.000088    0.029994    0.044002
  C     -0.010405    1.458377    0.042343
  C      0.511173    2.205766    1.232190
  N      1.269790    2.211971   -0.017114
  H      0.106405   -7.376320   -0.066523
  H     -0.804198    1.918148   -0.541067
  H      0.046185    3.151867    1.493496
  H      0.872906    1.618199    2.070480
  H      2.042972    1.553189    0.044114

 Total Charge           Charge          ....    0
 Multiplicity           Mult            ....    1
 Number of Electrons    NEL             ....   60
 Basis Dimension        Dim             ....  309

ORBITAL ENERGIES
----------------

  NO   OCC          E(Eh)            E(eV)
   0   2.0000     -15.583786      -424.0564
   1   2.0000     -11.300279      -307.4962
   2   2.0000     -11.281097      -306.9743
   3   2.0000     -11.278709      -306.9093
   4   2.0000     -11.274250      -306.7879
   5   2.0000     -11.270894      -306.6966
   6   2.0000     -11.268467      -306.6306
   7   2.0000     -11.263473      -306.4947
   8   2.0000     -11.261904      -306.4520
   9   2.0000      -1.286257       -35.0008
  10   2.0000      -1.114748       -30.3338
  11   2.0000      -1.074608       -29.2416
  12   2.0000      -1.022389       -27.8206
  13   2.0000      -0.940668       -25.5969
  14   2.0000      -0.895926       -24.3794
  15   2.0000      -0.863056       -23.4850
  16   2.0000      -0.795592       -21.6492
  17   2.0000      -0.740254       -20.1433
  18   2.0000      -0.718896       -19.5622
  19   2.0000      -0.669206       -18.2100
  20   2.0000      -0.583337       -15.8734
  21   2.0000      -0.536554       -14.6004
  22   2.0000      -0.529541       -14.4096
  23   2.0000      -0.512508       -13.9460
  24   2.0000      -0.506961       -13.7951
  25   2.0000      -0.458594       -12.4790
  26   2.0000      -0.441833       -12.0229
  27   2.0000      -0.412073       -11.2131
  28   2.0000      -0.341402        -9.2900
  29   2.0000      -0.330338        -8.9890
  30   0.0000       0.065984         1.7955
  31   0.0000       0.069192         1.8828
  32   0.0000       0.132365         3.6018
  33   0.0000       0.150289         4.0896
  34   0.0000       0.157416         4.2835

MULLIKEN ATOMIC CHARGES
-----------------------
   0 C :   -0.147947
   1 C :    0.028692
   2 C :   -0.031461
   3 C :   -0.084629
   4 C :    0.021201
   5 C :   -0.027998
   6 C :   -0.160169
   7 C :   -0.127598
   8 N :   -0.329769
   9 H :    0.199495
  10 H :    0.153894
  11 H :    0.133218
  12 H :    0.141589
  13 H :    0.231484
Sum of atomic charges:    0.0000000

LOEWDIN ATOMIC CHARGES
----------------------
   0 C :   -0.031751
   1 C :   -0.096096
   2 C :   -0.015727
   3 C :   -0.017941
   4 C :   -0.051234
   5 C :   -0.010599
   6 C :   -0.259943
   7 C :   -0.241798
   8 N :    0.004193
   9 H :    0.131989
  10 H :    0.160713
  11 H :    0.128533
  12 H :    0.127611
  13 H :    0.172050

  Mayer bond orders larger than 0.1
B(  0-C ,  1-C ) :   2.5330 B(  0-C ,  3-C ) :   0.1029 B(  0-C ,  9-H ) :   0.8734
B(  1-C ,  2-C ) :   1.3221 B(  1-C ,  4-C ) :   0.1084 B(  2-C ,  3-C ) :   2.4924
B(  3-C ,  4-C ) :   1.2921 B(  4-C ,  5-C ) :   2.4412 B(  5-C ,  6-C ) :   1.0402
B(  6-C ,  7-C ) :   0.9299 B(  6-C ,  8-N ) :   0.9471 B(  6-C , 10-H ) :   0.9083
B(  7-C ,  8-N ) :   0.9149 B(  7-C , 11-H ) :   0.9230 B(  7-C , 12-H ) :   0.9161
B(  8-N , 13-H ) :   0.8757

MP2 TOTAL ENERGY:     -361.610627655 Eh
FINAL SINGLE POINT ENERGY      -361.610627655329

DIPOLE MOMENT
-------------
                                X             Y             Z
Electronic contribution:     -0.96331      -7.11136      -1.64970
Nuclear contribution   :      0.94451       6.97026       2.09850
                        -----------------------------------------
Total Dipole Moment    :     -0.01880      -0.14110       0.44880
                        -----------------------------------------
Magnitude (a.u.)       :      0.47083
Magnitude (Debye)      :      1.19676

                             ****ORCA TERMINATED NORMALLY****
TOTAL RUN TIME: 0 days 0 hours 11 minutes 7 seconds 484 msec
