                         Program Version 3.0.3 - RELEASE   -
|  1> ! RI-MP2 RIJK def2-TZVP def2-TZVP/C def2-TZVP/JK TIGHTSCF
|  2> % maxcore 2000
|  3> % mp2 density relaxed end
|  4> *xyz 0 1
|  5>  C        0.0192295992     1.5248797312    -0.0467374685
|  6>  C        0.0340747459    -0.0019607700     0.0212513514
|  7>  O        0.7672501641    -0.4903949223    -1.1005233430
|  8>  C        1.2760836872    -1.7931823701    -0.7879900462
|  9>  C        1.5408496303    -1.7719657628     0.7061639099
| 10>  C        2.2426234786    -0.5431978142     1.2221975930
| 11>  C        0.7368207278    -0.6108043281     1.2379284435
| 12>  C       -1.3606928348    -0.5205804929    -0.0275683799
| 13>  N       -2.4402256448    -0.9314335513    -0.0657854945
| 14>  H        1.0421318470     1.8991660325     0.0287272325
| 15>  H       -0.4128489897     1.8564779378    -0.9935610141
| 16>  H       -0.5743185676     1.9371620691     0.7731251459
| 17>  H        0.5390598794    -2.5696709254    -1.0376944584
| 18>  H        2.1659208270    -1.9381785731    -1.4076298544
| 19>  H        1.6095263908    -2.7111016937     1.2408441569
| 20>  H        2.7420529106    -0.6156074897     2.1813946296
| 21>  H        2.7293171150     0.1089535807     0.5041654551
| 22>  H        0.1964316340    -0.6571592576     2.1747201910
| 23> *
| 24>
| 25>                          ****END OF INPUT****

CARTESIAN COORDINATES (ANGSTROEM)
---------------------------------
  C      0.019230    1.524880   -0.046737
  C      0.034075   -0.001961    0.021251
  O      0.767250   -0.490395   -1.100523
  C      1.276084   -1.793182   -0.787990
  C      1.540850   -1.771966    0.706164
  C      2.242623   -0.543198    1.222198
  C      0.736821   -0.610804    1.237928
  C     -1.360693   -0.520580   -0.027568
  N     -2.440226   -0.931434   -0.065785
  H      1.042132    1.899166    0.028727
  H     -0.412849    1.856478   -0.993561
  H     -0.574319    1.937162    0.773125
  H      0.539060   -2.569671   -1.037694
  H      2.165921   -1.938179   -1.407630
  H      1.609526   -2.711102    1.240844
  H      2.742053   -0.615607    2.181395
  H      2.729317    0.108954    0.504165
  H      0.196432   -0.657159    2.174720

 Total Charge           Charge          ....    0
 Multiplicity           Mult            ....    1
 Number of Electrons    NEL             ....   66
 Basis Dimension        Dim             ....  333

ORBITAL ENERGIES
----------------

  NO   OCC          E(Eh)            E(eV)
   0   2.0000     -20.581452      -560.0498
   1   2.0000     -15.571772      -423.7295
   2   2.0000     -11.344640      -308.7033
   3   2.0000     -11.293688      -307.3169
   4   2.0000     -11.268767      -306.6387
   5   2.0000     -11.258826      -306.3682
   6   2.0000     -11.253480      -306.2228
   7   2.0000     -11.248089      -306.0761
   8   2.0000     -11.239555      -305.8438
   9   2.0000      -1.411525       -38.4095
  10   2.0000      -1.217476       -33.1292
  11   2.0000      -1.170528       -31.8517
  12   2.0000      -1.075711       -29.2716
  13   2.0000      -0.950092       -25.8533
  14   2.0000      -0.917897       -24.9773
  15   2.0000      -0.816525       -22.2188
  16   2.0000      -0.807912       -21.9844
  17   2.0000      -0.747814       -20.3491
  18   2.0000      -0.685195       -18.6451
  19   2.0000      -0.666241       -18.1293
  20   2.0000      -0.643022       -17.4975
  21   2.0000      -0.596335       -16.2271
  22   2.0000      -0.581504       -15.8235
  23   2.0000      -0.574359       -15.6291
  24   2.0000      -0.557712       -15.1761
  25   2.0000      -0.550496       -14.9798
  26   2.0000      -0.527428       -14.3521
  27   2.0000      -0.509384       -13.8611
  28   2.0000      -0.470551       -12.8043
  29   2.0000      -0.468944       -12.7606
  30   2.0000      -0.460420       -12.5287
  31   2.0000      -0.437337       -11.9006
  32   2.0000      -0.420945       -11.4545
  33   0.0000       0.131449         3.5769
  34   0.0000       0.146022         3.9735
  35   0.0000       0.158567         4.3148
  36   0.0000       0.166584         4.5330
  37   0.0000       0.178022         4.8442

MULLIKEN ATOMIC CHARGES
-----------------------
   0 C :   -0.386808
   1 C :    0.342280
   2 O :   -0.310614
   3 C :   -0.052824
   4 C :   -0.143732
   5 C :   -0.282770
   6 C :   -0.132732
   7 C :   -0.258958
   8 N :   -0.045202
   9 H :    0.139967
  10 H :    0.154938
  11 H :    0.142301
  12 H :    0.114609
  13 H :    0.130183
  14 H :    0.144042
  15 H :    0.143982
  16 H :    0.148986
  17 H :    0.152351
Sum of atomic charges:    0.0000000

LOEWDIN ATOMIC CHARGES
----------------------
   0 C :   -0.237504
   1 C :   -0.348776
   2 O :    0.212818
   3 C :   -0.265411
   4 C :   -0.199825
   5 C :   -0.191831
   6 C :   -0.154427
   7 C :   -0.137676
   8 N :    0.068958
   9 H :    0.132734
  10 H :    0.136896
  11 H :    0.135950
  12 H :    0.130881
  13 H :    0.132603
  14 H :    0.148813
  15 H :    0.139411
  16 H :    0.141323
  17 H :    0.155064

  Mayer bond orders larger than 0.1
B(  0-C ,  1-C ) :   0.8864 B(  0-C ,  9-H ) :   0.9350 B(  0-C , 10-H ) :   0.9314
B(  0-C , 11-H ) :   0.9300 B(  1-C ,  2-O ) :   0.9298 B(  1-C ,  6-C ) :   0.9157
B(  1-C ,  7-C ) :   0.9033 B(  2-O ,  3-C ) :   0.9123 B(  3-C ,  4-C ) :   0.9659
B(  3-C , 12-H ) :   0.9239 B(  3-C , 13-H ) :   0.9225 B(  4-C ,  5-C ) :   0.8879
B(  4-C ,  6-C ) :   0.8747 B(  4-C , 14-H ) :   0.9158 B(  5-C ,  6-C ) :   0.8782
B(  5-C , 15-H ) :   0.9310 B(  5-C , 16-H ) :   0.9125 B(  6-C , 17-H ) :   0.9120
B(  7-C ,  8-N ) :   2.8816

MP2 TOTAL ENERGY:     -401.269286327 Eh
FINAL SINGLE POINT ENERGY      -401.269286326984

DIPOLE MOMENT
-------------
                                X             Y             Z
Electronic contribution:     -5.08810      -2.00639      -1.72447
Nuclear contribution   :      6.51925       2.15424       2.34731
                        -----------------------------------------
Total Dipole Moment    :      1.43115       0.14785       0.62284
                        -----------------------------------------
Magnitude (a.u.)       :      1.56780
Magnitude (Debye)      :      3.98503

                             ****ORCA TERMINATED NORMALLY****
TOTAL RUN TIME: 0 days 0 hours 19 minutes 13 seconds 817 msec
