                         Program Version 3.0.3 - RELEASE   -
|  1> ! RI-MP2 RIJK def2-TZVP def2-TZVP/C def2-TZVP/JK TIGHTSCF
|  2> % maxcore 2000
|  3> % mp2 density relaxed end
|  4> *xyz 0 1
|  5>  O        0.2648284171     1.0486499731    -0.7150432817
|  6>  C        0.0552339234    -0.1263612413     0.0383756852
|  7>  C        0.3246038591    -0.0124629432     1.5484021443
|  8>  C       -0.6610316053    -0.9951279488     2.1392717174
|  9>  N       -0.5990955216    -1.5186364715     3.2846927678
| 10>  O       -1.6470977566    -1.2519946668     1.2194901274
| 11>  C       -1.4212720203    -0.4965484822     0.0355557599
| 12>  C       -2.4999838903     0.4385086468    -0.4203055396
| 13>  C       -2.2158402996    -0.8544858848    -1.1701797286
| 14>  H        1.2104485295     1.1556669761    -0.8522937035
| 15>  H        0.6336635493    -0.9639929429    -0.3806829667
| 16>  H        1.3453002560    -0.2350735562     1.8604844864
| 17>  H        0.0725313537     1.0028072387     1.8756217767
| 18>  H       -1.3961956626    -2.1394939269     3.4376530056
| 19>  H       -3.3996889715     0.4750126889     0.1832523847
| 20>  H       -2.1971075283     1.3737312127    -0.8746000095
| 21>  H       -1.7239275368    -0.7897686017    -2.1350594675
| 22>  H       -2.9308050153    -1.6631519601    -1.0699867984
| 23> *
| 24>
| 25>                          ****END OF INPUT****

CARTESIAN COORDINATES (ANGSTROEM)
---------------------------------
  O      0.264828    1.048650   -0.715043
  C      0.055234   -0.126361    0.038376
  C      0.324604   -0.012463    1.548402
  C     -0.661032   -0.995128    2.139272
  N     -0.599096   -1.518636    3.284693
  O     -1.647098   -1.251995    1.219490
  C     -1.421272   -0.496548    0.035556
  C     -2.499984    0.438509   -0.420306
  C     -2.215840   -0.854486   -1.170180
  H      1.210449    1.155667   -0.852294
  H      0.633664   -0.963993   -0.380683
  H      1.345300   -0.235074    1.860484
  H      0.072531    1.002807    1.875622
  H     -1.396196   -2.139494    3.437653
  H     -3.399689    0.475013    0.183252
  H     -2.197108    1.373731   -0.874600
  H     -1.723928   -0.789769   -2.135059
  H     -2.930805   -1.663152   -1.069987

 Total Charge           Charge          ....    0
 Multiplicity           Mult            ....    1
 Number of Electrons    NEL             ....   68
 Basis Dimension        Dim             ....  333

ORBITAL ENERGIES
----------------

  NO   OCC          E(Eh)            E(eV)
   0   2.0000     -20.596607      -560.4622
   1   2.0000     -20.580618      -560.0271
   2   2.0000     -15.530901      -422.6173
   3   2.0000     -11.338699      -308.5417
   4   2.0000     -11.306964      -307.6781
   5   2.0000     -11.302167      -307.5476
   6   2.0000     -11.245037      -305.9930
   7   2.0000     -11.234567      -305.7081
   8   2.0000     -11.230653      -305.6016
   9   2.0000      -1.437023       -39.1034
  10   2.0000      -1.387494       -37.7556
  11   2.0000      -1.200732       -32.6736
  12   2.0000      -1.139868       -31.0174
  13   2.0000      -1.062095       -28.9011
  14   2.0000      -0.910965       -24.7886
  15   2.0000      -0.840527       -22.8719
  16   2.0000      -0.812763       -22.1164
  17   2.0000      -0.768810       -20.9204
  18   2.0000      -0.729122       -19.8404
  19   2.0000      -0.700883       -19.0720
  20   2.0000      -0.675564       -18.3830
  21   2.0000      -0.654574       -17.8119
  22   2.0000      -0.619416       -16.8552
  23   2.0000      -0.611804       -16.6480
  24   2.0000      -0.575678       -15.6650
  25   2.0000      -0.569059       -15.4849
  26   2.0000      -0.544185       -14.8080
  27   2.0000      -0.522950       -14.2302
  28   2.0000      -0.505857       -13.7651
  29   2.0000      -0.483106       -13.1460
  30   2.0000      -0.449536       -12.2325
  31   2.0000      -0.433612       -11.7992
  32   2.0000      -0.415865       -11.3163
  33   2.0000      -0.381259       -10.3746
  34   0.0000       0.119546         3.2530
  35   0.0000       0.155833         4.2404
  36   0.0000       0.164368         4.4727
  37   0.0000       0.167160         4.5486
  38   0.0000       0.173767         4.7284

MULLIKEN ATOMIC CHARGES
-----------------------
   0 O :   -0.462373
   1 C :    0.043574
   2 C :   -0.158082
   3 C :    0.081796
   4 N :   -0.364505
   5 O :   -0.245980
   6 C :    0.220906
   7 C :   -0.288469
   8 C :   -0.309661
   9 H :    0.322721
  10 H :    0.095515
  11 H :    0.139957
  12 H :    0.133806
  13 H :    0.222599
  14 H :    0.140143
  15 H :    0.148070
  16 H :    0.138956
  17 H :    0.141027
Sum of atomic charges:   -0.0000000

LOEWDIN ATOMIC CHARGES
----------------------
   0 O :    0.000160
   1 C :   -0.304128
   2 C :   -0.197236
   3 C :   -0.394627
   4 N :   -0.059807
   5 O :    0.285363
   6 C :   -0.294675
   7 C :   -0.196679
   8 C :   -0.198283
   9 H :    0.180322
  10 H :    0.143069
  11 H :    0.148348
  12 H :    0.159868
  13 H :    0.168717
  14 H :    0.138954
  15 H :    0.140346
  16 H :    0.139408
  17 H :    0.140879

  Mayer bond orders larger than 0.1
B(  0-O ,  1-C ) :   1.0403 B(  0-O ,  9-H ) :   0.8421 B(  1-C ,  2-C ) :   0.9368
B(  1-C ,  6-C ) :   0.8809 B(  1-C , 10-H ) :   0.9339 B(  2-C ,  3-C ) :   0.9087
B(  2-C , 11-H ) :   0.9178 B(  2-C , 12-H ) :   0.8991 B(  3-C ,  4-N ) :   2.0789
B(  3-C ,  5-O ) :   1.0638 B(  4-N , 13-H ) :   0.8548 B(  5-O ,  6-C ) :   0.9319
B(  6-C ,  7-C ) :   0.8725 B(  6-C ,  8-C ) :   0.8699 B(  7-C ,  8-C ) :   0.9401
B(  7-C , 14-H ) :   0.9219 B(  7-C , 15-H ) :   0.9060 B(  8-C , 16-H ) :   0.9135
B(  8-C , 17-H ) :   0.9207

MP2 TOTAL ENERGY:     -438.366588323 Eh
FINAL SINGLE POINT ENERGY      -438.366588323303

DIPOLE MOMENT
-------------
                                X             Y             Z
Electronic contribution:      0.54136      -1.47829       2.57946
Nuclear contribution   :     -0.15220       1.70924      -3.53921
                        -----------------------------------------
Total Dipole Moment    :      0.38916       0.23096      -0.95976
                        -----------------------------------------
Magnitude (a.u.)       :      1.06109
Magnitude (Debye)      :      2.69708

                             ****ORCA TERMINATED NORMALLY****
TOTAL RUN TIME: 0 days 0 hours 16 minutes 35 seconds 669 msec
