                         Program Version 3.0.3 - RELEASE   -
|  1> ! RI-MP2 RIJK def2-TZVP def2-TZVP/C def2-TZVP/JK TIGHTSCF
|  2> % maxcore 2000
|  3> % mp2 density relaxed end
|  4> *xyz 0 1
|  5>  C        0.0566160121     1.4942632058     0.0347291137
|  6>  C       -0.0588965481     0.0087282706    -0.0711216727
|  7>  C        0.5223768908    -0.8979967122    -1.0846018640
|  8>  N        0.9912568149    -0.9774717292     0.3525487410
|  9>  C       -0.0490477768    -1.7252435311     1.1331979175
| 10>  C       -1.1790796068    -0.9539041366     0.4263200220
| 11>  O       -1.6165808454    -1.7157702368    -0.7050238099
| 12>  C       -0.5667791586    -1.8024184337    -1.5851680535
| 13>  O       -0.6051617113    -2.4575984840    -2.5843105097
| 14>  H        1.0581707801     1.8150456523    -0.2651051240
| 15>  H       -0.6742926487     1.9897738522    -0.6130406953
| 16>  H       -0.1138312451     1.8332857923     1.0619432383
| 17>  H        1.3011294428    -0.5988095487    -1.7730558705
| 18>  H       -0.0519228571    -2.8126934942     1.0126162552
| 19>  H        0.0672066182    -1.4588088684     2.1860859364
| 20>  H       -2.0498954808    -0.5928427883     0.9689409655
| 21> *
| 22>
| 23>                          ****END OF INPUT****

CARTESIAN COORDINATES (ANGSTROEM)
---------------------------------
  C      0.056616    1.494263    0.034729
  C     -0.058897    0.008728   -0.071122
  C      0.522377   -0.897997   -1.084602
  N      0.991257   -0.977472    0.352549
  C     -0.049048   -1.725244    1.133198
  C     -1.179080   -0.953904    0.426320
  O     -1.616581   -1.715770   -0.705024
  C     -0.566779   -1.802418   -1.585168
  O     -0.605162   -2.457598   -2.584311
  H      1.058171    1.815046   -0.265105
  H     -0.674293    1.989774   -0.613041
  H     -0.113831    1.833286    1.061943
  H      1.301129   -0.598810   -1.773056
  H     -0.051923   -2.812693    1.012616
  H      0.067207   -1.458809    2.186086
  H     -2.049895   -0.592843    0.968941

 Total Charge           Charge          ....    0
 Multiplicity           Mult            ....    1
 Number of Electrons    NEL             ....   66
 Basis Dimension        Dim             ....  321

ORBITAL ENERGIES
----------------

  NO   OCC          E(Eh)            E(eV)
   0   2.0000     -20.609685      -560.8180
   1   2.0000     -20.551402      -559.2321
   2   2.0000     -15.598399      -424.4540
   3   2.0000     -11.388295      -309.8913
   4   2.0000     -11.321853      -308.0833
   5   2.0000     -11.301700      -307.5349
   6   2.0000     -11.291887      -307.2679
   7   2.0000     -11.281062      -306.9733
   8   2.0000     -11.250654      -306.1459
   9   2.0000      -1.472264       -40.0623
  10   2.0000      -1.382295       -37.6141
  11   2.0000      -1.313631       -35.7457
  12   2.0000      -1.048687       -28.5362
  13   2.0000      -1.026013       -27.9192
  14   2.0000      -0.947387       -25.7797
  15   2.0000      -0.896374       -24.3916
  16   2.0000      -0.819868       -22.3097
  17   2.0000      -0.743531       -20.2325
  18   2.0000      -0.720014       -19.5926
  19   2.0000      -0.682039       -18.5592
  20   2.0000      -0.654338       -17.8055
  21   2.0000      -0.632746       -17.2179
  22   2.0000      -0.621019       -16.8988
  23   2.0000      -0.610685       -16.6176
  24   2.0000      -0.590280       -16.0623
  25   2.0000      -0.588320       -16.0090
  26   2.0000      -0.568458       -15.4685
  27   2.0000      -0.532023       -14.4771
  28   2.0000      -0.494999       -13.4696
  29   2.0000      -0.466781       -12.7018
  30   2.0000      -0.452994       -12.3266
  31   2.0000      -0.428125       -11.6499
  32   2.0000      -0.403514       -10.9802
  33   0.0000       0.124084         3.3765
  34   0.0000       0.141297         3.8449
  35   0.0000       0.156038         4.2460
  36   0.0000       0.169607         4.6152
  37   0.0000       0.172939         4.7059

MULLIKEN ATOMIC CHARGES
-----------------------
   0 C :   -0.418437
   1 C :    0.120258
   2 C :   -0.148850
   3 N :   -0.224830
   4 C :   -0.148291
   5 C :    0.059785
   6 O :   -0.228931
   7 C :    0.257748
   8 O :   -0.270617
   9 H :    0.154017
  10 H :    0.149805
  11 H :    0.140258
  12 H :    0.149091
  13 H :    0.132804
  14 H :    0.135734
  15 H :    0.140456
Sum of atomic charges:    0.0000000

LOEWDIN ATOMIC CHARGES
----------------------
   0 C :   -0.264863
   1 C :   -0.229031
   2 C :   -0.168554
   3 N :    0.150181
   4 C :   -0.224380
   5 C :   -0.218786
   6 O :    0.271081
   7 C :   -0.447117
   8 O :    0.151812
   9 H :    0.140817
  10 H :    0.137070
  11 H :    0.133834
  12 H :    0.158877
  13 H :    0.130502
  14 H :    0.138537
  15 H :    0.140019

  Mayer bond orders larger than 0.1
B(  0-C ,  1-C ) :   0.8358 B(  0-C ,  9-H ) :   0.9428 B(  0-C , 10-H ) :   0.9341
B(  0-C , 11-H ) :   0.9345 B(  1-C ,  2-C ) :   0.8383 B(  1-C ,  3-N ) :   0.8544
B(  1-C ,  5-C ) :   0.8915 B(  2-C ,  3-N ) :   0.8747 B(  2-C ,  7-C ) :   0.9603
B(  2-C , 12-H ) :   0.9381 B(  3-N ,  4-C ) :   0.9192 B(  4-C ,  5-C ) :   0.9316
B(  4-C , 13-H ) :   0.9153 B(  4-C , 14-H ) :   0.9234 B(  5-C ,  6-O ) :   0.9019
B(  5-C , 15-H ) :   0.9321 B(  6-O ,  7-C ) :   1.0922 B(  7-C ,  8-O ) :   2.0275

MP2 TOTAL ENERGY:     -437.159010140 Eh
FINAL SINGLE POINT ENERGY      -437.159010139771

DIPOLE MOMENT
-------------
                                X             Y             Z
Electronic contribution:     -1.56447      -5.60135      -4.28550
Nuclear contribution   :      1.51334       6.79007       5.47808
                        -----------------------------------------
Total Dipole Moment    :     -0.05113       1.18872       1.19259
                        -----------------------------------------
Magnitude (a.u.)       :      1.68462
Magnitude (Debye)      :      4.28197

                             ****ORCA TERMINATED NORMALLY****
TOTAL RUN TIME: 0 days 0 hours 17 minutes 9 seconds 913 msec
