                         Program Version 3.0.3 - RELEASE   -
|  1> ! RI-MP2 RIJK def2-TZVP def2-TZVP/C def2-TZVP/JK TIGHTSCF
|  2> % maxcore 2000
|  3> % mp2 density relaxed end
|  4> *xyz 0 1
|  5>  C       -0.3548823050     1.4510829982     0.4277970368
|  6>  O       -0.6691392607     0.1100571269     0.7239186644
|  7>  C       -0.7914882283    -0.6910163453    -0.4313158296
|  8>  C       -1.0128591430    -2.1007754242     0.0104144512
|  9>  O       -1.5312828581    -3.0310329000    -0.9549264983
| 10>  C       -2.2250584622    -2.8839199525     0.3026206895
| 11>  C       -1.4968246979    -3.7707492965     1.3118272111
| 12>  C       -0.1794601173    -2.9614356249     0.9818571323
| 13>  O        0.9056530652    -3.6456716910     0.4221240710
| 14>  H       -0.2713512619     1.9832815526     1.3780969652
| 15>  H        0.5999648590     1.5355560928    -0.1142538949
| 16>  H       -1.1386415414     1.9290720346    -0.1806389449
| 17>  H       -1.6318538279    -0.3656864889    -1.0658066700
| 18>  H        0.1253695971    -0.6321384828    -1.0434047984
| 19>  H       -3.2677785636    -2.5938761009     0.2518431850
| 20>  H       -1.8299617638    -3.6305585155     2.3428397675
| 21>  H       -1.4719374642    -4.8361299152     1.0702731162
| 22>  H        0.1906012063    -2.3966328104     1.8389697492
| 23>  H        0.5784444677    -4.0324908672    -0.4004572234
| 24> *
| 25>
| 26>                          ****END OF INPUT****

CARTESIAN COORDINATES (ANGSTROEM)
---------------------------------
  C     -0.354882    1.451083    0.427797
  O     -0.669139    0.110057    0.723919
  C     -0.791488   -0.691016   -0.431316
  C     -1.012859   -2.100775    0.010414
  O     -1.531283   -3.031033   -0.954926
  C     -2.225058   -2.883920    0.302621
  C     -1.496825   -3.770749    1.311827
  C     -0.179460   -2.961436    0.981857
  O      0.905653   -3.645672    0.422124
  H     -0.271351    1.983282    1.378097
  H      0.599965    1.535556   -0.114254
  H     -1.138642    1.929072   -0.180639
  H     -1.631854   -0.365686   -1.065807
  H      0.125370   -0.632138   -1.043405
  H     -3.267779   -2.593876    0.251843
  H     -1.829962   -3.630559    2.342840
  H     -1.471937   -4.836130    1.070273
  H      0.190601   -2.396633    1.838970
  H      0.578444   -4.032491   -0.400457

 Total Charge           Charge          ....    0
 Multiplicity           Mult            ....    1
 Number of Electrons    NEL             ....   70
 Basis Dimension        Dim             ....  339

ORBITAL ENERGIES
----------------

  NO   OCC          E(Eh)            E(eV)
   0   2.0000     -20.576468      -559.9142
   1   2.0000     -20.567838      -559.6793
   2   2.0000     -20.555044      -559.3312
   3   2.0000     -11.292518      -307.2850
   4   2.0000     -11.290961      -307.2427
   5   2.0000     -11.289740      -307.2095
   6   2.0000     -11.287954      -307.1608
   7   2.0000     -11.279206      -306.9228
   8   2.0000     -11.234563      -305.7080
   9   2.0000      -1.429272       -38.8925
  10   2.0000      -1.387665       -37.7603
  11   2.0000      -1.361078       -37.0368
  12   2.0000      -1.076274       -29.2869
  13   2.0000      -1.012819       -27.5602
  14   2.0000      -0.912566       -24.8322
  15   2.0000      -0.881905       -23.9979
  16   2.0000      -0.849995       -23.1295
  17   2.0000      -0.776018       -21.1165
  18   2.0000      -0.713661       -19.4197
  19   2.0000      -0.684133       -18.6162
  20   2.0000      -0.666778       -18.1439
  21   2.0000      -0.648312       -17.6415
  22   2.0000      -0.637837       -17.3564
  23   2.0000      -0.611032       -16.6270
  24   2.0000      -0.604812       -16.4578
  25   2.0000      -0.569676       -15.5017
  26   2.0000      -0.555719       -15.1219
  27   2.0000      -0.550806       -14.9882
  28   2.0000      -0.515005       -14.0140
  29   2.0000      -0.502659       -13.6781
  30   2.0000      -0.488295       -13.2872
  31   2.0000      -0.466030       -12.6813
  32   2.0000      -0.438170       -11.9232
  33   2.0000      -0.418862       -11.3978
  34   2.0000      -0.402500       -10.9526
  35   0.0000       0.140430         3.8213
  36   0.0000       0.159983         4.3534
  37   0.0000       0.168920         4.5966
  38   0.0000       0.175951         4.7879
  39   0.0000       0.182864         4.9760

MULLIKEN ATOMIC CHARGES
-----------------------
   0 C :   -0.222460
   1 O :   -0.306298
   2 C :   -0.096202
   3 C :    0.180354
   4 O :   -0.337772
   5 C :   -0.062070
   6 C :   -0.169277
   7 C :    0.055683
   8 O :   -0.464071
   9 H :    0.142196
  10 H :    0.117395
  11 H :    0.113815
  12 H :    0.111942
  13 H :    0.110241
  14 H :    0.138566
  15 H :    0.120683
  16 H :    0.118707
  17 H :    0.122406
  18 H :    0.326160
Sum of atomic charges:   -0.0000000

LOEWDIN ATOMIC CHARGES
----------------------
   0 C :   -0.357196
   1 O :    0.139774
   2 C :   -0.291281
   3 C :   -0.275949
   4 O :    0.177964
   5 C :   -0.215131
   6 C :   -0.203429
   7 C :   -0.283458
   8 O :   -0.008220
   9 H :    0.114707
  10 H :    0.103235
  11 H :    0.102661
  12 H :    0.132275
  13 H :    0.131678
  14 H :    0.132206
  15 H :    0.138285
  16 H :    0.133115
  17 H :    0.146604
  18 H :    0.182160

  Mayer bond orders larger than 0.1
B(  0-C ,  1-O ) :   0.9150 B(  0-C ,  9-H ) :   0.9387 B(  0-C , 10-H ) :   0.9387
B(  0-C , 11-H ) :   0.9369 B(  1-O ,  2-C ) :   0.9720 B(  2-C ,  3-C ) :   0.9145
B(  2-C , 12-H ) :   0.9107 B(  2-C , 13-H ) :   0.9298 B(  3-C ,  4-O ) :   0.8620
B(  3-C ,  5-C ) :   0.8743 B(  3-C ,  7-C ) :   0.8978 B(  4-O ,  5-C ) :   0.9017
B(  5-C ,  6-C ) :   0.9366 B(  5-C , 14-H ) :   0.9150 B(  6-C ,  7-C ) :   0.9461
B(  6-C , 15-H ) :   0.9056 B(  6-C , 16-H ) :   0.9045 B(  7-C ,  8-O ) :   0.9721
B(  7-C , 17-H ) :   0.9244 B(  8-O , 18-H ) :   0.8287

MP2 TOTAL ENERGY:     -459.373586168 Eh
FINAL SINGLE POINT ENERGY      -459.373586168225

DIPOLE MOMENT
-------------
                                X             Y             Z
Electronic contribution:     -0.27008      -5.11758      -1.03581
Nuclear contribution   :     -0.26911       5.76264       1.04441
                        -----------------------------------------
Total Dipole Moment    :     -0.53919       0.64506       0.00860
                        -----------------------------------------
Magnitude (a.u.)       :      0.84077
Magnitude (Debye)      :      2.13707

                             ****ORCA TERMINATED NORMALLY****
TOTAL RUN TIME: 0 days 0 hours 16 minutes 23 seconds 841 msec
