                         Program Version 3.0.3 - RELEASE   -
|  1> ! RI-MP2 RIJK def2-TZVP def2-TZVP/C def2-TZVP/JK TIGHTSCF
|  2> % maxcore 2000
|  3> % mp2 density relaxed end
|  4> *xyz 0 1
|  5>  C       -0.0267408788     1.4961982946    -0.0899073290
|  6>  C       -0.0841258544    -0.0322004363    -0.0538657768
|  7>  C       -1.3527426100    -0.4955841859     0.7691528289
|  8>  C       -0.3797245966    -0.4725333652     2.0529956646
|  9>  C        0.7102507112    -0.7700022840     0.9947415398
| 10>  O        1.9767498571    -0.3124204951     0.3241097096
| 11>  C        1.1384986663    -0.6295131564    -0.8945584793
| 12>  C        0.9815436494    -2.1351695416    -0.7683134762
| 13>  C        0.6932940412    -2.2423335836     0.5272247314
| 14>  H        0.9967565336     1.8572847083    -0.1983850190
| 15>  H       -0.6153144477     1.8480482351    -0.9466195782
| 16>  H       -0.4599698891     1.9605476063     0.8012917007
| 17>  H       -2.2009928066     0.1927320914     0.7829369960
| 18>  H       -1.6954504807    -1.5092790821     0.5594409454
| 19>  H       -0.3353227266     0.5203438369     2.5000123418
| 20>  H       -0.5436540744    -1.2223389699     2.8314322596
| 21>  H        1.5293568035    -0.1701267090    -1.8035098864
| 22>  H        1.0990028341    -2.8740130177    -1.5468244213
| 23>  H        0.4863750384    -3.1023956159     1.1487132786
| 24> *
| 25>
| 26>                          ****END OF INPUT****

CARTESIAN COORDINATES (ANGSTROEM)
---------------------------------
  C     -0.026741    1.496198   -0.089907
  C     -0.084126   -0.032200   -0.053866
  C     -1.352743   -0.495584    0.769153
  C     -0.379725   -0.472533    2.052996
  C      0.710251   -0.770002    0.994742
  O      1.976750   -0.312420    0.324110
  C      1.138499   -0.629513   -0.894558
  C      0.981544   -2.135170   -0.768313
  C      0.693294   -2.242334    0.527225
  H      0.996757    1.857285   -0.198385
  H     -0.615314    1.848048   -0.946620
  H     -0.459970    1.960548    0.801292
  H     -2.200993    0.192732    0.782937
  H     -1.695450   -1.509279    0.559441
  H     -0.335323    0.520344    2.500012
  H     -0.543654   -1.222339    2.831432
  H      1.529357   -0.170127   -1.803510
  H      1.099003   -2.874013   -1.546824
  H      0.486375   -3.102396    1.148713

 Total Charge           Charge          ....    0
 Multiplicity           Mult            ....    1
 Number of Electrons    NEL             ....   66
 Basis Dimension        Dim             ....  339

ORBITAL ENERGIES
----------------

  NO   OCC          E(Eh)            E(eV)
   0   2.0000     -20.545967      -559.0842
   1   2.0000     -11.302684      -307.5617
   2   2.0000     -11.288547      -307.1770
   3   2.0000     -11.249388      -306.1114
   4   2.0000     -11.246929      -306.0445
   5   2.0000     -11.239337      -305.8379
   6   2.0000     -11.232744      -305.6585
   7   2.0000     -11.229710      -305.5760
   8   2.0000     -11.212228      -305.1002
   9   2.0000      -1.367460       -37.2105
  10   2.0000      -1.144487       -31.1431
  11   2.0000      -1.063513       -28.9397
  12   2.0000      -0.992627       -27.0107
  13   2.0000      -0.901050       -24.5188
  14   2.0000      -0.877059       -23.8660
  15   2.0000      -0.856897       -23.3173
  16   2.0000      -0.749703       -20.4004
  17   2.0000      -0.707195       -19.2438
  18   2.0000      -0.678285       -18.4571
  19   2.0000      -0.638882       -17.3849
  20   2.0000      -0.619050       -16.8452
  21   2.0000      -0.607264       -16.5245
  22   2.0000      -0.566559       -15.4169
  23   2.0000      -0.544414       -14.8143
  24   2.0000      -0.535603       -14.5745
  25   2.0000      -0.523177       -14.2364
  26   2.0000      -0.507484       -13.8093
  27   2.0000      -0.486411       -13.2359
  28   2.0000      -0.479408       -13.0453
  29   2.0000      -0.451167       -12.2769
  30   2.0000      -0.419503       -11.4153
  31   2.0000      -0.362077        -9.8526
  32   2.0000      -0.348803        -9.4914
  33   0.0000       0.126409         3.4398
  34   0.0000       0.143047         3.8925
  35   0.0000       0.155523         4.2320
  36   0.0000       0.166661         4.5351
  37   0.0000       0.175753         4.7825

MULLIKEN ATOMIC CHARGES
-----------------------
   0 C :   -0.498453
   1 C :    0.101344
   2 C :   -0.262807
   3 C :   -0.278112
   4 C :    0.289145
   5 O :   -0.309817
   6 C :    0.039937
   7 C :   -0.195192
   8 C :   -0.267201
   9 H :    0.161187
  10 H :    0.138687
  11 H :    0.124964
  12 H :    0.133691
  13 H :    0.140139
  14 H :    0.140164
  15 H :    0.130161
  16 H :    0.135460
  17 H :    0.139135
  18 H :    0.137567
Sum of atomic charges:    0.0000000

LOEWDIN ATOMIC CHARGES
----------------------
   0 C :   -0.270190
   1 C :   -0.185453
   2 C :   -0.177051
   3 C :   -0.180136
   4 C :   -0.233537
   5 O :    0.127539
   6 C :   -0.173843
   7 C :   -0.123942
   8 C :   -0.106824
   9 H :    0.133124
  10 H :    0.129872
  11 H :    0.124599
  12 H :    0.127379
  13 H :    0.139337
  14 H :    0.137557
  15 H :    0.126944
  16 H :    0.132562
  17 H :    0.135627
  18 H :    0.136438

  Mayer bond orders larger than 0.1
B(  0-C ,  1-C ) :   0.8722 B(  0-C ,  9-H ) :   0.9344 B(  0-C , 10-H ) :   0.9393
B(  0-C , 11-H ) :   0.9252 B(  1-C ,  2-C ) :   0.8727 B(  1-C ,  4-C ) :   0.8863
B(  1-C ,  6-C ) :   0.8869 B(  2-C ,  3-C ) :   0.9137 B(  2-C , 12-H ) :   0.9160
B(  2-C , 13-H ) :   0.9119 B(  3-C ,  4-C ) :   0.8762 B(  3-C , 14-H ) :   0.9204
B(  3-C , 15-H ) :   0.9233 B(  4-C ,  5-O ) :   0.9080 B(  4-C ,  8-C ) :   0.9210
B(  5-O ,  6-C ) :   0.8604 B(  6-C ,  7-C ) :   0.9749 B(  6-C , 16-H ) :   0.8932
B(  7-C ,  8-C ) :   1.7376 B(  7-C , 17-H ) :   0.9262 B(  8-C , 18-H ) :   0.9285

MP2 TOTAL ENERGY:     -385.077693758 Eh
FINAL SINGLE POINT ENERGY      -385.077693758001

DIPOLE MOMENT
-------------
                                X             Y             Z
Electronic contribution:      4.59580      -3.26576      -0.91767
Nuclear contribution   :     -5.45242       3.10781       0.81492
                        -----------------------------------------
Total Dipole Moment    :     -0.85662      -0.15795      -0.10275
                        -----------------------------------------
Magnitude (a.u.)       :      0.87710
Magnitude (Debye)      :      2.22942

                             ****ORCA TERMINATED NORMALLY****
TOTAL RUN TIME: 0 days 0 hours 21 minutes 13 seconds 132 msec
