                         Program Version 3.0.3 - RELEASE   -
|  1> ! RI-MP2 RIJK def2-TZVP def2-TZVP/C def2-TZVP/JK TIGHTSCF
|  2> % maxcore 2000
|  3> % mp2 density relaxed end
|  4> *xyz 0 1
|  5>  C       -0.3590488254     1.3718935673     0.2038569870
|  6>  C        0.0888218760    -0.0493926135    -0.1908749486
|  7>  C        0.9034411923     0.0056230988    -1.4702403988
|  8>  O        0.5964866594    -0.5175135274    -2.5095237585
|  9>  C        0.9347520496    -0.6517867580     0.9196550291
| 10>  O        0.2608846975    -1.0009982954     2.1307523726
| 11>  C        0.8976764765    -2.0552532482     1.3760769709
| 12>  C       -0.0358934004    -3.0799698645     0.7694439685
| 13>  C        2.1310646165    -2.6324306066     2.0389675394
| 14>  H        0.5012707837     2.0403905276     0.3223282807
| 15>  H       -1.0217574336     1.8001965102    -0.5531774469
| 16>  H       -0.8921492976     1.3345793743     1.1571765876
| 17>  H       -0.7861760573    -0.6717592930    -0.3870216398
| 18>  H        1.8449155648     0.6005817020    -1.3853549914
| 19>  H        1.8716702572    -0.1106868507     1.0859416658
| 20>  H       -0.9604603028    -2.6280188427     0.4086881094
| 21>  H        0.4486324795    -3.5979640473    -0.0648702041
| 22>  H       -0.3012214638    -3.8314759502     1.5208708422
| 23>  H        1.8449654906    -3.3233684533     2.8392540384
| 24>  H        2.7356540430    -3.1900634377     1.3156515692
| 25>  H        2.7472812943    -1.8420958417     2.4743474573
| 26> *
| 27>
| 28>                          ****END OF INPUT****

CARTESIAN COORDINATES (ANGSTROEM)
---------------------------------
  C     -0.359049    1.371894    0.203857
  C      0.088822   -0.049393   -0.190875
  C      0.903441    0.005623   -1.470240
  O      0.596487   -0.517514   -2.509524
  C      0.934752   -0.651787    0.919655
  O      0.260885   -1.000998    2.130752
  C      0.897676   -2.055253    1.376077
  C     -0.035893   -3.079970    0.769444
  C      2.131065   -2.632431    2.038968
  H      0.501271    2.040391    0.322328
  H     -1.021757    1.800197   -0.553177
  H     -0.892149    1.334579    1.157177
  H     -0.786176   -0.671759   -0.387022
  H      1.844916    0.600582   -1.385355
  H      1.871670   -0.110687    1.085942
  H     -0.960460   -2.628019    0.408688
  H      0.448632   -3.597964   -0.064870
  H     -0.301221   -3.831476    1.520871
  H      1.844965   -3.323368    2.839254
  H      2.735654   -3.190063    1.315652
  H      2.747281   -1.842096    2.474347

 Total Charge           Charge          ....    0
 Multiplicity           Mult            ....    1
 Number of Electrons    NEL             ....   70
 Basis Dimension        Dim             ....  351

ORBITAL ENERGIES
----------------

  NO   OCC          E(Eh)            E(eV)
   0   2.0000     -20.568900      -559.7082
   1   2.0000     -20.563756      -559.5682
   2   2.0000     -11.336898      -308.4927
   3   2.0000     -11.300989      -307.5156
   4   2.0000     -11.295919      -307.3776
   5   2.0000     -11.253051      -306.2111
   6   2.0000     -11.235648      -305.7375
   7   2.0000     -11.229225      -305.5627
   8   2.0000     -11.228094      -305.5320
   9   2.0000      -1.415065       -38.5059
  10   2.0000      -1.402094       -38.1529
  11   2.0000      -1.090667       -29.6786
  12   2.0000      -1.047782       -28.5116
  13   2.0000      -0.956199       -26.0195
  14   2.0000      -0.931031       -25.3346
  15   2.0000      -0.869915       -23.6716
  16   2.0000      -0.802035       -21.8245
  17   2.0000      -0.775927       -21.1141
  18   2.0000      -0.684803       -18.6344
  19   2.0000      -0.675122       -18.3710
  20   2.0000      -0.643666       -17.5150
  21   2.0000      -0.624848       -17.0030
  22   2.0000      -0.612343       -16.6627
  23   2.0000      -0.589528       -16.0419
  24   2.0000      -0.572993       -15.5919
  25   2.0000      -0.567641       -15.4463
  26   2.0000      -0.551506       -15.0073
  27   2.0000      -0.541405       -14.7324
  28   2.0000      -0.533957       -14.5297
  29   2.0000      -0.518816       -14.1177
  30   2.0000      -0.508688       -13.8421
  31   2.0000      -0.491472       -13.3736
  32   2.0000      -0.450135       -12.2488
  33   2.0000      -0.429770       -11.6946
  34   2.0000      -0.412149       -11.2151
  35   0.0000       0.120541         3.2801
  36   0.0000       0.133033         3.6200
  37   0.0000       0.145995         3.9727
  38   0.0000       0.162828         4.4308
  39   0.0000       0.180925         4.9232

MULLIKEN ATOMIC CHARGES
-----------------------
   0 C :   -0.423519
   1 C :    0.062474
   2 C :    0.062478
   3 O :   -0.258157
   4 C :   -0.008347
   5 O :   -0.345272
   6 C :    0.157390
   7 C :   -0.389684
   8 C :   -0.398718
   9 H :    0.127619
  10 H :    0.149139
  11 H :    0.160846
  12 H :    0.085620
  13 H :    0.074410
  14 H :    0.117809
  15 H :    0.138424
  16 H :    0.140679
  17 H :    0.137950
  18 H :    0.137621
  19 H :    0.132809
  20 H :    0.138429
Sum of atomic charges:    0.0000000

LOEWDIN ATOMIC CHARGES
----------------------
   0 C :   -0.275494
   1 C :   -0.262831
   2 C :   -0.268356
   3 O :    0.138433
   4 C :   -0.237450
   5 O :    0.179726
   6 C :   -0.340641
   7 C :   -0.263953
   8 C :   -0.266014
   9 H :    0.126276
  10 H :    0.128332
  11 H :    0.135357
  12 H :    0.161008
  13 H :    0.112880
  14 H :    0.142891
  15 H :    0.129339
  16 H :    0.134720
  17 H :    0.132307
  18 H :    0.130845
  19 H :    0.131574
  20 H :    0.131051

  Mayer bond orders larger than 0.1
B(  0-C ,  1-C ) :   0.9074 B(  0-C ,  9-H ) :   0.9235 B(  0-C , 10-H ) :   0.9379
B(  0-C , 11-H ) :   0.9313 B(  1-C ,  2-C ) :   0.8519 B(  1-C ,  4-C ) :   0.8755
B(  1-C , 12-H ) :   0.9021 B(  2-C ,  3-O ) :   2.0030 B(  2-C , 13-H ) :   0.9283
B(  4-C ,  5-O ) :   0.8355 B(  4-C ,  6-C ) :   0.9933 B(  4-C , 14-H ) :   0.8877
B(  5-O ,  6-C ) :   0.9209 B(  6-C ,  7-C ) :   0.9016 B(  6-C ,  8-C ) :   0.8949
B(  7-C , 15-H ) :   0.9407 B(  7-C , 16-H ) :   0.9269 B(  7-C , 17-H ) :   0.9325
B(  8-C , 18-H ) :   0.9363 B(  8-C , 19-H ) :   0.9262 B(  8-C , 20-H ) :   0.9386

MP2 TOTAL ENERGY:     -423.518194097 Eh
FINAL SINGLE POINT ENERGY      -423.518194096667

DIPOLE MOMENT
-------------
                                X             Y             Z
Electronic contribution:     -0.39680       1.81627      -3.67128
Nuclear contribution   :      0.80327      -1.78059       4.08904
                        -----------------------------------------
Total Dipole Moment    :      0.40647       0.03569       0.41776
                        -----------------------------------------
Magnitude (a.u.)       :      0.58397
Magnitude (Debye)      :      1.48433

                             ****ORCA TERMINATED NORMALLY****
TOTAL RUN TIME: 0 days 0 hours 19 minutes 28 seconds 424 msec
