                         Program Version 3.0.3 - RELEASE   -
|  1> ! RI-MP2 RIJK def2-TZVP def2-TZVP/C def2-TZVP/JK TIGHTSCF
|  2> % maxcore 2000
|  3> % mp2 density relaxed end
|  4> *xyz 0 1
|  5>  C       -0.0858567966     1.4697633630     0.0631693043
|  6>  C       -0.0299017071    -0.0219538775    -0.0014366820
|  7>  C       -0.0567483388    -0.8071596985    -1.0780837672
|  8>  C        0.0199258543    -2.2656840010    -0.7272804946
|  9>  N        0.0970870840    -2.2207067394     0.7348421261
| 10>  C        0.0709271524    -0.8551091896     1.2561402668
| 11>  C        0.1827885990    -3.3429882154     1.4849779461
| 12>  O        0.2038395593    -4.4725595009     1.0369034233
| 13>  H        0.8046281507     1.8802118883     0.5557076131
| 14>  H       -0.1550308085     1.9094411341    -0.9347675227
| 15>  H       -0.9505626119     1.8103900897     0.6465416808
| 16>  H       -0.1255265002    -0.4641359930    -2.1032978706
| 17>  H       -0.8567436021    -2.8397080368    -1.0575825317
| 18>  H        0.8984708310    -2.7702782816    -1.1523243370
| 19>  H        0.9781926049    -0.6157132687     1.8318567017
| 20>  H       -0.7854465532    -0.6857645229     1.9268519086
| 21>  H        0.2326648428    -3.1201524397     2.5706576150
| 22> *
| 23>
| 24>                          ****END OF INPUT****

CARTESIAN COORDINATES (ANGSTROEM)
---------------------------------
  C     -0.085857    1.469763    0.063169
  C     -0.029902   -0.021954   -0.001437
  C     -0.056748   -0.807160   -1.078084
  C      0.019926   -2.265684   -0.727280
  N      0.097087   -2.220707    0.734842
  C      0.070927   -0.855109    1.256140
  C      0.182789   -3.342988    1.484978
  O      0.203840   -4.472560    1.036903
  H      0.804628    1.880212    0.555708
  H     -0.155031    1.909441   -0.934768
  H     -0.950563    1.810390    0.646542
  H     -0.125527   -0.464136   -2.103298
  H     -0.856744   -2.839708   -1.057583
  H      0.898471   -2.770278   -1.152324
  H      0.978193   -0.615713    1.831857
  H     -0.785447   -0.685765    1.926852
  H      0.232665   -3.120152    2.570658

 Total Charge           Charge          ....    0
 Multiplicity           Mult            ....    1
 Number of Electrons    NEL             ....   60
 Basis Dimension        Dim             ....  302

ORBITAL ENERGIES
----------------

  NO   OCC          E(Eh)            E(eV)
   0   2.0000     -20.515193      -558.2468
   1   2.0000     -15.584787      -424.0836
   2   2.0000     -11.340444      -308.5892
   3   2.0000     -11.282046      -307.0001
   4   2.0000     -11.268370      -306.6279
   5   2.0000     -11.251292      -306.1632
   6   2.0000     -11.239665      -305.8468
   7   2.0000     -11.236519      -305.7612
   8   2.0000      -1.376095       -37.4455
   9   2.0000      -1.264428       -34.4068
  10   2.0000      -1.100682       -29.9511
  11   2.0000      -1.014941       -27.6179
  12   2.0000      -0.961527       -26.1645
  13   2.0000      -0.883942       -24.0533
  14   2.0000      -0.785567       -21.3764
  15   2.0000      -0.737976       -20.0814
  16   2.0000      -0.707872       -19.2622
  17   2.0000      -0.668318       -18.1859
  18   2.0000      -0.631599       -17.1867
  19   2.0000      -0.602854       -16.4045
  20   2.0000      -0.590893       -16.0790
  21   2.0000      -0.589001       -16.0275
  22   2.0000      -0.568850       -15.4792
  23   2.0000      -0.555741       -15.1225
  24   2.0000      -0.528143       -14.3715
  25   2.0000      -0.522597       -14.2206
  26   2.0000      -0.506851       -13.7921
  27   2.0000      -0.424166       -11.5421
  28   2.0000      -0.384404       -10.4602
  29   2.0000      -0.350785        -9.5453
  30   0.0000       0.124738         3.3943
  31   0.0000       0.142005         3.8641
  32   0.0000       0.156507         4.2588
  33   0.0000       0.162585         4.4242
  34   0.0000       0.168258         4.5785

MULLIKEN ATOMIC CHARGES
-----------------------
   0 C :   -0.425780
   1 C :    0.008153
   2 C :   -0.180643
   3 C :   -0.104487
   4 N :   -0.070968
   5 C :   -0.150073
   6 C :    0.129316
   7 O :   -0.365364
   8 H :    0.143913
   9 H :    0.143839
  10 H :    0.143985
  11 H :    0.133206
  12 H :    0.132755
  13 H :    0.132784
  14 H :    0.125342
  15 H :    0.125316
  16 H :    0.078706
Sum of atomic charges:   -0.0000000

LOEWDIN ATOMIC CHARGES
----------------------
   0 C :   -0.269801
   1 C :   -0.192083
   2 C :   -0.135313
   3 C :   -0.220934
   4 N :    0.181398
   5 C :   -0.206034
   6 C :   -0.421863
   7 O :    0.053569
   8 H :    0.133477
   9 H :    0.133784
  10 H :    0.133504
  11 H :    0.142634
  12 H :    0.140380
  13 H :    0.140384
  14 H :    0.137356
  15 H :    0.137354
  16 H :    0.112186

  Mayer bond orders larger than 0.1
B(  0-C ,  1-C ) :   0.8934 B(  0-C ,  8-H ) :   0.9310 B(  0-C ,  9-H ) :   0.9459
B(  0-C , 10-H ) :   0.9309 B(  1-C ,  2-C ) :   1.7665 B(  1-C ,  5-C ) :   0.9699
B(  2-C ,  3-C ) :   0.9539 B(  2-C , 11-H ) :   0.9252 B(  3-C ,  4-N ) :   0.8777
B(  3-C , 12-H ) :   0.9188 B(  3-C , 13-H ) :   0.9188 B(  4-N ,  5-C ) :   0.9281
B(  4-N ,  6-C ) :   1.1437 B(  5-C , 14-H ) :   0.9033 B(  5-C , 15-H ) :   0.9033
B(  6-C ,  7-O ) :   1.8979 B(  6-C , 16-H ) :   0.9342

MP2 TOTAL ENERGY:     -363.273207989 Eh
FINAL SINGLE POINT ENERGY      -363.273207988895

DIPOLE MOMENT
-------------
                                X             Y             Z
Electronic contribution:      0.32922      -7.04038       0.89354
Nuclear contribution   :     -0.40585       8.84857      -0.97298
                        -----------------------------------------
Total Dipole Moment    :     -0.07663       1.80819      -0.07944
                        -----------------------------------------
Magnitude (a.u.)       :      1.81156
Magnitude (Debye)      :      4.60461

                             ****ORCA TERMINATED NORMALLY****
TOTAL RUN TIME: 0 days 0 hours 11 minutes 43 seconds 503 msec
