                         Program Version 3.0.3 - RELEASE   -
|  1> ! RI-MP2 RIJK def2-TZVP def2-TZVP/C def2-TZVP/JK TIGHTSCF
|  2> % maxcore 2000
|  3> % mp2 density relaxed end
|  4> *xyz 0 1
|  5>  C       -0.0676167503     1.5245574569     0.3923005974
|  6>  C       -0.1137490070     0.0334094703     0.0590775351
|  7>  O        0.3187663657    -0.7436691324     1.1769540529
|  8>  C       -1.5192409165    -0.4795758036    -0.2921117238
|  9>  C       -2.0544800439     0.0929814557    -1.6211494234
| 10>  O       -3.4374707584    -0.1339483142    -1.7825744769
| 11>  C       -1.5011960242    -1.9983301690    -0.3585558234
| 12>  C       -2.2000868399    -2.8496439186     0.6038152043
| 13>  O       -2.7461997478    -2.6417764380    -0.7068965328
| 14>  H        0.9511399425     1.8174385576     0.6719245835
| 15>  H       -0.3608752115     2.1468467612    -0.4574342816
| 16>  H       -0.7289937566     1.7466634557     1.2354340230
| 17>  H        0.5485414528    -0.1603148419    -0.8033678982
| 18>  H        1.1979255320    -0.4417148286     1.4265829305
| 19>  H       -2.2126009709    -0.1667353192     0.4984847439
| 20>  H       -1.9166576176     1.1783030328    -1.6529548776
| 21>  H       -1.4700524984    -0.3296609057    -2.4581252038
| 22>  H       -3.5942914642    -1.0636019887    -1.5687622869
| 23>  H       -0.6445373797    -2.4254333914    -0.8815425332
| 24>  H       -1.8463929770    -3.8608116848     0.7947268207
| 25>  H       -2.7538717991    -2.3870192844     1.4184363304
| 26> *
| 27>
| 28>                          ****END OF INPUT****

CARTESIAN COORDINATES (ANGSTROEM)
---------------------------------
  C     -0.067617    1.524557    0.392301
  C     -0.113749    0.033409    0.059078
  O      0.318766   -0.743669    1.176954
  C     -1.519241   -0.479576   -0.292112
  C     -2.054480    0.092981   -1.621149
  O     -3.437471   -0.133948   -1.782574
  C     -1.501196   -1.998330   -0.358556
  C     -2.200087   -2.849644    0.603815
  O     -2.746200   -2.641776   -0.706897
  H      0.951140    1.817439    0.671925
  H     -0.360875    2.146847   -0.457434
  H     -0.728994    1.746663    1.235434
  H      0.548541   -0.160315   -0.803368
  H      1.197926   -0.441715    1.426583
  H     -2.212601   -0.166735    0.498485
  H     -1.916658    1.178303   -1.652955
  H     -1.470052   -0.329661   -2.458125
  H     -3.594291   -1.063602   -1.568762
  H     -0.644537   -2.425433   -0.881543
  H     -1.846393   -3.860812    0.794727
  H     -2.753872   -2.387019    1.418436

 Total Charge           Charge          ....    0
 Multiplicity           Mult            ....    1
 Number of Electrons    NEL             ....   72
 Basis Dimension        Dim             ....  351

ORBITAL ENERGIES
----------------

  NO   OCC          E(Eh)            E(eV)
   0   2.0000     -20.572954      -559.8185
   1   2.0000     -20.566830      -559.6519
   2   2.0000     -20.536437      -558.8249
   3   2.0000     -11.297022      -307.4076
   4   2.0000     -11.290698      -307.2355
   5   2.0000     -11.284947      -307.0790
   6   2.0000     -11.273801      -306.7757
   7   2.0000     -11.238433      -305.8133
   8   2.0000     -11.229930      -305.5819
   9   2.0000      -1.413548       -38.4646
  10   2.0000      -1.373713       -37.3806
  11   2.0000      -1.345820       -36.6216
  12   2.0000      -1.083643       -29.4874
  13   2.0000      -0.995043       -27.0765
  14   2.0000      -0.928938       -25.2777
  15   2.0000      -0.886403       -24.1203
  16   2.0000      -0.846192       -23.0261
  17   2.0000      -0.795354       -21.6427
  18   2.0000      -0.714475       -19.4419
  19   2.0000      -0.693051       -18.8589
  20   2.0000      -0.682357       -18.5679
  21   2.0000      -0.646857       -17.6019
  22   2.0000      -0.636641       -17.3239
  23   2.0000      -0.609529       -16.5861
  24   2.0000      -0.589421       -16.0390
  25   2.0000      -0.572909       -15.5896
  26   2.0000      -0.557501       -15.1704
  27   2.0000      -0.548614       -14.9285
  28   2.0000      -0.532681       -14.4950
  29   2.0000      -0.525826       -14.3085
  30   2.0000      -0.502104       -13.6629
  31   2.0000      -0.479781       -13.0555
  32   2.0000      -0.457473       -12.4485
  33   2.0000      -0.447918       -12.1885
  34   2.0000      -0.437561       -11.9066
  35   2.0000      -0.422704       -11.5024
  36   0.0000       0.123590         3.3631
  37   0.0000       0.150292         4.0897
  38   0.0000       0.161234         4.3874
  39   0.0000       0.167953         4.5702
  40   0.0000       0.189196         5.1483

MULLIKEN ATOMIC CHARGES
-----------------------
   0 C :   -0.417112
   1 C :    0.050066
   2 O :   -0.462901
   3 C :   -0.090622
   4 C :   -0.012972
   5 O :   -0.483509
   6 C :    0.079804
   7 C :   -0.064296
   8 O :   -0.376679
   9 H :    0.126099
  10 H :    0.129038
  11 H :    0.143171
  12 H :    0.081478
  13 H :    0.312436
  14 H :    0.087157
  15 H :    0.107088
  16 H :    0.090851
  17 H :    0.335264
  18 H :    0.126213
  19 H :    0.119827
  20 H :    0.119601
Sum of atomic charges:   -0.0000000

LOEWDIN ATOMIC CHARGES
----------------------
   0 C :   -0.300072
   1 C :   -0.346597
   2 O :   -0.013719
   3 C :   -0.238134
   4 C :   -0.321141
   5 O :   -0.044293
   6 C :   -0.260251
   7 C :   -0.251908
   8 O :    0.119655
   9 H :    0.121799
  10 H :    0.125788
  11 H :    0.128935
  12 H :    0.136118
  13 H :    0.173249
  14 H :    0.163477
  15 H :    0.126389
  16 H :    0.119681
  17 H :    0.171949
  18 H :    0.143487
  19 H :    0.122210
  20 H :    0.123377

  Mayer bond orders larger than 0.1
B(  0-C ,  1-C ) :   0.9291 B(  0-C ,  9-H ) :   0.9357 B(  0-C , 10-H ) :   0.9304
B(  0-C , 11-H ) :   0.9355 B(  1-C ,  2-O ) :   0.9648 B(  1-C ,  3-C ) :   0.9101
B(  1-C , 12-H ) :   0.9237 B(  2-O , 13-H ) :   0.8455 B(  3-C ,  4-C ) :   0.9345
B(  3-C ,  6-C ) :   0.9467 B(  3-C , 14-H ) :   0.9049 B(  4-C ,  5-O ) :   0.9619
B(  4-C , 15-H ) :   0.9342 B(  4-C , 16-H ) :   0.9084 B(  5-O , 17-H ) :   0.8144
B(  6-C ,  7-C ) :   0.9908 B(  6-C ,  8-O ) :   0.8087 B(  6-C , 18-H ) :   0.9042
B(  7-C ,  8-O ) :   0.9002 B(  7-C , 19-H ) :   0.9260 B(  7-C , 20-H ) :   0.9050

MP2 TOTAL ENERGY:     -460.607294161 Eh
FINAL SINGLE POINT ENERGY      -460.607294160738

DIPOLE MOMENT
-------------
                                X             Y             Z
Electronic contribution:     -3.27405      -5.02137      -0.89602
Nuclear contribution   :      4.66586       5.17812       1.51257
                        -----------------------------------------
Total Dipole Moment    :      1.39181       0.15675       0.61655
                        -----------------------------------------
Magnitude (a.u.)       :      1.53031
Magnitude (Debye)      :      3.88973

                             ****ORCA TERMINATED NORMALLY****
TOTAL RUN TIME: 0 days 0 hours 16 minutes 41 seconds 759 msec
