                         Program Version 3.0.3 - RELEASE   -
|  1> ! RI-MP2 RIJK def2-TZVP def2-TZVP/C def2-TZVP/JK TIGHTSCF
|  2> % maxcore 2000
|  3> % mp2 density relaxed end
|  4> *xyz 0 1
|  5>  O       -0.0041188607     1.4378024660     0.1203864665
|  6>  C        0.0123080966     0.0320441066    -0.0214884635
|  7>  C       -1.3787385396    -0.5325008680    -0.3896907823
|  8>  C       -1.6197476638     0.2884013331    -1.6792047624
|  9>  C       -0.4612393592    -0.3987577198    -2.4452409383
| 10>  C       -1.0622640135    -1.8233762627    -2.4957715368
| 11>  C       -0.9477701816    -1.9728152980    -0.9692926514
| 12>  O        0.4951345247    -1.9621809880    -0.8843730991
| 13>  C        0.6487584546    -0.5933600915    -1.2921469560
| 14>  H        0.8833822414     1.7151707382     0.3657532573
| 15>  H        0.4543249810    -0.4446237653     0.8593499679
| 16>  H       -2.1429888038    -0.5262308311     0.3854841017
| 17>  H       -2.5869528743     0.1107642864    -2.1541083378
| 18>  H       -1.4976664651     1.3558791645    -1.5074309963
| 19>  H       -0.1158332178     0.0498398085    -3.3749031634
| 20>  H       -2.0719470348    -1.8290267820    -2.9123279859
| 21>  H       -0.4533464222    -2.5835352771    -2.9874376105
| 22>  H       -1.3507785776    -2.8562131615    -0.4774789656
| 23>  H        1.6869454357    -0.3723172184    -1.5382690140
| 24> *
| 25>
| 26>                          ****END OF INPUT****

CARTESIAN COORDINATES (ANGSTROEM)
---------------------------------
  O     -0.004119    1.437802    0.120386
  C      0.012308    0.032044   -0.021488
  C     -1.378739   -0.532501   -0.389691
  C     -1.619748    0.288401   -1.679205
  C     -0.461239   -0.398758   -2.445241
  C     -1.062264   -1.823376   -2.495772
  C     -0.947770   -1.972815   -0.969293
  O      0.495135   -1.962181   -0.884373
  C      0.648758   -0.593360   -1.292147
  H      0.883382    1.715171    0.365753
  H      0.454325   -0.444624    0.859350
  H     -2.142989   -0.526231    0.385484
  H     -2.586953    0.110764   -2.154108
  H     -1.497666    1.355879   -1.507431
  H     -0.115833    0.049840   -3.374903
  H     -2.071947   -1.829027   -2.912328
  H     -0.453346   -2.583535   -2.987438
  H     -1.350779   -2.856213   -0.477479
  H      1.686945   -0.372317   -1.538269

 Total Charge           Charge          ....    0
 Multiplicity           Mult            ....    1
 Number of Electrons    NEL             ....   68
 Basis Dimension        Dim             ....  339

ORBITAL ENERGIES
----------------

  NO   OCC          E(Eh)            E(eV)
   0   2.0000     -20.560656      -559.4839
   1   2.0000     -20.548179      -559.1444
   2   2.0000     -11.282193      -307.0041
   3   2.0000     -11.279605      -306.9337
   4   2.0000     -11.277732      -306.8827
   5   2.0000     -11.233612      -305.6821
   6   2.0000     -11.232623      -305.6552
   7   2.0000     -11.218437      -305.2692
   8   2.0000     -11.213712      -305.1406
   9   2.0000      -1.393051       -37.9068
  10   2.0000      -1.364387       -37.1269
  11   2.0000      -1.132075       -30.8053
  12   2.0000      -1.013971       -27.5916
  13   2.0000      -0.966824       -26.3086
  14   2.0000      -0.914526       -24.8855
  15   2.0000      -0.803751       -21.8712
  16   2.0000      -0.766474       -20.8568
  17   2.0000      -0.747411       -20.3381
  18   2.0000      -0.717615       -19.5273
  19   2.0000      -0.710743       -19.3403
  20   2.0000      -0.642154       -17.4739
  21   2.0000      -0.633213       -17.2306
  22   2.0000      -0.603150       -16.4125
  23   2.0000      -0.565617       -15.3912
  24   2.0000      -0.541135       -14.7250
  25   2.0000      -0.515665       -14.0319
  26   2.0000      -0.510517       -13.8919
  27   2.0000      -0.500192       -13.6109
  28   2.0000      -0.489418       -13.3177
  29   2.0000      -0.463795       -12.6205
  30   2.0000      -0.451534       -12.2869
  31   2.0000      -0.443766       -12.0755
  32   2.0000      -0.436029       -11.8649
  33   2.0000      -0.390112       -10.6155
  34   0.0000       0.133133         3.6227
  35   0.0000       0.154075         4.1926
  36   0.0000       0.172958         4.7064
  37   0.0000       0.177724         4.8361
  38   0.0000       0.188779         5.1369

MULLIKEN ATOMIC CHARGES
-----------------------
   0 O :   -0.464937
   1 C :   -0.085023
   2 C :   -0.011332
   3 C :   -0.299427
   4 C :   -0.065871
   5 C :   -0.284026
   6 C :   -0.004524
   7 O :   -0.311450
   8 C :    0.049143
   9 H :    0.322805
  10 H :    0.105515
  11 H :    0.133805
  12 H :    0.120043
  13 H :    0.150894
  14 H :    0.132272
  15 H :    0.116156
  16 H :    0.123097
  17 H :    0.131464
  18 H :    0.141398
Sum of atomic charges:    0.0000000

LOEWDIN ATOMIC CHARGES
----------------------
   0 O :   -0.012225
   1 C :   -0.312995
   2 C :   -0.174455
   3 C :   -0.211016
   4 C :   -0.190448
   5 C :   -0.221705
   6 C :   -0.231809
   7 O :    0.182766
   8 C :   -0.231741
   9 H :    0.177404
  10 H :    0.137614
  11 H :    0.139170
  12 H :    0.133533
  13 H :    0.141639
  14 H :    0.136899
  15 H :    0.135238
  16 H :    0.138011
  17 H :    0.132926
  18 H :    0.131194

  Mayer bond orders larger than 0.1
B(  0-O ,  1-C ) :   1.1023 B(  0-O ,  9-H ) :   0.8426 B(  1-C ,  2-C ) :   0.8842
B(  1-C ,  8-C ) :   0.8770 B(  1-C , 10-H ) :   0.9629 B(  2-C ,  3-C ) :   0.9512
B(  2-C ,  6-C ) :   0.8847 B(  2-C , 11-H ) :   0.9095 B(  3-C ,  4-C ) :   0.9368
B(  3-C , 12-H ) :   0.9339 B(  3-C , 13-H ) :   0.9154 B(  4-C ,  5-C ) :   0.8997
B(  4-C ,  8-C ) :   0.8660 B(  4-C , 14-H ) :   0.9152 B(  5-C ,  6-C ) :   0.9609
B(  5-C , 15-H ) :   0.9261 B(  5-C , 16-H ) :   0.9212 B(  6-C ,  7-O ) :   0.9106
B(  6-C , 17-H ) :   0.9155 B(  7-O ,  8-C ) :   0.9286 B(  8-C , 18-H ) :   0.8992

MP2 TOTAL ENERGY:     -422.324573897 Eh
FINAL SINGLE POINT ENERGY      -422.324573896933

DIPOLE MOMENT
-------------
                                X             Y             Z
Electronic contribution:      2.55254      -0.28271       2.19804
Nuclear contribution   :     -2.47903       0.45556      -2.28602
                        -----------------------------------------
Total Dipole Moment    :      0.07351       0.17284      -0.08798
                        -----------------------------------------
Magnitude (a.u.)       :      0.20741
Magnitude (Debye)      :      0.52720

                             ****ORCA TERMINATED NORMALLY****
TOTAL RUN TIME: 0 days 0 hours 18 minutes 48 seconds 758 msec
