                         Program Version 3.0.3 - RELEASE   -
|  1> ! RI-MP2 RIJK def2-TZVP def2-TZVP/C def2-TZVP/JK TIGHTSCF
|  2> % maxcore 2000
|  3> % mp2 density relaxed end
|  4> *xyz 0 1
|  5>  O        0.7843035675    -0.1046732069    -0.4805497902
|  6>  C       -0.1923533189     0.4695002762     0.3805008981
|  7>  C       -1.5609827460    -0.1764689154     0.2457818856
|  8>  N       -2.6038248670     0.5348946210     0.4466078679
|  9>  C       -3.8780668112    -0.1644331288     0.4985989758
| 10>  C       -3.9890013275    -1.4608228544    -0.2923438198
| 11>  O       -5.0427546886    -1.9193610039    -0.6599498867
| 12>  C       -2.6777737590    -2.1724741243    -0.6228610819
| 13>  N       -1.5262012569    -1.5255330573    -0.0179403990
| 14>  H        0.6099380012     0.2074197888    -1.3746347079
| 15>  H        0.1790067421     0.3031822255     1.3979244511
| 16>  H       -0.3102481984     1.5482114103     0.2380398961
| 17>  H       -4.1043083065    -0.4279318895     1.5460404669
| 18>  H       -4.6901610208     0.4960032933     0.1786474458
| 19>  H       -2.7597172063    -3.2121061424    -0.2869974785
| 20>  H       -2.6104965754    -2.1981044058    -1.7214897175
| 21>  H       -0.6160051782    -1.8555442963    -0.3096516056
| 22> *
| 23>
| 24>                          ****END OF INPUT****

CARTESIAN COORDINATES (ANGSTROEM)
---------------------------------
  O      0.784304   -0.104673   -0.480550
  C     -0.192353    0.469500    0.380501
  C     -1.560983   -0.176469    0.245782
  N     -2.603825    0.534895    0.446608
  C     -3.878067   -0.164433    0.498599
  C     -3.989001   -1.460823   -0.292344
  O     -5.042755   -1.919361   -0.659950
  C     -2.677774   -2.172474   -0.622861
  N     -1.526201   -1.525533   -0.017940
  H      0.609938    0.207420   -1.374635
  H      0.179007    0.303182    1.397924
  H     -0.310248    1.548211    0.238040
  H     -4.104308   -0.427932    1.546040
  H     -4.690161    0.496003    0.178647
  H     -2.759717   -3.212106   -0.286997
  H     -2.610497   -2.198104   -1.721490
  H     -0.616005   -1.855544   -0.309652

 Total Charge           Charge          ....    0
 Multiplicity           Mult            ....    1
 Number of Electrons    NEL             ....   68
 Basis Dimension        Dim             ....  327

ORBITAL ENERGIES
----------------

  NO   OCC          E(Eh)            E(eV)
   0   2.0000     -20.586299      -560.1817
   1   2.0000     -20.552357      -559.2581
   2   2.0000     -15.591644      -424.2702
   3   2.0000     -15.543857      -422.9699
   4   2.0000     -11.340174      -308.5818
   5   2.0000     -11.323200      -308.1199
   6   2.0000     -11.300852      -307.5118
   7   2.0000     -11.287922      -307.1600
   8   2.0000     -11.264634      -306.5263
   9   2.0000      -1.399206       -38.0743
  10   2.0000      -1.391393       -37.8617
  11   2.0000      -1.297726       -35.3129
  12   2.0000      -1.189006       -32.3545
  13   2.0000      -1.049720       -28.5643
  14   2.0000      -0.957432       -26.0530
  15   2.0000      -0.940264       -25.5859
  16   2.0000      -0.820948       -22.3391
  17   2.0000      -0.738582       -20.0978
  18   2.0000      -0.717522       -19.5248
  19   2.0000      -0.709363       -19.3028
  20   2.0000      -0.675449       -18.3799
  21   2.0000      -0.669178       -18.2093
  22   2.0000      -0.631179       -17.1752
  23   2.0000      -0.627251       -17.0684
  24   2.0000      -0.604725       -16.4554
  25   2.0000      -0.588530       -16.0147
  26   2.0000      -0.574605       -15.6358
  27   2.0000      -0.539686       -14.6856
  28   2.0000      -0.517989       -14.0952
  29   2.0000      -0.498321       -13.5600
  30   2.0000      -0.472316       -12.8524
  31   2.0000      -0.448285       -12.1985
  32   2.0000      -0.394260       -10.7283
  33   2.0000      -0.362781        -9.8718
  34   0.0000       0.108988         2.9657
  35   0.0000       0.127215         3.4617
  36   0.0000       0.144218         3.9244
  37   0.0000       0.158270         4.3068
  38   0.0000       0.168852         4.5947

MULLIKEN ATOMIC CHARGES
-----------------------
   0 O :   -0.489648
   1 C :   -0.016547
   2 C :    0.056921
   3 N :   -0.278167
   4 C :   -0.111452
   5 C :    0.133925
   6 O :   -0.278131
   7 C :   -0.107807
   8 N :   -0.330745
   9 H :    0.325120
  10 H :    0.129951
  11 H :    0.143134
  12 H :    0.137314
  13 H :    0.150985
  14 H :    0.149507
  15 H :    0.136221
  16 H :    0.249420
Sum of atomic charges:   -0.0000000

LOEWDIN ATOMIC CHARGES
----------------------
   0 O :   -0.051519
   1 C :   -0.299249
   2 C :   -0.374646
   3 N :    0.075887
   4 C :   -0.268176
   5 C :   -0.321898
   6 O :    0.157440
   7 C :   -0.250024
   8 N :    0.088341
   9 H :    0.178245
  10 H :    0.141561
  11 H :    0.134312
  12 H :    0.156328
  13 H :    0.148778
  14 H :    0.149102
  15 H :    0.145748
  16 H :    0.189771

  Mayer bond orders larger than 0.1
B(  0-O ,  1-C ) :   0.8627 B(  0-O ,  9-H ) :   0.8432 B(  1-C ,  2-C ) :   0.8988
B(  1-C , 10-H ) :   0.9102 B(  1-C , 11-H ) :   0.9451 B(  2-C ,  3-N ) :   1.8519
B(  2-C ,  8-N ) :   1.1375 B(  3-N ,  4-C ) :   0.9122 B(  4-C ,  5-C ) :   0.9094
B(  4-C , 12-H ) :   0.8953 B(  4-C , 13-H ) :   0.9247 B(  5-C ,  6-O ) :   2.0040
B(  5-C ,  7-C ) :   0.9074 B(  7-C ,  8-N ) :   0.8835 B(  7-C , 14-H ) :   0.9095
B(  7-C , 15-H ) :   0.9165 B(  8-N , 16-H ) :   0.8490

MP2 TOTAL ENERGY:     -454.428977785 Eh
FINAL SINGLE POINT ENERGY      -454.428977785029

DIPOLE MOMENT
-------------
                                X             Y             Z
Electronic contribution:     -2.55677      -0.84406      -0.59940
Nuclear contribution   :      3.46412       0.65189       0.26630
                        -----------------------------------------
Total Dipole Moment    :      0.90735      -0.19217      -0.33310
                        -----------------------------------------
Magnitude (a.u.)       :      0.98548
Magnitude (Debye)      :      2.50488

                             ****ORCA TERMINATED NORMALLY****
TOTAL RUN TIME: 0 days 0 hours 15 minutes 58 seconds 355 msec
