                         Program Version 3.0.3 - RELEASE   -
|  1> ! RI-MP2 RIJK def2-TZVP def2-TZVP/C def2-TZVP/JK TIGHTSCF
|  2> % maxcore 2000
|  3> % mp2 density relaxed end
|  4> *xyz 0 1
|  5>  C       -0.0015330889     1.4686224073     0.3585598146
|  6>  C        1.4825179008     1.5923129999    -0.0781720449
|  7>  C        1.3890618595     0.1980665305    -0.7573215026
|  8>  C       -0.0071639320    -0.0315291203    -0.0636224970
|  9>  C       -1.1504889343    -0.5011833601    -0.9918610198
| 10>  C       -0.7279246001    -0.3322142170    -2.4523811910
| 11>  C        0.5768917254    -1.0957229248    -2.7599733770
| 12>  C        1.2162147929     0.2173828600    -2.2681116084
| 13>  O       -0.0144821822     0.9334808691    -2.6002731219
| 14>  H       -0.2211490041     1.6723621985     1.4100301444
| 15>  H       -0.6666233853     2.0679321848    -0.2655882503
| 16>  H        1.7234086214     2.4293619361    -0.7385282665
| 17>  H        2.1811385971     1.6031385906     0.7622506157
| 18>  H        2.1795666396    -0.5117399720    -0.4914173373
| 19>  H        0.0770412226    -0.6862158233     0.8068830837
| 20>  H       -1.4123948632    -1.5523066095    -0.8177835819
| 21>  H       -2.0530918284     0.0879358984    -0.7913652775
| 22>  H       -1.5599376780    -0.4161792439    -3.1568149295
| 23>  H        0.7853971658    -2.0122552139    -2.2020555617
| 24>  H        0.7219056664    -1.2585209008    -3.8290560364
| 25>  H        2.0797580851     0.6277819002    -2.8013203146
| 26> *
| 27>
| 28>                          ****END OF INPUT****

CARTESIAN COORDINATES (ANGSTROEM)
---------------------------------
  C     -0.001533    1.468622    0.358560
  C      1.482518    1.592313   -0.078172
  C      1.389062    0.198067   -0.757322
  C     -0.007164   -0.031529   -0.063622
  C     -1.150489   -0.501183   -0.991861
  C     -0.727925   -0.332214   -2.452381
  C      0.576892   -1.095723   -2.759973
  C      1.216215    0.217383   -2.268112
  O     -0.014482    0.933481   -2.600273
  H     -0.221149    1.672362    1.410030
  H     -0.666623    2.067932   -0.265588
  H      1.723409    2.429362   -0.738528
  H      2.181139    1.603139    0.762251
  H      2.179567   -0.511740   -0.491417
  H      0.077041   -0.686216    0.806883
  H     -1.412395   -1.552307   -0.817784
  H     -2.053092    0.087936   -0.791365
  H     -1.559938   -0.416179   -3.156815
  H      0.785397   -2.012255   -2.202056
  H      0.721906   -1.258521   -3.829056
  H      2.079758    0.627782   -2.801320

 Total Charge           Charge          ....    0
 Multiplicity           Mult            ....    1
 Number of Electrons    NEL             ....   68
 Basis Dimension        Dim             ....  351

ORBITAL ENERGIES
----------------

  NO   OCC          E(Eh)            E(eV)
   0   2.0000     -20.538574      -558.8830
   1   2.0000     -11.279155      -306.9214
   2   2.0000     -11.277730      -306.8826
   3   2.0000     -11.224126      -305.4240
   4   2.0000     -11.223600      -305.4097
   5   2.0000     -11.222602      -305.3825
   6   2.0000     -11.219491      -305.2979
   7   2.0000     -11.212506      -305.1078
   8   2.0000     -11.209244      -305.0190
   9   2.0000      -1.372932       -37.3594
  10   2.0000      -1.126336       -30.6492
  11   2.0000      -1.032862       -28.1056
  12   2.0000      -1.003287       -27.3008
  13   2.0000      -0.920553       -25.0495
  14   2.0000      -0.873523       -23.7698
  15   2.0000      -0.817093       -22.2342
  16   2.0000      -0.768945       -20.9241
  17   2.0000      -0.700241       -19.0545
  18   2.0000      -0.698564       -19.0089
  19   2.0000      -0.651763       -17.7354
  20   2.0000      -0.618590       -16.8327
  21   2.0000      -0.613933       -16.7060
  22   2.0000      -0.586115       -15.9490
  23   2.0000      -0.545835       -14.8529
  24   2.0000      -0.541612       -14.7380
  25   2.0000      -0.524810       -14.2808
  26   2.0000      -0.508508       -13.8372
  27   2.0000      -0.502281       -13.6678
  28   2.0000      -0.476982       -12.9793
  29   2.0000      -0.456766       -12.4292
  30   2.0000      -0.438258       -11.9256
  31   2.0000      -0.423393       -11.5211
  32   2.0000      -0.407227       -11.0812
  33   2.0000      -0.386274       -10.5111
  34   0.0000       0.137098         3.7306
  35   0.0000       0.154707         4.2098
  36   0.0000       0.162950         4.4341
  37   0.0000       0.169092         4.6012
  38   0.0000       0.188069         5.1176

MULLIKEN ATOMIC CHARGES
-----------------------
   0 C :   -0.236053
   1 C :   -0.242093
   2 C :   -0.093033
   3 C :   -0.051015
   4 C :   -0.280384
   5 C :    0.086270
   6 C :   -0.283608
   7 C :    0.102759
   8 O :   -0.354742
   9 H :    0.110724
  10 H :    0.110445
  11 H :    0.109478
  12 H :    0.113556
  13 H :    0.103107
  14 H :    0.099903
  15 H :    0.111516
  16 H :    0.122236
  17 H :    0.112014
  18 H :    0.118592
  19 H :    0.123692
  20 H :    0.116636
Sum of atomic charges:    0.0000000

LOEWDIN ATOMIC CHARGES
----------------------
   0 C :   -0.221005
   1 C :   -0.217592
   2 C :   -0.194618
   3 C :   -0.183181
   4 C :   -0.229922
   5 C :   -0.268173
   6 C :   -0.202411
   7 C :   -0.254268
   8 O :    0.151788
   9 H :    0.121211
  10 H :    0.135785
  11 H :    0.130108
  12 H :    0.130353
  13 H :    0.143501
  14 H :    0.143898
  15 H :    0.139963
  16 H :    0.142597
  17 H :    0.131091
  18 H :    0.130802
  19 H :    0.136462
  20 H :    0.133612

  Mayer bond orders larger than 0.1
B(  0-C ,  1-C ) :   0.9772 B(  0-C ,  3-C ) :   0.9490 B(  0-C ,  9-H ) :   0.9257
B(  0-C , 10-H ) :   0.9022 B(  1-C ,  2-C ) :   0.9140 B(  1-C , 11-H ) :   0.9093
B(  1-C , 12-H ) :   0.9248 B(  2-C ,  3-C ) :   0.9391 B(  2-C ,  7-C ) :   0.9231
B(  2-C , 13-H ) :   0.9075 B(  3-C ,  4-C ) :   0.9111 B(  3-C , 14-H ) :   0.9165
B(  4-C ,  5-C ) :   0.9583 B(  4-C , 15-H ) :   0.9184 B(  4-C , 16-H ) :   0.9155
B(  5-C ,  6-C ) :   0.9452 B(  5-C ,  8-O ) :   0.9317 B(  5-C , 17-H ) :   0.9233
B(  6-C ,  7-C ) :   0.9230 B(  6-C , 18-H ) :   0.9272 B(  6-C , 19-H ) :   0.9214
B(  7-C ,  8-O ) :   0.8983 B(  7-C , 20-H ) :   0.9214

MP2 TOTAL ENERGY:     -386.400792820 Eh
FINAL SINGLE POINT ENERGY      -386.400792819526

DIPOLE MOMENT
-------------
                                X             Y             Z
Electronic contribution:     -0.09983       0.59534      -3.08989
Nuclear contribution   :      0.23939      -1.25778       3.30766
                        -----------------------------------------
Total Dipole Moment    :      0.13956      -0.66243       0.21777
                        -----------------------------------------
Magnitude (a.u.)       :      0.71114
Magnitude (Debye)      :      1.80757

                             ****ORCA TERMINATED NORMALLY****
TOTAL RUN TIME: 0 days 0 hours 21 minutes 1 seconds 656 msec
