                         Program Version 3.0.3 - RELEASE   -
|  1> ! RI-MP2 RIJK def2-TZVP def2-TZVP/C def2-TZVP/JK TIGHTSCF
|  2> % maxcore 2000
|  3> % mp2 density relaxed end
|  4> *xyz 0 1
|  5>  C       -0.3015334558    -1.2442321319    -0.2307281894
|  6>  C       -0.0955515691    -0.0678622283    -0.1043963608
|  7>  C        0.1091378544     1.3591537407     0.0675457684
|  8>  C       -0.4715988195     1.9447148852     1.3999287189
|  9>  N        0.6893837988     2.4647511235     2.1281541884
| 10>  C        1.6917153703     2.2527393533     1.3801723887
| 11>  O        1.5387699711     1.6569865324     0.1725477705
| 12>  C        3.0422164570     2.6116392080     1.7142925863
| 13>  N        4.1287958847     2.9014923197     1.9766623283
| 14>  H       -0.4757396148    -2.2858279312    -0.3491312722
| 15>  H       -0.2534428721     1.9027851557    -0.8093567982
| 16>  H       -1.1840510056     2.7537186224     1.2149711389
| 17>  H       -0.9746653694     1.1794607304     1.9961201323
| 18> *
| 19>
| 20>                          ****END OF INPUT****

CARTESIAN COORDINATES (ANGSTROEM)
---------------------------------
  C     -0.301533   -1.244232   -0.230728
  C     -0.095552   -0.067862   -0.104396
  C      0.109138    1.359154    0.067546
  C     -0.471599    1.944715    1.399929
  N      0.689384    2.464751    2.128154
  C      1.691715    2.252739    1.380172
  O      1.538770    1.656987    0.172548
  C      3.042216    2.611639    1.714293
  N      4.128796    2.901492    1.976662
  H     -0.475740   -2.285828   -0.349131
  H     -0.253443    1.902785   -0.809357
  H     -1.184051    2.753719    1.214971
  H     -0.974665    1.179461    1.996120

 Total Charge           Charge          ....    0
 Multiplicity           Mult            ....    1
 Number of Electrons    NEL             ....   62
 Basis Dimension        Dim             ....  303

ORBITAL ENERGIES
----------------

  NO   OCC          E(Eh)            E(eV)
   0   2.0000     -20.635950      -561.5328
   1   2.0000     -15.607087      -424.6904
   2   2.0000     -15.599082      -424.4726
   3   2.0000     -11.398025      -310.1560
   4   2.0000     -11.354871      -308.9818
   5   2.0000     -11.301287      -307.5237
   6   2.0000     -11.300281      -307.4963
   7   2.0000     -11.261975      -306.4539
   8   2.0000     -11.257755      -306.3391
   9   2.0000      -1.480603       -40.2893
  10   2.0000      -1.265405       -34.4334
  11   2.0000      -1.242046       -33.7978
  12   2.0000      -1.113591       -30.3023
  13   2.0000      -1.036155       -28.1952
  14   2.0000      -0.925920       -25.1956
  15   2.0000      -0.904527       -24.6134
  16   2.0000      -0.768566       -20.9138
  17   2.0000      -0.767221       -20.8771
  18   2.0000      -0.724235       -19.7074
  19   2.0000      -0.681671       -18.5492
  20   2.0000      -0.640332       -17.4243
  21   2.0000      -0.611018       -16.6267
  22   2.0000      -0.606697       -16.5091
  23   2.0000      -0.584925       -15.9166
  24   2.0000      -0.564177       -15.3520
  25   2.0000      -0.505786       -13.7631
  26   2.0000      -0.503180       -13.6922
  27   2.0000      -0.489771       -13.3274
  28   2.0000      -0.427122       -11.6226
  29   2.0000      -0.417490       -11.3605
  30   2.0000      -0.415052       -11.2941
  31   0.0000       0.079398         2.1605
  32   0.0000       0.116997         3.1837
  33   0.0000       0.134996         3.6734
  34   0.0000       0.151211         4.1147
  35   0.0000       0.161862         4.4045

MULLIKEN ATOMIC CHARGES
-----------------------
   0 C :   -0.091226
   1 C :   -0.077735
   2 C :   -0.031076
   3 C :   -0.129073
   4 N :   -0.234243
   5 C :    0.334347
   6 O :   -0.246329
   7 C :   -0.136975
   8 N :   -0.032731
   9 H :    0.204922
  10 H :    0.145997
  11 H :    0.139223
  12 H :    0.154898
Sum of atomic charges:    0.0000000

LOEWDIN ATOMIC CHARGES
----------------------
   0 C :   -0.057741
   1 C :   -0.090892
   2 C :   -0.236381
   3 C :   -0.225782
   4 N :    0.133683
   5 C :   -0.378271
   6 O :    0.279917
   7 C :   -0.117239
   8 N :    0.111656
   9 H :    0.132821
  10 H :    0.162558
  11 H :    0.139920
  12 H :    0.145751

  Mayer bond orders larger than 0.1
B(  0-C ,  1-C ) :   2.5941 B(  0-C ,  9-H ) :   0.8886 B(  1-C ,  2-C ) :   1.1157
B(  2-C ,  3-C ) :   0.9104 B(  2-C ,  6-O ) :   0.8561 B(  2-C , 10-H ) :   0.9195
B(  3-C ,  4-N ) :   0.9141 B(  3-C , 11-H ) :   0.9202 B(  3-C , 12-H ) :   0.9242
B(  4-N ,  5-C ) :   1.7847 B(  5-C ,  6-O ) :   1.1070 B(  5-C ,  7-C ) :   0.9062
B(  7-C ,  8-N ) :   2.8173

MP2 TOTAL ENERGY:     -414.865572325 Eh
FINAL SINGLE POINT ENERGY      -414.865572324977

DIPOLE MOMENT
-------------
                                X             Y             Z
Electronic contribution:      5.26519       1.84244       0.84570
Nuclear contribution   :     -6.96775      -2.51699      -1.60691
                        -----------------------------------------
Total Dipole Moment    :     -1.70256      -0.67455      -0.76120
                        -----------------------------------------
Magnitude (a.u.)       :      1.98322
Magnitude (Debye)      :      5.04094

                             ****ORCA TERMINATED NORMALLY****
TOTAL RUN TIME: 0 days 0 hours 12 minutes 54 seconds 459 msec
