                         Program Version 3.0.3 - RELEASE   -
|  1> ! RI-MP2 RIJK def2-TZVP def2-TZVP/C def2-TZVP/JK TIGHTSCF
|  2> % maxcore 2000
|  3> % mp2 density relaxed end
|  4> *xyz 0 1
|  5>  C        0.0956043790     1.4100371876    -0.3796474268
|  6>  C        0.0411853406     0.0005606654     0.2375508218
|  7>  O        0.4809228340     0.0242123082     1.5700213325
|  8>  C       -1.3540370270    -0.5768058314     0.1245101399
|  9>  C       -1.9755423580    -0.9295959990    -1.0769923814
| 10>  N       -3.2020447338    -1.4165171280    -1.0832304114
| 11>  N       -3.8396453479    -1.5523349913     0.0864846980
| 12>  N       -3.2675418368    -1.2303737937     1.2164341986
| 13>  N       -2.0246678434    -0.7488030671     1.2531904854
| 14>  H        1.1100040498     1.7997530966    -0.2698619166
| 15>  H       -0.1606736418     1.3995255022    -1.4440338252
| 16>  H       -0.5925151681     2.0795628258     0.1443993105
| 17>  H        0.7124471702    -0.6551070985    -0.3398802401
| 18>  H       -0.2900919599    -0.1490430587     2.1308711852
| 19>  H       -1.4842855371    -0.8311209282    -2.0415849905
| 20> *
| 21>
| 22>                          ****END OF INPUT****

CARTESIAN COORDINATES (ANGSTROEM)
---------------------------------
  C      0.095604    1.410037   -0.379647
  C      0.041185    0.000561    0.237551
  O      0.480923    0.024212    1.570021
  C     -1.354037   -0.576806    0.124510
  C     -1.975542   -0.929596   -1.076992
  N     -3.202045   -1.416517   -1.083230
  N     -3.839645   -1.552335    0.086485
  N     -3.267542   -1.230374    1.216434
  N     -2.024668   -0.748803    1.253190
  H      1.110004    1.799753   -0.269862
  H     -0.160674    1.399526   -1.444034
  H     -0.592515    2.079563    0.144399
  H      0.712447   -0.655107   -0.339880
  H     -0.290092   -0.149043    2.130871
  H     -1.484286   -0.831121   -2.041585

 Total Charge           Charge          ....    0
 Multiplicity           Mult            ....    1
 Number of Electrons    NEL             ....   66
 Basis Dimension        Dim             ....  315

ORBITAL ENERGIES
----------------

  NO   OCC          E(Eh)            E(eV)
   0   2.0000     -20.571765      -559.7862
   1   2.0000     -15.686168      -426.8423
   2   2.0000     -15.679393      -426.6580
   3   2.0000     -15.659665      -426.1211
   4   2.0000     -15.655913      -426.0190
   5   2.0000     -11.338367      -308.5326
   6   2.0000     -11.332405      -308.3704
   7   2.0000     -11.324807      -308.1637
   8   2.0000     -11.246429      -306.0309
   9   2.0000      -1.464729       -39.8573
  10   2.0000      -1.390505       -37.8376
  11   2.0000      -1.303683       -35.4750
  12   2.0000      -1.219409       -33.1818
  13   2.0000      -1.063972       -28.9521
  14   2.0000      -0.990336       -26.9484
  15   2.0000      -0.975561       -26.5464
  16   2.0000      -0.866630       -23.5822
  17   2.0000      -0.795185       -21.6381
  18   2.0000      -0.763515       -20.7763
  19   2.0000      -0.712111       -19.3775
  20   2.0000      -0.677686       -18.4408
  21   2.0000      -0.648697       -17.6520
  22   2.0000      -0.619993       -16.8709
  23   2.0000      -0.606160       -16.4944
  24   2.0000      -0.587820       -15.9954
  25   2.0000      -0.559858       -15.2345
  26   2.0000      -0.550534       -14.9808
  27   2.0000      -0.528564       -14.3830
  28   2.0000      -0.487380       -13.2623
  29   2.0000      -0.476118       -12.9558
  30   2.0000      -0.462496       -12.5852
  31   2.0000      -0.440578       -11.9887
  32   2.0000      -0.432388       -11.7659
  33   0.0000       0.039852         1.0844
  34   0.0000       0.057636         1.5684
  35   0.0000       0.120300         3.2735
  36   0.0000       0.159500         4.3402
  37   0.0000       0.167380         4.5546

MULLIKEN ATOMIC CHARGES
-----------------------
   0 C :   -0.362439
   1 C :    0.059094
   2 O :   -0.468751
   3 C :    0.158719
   4 C :   -0.065151
   5 N :   -0.086543
   6 N :   -0.042437
   7 N :   -0.093553
   8 N :   -0.134303
   9 H :    0.152300
  10 H :    0.122610
  11 H :    0.133015
  12 H :    0.111738
  13 H :    0.347758
  14 H :    0.167944
Sum of atomic charges:   -0.0000000

LOEWDIN ATOMIC CHARGES
----------------------
   0 C :   -0.279731
   1 C :   -0.344817
   2 O :    0.004010
   3 C :   -0.212718
   4 C :   -0.168714
   5 N :    0.069681
   6 N :   -0.009837
   7 N :   -0.016312
   8 N :    0.082097
   9 H :    0.133664
  10 H :    0.124027
  11 H :    0.129460
  12 H :    0.154045
  13 H :    0.179752
  14 H :    0.155395

  Mayer bond orders larger than 0.1
B(  0-C ,  1-C ) :   0.8846 B(  0-C ,  9-H ) :   0.9316 B(  0-C , 10-H ) :   0.9225
B(  0-C , 11-H ) :   0.9250 B(  1-C ,  2-O ) :   1.0714 B(  1-C ,  3-C ) :   0.9204
B(  1-C , 12-H ) :   0.9228 B(  2-O , 13-H ) :   0.7993 B(  3-C ,  4-C ) :   1.2108
B(  3-C ,  8-N ) :   1.3407 B(  4-C ,  5-N ) :   1.4765 B(  4-C , 14-H ) :   0.9269
B(  5-N ,  6-N ) :   1.0716 B(  6-N ,  7-N ) :   1.2522 B(  7-N ,  8-N ) :   1.0895

MP2 TOTAL ENERGY:     -449.327849705 Eh
FINAL SINGLE POINT ENERGY      -449.327849705435

DIPOLE MOMENT
-------------
                                X             Y             Z
Electronic contribution:     -7.41701      -5.82059       2.01175
Nuclear contribution   :      8.44800       6.37433      -3.05847
                        -----------------------------------------
Total Dipole Moment    :      1.03098       0.55374      -1.04672
                        -----------------------------------------
Magnitude (a.u.)       :      1.57009
Magnitude (Debye)      :      3.99085

                             ****ORCA TERMINATED NORMALLY****
TOTAL RUN TIME: 0 days 0 hours 15 minutes 25 seconds 450 msec
