                         Program Version 3.0.3 - RELEASE   -
|  1> ! RI-MP2 RIJK def2-TZVP def2-TZVP/C def2-TZVP/JK TIGHTSCF
|  2> % maxcore 2000
|  3> % mp2 density relaxed end
|  4> *xyz 0 1
|  5>  C       -0.4351643089     1.3776301390     0.3299759749
|  6>  C       -0.5861601670    -0.0095817666    -0.2674846339
|  7>  O       -1.3211064859    -0.8108031454     0.6586474829
|  8>  C       -1.5652315742    -2.1389975621     0.2541426365
|  9>  C       -3.0380927934    -2.3143640472    -0.2015482260
| 10>  N       -4.0200519501    -1.8311781830     0.7632162315
| 11>  C       -4.2355874459    -2.7180174534     1.9015846814
| 12>  C       -3.2579458444    -1.6418244654    -1.4964764312
| 13>  N       -3.4021733372    -1.1176968894    -2.5162508126
| 14>  H        0.1426038575     2.0166855785    -0.3440730201
| 15>  H       -1.4147098868     1.8384224751     0.4862215323
| 16>  H        0.0809797726     1.3293586566     1.2930327685
| 17>  H       -1.1066290517     0.0384462233    -1.2323052515
| 18>  H        0.4005095547    -0.4666166676    -0.4407041542
| 19>  H       -0.8774247405    -2.4588122704    -0.5398140505
| 20>  H       -1.4008166448    -2.7873304706     1.1231029835
| 21>  H       -3.2165721658    -3.3855302528    -0.3651559208
| 22>  H       -3.7145735496    -0.9156193388     1.0791209373
| 23>  H       -4.9647372152    -2.2553428407     2.5719224750
| 24>  H       -4.6631579598    -3.6635888622     1.5501481779
| 25>  H       -3.3354984536    -2.9521593869     2.4936421789
| 26> *
| 27>
| 28>                          ****END OF INPUT****

CARTESIAN COORDINATES (ANGSTROEM)
---------------------------------
  C     -0.435164    1.377630    0.329976
  C     -0.586160   -0.009582   -0.267485
  O     -1.321106   -0.810803    0.658647
  C     -1.565232   -2.138998    0.254143
  C     -3.038093   -2.314364   -0.201548
  N     -4.020052   -1.831178    0.763216
  C     -4.235587   -2.718017    1.901585
  C     -3.257946   -1.641824   -1.496476
  N     -3.402173   -1.117697   -2.516251
  H      0.142604    2.016686   -0.344073
  H     -1.414710    1.838422    0.486222
  H      0.080980    1.329359    1.293033
  H     -1.106629    0.038446   -1.232305
  H      0.400510   -0.466617   -0.440704
  H     -0.877425   -2.458812   -0.539814
  H     -1.400817   -2.787330    1.123103
  H     -3.216572   -3.385530   -0.365156
  H     -3.714574   -0.915619    1.079121
  H     -4.964737   -2.255343    2.571922
  H     -4.663158   -3.663589    1.550148
  H     -3.335498   -2.952159    2.493642

 Total Charge           Charge          ....    0
 Multiplicity           Mult            ....    1
 Number of Electrons    NEL             ....   70
 Basis Dimension        Dim             ....  351

ORBITAL ENERGIES
----------------

  NO   OCC          E(Eh)            E(eV)
   0   2.0000     -20.570092      -559.7407
   1   2.0000     -15.567536      -423.6142
   2   2.0000     -15.563880      -423.5147
   3   2.0000     -11.312040      -307.8163
   4   2.0000     -11.301506      -307.5296
   5   2.0000     -11.282871      -307.0225
   6   2.0000     -11.269270      -306.6524
   7   2.0000     -11.260080      -306.4024
   8   2.0000     -11.220472      -305.3246
   9   2.0000      -1.390659       -37.8418
  10   2.0000      -1.240468       -33.7548
  11   2.0000      -1.206914       -32.8418
  12   2.0000      -1.054357       -28.6905
  13   2.0000      -1.011080       -27.5129
  14   2.0000      -0.924056       -25.1448
  15   2.0000      -0.876873       -23.8609
  16   2.0000      -0.835682       -22.7401
  17   2.0000      -0.735007       -20.0006
  18   2.0000      -0.691080       -18.8052
  19   2.0000      -0.678286       -18.4571
  20   2.0000      -0.657256       -17.8848
  21   2.0000      -0.623434       -16.9645
  22   2.0000      -0.614904       -16.7324
  23   2.0000      -0.588814       -16.0224
  24   2.0000      -0.579556       -15.7705
  25   2.0000      -0.547011       -14.8849
  26   2.0000      -0.546842       -14.8803
  27   2.0000      -0.536024       -14.5860
  28   2.0000      -0.521849       -14.2002
  29   2.0000      -0.517770       -14.0892
  30   2.0000      -0.491662       -13.3788
  31   2.0000      -0.471988       -12.8434
  32   2.0000      -0.461256       -12.5514
  33   2.0000      -0.432054       -11.7568
  34   2.0000      -0.390129       -10.6160
  35   0.0000       0.126975         3.4552
  36   0.0000       0.141637         3.8541
  37   0.0000       0.153996         4.1904
  38   0.0000       0.164396         4.4734
  39   0.0000       0.175111         4.7650

MULLIKEN ATOMIC CHARGES
-----------------------
   0 C :   -0.371359
   1 C :   -0.070336
   2 O :   -0.323135
   3 C :   -0.074552
   4 C :    0.069255
   5 N :   -0.334043
   6 C :   -0.307525
   7 C :   -0.154424
   8 N :   -0.062401
   9 H :    0.128517
  10 H :    0.131694
  11 H :    0.129574
  12 H :    0.129246
  13 H :    0.101682
  14 H :    0.124403
  15 H :    0.136425
  16 H :    0.127625
  17 H :    0.224585
  18 H :    0.146806
  19 H :    0.133689
  20 H :    0.114273
Sum of atomic charges:    0.0000000

LOEWDIN ATOMIC CHARGES
----------------------
   0 C :   -0.315589
   1 C :   -0.341183
   2 O :    0.150733
   3 C :   -0.299366
   4 C :   -0.305441
   5 N :   -0.007165
   6 C :   -0.346664
   7 C :   -0.167854
   8 N :    0.059615
   9 H :    0.127281
  10 H :    0.124599
  11 H :    0.123942
  12 H :    0.126235
  13 H :    0.118535
  14 H :    0.132873
  15 H :    0.131348
  16 H :    0.172847
  17 H :    0.176725
  18 H :    0.120940
  19 H :    0.117301
  20 H :    0.100290

  Mayer bond orders larger than 0.1
B(  0-C ,  1-C ) :   0.9562 B(  0-C ,  9-H ) :   0.9320 B(  0-C , 10-H ) :   0.9358
B(  0-C , 11-H ) :   0.9347 B(  1-C ,  2-O ) :   0.8921 B(  1-C , 12-H ) :   0.9185
B(  1-C , 13-H ) :   0.9275 B(  2-O ,  3-C ) :   0.8886 B(  3-C ,  4-C ) :   0.9193
B(  3-C , 14-H ) :   0.9253 B(  3-C , 15-H ) :   0.9218 B(  4-C ,  5-N ) :   0.9840
B(  4-C ,  7-C ) :   0.9159 B(  4-C , 16-H ) :   0.9038 B(  5-N ,  6-C ) :   0.9260
B(  5-N , 17-H ) :   0.8727 B(  6-C , 18-H ) :   0.9388 B(  6-C , 19-H ) :   0.9383
B(  6-C , 20-H ) :   0.9263 B(  7-C ,  8-N ) :   2.8617

MP2 TOTAL ENERGY:     -419.690435836 Eh
FINAL SINGLE POINT ENERGY      -419.690435836259

DIPOLE MOMENT
-------------
                                X             Y             Z
Electronic contribution:     -3.57925      -1.65205      -6.05032
Nuclear contribution   :      4.37784       1.01742       7.20358
                        -----------------------------------------
Total Dipole Moment    :      0.79859      -0.63463       1.15326
                        -----------------------------------------
Magnitude (a.u.)       :      1.53965
Magnitude (Debye)      :      3.91347

                             ****ORCA TERMINATED NORMALLY****
TOTAL RUN TIME: 0 days 0 hours 18 minutes 22 seconds 871 msec
