                         Program Version 3.0.3 - RELEASE   -
|  1> ! RI-MP2 RIJK def2-TZVP def2-TZVP/C def2-TZVP/JK TIGHTSCF
|  2> % maxcore 2000
|  3> % mp2 density relaxed end
|  4> *xyz 0 1
|  5>  O        0.0050598097     0.0577290012     0.1440249885
|  6>  C        0.0102921840     1.2526902600     0.1068907312
|  7>  C       -1.0493213139     2.3054912254    -0.0775876767
|  8>  N       -0.5373397545     3.5994825064     0.4685799295
|  9>  C        0.7927754715     3.2673052248     1.1102710646
| 10>  C        1.1110157624     2.3233205503    -0.0556999071
| 11>  C       -0.0168839285     3.1288485733    -0.8399005994
| 12>  C       -0.0799547968     3.7596710863    -2.0993451544
| 13>  C       -0.0982205286     4.2820182529    -3.1827777851
| 14>  H       -2.1120896364     2.2226968488    -0.2575464943
| 15>  H        1.3916144117     4.1795205540     1.1261430648
| 16>  H        0.7238199542     2.8373177013     2.1151048818
| 17>  H        2.1089572673     2.0592286140    -0.3920826166
| 18>  H       -0.1232690121     4.7489001812    -4.1365186967
| 19> *
| 20>
| 21>                          ****END OF INPUT****

CARTESIAN COORDINATES (ANGSTROEM)
---------------------------------
  O      0.005060    0.057729    0.144025
  C      0.010292    1.252690    0.106891
  C     -1.049321    2.305491   -0.077588
  N     -0.537340    3.599483    0.468580
  C      0.792775    3.267305    1.110271
  C      1.111016    2.323321   -0.055700
  C     -0.016884    3.128849   -0.839901
  C     -0.079955    3.759671   -2.099345
  C     -0.098221    4.282018   -3.182778
  H     -2.112090    2.222697   -0.257546
  H      1.391614    4.179521    1.126143
  H      0.723820    2.837318    2.115105
  H      2.108957    2.059229   -0.392083
  H     -0.123269    4.748900   -4.136519

 Total Charge           Charge          ....    0
 Multiplicity           Mult            ....    1
 Number of Electrons    NEL             ....   62
 Basis Dimension        Dim             ....  309

ORBITAL ENERGIES
----------------

  NO   OCC          E(Eh)            E(eV)
   0   2.0000     -20.562717      -559.5400
   1   2.0000     -15.608912      -424.7401
   2   2.0000     -11.354578      -308.9738
   3   2.0000     -11.326843      -308.2191
   4   2.0000     -11.298073      -307.4362
   5   2.0000     -11.290837      -307.2393
   6   2.0000     -11.279414      -306.9285
   7   2.0000     -11.259351      -306.3825
   8   2.0000     -11.251506      -306.1690
   9   2.0000      -1.412266       -38.4297
  10   2.0000      -1.353596       -36.8332
  11   2.0000      -1.067242       -29.0411
  12   2.0000      -1.039736       -28.2926
  13   2.0000      -1.019402       -27.7393
  14   2.0000      -0.918360       -24.9898
  15   2.0000      -0.824785       -22.4435
  16   2.0000      -0.755033       -20.5455
  17   2.0000      -0.735713       -20.0198
  18   2.0000      -0.709113       -19.2959
  19   2.0000      -0.677507       -18.4359
  20   2.0000      -0.647757       -17.6264
  21   2.0000      -0.624309       -16.9883
  22   2.0000      -0.604082       -16.4379
  23   2.0000      -0.564753       -15.3677
  24   2.0000      -0.524208       -14.2644
  25   2.0000      -0.499858       -13.6018
  26   2.0000      -0.489181       -13.3113
  27   2.0000      -0.464713       -12.6455
  28   2.0000      -0.411494       -11.1973
  29   2.0000      -0.394543       -10.7361
  30   2.0000      -0.374178       -10.1819
  31   0.0000       0.125920         3.4265
  32   0.0000       0.132074         3.5939
  33   0.0000       0.139379         3.7927
  34   0.0000       0.147258         4.0071
  35   0.0000       0.160672         4.3721

MULLIKEN ATOMIC CHARGES
-----------------------
   0 O :   -0.250877
   1 C :    0.107458
   2 C :   -0.053536
   3 N :   -0.197994
   4 C :   -0.147040
   5 C :   -0.040589
   6 C :   -0.128310
   7 C :   -0.008453
   8 C :   -0.073319
   9 H :    0.159653
  10 H :    0.140966
  11 H :    0.131793
  12 H :    0.157043
  13 H :    0.203204
Sum of atomic charges:   -0.0000000

LOEWDIN ATOMIC CHARGES
----------------------
   0 O :    0.167521
   1 C :   -0.301215
   2 C :   -0.123156
   3 N :    0.174465
   4 C :   -0.206810
   5 C :   -0.110402
   6 C :   -0.167199
   7 C :   -0.072259
   8 C :   -0.052094
   9 H :    0.148558
  10 H :    0.138086
  11 H :    0.128813
  12 H :    0.144067
  13 H :    0.131626

  Mayer bond orders larger than 0.1
B(  0-O ,  1-C ) :   2.0347 B(  1-C ,  2-C ) :   0.9306 B(  1-C ,  5-C ) :   0.8830
B(  2-C ,  3-N ) :   0.8681 B(  2-C ,  5-C ) :  -0.1059 B(  2-C ,  6-C ) :   0.7751
B(  2-C ,  9-H ) :   0.9154 B(  3-N ,  4-C ) :   0.8955 B(  3-N ,  6-C ) :   0.8715
B(  4-C ,  5-C ) :   0.9402 B(  4-C , 10-H ) :   0.9254 B(  4-C , 11-H ) :   0.9223
B(  5-C ,  6-C ) :   0.8024 B(  5-C , 12-H ) :   0.8947 B(  6-C ,  7-C ) :   1.2228
B(  6-C ,  8-C ) :  -0.1654 B(  7-C ,  8-C ) :   2.6394 B(  8-C , 13-H ) :   0.8511

MP2 TOTAL ENERGY:     -398.753613710 Eh
FINAL SINGLE POINT ENERGY      -398.753613710347

DIPOLE MOMENT
-------------
                                X             Y             Z
Electronic contribution:     -1.32259      -2.03773      -0.90075
Nuclear contribution   :      1.76023       2.75385       0.65943
                        -----------------------------------------
Total Dipole Moment    :      0.43764       0.71612      -0.24132
                        -----------------------------------------
Magnitude (a.u.)       :      0.87327
Magnitude (Debye)      :      2.21967

                             ****ORCA TERMINATED NORMALLY****
TOTAL RUN TIME: 0 days 0 hours 16 minutes 19 seconds 686 msec
