                         Program Version 3.0.3 - RELEASE   -
|  1> ! RI-MP2 RIJK def2-TZVP def2-TZVP/C def2-TZVP/JK TIGHTSCF
|  2> % maxcore 2000
|  3> % mp2 density relaxed end
|  4> *xyz 0 1
|  5>  C        0.0879460640     1.4958140142     0.0010171700
|  6>  C       -0.0682717626     0.0213446963     0.0327488216
|  7>  C       -1.1211580636    -0.8432110938    -0.0513792386
|  8>  N       -2.5106003986    -0.9323276153    -0.1968882066
|  9>  C       -2.7248366766    -2.1999235810    -0.1782095651
| 10>  O       -1.6331020701    -3.0397203308    -0.0340453554
| 11>  C       -0.5930555461    -2.1555896404     0.0480666308
| 12>  C        0.7496951885    -2.0777181064     0.1889591202
| 13>  O        1.0644368691    -0.7363415137     0.1785927828
| 14>  H        0.7253756115     1.8164574912    -0.8308227273
| 15>  H       -0.8934912562     1.9594335538    -0.1188047290
| 16>  H        0.5381280565     1.8741813424     0.9258299277
| 17>  H       -3.6753202630    -2.7058935562    -0.2631554715
| 18>  H        1.5706345572    -2.7618000105     0.2991044803
| 19> *
| 20>
| 21>                          ****END OF INPUT****

CARTESIAN COORDINATES (ANGSTROEM)
---------------------------------
  C      0.087946    1.495814    0.001017
  C     -0.068272    0.021345    0.032749
  C     -1.121158   -0.843211   -0.051379
  N     -2.510600   -0.932328   -0.196888
  C     -2.724837   -2.199924   -0.178210
  O     -1.633102   -3.039720   -0.034045
  C     -0.593056   -2.155590    0.048067
  C      0.749695   -2.077718    0.188959
  O      1.064437   -0.736342    0.178593
  H      0.725376    1.816457   -0.830823
  H     -0.893491    1.959434   -0.118805
  H      0.538128    1.874181    0.925830
  H     -3.675320   -2.705894   -0.263155
  H      1.570635   -2.761800    0.299104

 Total Charge           Charge          ....    0
 Multiplicity           Mult            ....    1
 Number of Electrons    NEL             ....   64
 Basis Dimension        Dim             ....  309

ORBITAL ENERGIES
----------------

  NO   OCC          E(Eh)            E(eV)
   0   2.0000     -20.639597      -561.6320
   1   2.0000     -20.622332      -561.1622
   2   2.0000     -15.583251      -424.0418
   3   2.0000     -11.357912      -309.0645
   4   2.0000     -11.303505      -307.5840
   5   2.0000     -11.294517      -307.3394
   6   2.0000     -11.290159      -307.2208
   7   2.0000     -11.257618      -306.3354
   8   2.0000     -11.238059      -305.8031
   9   2.0000      -1.484482       -40.3948
  10   2.0000      -1.451268       -39.4910
  11   2.0000      -1.249740       -34.0072
  12   2.0000      -1.081268       -29.4228
  13   2.0000      -1.053412       -28.6648
  14   2.0000      -0.940781       -25.5999
  15   2.0000      -0.887642       -24.1540
  16   2.0000      -0.815056       -22.1788
  17   2.0000      -0.783802       -21.3283
  18   2.0000      -0.697510       -18.9802
  19   2.0000      -0.685651       -18.6575
  20   2.0000      -0.679283       -18.4842
  21   2.0000      -0.660979       -17.9862
  22   2.0000      -0.629421       -17.1274
  23   2.0000      -0.596270       -16.2253
  24   2.0000      -0.568173       -15.4608
  25   2.0000      -0.564864       -15.3707
  26   2.0000      -0.560476       -15.2513
  27   2.0000      -0.527350       -14.3499
  28   2.0000      -0.481277       -13.0962
  29   2.0000      -0.465384       -12.6637
  30   2.0000      -0.378650       -10.3036
  31   2.0000      -0.301083        -8.1929
  32   0.0000       0.109230         2.9723
  33   0.0000       0.147863         4.0236
  34   0.0000       0.170583         4.6418
  35   0.0000       0.174320         4.7435
  36   0.0000       0.178030         4.8445

MULLIKEN ATOMIC CHARGES
-----------------------
   0 C :   -0.438019
   1 C :    0.123817
   2 C :    0.049937
   3 N :   -0.257569
   4 C :    0.131867
   5 O :   -0.244024
   6 C :    0.096728
   7 C :   -0.056522
   8 O :   -0.188799
   9 H :    0.151552
  10 H :    0.164267
  11 H :    0.151556
  12 H :    0.157201
  13 H :    0.158007
Sum of atomic charges:   -0.0000000

LOEWDIN ATOMIC CHARGES
----------------------
   0 C :   -0.271733
   1 C :   -0.238702
   2 C :   -0.216151
   3 N :    0.130836
   4 C :   -0.274076
   5 O :    0.307374
   6 C :   -0.254169
   7 C :   -0.226579
   8 O :    0.356750
   9 H :    0.136413
  10 H :    0.144378
  11 H :    0.136414
  12 H :    0.135326
  13 H :    0.133920

  Mayer bond orders larger than 0.1
B(  0-C ,  1-C ) :   0.8534 B(  0-C ,  9-H ) :   0.9331 B(  0-C , 10-H ) :   0.9486
B(  0-C , 11-H ) :   0.9331 B(  1-C ,  2-C ) :   1.3924 B(  1-C ,  7-C ) :   0.1043
B(  1-C ,  8-O ) :   1.0964 B(  2-C ,  3-N ) :   1.1245 B(  2-C ,  6-C ) :   1.1385
B(  3-N ,  4-C ) :   1.7174 B(  4-C ,  5-O ) :   1.0297 B(  4-C , 12-H ) :   0.9293
B(  5-O ,  6-C ) :   1.0179 B(  6-C ,  7-C ) :   1.4624 B(  7-C ,  8-O ) :   1.0320
B(  7-C , 13-H ) :   0.9351

MP2 TOTAL ENERGY:     -435.977657807 Eh
FINAL SINGLE POINT ENERGY      -435.977657807223

DIPOLE MOMENT
-------------
                                X             Y             Z
Electronic contribution:     -1.65476      -5.68793       0.00992
Nuclear contribution   :      1.80866       5.57898       0.01008
                        -----------------------------------------
Total Dipole Moment    :      0.15391      -0.10894       0.02000
                        -----------------------------------------
Magnitude (a.u.)       :      0.18962
Magnitude (Debye)      :      0.48198

                             ****ORCA TERMINATED NORMALLY****
TOTAL RUN TIME: 0 days 0 hours 12 minutes 56 seconds 681 msec
