                         Program Version 3.0.3 - RELEASE   -
|  1> ! RI-MP2 RIJK def2-TZVP def2-TZVP/C def2-TZVP/JK TIGHTSCF
|  2> % maxcore 2000
|  3> % mp2 density relaxed end
|  4> *xyz 0 1
|  5>  C       -0.0102065814     1.4630717959     0.0160667956
|  6>  N        0.0353808522     0.0214822466    -0.1610608774
|  7>  C       -1.2287983773    -0.7012798959    -0.0866854336
|  8>  C       -1.1765517814    -2.0494499230    -0.8088825802
|  9>  O       -1.2976202030    -1.9239842162    -2.2239904375
| 10>  C        0.0892727228    -2.7870610680    -0.4547603746
| 11>  C        1.1789731132    -2.1173238302    -0.0760936509
| 12>  C        1.2325495503    -0.6332010048     0.0271070856
| 13>  O        2.2910322366    -0.0520636799     0.2153344175
| 14>  H        1.0061376588     1.8475262739    -0.0560138026
| 15>  H       -0.6371681380     1.9169145043    -0.7586349488
| 16>  H       -0.4221130239     1.7361496626     0.9977042467
| 17>  H       -1.5226612525    -0.8637969063     0.9632008226
| 18>  H       -2.0055977314    -0.0897830927    -0.5554918026
| 19>  H       -2.0552897264    -2.6272412767    -0.5055043516
| 20>  H       -0.4939470844    -1.4956602532    -2.5413140521
| 21>  H        0.1079352156    -3.8636399534    -0.5982567476
| 22>  H        2.1262035001    -2.6039720530     0.1279587115
| 23> *
| 24>
| 25>                          ****END OF INPUT****

CARTESIAN COORDINATES (ANGSTROEM)
---------------------------------
  C     -0.010207    1.463072    0.016067
  N      0.035381    0.021482   -0.161061
  C     -1.228798   -0.701280   -0.086685
  C     -1.176552   -2.049450   -0.808883
  O     -1.297620   -1.923984   -2.223990
  C      0.089273   -2.787061   -0.454760
  C      1.178973   -2.117324   -0.076094
  C      1.232550   -0.633201    0.027107
  O      2.291032   -0.052064    0.215334
  H      1.006138    1.847526   -0.056014
  H     -0.637168    1.916915   -0.758635
  H     -0.422113    1.736150    0.997704
  H     -1.522661   -0.863797    0.963201
  H     -2.005598   -0.089783   -0.555492
  H     -2.055290   -2.627241   -0.505504
  H     -0.493947   -1.495660   -2.541314
  H      0.107935   -3.863640   -0.598257
  H      2.126204   -2.603972    0.127959

 Total Charge           Charge          ....    0
 Multiplicity           Mult            ....    1
 Number of Electrons    NEL             ....   68
 Basis Dimension        Dim             ....  333

ORBITAL ENERGIES
----------------

  NO   OCC          E(Eh)            E(eV)
   0   2.0000     -20.572716      -559.8121
   1   2.0000     -20.519863      -558.3739
   2   2.0000     -15.590246      -424.2322
   3   2.0000     -11.353216      -308.9367
   4   2.0000     -11.308019      -307.7069
   5   2.0000     -11.280076      -306.9465
   6   2.0000     -11.265441      -306.5482
   7   2.0000     -11.258556      -306.3609
   8   2.0000     -11.252827      -306.2050
   9   2.0000      -1.386230       -37.7212
  10   2.0000      -1.378015       -37.4977
  11   2.0000      -1.254446       -34.1352
  12   2.0000      -1.103944       -30.0398
  13   2.0000      -1.018153       -27.7054
  14   2.0000      -0.960365       -26.1329
  15   2.0000      -0.886868       -24.1329
  16   2.0000      -0.831452       -22.6250
  17   2.0000      -0.738107       -20.0849
  18   2.0000      -0.708536       -19.2802
  19   2.0000      -0.689405       -18.7597
  20   2.0000      -0.665572       -18.1111
  21   2.0000      -0.645838       -17.5742
  22   2.0000      -0.622199       -16.9309
  23   2.0000      -0.613945       -16.7063
  24   2.0000      -0.591734       -16.1019
  25   2.0000      -0.574415       -15.6306
  26   2.0000      -0.553569       -15.0634
  27   2.0000      -0.545084       -14.8325
  28   2.0000      -0.536927       -14.6105
  29   2.0000      -0.505731       -13.7616
  30   2.0000      -0.468326       -12.7438
  31   2.0000      -0.427139       -11.6231
  32   2.0000      -0.396549       -10.7907
  33   2.0000      -0.379673       -10.3314
  34   0.0000       0.089631         2.4390
  35   0.0000       0.128130         3.4866
  36   0.0000       0.149656         4.0723
  37   0.0000       0.157068         4.2741
  38   0.0000       0.174736         4.7548

MULLIKEN ATOMIC CHARGES
-----------------------
   0 C :   -0.333270
   1 N :   -0.106769
   2 C :   -0.191638
   3 C :    0.136289
   4 O :   -0.456032
   5 C :   -0.184128
   6 C :   -0.171402
   7 C :    0.238046
   8 O :   -0.371797
   9 H :    0.181815
  10 H :    0.138594
  11 H :    0.131813
  12 H :    0.118968
  13 H :    0.147031
  14 H :    0.113684
  15 H :    0.323533
  16 H :    0.138379
  17 H :    0.146885
Sum of atomic charges:    0.0000000

LOEWDIN ATOMIC CHARGES
----------------------
   0 C :   -0.290366
   1 N :    0.161745
   2 C :   -0.235208
   3 C :   -0.333220
   4 O :   -0.012748
   5 C :   -0.127909
   6 C :   -0.113847
   7 C :   -0.426966
   8 O :    0.084512
   9 H :    0.135525
  10 H :    0.118745
  11 H :    0.116903
  12 H :    0.138446
  13 H :    0.145506
  14 H :    0.153834
  15 H :    0.180324
  16 H :    0.147766
  17 H :    0.156959

  Mayer bond orders larger than 0.1
B(  0-C ,  1-N ) :   0.8711 B(  0-C ,  9-H ) :   0.9221 B(  0-C , 10-H ) :   0.9329
B(  0-C , 11-H ) :   0.9314 B(  1-N ,  2-C ) :   0.8766 B(  1-N ,  7-C ) :   1.1477
B(  2-C ,  3-C ) :   0.9159 B(  2-C , 12-H ) :   0.9083 B(  2-C , 13-H ) :   0.9305
B(  3-C ,  4-O ) :   0.9199 B(  3-C ,  5-C ) :   0.9539 B(  3-C , 14-H ) :   0.9313
B(  4-O , 15-H ) :   0.8347 B(  5-C ,  6-C ) :   1.6992 B(  5-C , 16-H ) :   0.9257
B(  6-C ,  7-C ) :   0.9895 B(  6-C , 17-H ) :   0.9288 B(  7-C ,  8-O ) :   1.8757

MP2 TOTAL ENERGY:     -438.400531483 Eh
FINAL SINGLE POINT ENERGY      -438.400531483080

DIPOLE MOMENT
-------------
                                X             Y             Z
Electronic contribution:      3.57265      -2.43357      -0.64238
Nuclear contribution   :     -4.54000       2.26226       0.82212
                        -----------------------------------------
Total Dipole Moment    :     -0.96735      -0.17131       0.17974
                        -----------------------------------------
Magnitude (a.u.)       :      0.99871
Magnitude (Debye)      :      2.53852

                             ****ORCA TERMINATED NORMALLY****
TOTAL RUN TIME: 0 days 0 hours 17 minutes 46 seconds 938 msec
