                         Program Version 3.0.3 - RELEASE   -
|  1> ! RI-MP2 RIJK def2-TZVP def2-TZVP/C def2-TZVP/JK TIGHTSCF
|  2> % maxcore 2000
|  3> % mp2 density relaxed end
|  4> *xyz 0 1
|  5>  C       -0.2526061092     1.3376863719    -0.6383579393
|  6>  C       -0.0198134678    -0.0546317697    -0.0823645794
|  7>  O       -1.2968977112    -0.7086168450    -0.0073955961
|  8>  C       -1.3107772658    -1.9543037304     0.5062128724
|  9>  N       -0.2392166836    -2.5340763465     0.8751560720
| 10>  C       -2.7101315986    -2.4794879654     0.5664379678
| 11>  C       -3.3640999137    -3.0040395384    -0.7110289135
| 12>  C       -3.0007226814    -3.9505957649     0.3939383212
| 13>  O       -1.9930243853    -4.9113301204     0.2553603274
| 14>  H        0.6991108736     1.8721342443    -0.7137793231
| 15>  H       -0.7017294060     1.2914245352    -1.6347065911
| 16>  H       -0.9195747526     1.9114255673     0.0115179208
| 17>  H        0.6479932913    -0.6448754409    -0.7189811066
| 18>  H        0.4293777356    -0.0312993625     0.9160124055
| 19>  H       -0.4591902105    -3.4519794549     1.2570293128
| 20>  H       -3.3549687261    -1.9191483767     1.2374595477
| 21>  H       -4.4057374848    -2.7711521549    -0.9021391949
| 22>  H       -2.7418507647    -3.0186966262    -1.6014303844
| 23>  H       -3.8036219058    -4.3638813897     0.9949216139
| 24>  H       -1.3575750036    -4.6020228423    -0.3989930133
| 25> *
| 26>
| 27>                          ****END OF INPUT****

CARTESIAN COORDINATES (ANGSTROEM)
---------------------------------
  C     -0.252606    1.337686   -0.638358
  C     -0.019813   -0.054632   -0.082365
  O     -1.296898   -0.708617   -0.007396
  C     -1.310777   -1.954304    0.506213
  N     -0.239217   -2.534076    0.875156
  C     -2.710132   -2.479488    0.566438
  C     -3.364100   -3.004040   -0.711029
  C     -3.000723   -3.950596    0.393938
  O     -1.993024   -4.911330    0.255360
  H      0.699111    1.872134   -0.713779
  H     -0.701729    1.291425   -1.634707
  H     -0.919575    1.911426    0.011518
  H      0.647993   -0.644875   -0.718981
  H      0.429378   -0.031299    0.916012
  H     -0.459190   -3.451979    1.257029
  H     -3.354969   -1.919148    1.237460
  H     -4.405737   -2.771152   -0.902139
  H     -2.741851   -3.018697   -1.601430
  H     -3.803622   -4.363881    0.994922
  H     -1.357575   -4.602023   -0.398993

 Total Charge           Charge          ....    0
 Multiplicity           Mult            ....    1
 Number of Electrons    NEL             ....   70
 Basis Dimension        Dim             ....  345

ORBITAL ENERGIES
----------------

  NO   OCC          E(Eh)            E(eV)
   0   2.0000     -20.585134      -560.1500
   1   2.0000     -20.574626      -559.8640
   2   2.0000     -15.532006      -422.6474
   3   2.0000     -11.340294      -308.5851
   4   2.0000     -11.301543      -307.5306
   5   2.0000     -11.277949      -306.8886
   6   2.0000     -11.251131      -306.1588
   7   2.0000     -11.244752      -305.9853
   8   2.0000     -11.218827      -305.2798
   9   2.0000      -1.422586       -38.7105
  10   2.0000      -1.384925       -37.6857
  11   2.0000      -1.196700       -32.5639
  12   2.0000      -1.140176       -31.0258
  13   2.0000      -1.030229       -28.0340
  14   2.0000      -0.908298       -24.7161
  15   2.0000      -0.849279       -23.1101
  16   2.0000      -0.834537       -22.7089
  17   2.0000      -0.777823       -21.1656
  18   2.0000      -0.711914       -19.3722
  19   2.0000      -0.705953       -19.2100
  20   2.0000      -0.668725       -18.1969
  21   2.0000      -0.664251       -18.0752
  22   2.0000      -0.613878       -16.7045
  23   2.0000      -0.591381       -16.0923
  24   2.0000      -0.578040       -15.7293
  25   2.0000      -0.563621       -15.3369
  26   2.0000      -0.557887       -15.1809
  27   2.0000      -0.548513       -14.9258
  28   2.0000      -0.537830       -14.6351
  29   2.0000      -0.501339       -13.6421
  30   2.0000      -0.487850       -13.2751
  31   2.0000      -0.447564       -12.1788
  32   2.0000      -0.421576       -11.4717
  33   2.0000      -0.405964       -11.0468
  34   2.0000      -0.396628       -10.7928
  35   0.0000       0.135723         3.6932
  36   0.0000       0.145359         3.9554
  37   0.0000       0.155370         4.2278
  38   0.0000       0.169778         4.6199
  39   0.0000       0.189917         5.1679

MULLIKEN ATOMIC CHARGES
-----------------------
   0 C :   -0.354116
   1 C :   -0.053448
   2 O :   -0.248737
   3 C :    0.159572
   4 N :   -0.420174
   5 C :   -0.117060
   6 C :   -0.267966
   7 C :    0.026024
   8 O :   -0.455898
   9 H :    0.128127
  10 H :    0.128681
  11 H :    0.129250
  12 H :    0.113385
  13 H :    0.120368
  14 H :    0.242060
  15 H :    0.139704
  16 H :    0.138157
  17 H :    0.139527
  18 H :    0.131479
  19 H :    0.321066
Sum of atomic charges:    0.0000000

LOEWDIN ATOMIC CHARGES
----------------------
   0 C :   -0.317911
   1 C :   -0.311797
   2 O :    0.254750
   3 C :   -0.414814
   4 N :   -0.064323
   5 C :   -0.186561
   6 C :   -0.202870
   7 C :   -0.308714
   8 O :    0.000551
   9 H :    0.126871
  10 H :    0.123625
  11 H :    0.123927
  12 H :    0.126157
  13 H :    0.127783
  14 H :    0.167734
  15 H :    0.159403
  16 H :    0.134795
  17 H :    0.139980
  18 H :    0.143593
  19 H :    0.177822

  Mayer bond orders larger than 0.1
B(  0-C ,  1-C ) :   0.9338 B(  0-C ,  9-H ) :   0.9361 B(  0-C , 10-H ) :   0.9342
B(  0-C , 11-H ) :   0.9339 B(  1-C ,  2-O ) :   0.8436 B(  1-C , 12-H ) :   0.9299
B(  1-C , 13-H ) :   0.9342 B(  2-O ,  3-C ) :   1.1202 B(  3-C ,  4-N ) :   1.8693
B(  3-C ,  5-C ) :   0.9432 B(  4-N , 14-H ) :   0.8572 B(  5-C ,  6-C ) :   0.8338
B(  5-C ,  7-C ) :   0.8808 B(  5-C , 15-H ) :   0.9047 B(  6-C ,  7-C ) :   0.9066
B(  6-C , 16-H ) :   0.9201 B(  6-C , 17-H ) :   0.9206 B(  7-C ,  8-O ) :   0.9783
B(  7-C , 18-H ) :   0.9450 B(  8-O , 19-H ) :   0.8308

MP2 TOTAL ENERGY:     -439.548754442 Eh
FINAL SINGLE POINT ENERGY      -439.548754441944

DIPOLE MOMENT
-------------
                                X             Y             Z
Electronic contribution:     -1.47047      -5.77260       2.29690
Nuclear contribution   :      1.01174       6.20361      -2.65746
                        -----------------------------------------
Total Dipole Moment    :     -0.45873       0.43102      -0.36056
                        -----------------------------------------
Magnitude (a.u.)       :      0.72541
Magnitude (Debye)      :      1.84383

                             ****ORCA TERMINATED NORMALLY****
TOTAL RUN TIME: 0 days 0 hours 15 minutes 41 seconds 520 msec
