                         Program Version 3.0.3 - RELEASE   -
|  1> ! RI-MP2 RIJK def2-TZVP def2-TZVP/C def2-TZVP/JK TIGHTSCF
|  2> % maxcore 2000
|  3> % mp2 density relaxed end
|  4> *xyz 0 1
|  5>  C        0.1698343400     1.4806030694     0.0049637896
|  6>  C        0.0055001536     0.0053112520    -0.0490245634
|  7>  N       -0.5431839525    -0.7098622810    -0.9841635608
|  8>  C       -0.4549184842    -2.0142646915    -0.5235920944
|  9>  C        0.1604608879    -2.0236905865     0.6805016921
| 10>  N        0.5268864296    -3.0216667976     1.5763236306
| 11>  C       -0.1459180923    -3.2655069627     2.7556843993
| 12>  O       -1.1306343890    -2.6796750419     3.1246710927
| 13>  O        0.4687421025    -0.7202587839     0.9980103357
| 14>  H        1.2247995000     1.7574292568     0.0989720845
| 15>  H       -0.2342964438     1.9131530002    -0.9104044146
| 16>  H       -0.3604467204     1.9014775262     0.8653033807
| 17>  H       -0.8404472935    -2.8504807212    -1.0846011887
| 18>  H        1.3689879771    -3.5508157060     1.4018299035
| 19>  H        0.3377151051    -4.0832264223     3.3257648533
| 20> *
| 21>
| 22>                          ****END OF INPUT****

CARTESIAN COORDINATES (ANGSTROEM)
---------------------------------
  C      0.169834    1.480603    0.004964
  C      0.005500    0.005311   -0.049025
  N     -0.543184   -0.709862   -0.984164
  C     -0.454918   -2.014265   -0.523592
  C      0.160461   -2.023691    0.680502
  N      0.526886   -3.021667    1.576324
  C     -0.145918   -3.265507    2.755684
  O     -1.130634   -2.679675    3.124671
  O      0.468742   -0.720259    0.998010
  H      1.224800    1.757429    0.098972
  H     -0.234296    1.913153   -0.910404
  H     -0.360447    1.901478    0.865303
  H     -0.840447   -2.850481   -1.084601
  H      1.368988   -3.550816    1.401830
  H      0.337715   -4.083226    3.325765

 Total Charge           Charge          ....    0
 Multiplicity           Mult            ....    1
 Number of Electrons    NEL             ....   66
 Basis Dimension        Dim             ....  315

ORBITAL ENERGIES
----------------

  NO   OCC          E(Eh)            E(eV)
   0   2.0000     -20.636074      -561.5361
   1   2.0000     -20.543040      -559.0045
   2   2.0000     -15.616006      -424.9331
   3   2.0000     -15.560870      -423.4328
   4   2.0000     -11.367477      -309.3248
   5   2.0000     -11.341950      -308.6302
   6   2.0000     -11.330078      -308.3071
   7   2.0000     -11.265864      -306.5598
   8   2.0000     -11.245129      -305.9955
   9   2.0000      -1.490589       -40.5610
  10   2.0000      -1.403886       -38.2017
  11   2.0000      -1.261320       -34.3223
  12   2.0000      -1.232320       -33.5331
  13   2.0000      -1.064698       -28.9719
  14   2.0000      -0.971541       -26.4370
  15   2.0000      -0.879877       -23.9427
  16   2.0000      -0.827028       -22.5046
  17   2.0000      -0.793396       -21.5894
  18   2.0000      -0.766984       -20.8707
  19   2.0000      -0.714516       -19.4430
  20   2.0000      -0.668741       -18.1974
  21   2.0000      -0.659799       -17.9540
  22   2.0000      -0.626396       -17.0451
  23   2.0000      -0.602498       -16.3948
  24   2.0000      -0.585406       -15.9297
  25   2.0000      -0.575094       -15.6491
  26   2.0000      -0.565961       -15.4006
  27   2.0000      -0.562355       -15.3025
  28   2.0000      -0.470328       -12.7983
  29   2.0000      -0.455620       -12.3980
  30   2.0000      -0.450618       -12.2619
  31   2.0000      -0.429405       -11.6847
  32   2.0000      -0.339954        -9.2506
  33   0.0000       0.116790         3.1780
  34   0.0000       0.139938         3.8079
  35   0.0000       0.147504         4.0138
  36   0.0000       0.159576         4.3423
  37   0.0000       0.175641         4.7794

MULLIKEN ATOMIC CHARGES
-----------------------
   0 C :   -0.418228
   1 C :    0.275636
   2 N :   -0.274065
   3 C :   -0.126450
   4 C :    0.256492
   5 N :   -0.370843
   6 C :    0.204187
   7 O :   -0.312979
   8 O :   -0.194127
   9 H :    0.149087
  10 H :    0.165544
  11 H :    0.156806
  12 H :    0.145201
  13 H :    0.258297
  14 H :    0.085443
Sum of atomic charges:    0.0000000

LOEWDIN ATOMIC CHARGES
----------------------
   0 C :   -0.266771
   1 C :   -0.359663
   2 N :    0.118700
   3 C :   -0.219089
   4 C :   -0.317277
   5 N :    0.110784
   6 C :   -0.404781
   7 O :    0.099533
   8 O :    0.368302
   9 H :    0.137407
  10 H :    0.144380
  11 H :    0.140203
  12 H :    0.140755
  13 H :    0.195776
  14 H :    0.111741

  Mayer bond orders larger than 0.1
B(  0-C ,  1-C ) :   0.8700 B(  0-C ,  9-H ) :   0.9277 B(  0-C , 10-H ) :   0.9481
B(  0-C , 11-H ) :   0.9284 B(  1-C ,  2-N ) :   1.6454 B(  1-C ,  8-O ) :   1.0725
B(  2-N ,  3-C ) :   1.2082 B(  3-C ,  4-C ) :   1.5947 B(  3-C , 12-H ) :   0.9325
B(  4-C ,  5-N ) :   0.9090 B(  4-C ,  8-O ) :   1.0190 B(  5-N ,  6-C ) :   1.0599
B(  5-N , 13-H ) :   0.8589 B(  6-C ,  7-O ) :   1.9588 B(  6-C , 14-H ) :   0.9284

MP2 TOTAL ENERGY:     -453.260880655 Eh
FINAL SINGLE POINT ENERGY      -453.260880655027

DIPOLE MOMENT
-------------
                                X             Y             Z
Electronic contribution:     -0.64152      -3.92840       1.39372
Nuclear contribution   :      1.95556       3.47948      -1.52204
                        -----------------------------------------
Total Dipole Moment    :      1.31404      -0.44891      -0.12832
                        -----------------------------------------
Magnitude (a.u.)       :      1.39452
Magnitude (Debye)      :      3.54459

                             ****ORCA TERMINATED NORMALLY****
TOTAL RUN TIME: 0 days 0 hours 13 minutes 39 seconds 840 msec
