                         Program Version 3.0.3 - RELEASE   -
|  1> ! RI-MP2 RIJK def2-TZVP def2-TZVP/C def2-TZVP/JK TIGHTSCF
|  2> % maxcore 2000
|  3> % mp2 density relaxed end
|  4> *xyz 0 1
|  5>  C       -0.1692703913     1.4292901057    -0.1205547421
|  6>  C        0.0025729526    -0.0615520909     0.0511353967
|  7>  C       -1.2543537007    -0.9357686464     0.3546365096
|  8>  C       -0.4984293481    -1.6330817901     1.5283064235
|  9>  C        0.7469957252    -0.7711083867     1.2263123616
| 10>  O        1.6676764025    -1.4182706928     0.3236540795
| 11>  C        1.0893176597    -0.7812523952    -0.8182415618
| 12>  C        0.5888509561    -1.7113609318    -1.8939161991
| 13>  O        0.5027365770    -2.9072713175    -1.7971078559
| 14>  H        0.7961695069     1.9463613965    -0.1387248990
| 15>  H       -0.6916898712     1.6616705013    -1.0565048553
| 16>  H       -0.7628083336     1.8515165450     0.6974999706
| 17>  H       -2.0992548670    -0.3270959963     0.6863637599
| 18>  H       -1.6007457896    -1.5896449578    -0.4482277263
| 19>  H       -0.9411605968    -1.4551663484     2.5114154977
| 20>  H       -0.3111329622    -2.7007806699     1.4033127464
| 21>  H        1.2618974356    -0.2591994003     2.0439048699
| 22>  H        1.7874651050    -0.0652803144    -1.2828527435
| 23>  H        0.2671045499    -1.1732069401    -2.8184837025
| 24> *
| 25>
| 26>                          ****END OF INPUT****

CARTESIAN COORDINATES (ANGSTROEM)
---------------------------------
  C     -0.169270    1.429290   -0.120555
  C      0.002573   -0.061552    0.051135
  C     -1.254354   -0.935769    0.354637
  C     -0.498429   -1.633082    1.528306
  C      0.746996   -0.771108    1.226312
  O      1.667676   -1.418271    0.323654
  C      1.089318   -0.781252   -0.818242
  C      0.588851   -1.711361   -1.893916
  O      0.502737   -2.907271   -1.797108
  H      0.796170    1.946361   -0.138725
  H     -0.691690    1.661671   -1.056505
  H     -0.762808    1.851517    0.697500
  H     -2.099255   -0.327096    0.686364
  H     -1.600746   -1.589645   -0.448228
  H     -0.941161   -1.455166    2.511415
  H     -0.311133   -2.700781    1.403313
  H      1.261897   -0.259199    2.043905
  H      1.787465   -0.065280   -1.282853
  H      0.267105   -1.173207   -2.818484

 Total Charge           Charge          ....    0
 Multiplicity           Mult            ....    1
 Number of Electrons    NEL             ....   68
 Basis Dimension        Dim             ....  339

ORBITAL ENERGIES
----------------

  NO   OCC          E(Eh)            E(eV)
   0   2.0000     -20.560010      -559.4663
   1   2.0000     -20.558395      -559.4224
   2   2.0000     -11.332972      -308.3859
   3   2.0000     -11.300102      -307.4914
   4   2.0000     -11.287918      -307.1599
   5   2.0000     -11.257427      -306.3302
   6   2.0000     -11.235647      -305.7375
   7   2.0000     -11.234220      -305.6987
   8   2.0000     -11.226512      -305.4889
   9   2.0000      -1.408026       -38.3143
  10   2.0000      -1.385009       -37.6880
  11   2.0000      -1.126533       -30.6545
  12   2.0000      -1.028570       -27.9888
  13   2.0000      -0.974433       -26.5157
  14   2.0000      -0.891783       -24.2666
  15   2.0000      -0.867953       -23.6182
  16   2.0000      -0.798598       -21.7310
  17   2.0000      -0.721785       -19.6408
  18   2.0000      -0.696212       -18.9449
  19   2.0000      -0.673209       -18.3189
  20   2.0000      -0.653120       -17.7723
  21   2.0000      -0.644293       -17.5321
  22   2.0000      -0.598244       -16.2790
  23   2.0000      -0.584338       -15.9007
  24   2.0000      -0.575199       -15.6520
  25   2.0000      -0.573443       -15.6042
  26   2.0000      -0.539603       -14.6833
  27   2.0000      -0.526902       -14.3377
  28   2.0000      -0.504563       -13.7299
  29   2.0000      -0.474303       -12.9064
  30   2.0000      -0.459676       -12.5084
  31   2.0000      -0.438074       -11.9206
  32   2.0000      -0.407848       -11.0981
  33   2.0000      -0.403109       -10.9691
  34   0.0000       0.114746         3.1224
  35   0.0000       0.132287         3.5997
  36   0.0000       0.156879         4.2689
  37   0.0000       0.168908         4.5962
  38   0.0000       0.174757         4.7554

MULLIKEN ATOMIC CHARGES
-----------------------
   0 C :   -0.409943
   1 C :    0.134928
   2 C :   -0.295070
   3 C :   -0.191679
   4 C :   -0.016398
   5 O :   -0.311992
   6 C :    0.107978
   7 C :    0.041566
   8 O :   -0.247826
   9 H :    0.138968
  10 H :    0.138326
  11 H :    0.135495
  12 H :    0.122006
  13 H :    0.131579
  14 H :    0.117010
  15 H :    0.130172
  16 H :    0.104096
  17 H :    0.096875
  18 H :    0.073910
Sum of atomic charges:   -0.0000000

LOEWDIN ATOMIC CHARGES
----------------------
   0 C :   -0.276655
   1 C :   -0.213056
   2 C :   -0.193202
   3 C :   -0.214242
   4 C :   -0.210066
   5 O :    0.182601
   6 C :   -0.254886
   7 C :   -0.286651
   8 O :    0.149054
   9 H :    0.129213
  10 H :    0.130973
  11 H :    0.130022
  12 H :    0.134845
  13 H :    0.132779
  14 H :    0.131590
  15 H :    0.140851
  16 H :    0.126248
  17 H :    0.148194
  18 H :    0.112387

  Mayer bond orders larger than 0.1
B(  0-C ,  1-C ) :   0.8839 B(  0-C ,  9-H ) :   0.9400 B(  0-C , 10-H ) :   0.9329
B(  0-C , 11-H ) :   0.9318 B(  1-C ,  2-C ) :   0.9248 B(  1-C ,  4-C ) :   0.8991
B(  1-C ,  6-C ) :   0.9360 B(  2-C ,  3-C ) :   0.9744 B(  2-C , 12-H ) :   0.9158
B(  2-C , 13-H ) :   0.9025 B(  3-C ,  4-C ) :   0.9112 B(  3-C , 14-H ) :   0.9117
B(  3-C , 15-H ) :   0.9040 B(  4-C ,  5-O ) :   0.9578 B(  4-C , 16-H ) :   0.9370
B(  5-O ,  6-C ) :   0.9617 B(  6-C ,  7-C ) :   0.8375 B(  6-C , 17-H ) :   0.8914
B(  7-C ,  8-O ) :   2.0179 B(  7-C , 18-H ) :   0.9344

MP2 TOTAL ENERGY:     -422.287820270 Eh
FINAL SINGLE POINT ENERGY      -422.287820270242

DIPOLE MOMENT
-------------
                                X             Y             Z
Electronic contribution:      4.44318      -5.85704      -2.65241
Nuclear contribution   :     -4.99131       7.27783       2.82202
                        -----------------------------------------
Total Dipole Moment    :     -0.54814       1.42080       0.16961
                        -----------------------------------------
Magnitude (a.u.)       :      1.53228
Magnitude (Debye)      :      3.89475

                             ****ORCA TERMINATED NORMALLY****
TOTAL RUN TIME: 0 days 0 hours 18 minutes 44 seconds 888 msec
