                         Program Version 3.0.3 - RELEASE   -
|  1> ! RI-MP2 RIJK def2-TZVP def2-TZVP/C def2-TZVP/JK TIGHTSCF
|  2> % maxcore 2000
|  3> % mp2 density relaxed end
|  4> *xyz 0 1
|  5>  C        0.5803732748     1.4911817617    -0.7151004576
|  6>  C        0.0251160274     0.1956290676    -0.1264145866
|  7>  O        0.2672021419    -0.8692165124    -1.0612125133
|  8>  C        1.0333145134    -1.8972539575    -0.4444986932
|  9>  C        1.7455017531    -1.2250946243     0.7273419336
| 10>  C        0.6661012867    -0.2419432926     1.2074463603
| 11>  C        1.1228930310     0.8086599129     2.2586332974
| 12>  C        0.5512021077    -0.0985221462     3.3806683165
| 13>  C       -0.2651516994    -0.8567270728     2.3012762941
| 14>  H        1.6733615502     1.4634678785    -0.7723960370
| 15>  H        0.1924293777     1.6261149308    -1.7285169501
| 16>  H        0.2854334119     2.3598718703    -0.1179649223
| 17>  H       -1.0628867631     0.2980315464    -0.0035970986
| 18>  H        0.3773616796    -2.7086860311    -0.0894817921
| 19>  H        1.7128546524    -2.3175392441    -1.1929851380
| 20>  H        2.0653575619    -1.9287259318     1.5008481681
| 21>  H        2.6297668246    -0.6810457035     0.3754486083
| 22>  H        2.1892698216     1.0494141521     2.2890482034
| 23>  H        0.5613547275     1.7437359509     2.1735027112
| 24>  H        1.3211620524    -0.7276657106     3.8352322968
| 25>  H       -0.0093051365     0.3890813521     4.1812353318
| 26>  H       -1.2882888999    -0.4767700250     2.2203863325
| 27>  H       -0.3074195566    -1.9480463714     2.3662954845
| 28> *
| 29>
| 30>                          ****END OF INPUT****

CARTESIAN COORDINATES (ANGSTROEM)
---------------------------------
  C      0.580373    1.491182   -0.715100
  C      0.025116    0.195629   -0.126415
  O      0.267202   -0.869217   -1.061213
  C      1.033315   -1.897254   -0.444499
  C      1.745502   -1.225095    0.727342
  C      0.666101   -0.241943    1.207446
  C      1.122893    0.808660    2.258633
  C      0.551202   -0.098522    3.380668
  C     -0.265152   -0.856727    2.301276
  H      1.673362    1.463468   -0.772396
  H      0.192429    1.626115   -1.728517
  H      0.285433    2.359872   -0.117965
  H     -1.062887    0.298032   -0.003597
  H      0.377362   -2.708686   -0.089482
  H      1.712855   -2.317539   -1.192985
  H      2.065358   -1.928726    1.500848
  H      2.629767   -0.681046    0.375449
  H      2.189270    1.049414    2.289048
  H      0.561355    1.743736    2.173503
  H      1.321162   -0.727666    3.835232
  H     -0.009305    0.389081    4.181235
  H     -1.288289   -0.476770    2.220386
  H     -0.307420   -1.948046    2.366295

 Total Charge           Charge          ....    0
 Multiplicity           Mult            ....    1
 Number of Electrons    NEL             ....   70
 Basis Dimension        Dim             ....  363

ORBITAL ENERGIES
----------------

  NO   OCC          E(Eh)            E(eV)
   0   2.0000     -20.539505      -558.9083
   1   2.0000     -11.270264      -306.6795
   2   2.0000     -11.266562      -306.5787
   3   2.0000     -11.233350      -305.6750
   4   2.0000     -11.222653      -305.3839
   5   2.0000     -11.221906      -305.3636
   6   2.0000     -11.221331      -305.3479
   7   2.0000     -11.220729      -305.3316
   8   2.0000     -11.208831      -305.0078
   9   2.0000      -1.364190       -37.1215
  10   2.0000      -1.139609       -31.0103
  11   2.0000      -1.023974       -27.8637
  12   2.0000      -1.012364       -27.5478
  13   2.0000      -0.906749       -24.6739
  14   2.0000      -0.897262       -24.4157
  15   2.0000      -0.826410       -22.4878
  16   2.0000      -0.792463       -21.5640
  17   2.0000      -0.725028       -19.7290
  18   2.0000      -0.677242       -18.4287
  19   2.0000      -0.658092       -17.9076
  20   2.0000      -0.631034       -17.1713
  21   2.0000      -0.622742       -16.9457
  22   2.0000      -0.580277       -15.7901
  23   2.0000      -0.562460       -15.3053
  24   2.0000      -0.553698       -15.0669
  25   2.0000      -0.536177       -14.5901
  26   2.0000      -0.528698       -14.3866
  27   2.0000      -0.519286       -14.1305
  28   2.0000      -0.494678       -13.4609
  29   2.0000      -0.480628       -13.0785
  30   2.0000      -0.466398       -12.6913
  31   2.0000      -0.436436       -11.8760
  32   2.0000      -0.429093       -11.6762
  33   2.0000      -0.421951       -11.4819
  34   2.0000      -0.401797       -10.9334
  35   0.0000       0.132464         3.6045
  36   0.0000       0.153286         4.1711
  37   0.0000       0.158366         4.3094
  38   0.0000       0.162845         4.4312
  39   0.0000       0.189906         5.1676

MULLIKEN ATOMIC CHARGES
-----------------------
   0 C :   -0.400183
   1 C :    0.094231
   2 O :   -0.321074
   3 C :   -0.016613
   4 C :   -0.305259
   5 C :    0.091686
   6 C :   -0.228207
   7 C :   -0.227216
   8 C :   -0.262644
   9 H :    0.122185
  10 H :    0.145002
  11 H :    0.116378
  12 H :    0.075510
  13 H :    0.080964
  14 H :    0.107928
  15 H :    0.128414
  16 H :    0.111879
  17 H :    0.115831
  18 H :    0.111881
  19 H :    0.116662
  20 H :    0.116300
  21 H :    0.110822
  22 H :    0.115524
Sum of atomic charges:    0.0000000

LOEWDIN ATOMIC CHARGES
----------------------
   0 C :   -0.292101
   1 C :   -0.289360
   2 O :    0.161550
   3 C :   -0.305321
   4 C :   -0.221124
   5 C :   -0.231926
   6 C :   -0.199099
   7 C :   -0.240483
   8 C :   -0.198347
   9 H :    0.123778
  10 H :    0.128062
  11 H :    0.121337
  12 H :    0.139404
  13 H :    0.118048
  14 H :    0.123728
  15 H :    0.141551
  16 H :    0.140605
  17 H :    0.127230
  18 H :    0.136886
  19 H :    0.132190
  20 H :    0.122749
  21 H :    0.134524
  22 H :    0.126118

  Mayer bond orders larger than 0.1
B(  0-C ,  1-C ) :   0.9107 B(  0-C ,  9-H ) :   0.9390 B(  0-C , 10-H ) :   0.9350
B(  0-C , 11-H ) :   0.9311 B(  1-C ,  2-O ) :   0.9473 B(  1-C ,  5-C ) :   0.9076
B(  1-C , 12-H ) :   0.9065 B(  2-O ,  3-C ) :   0.9589 B(  3-C ,  4-C ) :   0.9762
B(  3-C , 13-H ) :   0.9189 B(  3-C , 14-H ) :   0.9202 B(  4-C ,  5-C ) :   0.9035
B(  4-C , 15-H ) :   0.9184 B(  4-C , 16-H ) :   0.9180 B(  5-C ,  6-C ) :   0.8853
B(  5-C ,  8-C ) :   0.9054 B(  6-C ,  7-C ) :   0.9506 B(  6-C , 17-H ) :   0.9259
B(  6-C , 18-H ) :   0.9252 B(  7-C ,  8-C ) :   0.9523 B(  7-C , 19-H ) :   0.9265
B(  7-C , 20-H ) :   0.9275 B(  8-C , 21-H ) :   0.9164 B(  8-C , 22-H ) :   0.9271

MP2 TOTAL ENERGY:     -387.616111964 Eh
FINAL SINGLE POINT ENERGY      -387.616111963501

DIPOLE MOMENT
-------------
                                X             Y             Z
Electronic contribution:     -1.10103      -2.11713      -2.91466
Nuclear contribution   :      1.34137       2.17030       3.53203
                        -----------------------------------------
Total Dipole Moment    :      0.24034       0.05318       0.61738
                        -----------------------------------------
Magnitude (a.u.)       :      0.66464
Magnitude (Debye)      :      1.68939

                             ****ORCA TERMINATED NORMALLY****
TOTAL RUN TIME: 0 days 0 hours 21 minutes 36 seconds 655 msec
