                         Program Version 3.0.3 - RELEASE   -
|  1> ! RI-MP2 RIJK def2-TZVP def2-TZVP/C def2-TZVP/JK TIGHTSCF
|  2> % maxcore 2000
|  3> % mp2 density relaxed end
|  4> *xyz 0 1
|  5>  O        0.0235129503     0.0426221028     0.6134154593
|  6>  C       -0.0123333964     1.1262263388     0.0986140045
|  7>  C       -1.3412254058     1.8584518702    -0.1465693237
|  8>  C       -1.2098827439     3.1633460954    -0.9633508483
|  9>  C        0.0253516013     3.9008316164    -0.4072840468
| 10>  C        1.1141552430     2.9929096068    -0.9830231675
| 11>  O        1.1542276467     1.7414358810    -0.2311172663
| 12>  C        0.5942708702     2.7199578404    -2.3836574822
| 13>  C       -0.7356992426     2.8197407079    -2.3676473029
| 14>  H       -2.0129202348     1.1362994070    -0.6193795833
| 15>  H       -1.7606429026     2.0649175153     0.8452717358
| 16>  H       -2.1385281654     3.7377005625    -0.9308635116
| 17>  H        0.1105737316     4.9070235305    -0.8252639991
| 18>  H        0.0598134978     3.9590824685     0.6841803317
| 19>  H        2.1324360296     3.3751516334    -0.9185642439
| 20>  H        1.2212247772     2.3996728674    -3.2055369727
| 21>  H       -1.4087017262     2.6000485858    -3.1882511629
| 22> *
| 23>
| 24>                          ****END OF INPUT****

CARTESIAN COORDINATES (ANGSTROEM)
---------------------------------
  O      0.023513    0.042622    0.613415
  C     -0.012333    1.126226    0.098614
  C     -1.341225    1.858452   -0.146569
  C     -1.209883    3.163346   -0.963351
  C      0.025352    3.900832   -0.407284
  C      1.114155    2.992910   -0.983023
  O      1.154228    1.741436   -0.231117
  C      0.594271    2.719958   -2.383657
  C     -0.735699    2.819741   -2.367647
  H     -2.012920    1.136299   -0.619380
  H     -1.760643    2.064918    0.845272
  H     -2.138528    3.737701   -0.930864
  H      0.110574    4.907024   -0.825264
  H      0.059813    3.959082    0.684180
  H      2.132436    3.375152   -0.918564
  H      1.221225    2.399673   -3.205537
  H     -1.408702    2.600049   -3.188251

 Total Charge           Charge          ....    0
 Multiplicity           Mult            ....    1
 Number of Electrons    NEL             ....   66
 Basis Dimension        Dim             ....  327

ORBITAL ENERGIES
----------------

  NO   OCC          E(Eh)            E(eV)
   0   2.0000     -20.591850      -560.3327
   1   2.0000     -20.528628      -558.6124
   2   2.0000     -11.374349      -309.5118
   3   2.0000     -11.309591      -307.7496
   4   2.0000     -11.260026      -306.4009
   5   2.0000     -11.254354      -306.2465
   6   2.0000     -11.251895      -306.1796
   7   2.0000     -11.244886      -305.9889
   8   2.0000     -11.244076      -305.9669
   9   2.0000      -1.445428       -39.3321
  10   2.0000      -1.352800       -36.8116
  11   2.0000      -1.169703       -31.8292
  12   2.0000      -1.047600       -28.5066
  13   2.0000      -0.994120       -27.0514
  14   2.0000      -0.927516       -25.2390
  15   2.0000      -0.851629       -23.1740
  16   2.0000      -0.764344       -20.7988
  17   2.0000      -0.746356       -20.3094
  18   2.0000      -0.705968       -19.2104
  19   2.0000      -0.670185       -18.2367
  20   2.0000      -0.659297       -17.9404
  21   2.0000      -0.645247       -17.5581
  22   2.0000      -0.613471       -16.6934
  23   2.0000      -0.592674       -16.1275
  24   2.0000      -0.572386       -15.5754
  25   2.0000      -0.559898       -15.2356
  26   2.0000      -0.530982       -14.4488
  27   2.0000      -0.514269       -13.9940
  28   2.0000      -0.489913       -13.3312
  29   2.0000      -0.479106       -13.0371
  30   2.0000      -0.443657       -12.0725
  31   2.0000      -0.428190       -11.6516
  32   2.0000      -0.378481       -10.2990
  33   0.0000       0.118147         3.2149
  34   0.0000       0.129171         3.5149
  35   0.0000       0.156463         4.2576
  36   0.0000       0.159529         4.3410
  37   0.0000       0.172345         4.6897

MULLIKEN ATOMIC CHARGES
-----------------------
   0 O :   -0.284172
   1 C :    0.239396
   2 C :   -0.291405
   3 C :    0.032665
   4 C :   -0.303855
   5 C :    0.140160
   6 O :   -0.223305
   7 C :   -0.230705
   8 C :   -0.195186
   9 H :    0.147212
  10 H :    0.148901
  11 H :    0.129276
  12 H :    0.129879
  13 H :    0.139362
  14 H :    0.136356
  15 H :    0.142814
  16 H :    0.142608
Sum of atomic charges:   -0.0000000

LOEWDIN ATOMIC CHARGES
----------------------
   0 O :    0.135711
   1 C :   -0.463941
   2 C :   -0.203697
   3 C :   -0.223619
   4 C :   -0.199919
   5 C :   -0.247745
   6 O :    0.266699
   7 C :   -0.129496
   8 C :   -0.114616
   9 H :    0.156978
  10 H :    0.158503
  11 H :    0.149157
  12 H :    0.147830
  13 H :    0.142648
  14 H :    0.144866
  15 H :    0.140116
  16 H :    0.140524

  Mayer bond orders larger than 0.1
B(  0-O ,  1-C ) :   2.0272 B(  1-C ,  2-C ) :   0.9401 B(  1-C ,  6-O ) :   1.1299
B(  2-C ,  3-C ) :   0.8619 B(  2-C ,  9-H ) :   0.9096 B(  2-C , 10-H ) :   0.9082
B(  3-C ,  4-C ) :   0.9069 B(  3-C ,  8-C ) :   0.9057 B(  3-C , 11-H ) :   0.9199
B(  4-C ,  5-C ) :   0.9378 B(  4-C , 12-H ) :   0.9110 B(  4-C , 13-H ) :   0.9345
B(  5-C ,  6-O ) :   0.8001 B(  5-C ,  7-C ) :   0.9291 B(  5-C , 14-H ) :   0.9390
B(  7-C ,  8-C ) :   1.7790 B(  7-C , 15-H ) :   0.9238 B(  8-C , 16-H ) :   0.9226

MP2 TOTAL ENERGY:     -421.166658750 Eh
FINAL SINGLE POINT ENERGY      -421.166658749757

DIPOLE MOMENT
-------------
                                X             Y             Z
Electronic contribution:      2.73190      -4.43004       1.53228
Nuclear contribution   :     -3.31479       5.95277      -2.30567
                        -----------------------------------------
Total Dipole Moment    :     -0.58289       1.52273      -0.77339
                        -----------------------------------------
Magnitude (a.u.)       :      1.80461
Magnitude (Debye)      :      4.58695

                             ****ORCA TERMINATED NORMALLY****
TOTAL RUN TIME: 0 days 0 hours 19 minutes 37 seconds 331 msec
