                         Program Version 3.0.3 - RELEASE   -
|  1> ! RI-MP2 RIJK def2-TZVP def2-TZVP/C def2-TZVP/JK TIGHTSCF
|  2> % maxcore 2000
|  3> % mp2 density relaxed end
|  4> *xyz 0 1
|  5>  O        0.1313734226     1.3929027842    -0.0650136113
|  6>  C       -0.0624378287     0.0239269080     0.0637911438
|  7>  C       -0.4469274555    -0.7825737512     1.2835858127
|  8>  O        0.3089831500    -1.7979019826     1.8273528530
|  9>  C       -1.6460243516    -0.1581922578     2.0683021084
| 10>  O       -2.0412060441     1.0984206184     1.4644652305
| 11>  C       -2.4837036066    -0.1515239602     0.8797184029
| 12>  C       -1.3448095828    -0.7753671018     0.0096631693
| 13>  O       -1.6080553225    -1.7824185110    -0.8928448828
| 14>  H       -0.5844769083     1.8009919216     0.4417871479
| 15>  H        0.7108271517    -0.5163485532    -0.4843495498
| 16>  H        1.1622537116    -1.4367306247     2.0933666453
| 17>  H       -1.8810248892    -0.3165643194     3.1139640694
| 18>  H       -3.5483447259    -0.3031035685     0.7483183067
| 19>  H       -1.5687959606    -1.4148074420    -1.7831193560
| 20> *
| 21>
| 22>                          ****END OF INPUT****

CARTESIAN COORDINATES (ANGSTROEM)
---------------------------------
  O      0.131373    1.392903   -0.065014
  C     -0.062438    0.023927    0.063791
  C     -0.446927   -0.782574    1.283586
  O      0.308983   -1.797902    1.827353
  C     -1.646024   -0.158192    2.068302
  O     -2.041206    1.098421    1.464465
  C     -2.483704   -0.151524    0.879718
  C     -1.344810   -0.775367    0.009663
  O     -1.608055   -1.782419   -0.892845
  H     -0.584477    1.800992    0.441787
  H      0.710827   -0.516349   -0.484350
  H      1.162254   -1.436731    2.093367
  H     -1.881025   -0.316564    3.113964
  H     -3.548345   -0.303104    0.748318
  H     -1.568796   -1.414807   -1.783119

 Total Charge           Charge          ....    0
 Multiplicity           Mult            ....    1
 Number of Electrons    NEL             ....   68
 Basis Dimension        Dim             ....  315

ORBITAL ENERGIES
----------------

  NO   OCC          E(Eh)            E(eV)
   0   2.0000     -20.593520      -560.3782
   1   2.0000     -20.587622      -560.2177
   2   2.0000     -20.587619      -560.2176
   3   2.0000     -20.557435      -559.3963
   4   2.0000     -11.309672      -307.7518
   5   2.0000     -11.309093      -307.7361
   6   2.0000     -11.307964      -307.7054
   7   2.0000     -11.307111      -307.6821
   8   2.0000     -11.304217      -307.6034
   9   2.0000      -1.442165       -39.2433
  10   2.0000      -1.400546       -38.1108
  11   2.0000      -1.391151       -37.8552
  12   2.0000      -1.368118       -37.2284
  13   2.0000      -1.149233       -31.2722
  14   2.0000      -0.965363       -26.2689
  15   2.0000      -0.898979       -24.4625
  16   2.0000      -0.831070       -22.6146
  17   2.0000      -0.779016       -21.1981
  18   2.0000      -0.770515       -20.9668
  19   2.0000      -0.708991       -19.2926
  20   2.0000      -0.685001       -18.6398
  21   2.0000      -0.680415       -18.5150
  22   2.0000      -0.629317       -17.1246
  23   2.0000      -0.613070       -16.6825
  24   2.0000      -0.597418       -16.2566
  25   2.0000      -0.583136       -15.8679
  26   2.0000      -0.570143       -15.5144
  27   2.0000      -0.550533       -14.9808
  28   2.0000      -0.539200       -14.6724
  29   2.0000      -0.524573       -14.2744
  30   2.0000      -0.500110       -13.6087
  31   2.0000      -0.425193       -11.5701
  32   2.0000      -0.391712       -10.6590
  33   2.0000      -0.364809        -9.9269
  34   0.0000       0.129743         3.5305
  35   0.0000       0.138861         3.7786
  36   0.0000       0.163594         4.4516
  37   0.0000       0.167759         4.5650
  38   0.0000       0.181328         4.9342

MULLIKEN ATOMIC CHARGES
-----------------------
   0 O :   -0.451749
   1 C :   -0.123229
   2 C :    0.224103
   3 O :   -0.451539
   4 C :   -0.057576
   5 O :   -0.345654
   6 C :   -0.057639
   7 C :    0.224113
   8 O :   -0.451542
   9 H :    0.347513
  10 H :    0.141478
  11 H :    0.339620
  12 H :    0.161233
  13 H :    0.161236
  14 H :    0.339631
Sum of atomic charges:   -0.0000000

LOEWDIN ATOMIC CHARGES
----------------------
   0 O :   -0.003284
   1 C :   -0.287473
   2 C :   -0.283064
   3 O :    0.042354
   4 C :   -0.188914
   5 O :    0.150498
   6 C :   -0.188844
   7 C :   -0.283065
   8 O :    0.042360
   9 H :    0.175318
  10 H :    0.162509
  11 H :    0.192464
  12 H :    0.138336
  13 H :    0.138341
  14 H :    0.192464

  Mayer bond orders larger than 0.1
B(  0-O ,  1-C ) :   1.0213 B(  0-O ,  9-H ) :   0.8013 B(  1-C ,  2-C ) :   0.8587
B(  1-C ,  7-C ) :   0.8587 B(  1-C , 10-H ) :   0.9589 B(  2-C ,  3-O ) :   0.9981
B(  2-C ,  4-C ) :   0.8437 B(  2-C ,  7-C ) :   0.7448 B(  3-O , 11-H ) :   0.8279
B(  4-C ,  5-O ) :   0.8512 B(  4-C ,  6-C ) :   0.9660 B(  4-C , 12-H ) :   0.9122
B(  5-O ,  6-C ) :   0.8511 B(  6-C ,  7-C ) :   0.8438 B(  6-C , 13-H ) :   0.9122
B(  7-C ,  8-O ) :   0.9981 B(  8-O , 14-H ) :   0.8279

MP2 TOTAL ENERGY:     -494.031493364 Eh
FINAL SINGLE POINT ENERGY      -494.031493363505

DIPOLE MOMENT
-------------
                                X             Y             Z
Electronic contribution:     -0.37422       0.19251       0.26467
Nuclear contribution   :      0.23470      -0.24112      -0.16628
                        -----------------------------------------
Total Dipole Moment    :     -0.13952      -0.04862       0.09839
                        -----------------------------------------
Magnitude (a.u.)       :      0.17751
Magnitude (Debye)      :      0.45120

                             ****ORCA TERMINATED NORMALLY****
TOTAL RUN TIME: 0 days 0 hours 14 minutes 11 seconds 983 msec
