                         Program Version 3.0.3 - RELEASE   -
|  1> ! RI-MP2 RIJK def2-TZVP def2-TZVP/C def2-TZVP/JK TIGHTSCF
|  2> % maxcore 2000
|  3> % mp2 density relaxed end
|  4> *xyz 0 1
|  5>  C        0.0488015809     1.7036728426    -0.0305135486
|  6>  C       -0.0146498863     0.1722061584     0.0198962862
|  7>  C        0.6787258929    -0.4924854259    -1.1754397829
|  8>  C        2.1980713587    -0.2064460038    -1.2299324449
|  9>  O        2.7927024917    -1.3246770610    -1.8624075597
| 10>  C        2.1121583967    -2.4552410762    -1.3499356692
| 11>  C        0.6187725617    -2.0621080258    -1.2622500426
| 12>  C       -0.1324022755    -2.7995863570    -0.1472975221
| 13>  C       -0.1842576491    -4.3166409408    -0.3660435526
| 14>  H        1.0807863947     2.0683656604     0.0039318780
| 15>  H       -0.4063442857     2.0869108767    -0.9508666180
| 16>  H       -0.4851422559     2.1483750193     0.8149772512
| 17>  H        0.4395659031    -0.1779046860     0.9556908134
| 18>  H       -1.0655764124    -0.1366951106     0.0553058420
| 19>  H        0.2228219499    -0.0904353147    -2.0875309962
| 20>  H        2.4640885007     0.6844941893    -1.8038738109
| 21>  H        2.5951863171    -0.0874165566    -0.2051524012
| 22>  H        2.3133256929    -3.2982271905    -2.0153963261
| 23>  H        2.4933919410    -2.7114051425    -0.3443749790
| 24>  H        0.1408868330    -2.3251996214    -2.2129636085
| 25>  H        0.3391822203    -2.5898442703     0.8212980110
| 26>  H       -1.1573081581    -2.4176030304    -0.0779282408
| 27>  H       -0.6590439723    -4.5608721054    -1.3231227905
| 28>  H        0.8169298604    -4.7602196774    -0.3716420521
| 29>  H       -0.7575263604    -4.8096087002     0.4251934540
| 30> *
| 31>
| 32>                          ****END OF INPUT****

CARTESIAN COORDINATES (ANGSTROEM)
---------------------------------
  C      0.048802    1.703673   -0.030514
  C     -0.014650    0.172206    0.019896
  C      0.678726   -0.492485   -1.175440
  C      2.198071   -0.206446   -1.229932
  O      2.792702   -1.324677   -1.862408
  C      2.112158   -2.455241   -1.349936
  C      0.618773   -2.062108   -1.262250
  C     -0.132402   -2.799586   -0.147298
  C     -0.184258   -4.316641   -0.366044
  H      1.080786    2.068366    0.003932
  H     -0.406344    2.086911   -0.950867
  H     -0.485142    2.148375    0.814977
  H      0.439566   -0.177905    0.955691
  H     -1.065576   -0.136695    0.055306
  H      0.222822   -0.090435   -2.087531
  H      2.464089    0.684494   -1.803874
  H      2.595186   -0.087417   -0.205152
  H      2.313326   -3.298227   -2.015396
  H      2.493392   -2.711405   -0.344375
  H      0.140887   -2.325200   -2.212964
  H      0.339182   -2.589844    0.821298
  H     -1.157308   -2.417603   -0.077928
  H     -0.659044   -4.560872   -1.323123
  H      0.816930   -4.760220   -0.371642
  H     -0.757526   -4.809609    0.425193

 Total Charge           Charge          ....    0
 Multiplicity           Mult            ....    1
 Number of Electrons    NEL             ....   72
 Basis Dimension        Dim             ....  375

ORBITAL ENERGIES
----------------

  NO   OCC          E(Eh)            E(eV)
   0   2.0000     -20.546306      -559.0934
   1   2.0000     -11.265299      -306.5444
   2   2.0000     -11.265275      -306.5437
   3   2.0000     -11.225577      -305.4635
   4   2.0000     -11.225065      -305.4495
   5   2.0000     -11.222378      -305.3764
   6   2.0000     -11.222365      -305.3761
   7   2.0000     -11.215911      -305.2004
   8   2.0000     -11.215909      -305.2004
   9   2.0000      -1.374705       -37.4076
  10   2.0000      -1.097069       -29.8528
  11   2.0000      -1.050238       -28.5784
  12   2.0000      -0.978113       -26.6158
  13   2.0000      -0.966583       -26.3021
  14   2.0000      -0.858253       -23.3543
  15   2.0000      -0.855947       -23.2915
  16   2.0000      -0.801094       -21.7989
  17   2.0000      -0.744527       -20.2596
  18   2.0000      -0.684736       -18.6326
  19   2.0000      -0.641489       -17.4558
  20   2.0000      -0.637517       -17.3477
  21   2.0000      -0.618041       -16.8178
  22   2.0000      -0.585403       -15.9296
  23   2.0000      -0.579702       -15.7745
  24   2.0000      -0.562477       -15.3058
  25   2.0000      -0.560131       -15.2419
  26   2.0000      -0.536506       -14.5991
  27   2.0000      -0.521839       -14.2000
  28   2.0000      -0.501286       -13.6407
  29   2.0000      -0.496309       -13.5053
  30   2.0000      -0.493072       -13.4172
  31   2.0000      -0.462746       -12.5920
  32   2.0000      -0.450120       -12.2484
  33   2.0000      -0.439062       -11.9475
  34   2.0000      -0.436835       -11.8869
  35   2.0000      -0.411851       -11.2070
  36   0.0000       0.131837         3.5875
  37   0.0000       0.146422         3.9843
  38   0.0000       0.151179         4.1138
  39   0.0000       0.165741         4.5100
  40   0.0000       0.174704         4.7539

MULLIKEN ATOMIC CHARGES
-----------------------
   0 C :   -0.389771
   1 C :   -0.241455
   2 C :   -0.050015
   3 C :   -0.071034
   4 O :   -0.311149
   5 C :   -0.071166
   6 C :   -0.050393
   7 C :   -0.241000
   8 C :   -0.389867
   9 H :    0.129577
  10 H :    0.125163
  11 H :    0.135711
  12 H :    0.111540
  13 H :    0.110699
  14 H :    0.090128
  15 H :    0.123290
  16 H :    0.081792
  17 H :    0.123339
  18 H :    0.081790
  19 H :    0.090084
  20 H :    0.111461
  21 H :    0.110769
  22 H :    0.125200
  23 H :    0.129590
  24 H :    0.135717
Sum of atomic charges:    0.0000000

LOEWDIN ATOMIC CHARGES
----------------------
   0 C :   -0.315213
   1 C :   -0.278409
   2 C :   -0.226333
   3 C :   -0.292963
   4 O :    0.153324
   5 C :   -0.293060
   6 C :   -0.226450
   7 C :   -0.278381
   8 C :   -0.315204
   9 H :    0.121206
  10 H :    0.121766
  11 H :    0.121145
  12 H :    0.136748
  13 H :    0.136688
  14 H :    0.151674
  15 H :    0.126182
  16 H :    0.120877
  17 H :    0.126211
  18 H :    0.120871
  19 H :    0.151725
  20 H :    0.136777
  21 H :    0.136697
  22 H :    0.121773
  23 H :    0.121202
  24 H :    0.121145

  Mayer bond orders larger than 0.1
B(  0-C ,  1-C ) :   0.9141 B(  0-C ,  9-H ) :   0.9402 B(  0-C , 10-H ) :   0.9389
B(  0-C , 11-H ) :   0.9427 B(  1-C ,  2-C ) :   0.9151 B(  1-C , 12-H ) :   0.9280
B(  1-C , 13-H ) :   0.9368 B(  2-C ,  3-C ) :   0.9293 B(  2-C ,  6-C ) :   0.9293
B(  2-C , 14-H ) :   0.9206 B(  3-C ,  4-O ) :   0.9411 B(  3-C , 15-H ) :   0.9224
B(  3-C , 16-H ) :   0.9210 B(  4-O ,  5-C ) :   0.9406 B(  5-C ,  6-C ) :   0.9295
B(  5-C , 17-H ) :   0.9225 B(  5-C , 18-H ) :   0.9210 B(  6-C ,  7-C ) :   0.9147
B(  6-C , 19-H ) :   0.9206 B(  7-C ,  8-C ) :   0.9140 B(  7-C , 20-H ) :   0.9279
B(  7-C , 21-H ) :   0.9369 B(  8-C , 22-H ) :   0.9389 B(  8-C , 23-H ) :   0.9402
B(  8-C , 24-H ) :   0.9427

MP2 TOTAL ENERGY:     -388.828152823 Eh
FINAL SINGLE POINT ENERGY      -388.828152822530

DIPOLE MOMENT
-------------
                                X             Y             Z
Electronic contribution:      5.21914       0.02308      -4.08039
Nuclear contribution   :     -5.82241      -0.01977       4.44457
                        -----------------------------------------
Total Dipole Moment    :     -0.60327       0.00331       0.36418
                        -----------------------------------------
Magnitude (a.u.)       :      0.70468
Magnitude (Debye)      :      1.79115

                             ****ORCA TERMINATED NORMALLY****
TOTAL RUN TIME: 0 days 0 hours 21 minutes 26 seconds 827 msec
