                         Program Version 3.0.3 - RELEASE   -
|  1> ! RI-MP2 RIJK def2-TZVP def2-TZVP/C def2-TZVP/JK TIGHTSCF
|  2> % maxcore 2000
|  3> % mp2 density relaxed end
|  4> *xyz 0 1
|  5>  C       -0.4045632362     1.4513446337     0.0123870581
|  6>  C        0.0335965377    -0.0352308427    -0.0373299729
|  7>  C        0.8241803418    -0.3424637577    -1.2865850186
|  8>  C        2.1461162999    -0.5076577547    -1.3114107910
|  9>  C        2.9737360083    -0.3676481158    -0.0863657319
| 10>  N        2.8576723760     0.9249934500     0.6180517775
| 11>  C        2.2727073427    -0.2891196305     1.2369139194
| 12>  C        0.7799428663    -0.4004000253     1.2470401219
| 13>  O        0.1945808990    -0.8071851228     2.2269192829
| 14>  H        0.4703161974     2.1033182840     0.0500147191
| 15>  H       -0.9902583924     1.7011805142    -0.8776173632
| 16>  H       -1.0257627582     1.6288333330     0.8948710150
| 17>  H       -0.8769974516    -0.6454561398    -0.0246323827
| 18>  H        0.2523876558    -0.4039658551    -2.2094627017
| 19>  H        2.6621420718    -0.7206144373    -2.2427075258
| 20>  H        3.9497597189    -0.8451751812    -0.0933047909
| 21>  H        3.7280506086     1.1386321357     1.1005401321
| 22>  H        2.7503299844    -0.7064814178     2.1181699925
| 23> *
| 24>
| 25>                          ****END OF INPUT****

CARTESIAN COORDINATES (ANGSTROEM)
---------------------------------
  C     -0.404563    1.451345    0.012387
  C      0.033597   -0.035231   -0.037330
  C      0.824180   -0.342464   -1.286585
  C      2.146116   -0.507658   -1.311411
  C      2.973736   -0.367648   -0.086366
  N      2.857672    0.924993    0.618052
  C      2.272707   -0.289120    1.236914
  C      0.779943   -0.400400    1.247040
  O      0.194581   -0.807185    2.226919
  H      0.470316    2.103318    0.050015
  H     -0.990258    1.701181   -0.877617
  H     -1.025763    1.628833    0.894871
  H     -0.876997   -0.645456   -0.024632
  H      0.252388   -0.403966   -2.209463
  H      2.662142   -0.720614   -2.242708
  H      3.949760   -0.845175   -0.093305
  H      3.728051    1.138632    1.100540
  H      2.750330   -0.706481    2.118170

 Total Charge           Charge          ....    0
 Multiplicity           Mult            ....    1
 Number of Electrons    NEL             ....   66
 Basis Dimension        Dim             ....  333

ORBITAL ENERGIES
----------------

  NO   OCC          E(Eh)            E(eV)
   0   2.0000     -20.544378      -559.0410
   1   2.0000     -15.583449      -424.0472
   2   2.0000     -11.329512      -308.2917
   3   2.0000     -11.285655      -307.0983
   4   2.0000     -11.276235      -306.8420
   5   2.0000     -11.247158      -306.0507
   6   2.0000     -11.243650      -305.9553
   7   2.0000     -11.239564      -305.8441
   8   2.0000     -11.222989      -305.3930
   9   2.0000      -1.388106       -37.7723
  10   2.0000      -1.285141       -34.9705
  11   2.0000      -1.108040       -30.1513
  12   2.0000      -1.023527       -27.8516
  13   2.0000      -0.949594       -25.8398
  14   2.0000      -0.908388       -24.7185
  15   2.0000      -0.850106       -23.1326
  16   2.0000      -0.791768       -21.5451
  17   2.0000      -0.735566       -20.0158
  18   2.0000      -0.681875       -18.5548
  19   2.0000      -0.666583       -18.1386
  20   2.0000      -0.646431       -17.5903
  21   2.0000      -0.618082       -16.8189
  22   2.0000      -0.590766       -16.0756
  23   2.0000      -0.568761       -15.4768
  24   2.0000      -0.549543       -14.9538
  25   2.0000      -0.535270       -14.5654
  26   2.0000      -0.519664       -14.1408
  27   2.0000      -0.504585       -13.7305
  28   2.0000      -0.497256       -13.5310
  29   2.0000      -0.476999       -12.9798
  30   2.0000      -0.422722       -11.5029
  31   2.0000      -0.404043       -10.9946
  32   2.0000      -0.354585        -9.6488
  33   0.0000       0.121404         3.3036
  34   0.0000       0.124257         3.3812
  35   0.0000       0.145709         3.9649
  36   0.0000       0.153188         4.1685
  37   0.0000       0.173736         4.7276

MULLIKEN ATOMIC CHARGES
-----------------------
   0 C :   -0.429174
   1 C :    0.100549
   2 C :   -0.199576
   3 C :   -0.212031
   4 C :    0.058947
   5 N :   -0.397662
   6 C :   -0.067091
   7 C :    0.122139
   8 O :   -0.280586
   9 H :    0.160250
  10 H :    0.128283
  11 H :    0.144156
  12 H :    0.112307
  13 H :    0.128436
  14 H :    0.129143
  15 H :    0.138012
  16 H :    0.224083
  17 H :    0.139814
Sum of atomic charges:    0.0000000

LOEWDIN ATOMIC CHARGES
----------------------
   0 C :   -0.270340
   1 C :   -0.224056
   2 C :   -0.124702
   3 C :   -0.153533
   4 C :   -0.231093
   5 N :    0.024221
   6 C :   -0.204663
   7 C :   -0.280319
   8 O :    0.155678
   9 H :    0.130225
  10 H :    0.124554
  11 H :    0.128435
  12 H :    0.168338
  13 H :    0.147390
  14 H :    0.146900
  15 H :    0.143498
  16 H :    0.172397
  17 H :    0.147070

  Mayer bond orders larger than 0.1
B(  0-C ,  1-C ) :   0.8396 B(  0-C ,  9-H ) :   0.9264 B(  0-C , 10-H ) :   0.9325
B(  0-C , 11-H ) :   0.9321 B(  1-C ,  2-C ) :   0.9101 B(  1-C ,  7-C ) :   0.8786
B(  1-C , 12-H ) :   0.9184 B(  2-C ,  3-C ) :   1.8024 B(  2-C , 13-H ) :   0.9187
B(  3-C ,  4-C ) :   0.9376 B(  3-C , 14-H ) :   0.9255 B(  4-C ,  5-N ) :   0.8848
B(  4-C ,  6-C ) :   0.8589 B(  4-C , 15-H ) :   0.9156 B(  5-N ,  6-C ) :   0.8822
B(  5-N , 16-H ) :   0.8642 B(  6-C ,  7-C ) :   0.9689 B(  6-C , 17-H ) :   0.9313
B(  7-C ,  8-O ) :   2.0013

MP2 TOTAL ENERGY:     -401.254996652 Eh
FINAL SINGLE POINT ENERGY      -401.254996651680

DIPOLE MOMENT
-------------
                                X             Y             Z
Electronic contribution:      1.46617      -3.17685       3.24692
Nuclear contribution   :     -0.57806       3.21986      -3.93697
                        -----------------------------------------
Total Dipole Moment    :      0.88811       0.04301      -0.69005
                        -----------------------------------------
Magnitude (a.u.)       :      1.12550
Magnitude (Debye)      :      2.86080

                             ****ORCA TERMINATED NORMALLY****
TOTAL RUN TIME: 0 days 0 hours 18 minutes 9 seconds 677 msec
