                         Program Version 3.0.3 - RELEASE   -
|  1> ! RI-MP2 RIJK def2-TZVP def2-TZVP/C def2-TZVP/JK TIGHTSCF
|  2> % maxcore 2000
|  3> % mp2 density relaxed end
|  4> *xyz 0 1
|  5>  C       -0.0410973502     1.5771246566     0.0550229723
|  6>  C        1.4725520971     1.2708353342     0.0444303500
|  7>  C        1.1652529348     0.0568442249     1.0336466348
|  8>  C        0.1071879822     0.0353774677    -0.0943393325
|  9>  O       -0.8987560694    -0.7339839947    -0.7429792615
| 10>  C       -0.6345930256    -0.3706118555    -2.0571637321
| 11>  N        0.4364213966     0.2555878852    -2.3691140889
| 12>  C        1.2088244594     0.2267891311    -1.1068261013
| 13>  H       -0.4630378172     1.9369145773     0.9956016778
| 14>  H       -0.4343792170     2.1158286852    -0.8065122100
| 15>  H        2.2947123633     1.9747720946     0.1558309661
| 16>  H        1.8914696277    -0.7583908049     1.0488205655
| 17>  H        0.8344477915     0.3393798776     2.0348672495
| 18>  H       -1.4119586375    -0.6681790888    -2.7521451409
| 19>  H        1.9879883144    -0.5390278005    -1.1867614888
| 20> *
| 21>
| 22>                          ****END OF INPUT****

CARTESIAN COORDINATES (ANGSTROEM)
---------------------------------
  C     -0.041097    1.577125    0.055023
  C      1.472552    1.270835    0.044430
  C      1.165253    0.056844    1.033647
  C      0.107188    0.035377   -0.094339
  O     -0.898756   -0.733984   -0.742979
  C     -0.634593   -0.370612   -2.057164
  N      0.436421    0.255588   -2.369114
  C      1.208824    0.226789   -1.106826
  H     -0.463038    1.936915    0.995602
  H     -0.434379    2.115829   -0.806512
  H      2.294712    1.974772    0.155831
  H      1.891470   -0.758391    1.048821
  H      0.834448    0.339380    2.034867
  H     -1.411959   -0.668179   -2.752145
  H      1.987988   -0.539028   -1.186761

 Total Charge           Charge          ....    0
 Multiplicity           Mult            ....    1
 Number of Electrons    NEL             ....   58
 Basis Dimension        Dim             ....  290

ORBITAL ENERGIES
----------------

  NO   OCC          E(Eh)            E(eV)
   0   2.0000     -20.603147      -560.6401
   1   2.0000     -15.557430      -423.3392
   2   2.0000     -11.339544      -308.5647
   3   2.0000     -11.305850      -307.6478
   4   2.0000     -11.268326      -306.6267
   5   2.0000     -11.263504      -306.4955
   6   2.0000     -11.259221      -306.3790
   7   2.0000     -11.235491      -305.7332
   8   2.0000      -1.440611       -39.2010
   9   2.0000      -1.240415       -33.7534
  10   2.0000      -1.192250       -32.4428
  11   2.0000      -0.933862       -25.4117
  12   2.0000      -0.924852       -25.1665
  13   2.0000      -0.872717       -23.7478
  14   2.0000      -0.796889       -21.6844
  15   2.0000      -0.752381       -20.4733
  16   2.0000      -0.697835       -18.9891
  17   2.0000      -0.676554       -18.4100
  18   2.0000      -0.650889       -17.7116
  19   2.0000      -0.623648       -16.9703
  20   2.0000      -0.588615       -16.0170
  21   2.0000      -0.545310       -14.8386
  22   2.0000      -0.506207       -13.7746
  23   2.0000      -0.494852       -13.4656
  24   2.0000      -0.486942       -13.2504
  25   2.0000      -0.466468       -12.6932
  26   2.0000      -0.451144       -12.2763
  27   2.0000      -0.397919       -10.8279
  28   2.0000      -0.389070       -10.5871
  29   0.0000       0.141394         3.8475
  30   0.0000       0.155929         4.2430
  31   0.0000       0.165802         4.5117
  32   0.0000       0.172439         4.6923
  33   0.0000       0.178918         4.8686

MULLIKEN ATOMIC CHARGES
-----------------------
   0 C :   -0.239592
   1 C :   -0.131230
   2 C :   -0.187490
   3 C :    0.104184
   4 O :   -0.281738
   5 C :    0.105648
   6 N :   -0.276664
   7 C :   -0.012265
   8 H :    0.122587
   9 H :    0.137897
  10 H :    0.152793
  11 H :    0.127979
  12 H :    0.129616
  13 H :    0.144716
  14 H :    0.103559
Sum of atomic charges:    0.0000000

LOEWDIN ATOMIC CHARGES
----------------------
   0 C :   -0.170278
   1 C :   -0.146015
   2 C :   -0.154852
   3 C :   -0.292111
   4 O :    0.236356
   5 C :   -0.298917
   6 N :    0.081721
   7 C :   -0.200396
   8 H :    0.131576
   9 H :    0.138223
  10 H :    0.129866
  11 H :    0.133579
  12 H :    0.132640
  13 H :    0.132292
  14 H :    0.146317

  Mayer bond orders larger than 0.1
B(  0-C ,  1-C ) :   0.9033 B(  0-C ,  3-C ) :   0.9253 B(  0-C ,  8-H ) :   0.9314
B(  0-C ,  9-H ) :   0.9078 B(  1-C ,  2-C ) :   0.8874 B(  1-C ,  7-C ) :   0.8600
B(  1-C , 10-H ) :   0.8851 B(  2-C ,  3-C ) :   0.9104 B(  2-C , 11-H ) :   0.9210
B(  2-C , 12-H ) :   0.9276 B(  3-C ,  4-O ) :   0.8686 B(  3-C ,  7-C ) :   0.8876
B(  4-O ,  5-C ) :   1.0266 B(  5-C ,  6-N ) :   1.7900 B(  5-C , 13-H ) :   0.9262
B(  6-N ,  7-C ) :   0.9374 B(  7-C , 14-H ) :   0.9368

MP2 TOTAL ENERGY:     -361.964842552 Eh
FINAL SINGLE POINT ENERGY      -361.964842551551

DIPOLE MOMENT
-------------
                                X             Y             Z
Electronic contribution:     -2.11722      -2.23818      -3.11344
Nuclear contribution   :      2.23409       2.31721       3.78988
                        -----------------------------------------
Total Dipole Moment    :      0.11687       0.07903       0.67644
                        -----------------------------------------
Magnitude (a.u.)       :      0.69099
Magnitude (Debye)      :      1.75637

                             ****ORCA TERMINATED NORMALLY****
TOTAL RUN TIME: 0 days 0 hours 12 minutes 2 seconds 652 msec
