                         Program Version 3.0.3 - RELEASE   -
|  1> ! RI-MP2 RIJK def2-TZVP def2-TZVP/C def2-TZVP/JK TIGHTSCF
|  2> % maxcore 2000
|  3> % mp2 density relaxed end
|  4> *xyz 0 1
|  5>  O       -0.1298852902    -0.2827650367    -0.0320666577
|  6>  C       -0.0109267738     0.9208812582     0.0253887106
|  7>  C        1.3150216534     1.6391556730    -0.2001974824
|  8>  C        2.5235047856     0.7476613413     0.0265590455
|  9>  C        3.9232793196     1.3707025642    -0.1711349277
| 10>  C        4.1545120663     0.9510437634     1.2942497360
| 11>  O        2.7819877925     0.5300777960     1.4350903984
| 12>  C       -1.1497876872     1.7872989434     0.2823310104
| 13>  C       -2.0787026752     2.5242493532     0.4903159168
| 14>  H        1.3074794509     1.9969972985    -1.2407215597
| 15>  H        1.3679009598     2.5291630801     0.4356302869
| 16>  H        2.3773215291    -0.2073378450    -0.4908735024
| 17>  H        4.5594202389     0.9009878655    -0.9224054202
| 18>  H        3.9116298577     2.4509396295    -0.3333657553
| 19>  H        4.8528790055     0.1151776960     1.4292247211
| 20>  H        4.4152046156     1.7470848017     2.0010149764
| 21>  H       -2.9113476084     3.1577384777     0.6788377234
| 22> *
| 23>
| 24>                          ****END OF INPUT****

CARTESIAN COORDINATES (ANGSTROEM)
---------------------------------
  O     -0.129885   -0.282765   -0.032067
  C     -0.010927    0.920881    0.025389
  C      1.315022    1.639156   -0.200197
  C      2.523505    0.747661    0.026559
  C      3.923279    1.370703   -0.171135
  C      4.154512    0.951044    1.294250
  O      2.781988    0.530078    1.435090
  C     -1.149788    1.787299    0.282331
  C     -2.078703    2.524249    0.490316
  H      1.307479    1.996997   -1.240722
  H      1.367901    2.529163    0.435630
  H      2.377322   -0.207338   -0.490874
  H      4.559420    0.900988   -0.922405
  H      3.911630    2.450940   -0.333366
  H      4.852879    0.115178    1.429225
  H      4.415205    1.747085    2.001015
  H     -2.911348    3.157738    0.678838

 Total Charge           Charge          ....    0
 Multiplicity           Mult            ....    1
 Number of Electrons    NEL             ....   66
 Basis Dimension        Dim             ....  327

ORBITAL ENERGIES
----------------

  NO   OCC          E(Eh)            E(eV)
   0   2.0000     -20.562673      -559.5388
   1   2.0000     -20.549007      -559.1669
   2   2.0000     -11.362446      -309.1879
   3   2.0000     -11.291242      -307.2503
   4   2.0000     -11.282580      -307.0146
   5   2.0000     -11.263368      -306.4918
   6   2.0000     -11.253926      -306.2349
   7   2.0000     -11.251021      -306.1559
   8   2.0000     -11.237384      -305.7848
   9   2.0000      -1.405572       -38.2476
  10   2.0000      -1.380437       -37.5636
  11   2.0000      -1.080548       -29.4032
  12   2.0000      -1.047398       -28.5011
  13   2.0000      -1.008158       -27.4334
  14   2.0000      -0.923106       -25.1190
  15   2.0000      -0.850513       -23.1436
  16   2.0000      -0.766492       -20.8573
  17   2.0000      -0.737225       -20.0609
  18   2.0000      -0.702452       -19.1147
  19   2.0000      -0.679544       -18.4913
  20   2.0000      -0.662668       -18.0321
  21   2.0000      -0.647801       -17.6276
  22   2.0000      -0.623953       -16.9786
  23   2.0000      -0.578685       -15.7468
  24   2.0000      -0.546579       -14.8732
  25   2.0000      -0.541141       -14.7252
  26   2.0000      -0.522280       -14.2120
  27   2.0000      -0.480297       -13.0696
  28   2.0000      -0.466384       -12.6910
  29   2.0000      -0.441625       -12.0172
  30   2.0000      -0.423334       -11.5195
  31   2.0000      -0.419220       -11.4075
  32   2.0000      -0.414138       -11.2693
  33   0.0000       0.081977         2.2307
  34   0.0000       0.134037         3.6473
  35   0.0000       0.152939         4.1617
  36   0.0000       0.155500         4.2314
  37   0.0000       0.163329         4.4444

MULLIKEN ATOMIC CHARGES
-----------------------
   0 O :   -0.265247
   1 C :    0.020341
   2 C :   -0.260186
   3 C :    0.100778
   4 C :   -0.267208
   5 C :   -0.014637
   6 O :   -0.331409
   7 C :    0.049438
   8 C :   -0.075538
   9 H :    0.145469
  10 H :    0.143529
  11 H :    0.101219
  12 H :    0.132434
  13 H :    0.119930
  14 H :    0.097205
  15 H :    0.100994
  16 H :    0.202885
Sum of atomic charges:   -0.0000000

LOEWDIN ATOMIC CHARGES
----------------------
   0 O :    0.185713
   1 C :   -0.317392
   2 C :   -0.212864
   3 C :   -0.276720
   4 C :   -0.228428
   5 C :   -0.274149
   6 O :    0.133349
   7 C :   -0.059240
   8 C :   -0.042722
   9 H :    0.164730
  10 H :    0.157757
  11 H :    0.142809
  12 H :    0.129992
  13 H :    0.132697
  14 H :    0.116831
  15 H :    0.115245
  16 H :    0.132393

  Mayer bond orders larger than 0.1
B(  0-O ,  1-C ) :   1.9901 B(  1-C ,  2-C ) :   0.9849 B(  1-C ,  7-C ) :   1.0356
B(  1-C ,  8-C ) :  -0.1252 B(  2-C ,  3-C ) :   0.9250 B(  2-C ,  7-C ) :  -0.1095
B(  2-C ,  9-H ) :   0.8883 B(  2-C , 10-H ) :   0.9039 B(  3-C ,  4-C ) :   0.8933
B(  3-C ,  6-O ) :   0.9624 B(  3-C , 11-H ) :   0.9223 B(  4-C ,  5-C ) :   0.9787
B(  4-C , 12-H ) :   0.9290 B(  4-C , 13-H ) :   0.9235 B(  5-C ,  6-O ) :   0.9439
B(  5-C , 14-H ) :   0.9188 B(  5-C , 15-H ) :   0.9167 B(  7-C ,  8-C ) :   2.5997
B(  8-C , 16-H ) :   0.8897

MP2 TOTAL ENERGY:     -421.058825794 Eh
FINAL SINGLE POINT ENERGY      -421.058825793741

DIPOLE MOMENT
-------------
                                X             Y             Z
Electronic contribution:     -8.06544      -2.34299       0.73537
Nuclear contribution   :      8.57295       3.64577      -1.24997
                        -----------------------------------------
Total Dipole Moment    :      0.50751       1.30277      -0.51460
                        -----------------------------------------
Magnitude (a.u.)       :      1.48983
Magnitude (Debye)      :      3.78685

                             ****ORCA TERMINATED NORMALLY****
TOTAL RUN TIME: 0 days 0 hours 20 minutes 7 seconds 109 msec
