                         Program Version 3.0.3 - RELEASE   -
|  1> ! RI-MP2 RIJK def2-TZVP def2-TZVP/C def2-TZVP/JK TIGHTSCF
|  2> % maxcore 2000
|  3> % mp2 density relaxed end
|  4> *xyz 0 1
|  5>  N       -0.0712382600    -1.0216573358     0.1938908571
|  6>  C        0.1653975393     0.0726764247    -0.0861929401
|  7>  C        0.4337601166     1.4587392005    -0.4728749096
|  8>  O        1.2419628452     2.0616133820     0.5273426059
|  9>  C        1.3928080464     3.4280018639     0.3585299515
| 10>  C        2.6329939832     4.0193426437     0.9181720856
| 11>  C        2.4665964494     3.9571635573    -0.6000717913
| 12>  C        3.2484989715     3.0265012943    -1.3599970217
| 13>  N        3.8593603331     2.2738101051    -1.9919787900
| 14>  H        0.9372240380     1.4715709766    -1.4485120007
| 15>  H       -0.5257794686     1.9873185797    -0.5756790410
| 16>  H        0.4661452715     4.0015679235     0.3948794942
| 17>  H        2.5882540715     4.9965201176     1.3830372118
| 18>  H        3.3402942356     3.3237721810     1.3532144544
| 19>  H        2.2481830972     4.8865246460    -1.1152392962
| 20> *
| 21>
| 22>                          ****END OF INPUT****

CARTESIAN COORDINATES (ANGSTROEM)
---------------------------------
  N     -0.071238   -1.021657    0.193891
  C      0.165398    0.072676   -0.086193
  C      0.433760    1.458739   -0.472875
  O      1.241963    2.061613    0.527343
  C      1.392808    3.428002    0.358530
  C      2.632994    4.019343    0.918172
  C      2.466596    3.957164   -0.600072
  C      3.248499    3.026501   -1.359997
  N      3.859360    2.273810   -1.991979
  H      0.937224    1.471571   -1.448512
  H     -0.525779    1.987319   -0.575679
  H      0.466145    4.001568    0.394879
  H      2.588254    4.996520    1.383037
  H      3.340294    3.323772    1.353214
  H      2.248183    4.886525   -1.115239

 Total Charge           Charge          ....    0
 Multiplicity           Mult            ....    1
 Number of Electrons    NEL             ....   64
 Basis Dimension        Dim             ....  315

ORBITAL ENERGIES
----------------

  NO   OCC          E(Eh)            E(eV)
   0   2.0000     -20.618568      -561.0598
   1   2.0000     -15.584910      -424.0870
   2   2.0000     -15.581735      -424.0006
   3   2.0000     -11.354569      -308.9735
   4   2.0000     -11.343426      -308.6703
   5   2.0000     -11.305575      -307.6403
   6   2.0000     -11.288339      -307.1713
   7   2.0000     -11.284295      -307.0613
   8   2.0000     -11.281060      -306.9733
   9   2.0000      -1.445668       -39.3386
  10   2.0000      -1.236291       -33.6412
  11   2.0000      -1.229431       -33.4545
  12   2.0000      -1.186855       -32.2960
  13   2.0000      -1.032790       -28.1036
  14   2.0000      -0.935640       -25.4600
  15   2.0000      -0.867094       -23.5948
  16   2.0000      -0.768785       -20.9197
  17   2.0000      -0.747783       -20.3482
  18   2.0000      -0.736326       -20.0365
  19   2.0000      -0.680301       -18.5119
  20   2.0000      -0.668585       -18.1931
  21   2.0000      -0.605261       -16.4700
  22   2.0000      -0.590733       -16.0747
  23   2.0000      -0.565494       -15.3879
  24   2.0000      -0.562609       -15.3094
  25   2.0000      -0.553817       -15.0701
  26   2.0000      -0.516592       -14.0572
  27   2.0000      -0.504135       -13.7182
  28   2.0000      -0.481890       -13.1129
  29   2.0000      -0.470025       -12.7900
  30   2.0000      -0.454332       -12.3630
  31   2.0000      -0.422598       -11.4995
  32   0.0000       0.109720         2.9856
  33   0.0000       0.130749         3.5579
  34   0.0000       0.141598         3.8531
  35   0.0000       0.149127         4.0579
  36   0.0000       0.152060         4.1378

MULLIKEN ATOMIC CHARGES
-----------------------
   0 N :   -0.050463
   1 C :   -0.149274
   2 C :    0.024155
   3 O :   -0.262702
   4 C :    0.021405
   5 C :   -0.246213
   6 C :   -0.018776
   7 C :   -0.204708
   8 N :   -0.053887
   9 H :    0.166740
  10 H :    0.145965
  11 H :    0.131264
  12 H :    0.157442
  13 H :    0.173777
  14 H :    0.165275
Sum of atomic charges:   -0.0000000

LOEWDIN ATOMIC CHARGES
----------------------
   0 N :    0.080984
   1 C :   -0.175612
   2 C :   -0.284691
   3 O :    0.223401
   4 C :   -0.282766
   5 C :   -0.161500
   6 C :   -0.195331
   7 C :   -0.185876
   8 N :    0.068315
   9 H :    0.154518
  10 H :    0.148229
  11 H :    0.141659
  12 H :    0.142967
  13 H :    0.155643
  14 H :    0.170060

  Mayer bond orders larger than 0.1
B(  0-N ,  1-C ) :   2.8385 B(  1-C ,  2-C ) :   0.9396 B(  2-C ,  3-O ) :   0.9152
B(  2-C ,  9-H ) :   0.9040 B(  2-C , 10-H ) :   0.9051 B(  3-O ,  4-C ) :   1.0195
B(  4-C ,  5-C ) :   0.8996 B(  4-C ,  6-C ) :   0.8327 B(  4-C , 11-H ) :   0.9387
B(  5-C ,  6-C ) :   0.8427 B(  5-C , 12-H ) :   0.9223 B(  5-C , 13-H ) :   0.9210
B(  6-C ,  7-C ) :   0.9718 B(  6-C , 14-H ) :   0.9062 B(  7-C ,  8-N ) :   2.8271

MP2 TOTAL ENERGY:     -416.086896865 Eh
FINAL SINGLE POINT ENERGY      -416.086896864724

DIPOLE MOMENT
-------------
                                X             Y             Z
Electronic contribution:      0.29311      -4.79286      -1.16842
Nuclear contribution   :     -1.01631       7.24551       1.45700
                        -----------------------------------------
Total Dipole Moment    :     -0.72320       2.45265       0.28858
                        -----------------------------------------
Magnitude (a.u.)       :      2.57328
Magnitude (Debye)      :      6.54076

                             ****ORCA TERMINATED NORMALLY****
TOTAL RUN TIME: 0 days 0 hours 13 minutes 7 seconds 154 msec
