                         Program Version 3.0.3 - RELEASE   -
|  1> ! RI-MP2 RIJK def2-TZVP def2-TZVP/C def2-TZVP/JK TIGHTSCF
|  2> % maxcore 2000
|  3> % mp2 density relaxed end
|  4> *xyz 0 1
|  5>  C        0.0642341772     1.1978896971    -0.3516857990
|  6>  O       -0.1792337047     0.1408952398     0.5859713200
|  7>  C       -1.2782222068    -0.5938822972     0.3440754555
|  8>  C       -1.4150677385    -1.9288388070     0.1289012286
|  9>  O       -0.4461184157    -2.8813812457     0.0281108611
| 10>  C       -2.8246067227    -2.1932566132     0.0281164598
| 11>  C       -3.4629658380    -3.5241566703    -0.2069015201
| 12>  C       -3.4226483970    -0.9821571433     0.1866703988
| 13>  O       -2.5028925329     0.0081390238     0.3897065265
| 14>  H        1.0042017855     1.6645117601    -0.0524679891
| 15>  H        0.1517519908     0.8008776455    -1.3700622940
| 16>  H       -0.7405346606     1.9386765283    -0.3187630891
| 17>  H        0.4024968770    -2.4566936833     0.1980194175
| 18>  H       -3.2003481280    -4.2364933209     0.5830117795
| 19>  H       -4.5524286465    -3.4370261434    -0.2363837671
| 20>  H       -3.1319352826    -3.9646252057    -1.1539647221
| 21>  H       -4.4532957668    -0.6686643345     0.1762674832
| 22> *
| 23>
| 24>                          ****END OF INPUT****

CARTESIAN COORDINATES (ANGSTROEM)
---------------------------------
  C      0.064234    1.197890   -0.351686
  O     -0.179234    0.140895    0.585971
  C     -1.278222   -0.593882    0.344075
  C     -1.415068   -1.928839    0.128901
  O     -0.446118   -2.881381    0.028111
  C     -2.824607   -2.193257    0.028116
  C     -3.462966   -3.524157   -0.206902
  C     -3.422648   -0.982157    0.186670
  O     -2.502893    0.008139    0.389707
  H      1.004202    1.664512   -0.052468
  H      0.151752    0.800878   -1.370062
  H     -0.740535    1.938677   -0.318763
  H      0.402497   -2.456694    0.198019
  H     -3.200348   -4.236493    0.583012
  H     -4.552429   -3.437026   -0.236384
  H     -3.131935   -3.964625   -1.153965
  H     -4.453296   -0.668664    0.176267

 Total Charge           Charge          ....    0
 Multiplicity           Mult            ....    1
 Number of Electrons    NEL             ....   68
 Basis Dimension        Dim             ....  327

ORBITAL ENERGIES
----------------

  NO   OCC          E(Eh)            E(eV)
   0   2.0000     -20.614977      -560.9620
   1   2.0000     -20.594407      -560.4023
   2   2.0000     -20.584825      -560.1416
   3   2.0000     -11.327486      -308.2366
   4   2.0000     -11.288940      -307.1877
   5   2.0000     -11.280808      -306.9664
   6   2.0000     -11.277472      -306.8756
   7   2.0000     -11.234341      -305.7020
   8   2.0000     -11.226151      -305.4791
   9   2.0000      -1.470541       -40.0154
  10   2.0000      -1.400681       -38.1145
  11   2.0000      -1.394840       -37.9555
  12   2.0000      -1.093792       -29.7636
  13   2.0000      -1.012240       -27.5444
  14   2.0000      -0.954051       -25.9611
  15   2.0000      -0.928482       -25.2653
  16   2.0000      -0.803560       -21.8660
  17   2.0000      -0.787809       -21.4374
  18   2.0000      -0.741259       -20.1707
  19   2.0000      -0.676078       -18.3970
  20   2.0000      -0.665535       -18.1101
  21   2.0000      -0.646254       -17.5855
  22   2.0000      -0.632445       -17.2097
  23   2.0000      -0.612382       -16.6638
  24   2.0000      -0.603564       -16.4238
  25   2.0000      -0.573123       -15.5955
  26   2.0000      -0.560843       -15.2613
  27   2.0000      -0.557795       -15.1784
  28   2.0000      -0.541926       -14.7465
  29   2.0000      -0.529707       -14.4141
  30   2.0000      -0.513494       -13.9729
  31   2.0000      -0.471749       -12.8370
  32   2.0000      -0.364804        -9.9268
  33   2.0000      -0.293565        -7.9883
  34   0.0000       0.135781         3.6948
  35   0.0000       0.150073         4.0837
  36   0.0000       0.158351         4.3090
  37   0.0000       0.170435         4.6378
  38   0.0000       0.186516         5.0753

MULLIKEN ATOMIC CHARGES
-----------------------
   0 C :   -0.195028
   1 O :   -0.326251
   2 C :    0.263558
   3 C :    0.052124
   4 O :   -0.445560
   5 C :   -0.000182
   6 C :   -0.400846
   7 C :   -0.044055
   8 O :   -0.218121
   9 H :    0.144124
  10 H :    0.122926
  11 H :    0.143999
  12 H :    0.335419
  13 H :    0.146385
  14 H :    0.134687
  15 H :    0.144799
  16 H :    0.142021
Sum of atomic charges:   -0.0000000

LOEWDIN ATOMIC CHARGES
----------------------
   0 C :   -0.312103
   1 O :    0.207237
   2 C :   -0.395825
   3 C :   -0.277598
   4 O :    0.061760
   5 C :   -0.192110
   6 C :   -0.264834
   7 C :   -0.226858
   8 O :    0.337050
   9 H :    0.114585
  10 H :    0.108138
  11 H :    0.111353
  12 H :    0.196698
  13 H :    0.134481
  14 H :    0.131511
  15 H :    0.133886
  16 H :    0.132628

  Mayer bond orders larger than 0.1
B(  0-C ,  1-O ) :   0.8455 B(  0-C ,  9-H ) :   0.9372 B(  0-C , 10-H ) :   0.9275
B(  0-C , 11-H ) :   0.9394 B(  1-O ,  2-C ) :   1.0600 B(  2-C ,  3-C ) :   1.4603
B(  2-C ,  8-O ) :   1.0111 B(  3-C ,  4-O ) :   1.1207 B(  3-C ,  5-C ) :   1.1755
B(  4-O , 12-H ) :   0.8272 B(  5-C ,  6-C ) :   0.8705 B(  5-C ,  7-C ) :   1.5451
B(  6-C , 13-H ) :   0.9320 B(  6-C , 14-H ) :   0.9484 B(  6-C , 15-H ) :   0.9310
B(  7-C ,  8-O ) :   1.0300 B(  7-C , 16-H ) :   0.9386

MP2 TOTAL ENERGY:     -458.231299798 Eh
FINAL SINGLE POINT ENERGY      -458.231299797541

DIPOLE MOMENT
-------------
                                X             Y             Z
Electronic contribution:      1.33098       1.28090       2.53348
Nuclear contribution   :     -1.12418      -0.88905      -2.93365
                        -----------------------------------------
Total Dipole Moment    :      0.20680       0.39185      -0.40017
                        -----------------------------------------
Magnitude (a.u.)       :      0.59703
Magnitude (Debye)      :      1.51754

                             ****ORCA TERMINATED NORMALLY****
TOTAL RUN TIME: 0 days 0 hours 15 minutes 7 seconds 674 msec
