                         Program Version 3.0.3 - RELEASE   -
|  1> ! RI-MP2 RIJK def2-TZVP def2-TZVP/C def2-TZVP/JK TIGHTSCF
|  2> % maxcore 2000
|  3> % mp2 density relaxed end
|  4> *xyz 0 1
|  5>  C       -0.0753117959     1.4382863693     0.0067820285
|  6>  C        0.0373168780    -0.0744648300    -0.0147804073
|  7>  C        0.6906506359    -0.6567799158    -1.2391543825
|  8>  C        1.4521051678    -0.5996445517     0.0653346363
|  9>  N        1.7355313327    -2.0894406397     0.0685988919
| 10>  C        0.5078182352    -2.9262240259     0.0334925191
| 11>  C       -0.7159721496    -2.8445512591     0.9391508803
| 12>  C        0.8958245125    -2.1802601429    -1.1907178304
| 13>  H        0.7877489782     1.9075829361    -0.4776646510
| 14>  H       -0.9746125864     1.7728305627    -0.5214944937
| 15>  H       -0.1275409963     1.8146251739     1.0338342542
| 16>  H       -0.7904921748    -0.5753737563     0.4634899767
| 17>  H        0.8438850858    -0.0850787062    -2.1454911993
| 18>  H        2.2750095666     0.0350194054     0.3706887501
| 19>  H        0.8601192219    -3.9546630344    -0.0495575995
| 20>  H       -0.5419062839    -2.1944322944     1.7998969738
| 21>  H       -1.6087889710    -2.4933686958     0.4147929272
| 22>  H       -0.9388118510    -3.8421965358     1.3278463693
| 23>  H        1.2837583744    -2.7052251594    -2.0603985837
| 24> *
| 25>
| 26>                          ****END OF INPUT****

CARTESIAN COORDINATES (ANGSTROEM)
---------------------------------
  C     -0.075312    1.438286    0.006782
  C      0.037317   -0.074465   -0.014780
  C      0.690651   -0.656780   -1.239154
  C      1.452105   -0.599645    0.065335
  N      1.735531   -2.089441    0.068599
  C      0.507818   -2.926224    0.033493
  C     -0.715972   -2.844551    0.939151
  C      0.895825   -2.180260   -1.190718
  H      0.787749    1.907583   -0.477665
  H     -0.974613    1.772831   -0.521494
  H     -0.127541    1.814625    1.033834
  H     -0.790492   -0.575374    0.463490
  H      0.843885   -0.085079   -2.145491
  H      2.275010    0.035019    0.370689
  H      0.860119   -3.954663   -0.049558
  H     -0.541906   -2.194432    1.799897
  H     -1.608789   -2.493369    0.414793
  H     -0.938812   -3.842197    1.327846
  H      1.283758   -2.705225   -2.060399

 Total Charge           Charge          ....    0
 Multiplicity           Mult            ....    1
 Number of Electrons    NEL             ....   60
 Basis Dimension        Dim             ....  314

ORBITAL ENERGIES
----------------

  NO   OCC          E(Eh)            E(eV)
   0   2.0000     -15.552590      -423.2075
   1   2.0000     -11.265423      -306.5477
   2   2.0000     -11.261742      -306.4476
   3   2.0000     -11.257574      -306.3342
   4   2.0000     -11.238539      -305.8162
   5   2.0000     -11.233381      -305.6758
   6   2.0000     -11.224429      -305.4322
   7   2.0000     -11.223248      -305.4001
   8   2.0000      -1.290334       -35.1118
   9   2.0000      -1.121770       -30.5249
  10   2.0000      -1.002039       -27.2669
  11   2.0000      -0.955608       -26.0034
  12   2.0000      -0.905168       -24.6309
  13   2.0000      -0.821105       -22.3434
  14   2.0000      -0.760101       -20.6834
  15   2.0000      -0.734400       -19.9840
  16   2.0000      -0.679310       -18.4850
  17   2.0000      -0.639391       -17.3987
  18   2.0000      -0.612758       -16.6740
  19   2.0000      -0.582243       -15.8436
  20   2.0000      -0.567048       -15.4302
  21   2.0000      -0.552047       -15.0220
  22   2.0000      -0.542768       -14.7695
  23   2.0000      -0.519889       -14.1469
  24   2.0000      -0.507955       -13.8222
  25   2.0000      -0.462579       -12.5874
  26   2.0000      -0.454619       -12.3708
  27   2.0000      -0.446264       -12.1435
  28   2.0000      -0.362242        -9.8571
  29   2.0000      -0.331448        -9.0192
  30   0.0000       0.138988         3.7821
  31   0.0000       0.157484         4.2854
  32   0.0000       0.160236         4.3602
  33   0.0000       0.167023         4.5449
  34   0.0000       0.195861         5.3296

MULLIKEN ATOMIC CHARGES
-----------------------
   0 C :   -0.455011
   1 C :   -0.002102
   2 C :   -0.234391
   3 C :   -0.097684
   4 N :   -0.243599
   5 C :   -0.031487
   6 C :   -0.415131
   7 C :   -0.016869
   8 H :    0.133754
   9 H :    0.139084
  10 H :    0.140091
  11 H :    0.129301
  12 H :    0.136393
  13 H :    0.133321
  14 H :    0.111776
  15 H :    0.153263
  16 H :    0.142766
  17 H :    0.145374
  18 H :    0.131151
Sum of atomic charges:    0.0000000

LOEWDIN ATOMIC CHARGES
----------------------
   0 C :   -0.283207
   1 C :   -0.220514
   2 C :   -0.169808
   3 C :   -0.194588
   4 N :    0.127556
   5 C :   -0.257138
   6 C :   -0.306344
   7 C :   -0.179019
   8 H :    0.129814
   9 H :    0.126422
  10 H :    0.126631
  11 H :    0.147173
  12 H :    0.141433
  13 H :    0.136757
  14 H :    0.156202
  15 H :    0.130524
  16 H :    0.125953
  17 H :    0.127052
  18 H :    0.135103

  Mayer bond orders larger than 0.1
B(  0-C ,  1-C ) :   0.8830 B(  0-C ,  8-H ) :   0.9357 B(  0-C ,  9-H ) :   0.9400
B(  0-C , 10-H ) :   0.9412 B(  1-C ,  2-C ) :   0.8687 B(  1-C ,  3-C ) :   0.8641
B(  1-C , 11-H ) :   0.9079 B(  2-C ,  3-C ) :   0.8908 B(  2-C ,  7-C ) :   0.9378
B(  2-C , 12-H ) :   0.9230 B(  3-C ,  4-N ) :   0.9260 B(  3-C , 13-H ) :   0.9347
B(  4-N ,  5-C ) :   0.9041 B(  4-N ,  7-C ) :   0.8494 B(  5-C ,  6-C ) :   0.8476
B(  5-C ,  7-C ) :   0.9724 B(  5-C , 14-H ) :   0.9336 B(  6-C , 15-H ) :   0.9418
B(  6-C , 16-H ) :   0.9337 B(  6-C , 17-H ) :   0.9334 B(  7-C , 18-H ) :   0.8947

MP2 TOTAL ENERGY:     -327.234100118 Eh
FINAL SINGLE POINT ENERGY      -327.234100117655

DIPOLE MOMENT
-------------
                                X             Y             Z
Electronic contribution:      3.94137      -2.73325      -1.77772
Nuclear contribution   :     -4.56136       2.96853       1.63121
                        -----------------------------------------
Total Dipole Moment    :     -0.61999       0.23528      -0.14651
                        -----------------------------------------
Magnitude (a.u.)       :      0.67912
Magnitude (Debye)      :      1.72620

                             ****ORCA TERMINATED NORMALLY****
TOTAL RUN TIME: 0 days 0 hours 14 minutes 19 seconds 543 msec
