                         Program Version 3.0.3 - RELEASE   -
|  1> ! RI-MP2 RIJK def2-TZVP def2-TZVP/C def2-TZVP/JK TIGHTSCF
|  2> % maxcore 2000
|  3> % mp2 density relaxed end
|  4> *xyz 0 1
|  5>  N        0.4832736387     0.8275500757     0.1445189803
|  6>  C       -0.2138235669    -0.0668593284    -0.5963311172
|  7>  O        0.1499402719    -0.4140605485    -1.7113705330
|  8>  C       -1.4901716796    -0.6213331661     0.0597709930
|  9>  C       -2.6864958335    -0.6536267901    -0.9115978418
| 10>  C       -2.6241907517    -2.0825329862    -1.4950323816
| 11>  O       -1.8050878049    -2.1897249000    -2.6305182340
| 12>  C       -2.0935264256    -2.8636423819    -0.2846411516
| 13>  O       -1.2181150364    -1.9741468897     0.4224360509
| 14>  H        1.3695493987     1.1545866119    -0.2067780012
| 15>  H        0.2454283259     1.0203120682     1.1015474705
| 16>  H       -1.7207955029    -0.0518233878     0.9706775221
| 17>  H       -3.6148551636    -0.5095027198    -0.3513800231
| 18>  H       -2.6303527985     0.1016507940    -1.6968808909
| 19>  H       -3.6167210614    -2.4392867849    -1.7873930818
| 20>  H       -0.9967485448    -1.6712830572    -2.4602817030
| 21>  H       -2.9115288110    -3.1813730220     0.3796293906
| 22>  H       -1.5202161045    -3.7407869273    -0.5942721780
| 23> *
| 24>
| 25>                          ****END OF INPUT****

CARTESIAN COORDINATES (ANGSTROEM)
---------------------------------
  N      0.483274    0.827550    0.144519
  C     -0.213824   -0.066859   -0.596331
  O      0.149940   -0.414061   -1.711371
  C     -1.490172   -0.621333    0.059771
  C     -2.686496   -0.653627   -0.911598
  C     -2.624191   -2.082533   -1.495032
  O     -1.805088   -2.189725   -2.630518
  C     -2.093526   -2.863642   -0.284641
  O     -1.218115   -1.974147    0.422436
  H      1.369549    1.154587   -0.206778
  H      0.245428    1.020312    1.101547
  H     -1.720796   -0.051823    0.970678
  H     -3.614855   -0.509503   -0.351380
  H     -2.630353    0.101651   -1.696881
  H     -3.616721   -2.439287   -1.787393
  H     -0.996749   -1.671283   -2.460282
  H     -2.911529   -3.181373    0.379629
  H     -1.520216   -3.740787   -0.594272

 Total Charge           Charge          ....    0
 Multiplicity           Mult            ....    1
 Number of Electrons    NEL             ....   70
 Basis Dimension        Dim             ....  333

ORBITAL ENERGIES
----------------

  NO   OCC          E(Eh)            E(eV)
   0   2.0000     -20.566419      -559.6407
   1   2.0000     -20.535697      -558.8047
   2   2.0000     -20.529149      -558.6265
   3   2.0000     -15.602363      -424.5619
   4   2.0000     -11.366722      -309.3042
   5   2.0000     -11.307827      -307.7016
   6   2.0000     -11.279905      -306.9418
   7   2.0000     -11.273270      -306.7613
   8   2.0000     -11.238411      -305.8127
   9   2.0000      -1.409503       -38.3545
  10   2.0000      -1.381204       -37.5845
  11   2.0000      -1.340897       -36.4877
  12   2.0000      -1.230659       -33.4879
  13   2.0000      -1.056202       -28.7407
  14   2.0000      -1.013332       -27.5742
  15   2.0000      -0.880603       -23.9624
  16   2.0000      -0.817409       -22.2428
  17   2.0000      -0.795607       -21.6496
  18   2.0000      -0.740217       -20.1423
  19   2.0000      -0.723074       -19.6758
  20   2.0000      -0.695162       -18.9163
  21   2.0000      -0.652465       -17.7545
  22   2.0000      -0.646569       -17.5940
  23   2.0000      -0.623846       -16.9757
  24   2.0000      -0.589490       -16.0408
  25   2.0000      -0.588030       -16.0011
  26   2.0000      -0.573472       -15.6050
  27   2.0000      -0.536406       -14.5963
  28   2.0000      -0.522977       -14.2309
  29   2.0000      -0.501150       -13.6370
  30   2.0000      -0.483085       -13.1454
  31   2.0000      -0.462750       -12.5921
  32   2.0000      -0.435805       -11.8589
  33   2.0000      -0.429777       -11.6948
  34   2.0000      -0.405227       -11.0268
  35   0.0000       0.117354         3.1934
  36   0.0000       0.141313         3.8453
  37   0.0000       0.159695         4.3455
  38   0.0000       0.166240         4.5236
  39   0.0000       0.183574         4.9953

MULLIKEN ATOMIC CHARGES
-----------------------
   0 N :   -0.464130
   1 C :    0.317798
   2 O :   -0.412475
   3 C :    0.073706
   4 C :   -0.296267
   5 C :    0.055151
   6 O :   -0.480699
   7 C :   -0.041216
   8 O :   -0.320192
   9 H :    0.265309
  10 H :    0.266770
  11 H :    0.089391
  12 H :    0.129669
  13 H :    0.152088
  14 H :    0.105583
  15 H :    0.344888
  16 H :    0.091638
  17 H :    0.122987
Sum of atomic charges:    0.0000000

LOEWDIN ATOMIC CHARGES
----------------------
   0 N :    0.005757
   1 C :   -0.448457
   2 O :    0.075835
   3 C :   -0.283044
   4 C :   -0.217474
   5 C :   -0.359002
   6 O :   -0.015323
   7 C :   -0.278264
   8 O :    0.165965
   9 H :    0.178275
  10 H :    0.175348
  11 H :    0.137120
  12 H :    0.144354
  13 H :    0.150331
  14 H :    0.143352
  15 H :    0.172130
  16 H :    0.120886
  17 H :    0.132213

  Mayer bond orders larger than 0.1
B(  0-N ,  1-C ) :   1.2108 B(  0-N ,  9-H ) :   0.8546 B(  0-N , 10-H ) :   0.8683
B(  1-C ,  2-O ) :   1.8062 B(  1-C ,  3-C ) :   0.8801 B(  3-C ,  4-C ) :   0.9225
B(  3-C ,  8-O ) :   0.9381 B(  3-C , 11-H ) :   0.8994 B(  4-C ,  5-C ) :   0.9218
B(  4-C , 12-H ) :   0.9177 B(  4-C , 13-H ) :   0.9239 B(  5-C ,  6-O ) :   0.9838
B(  5-C ,  7-C ) :   0.9265 B(  5-C , 14-H ) :   0.9331 B(  6-O , 15-H ) :   0.7858
B(  7-C ,  8-O ) :   0.9087 B(  7-C , 16-H ) :   0.9238 B(  7-C , 17-H ) :   0.9183

MP2 TOTAL ENERGY:     -475.518729550 Eh
FINAL SINGLE POINT ENERGY      -475.518729549783

DIPOLE MOMENT
-------------
                                X             Y             Z
Electronic contribution:      3.65421       0.47678      -0.85167
Nuclear contribution   :     -3.85415       0.68872       2.32977
                        -----------------------------------------
Total Dipole Moment    :     -0.19994       1.16550       1.47811
                        -----------------------------------------
Magnitude (a.u.)       :      1.89293
Magnitude (Debye)      :      4.81143

                             ****ORCA TERMINATED NORMALLY****
TOTAL RUN TIME: 0 days 0 hours 17 minutes 7 seconds 892 msec
