                         Program Version 3.0.3 - RELEASE   -
|  1> ! RI-MP2 RIJK def2-TZVP def2-TZVP/C def2-TZVP/JK TIGHTSCF
|  2> % maxcore 2000
|  3> % mp2 density relaxed end
|  4> *xyz 0 1
|  5>  O       -0.6300496489     1.3617961913     0.7707505040
|  6>  C        0.1929305314     0.9408538158    -0.0024175164
|  7>  C        1.5152409278     1.6324210905    -0.2518864657
|  8>  O        2.3644852196     0.9200504114    -1.1649683189
|  9>  C        2.4307979444     2.0380570719    -2.0879250114
| 10>  C        1.4567441425     2.8282911942    -1.2215015398
| 11>  C        0.3093910481     3.6966296534    -1.5526492127
| 12>  N        1.5318254373     4.2396981106    -0.9204609319
| 13>  H        0.0304970422     0.0320861393    -0.6233118966
| 14>  H        2.0062242472     1.8516590948     0.7070541657
| 15>  H        3.4377039378     2.4673129266    -2.1446640925
| 16>  H        2.0874996063     1.7596502744    -3.0906567621
| 17>  H        0.1472683341     4.0158474006    -2.5785755101
| 18>  H       -0.5896768172     3.5939036429    -0.9511760515
| 19>  H        1.3780448773     4.4075090524     0.0713440500
| 20> *
| 21>
| 22>                          ****END OF INPUT****

CARTESIAN COORDINATES (ANGSTROEM)
---------------------------------
  O     -0.630050    1.361796    0.770751
  C      0.192931    0.940854   -0.002418
  C      1.515241    1.632421   -0.251886
  O      2.364485    0.920050   -1.164968
  C      2.430798    2.038057   -2.087925
  C      1.456744    2.828291   -1.221502
  C      0.309391    3.696630   -1.552649
  N      1.531825    4.239698   -0.920461
  H      0.030497    0.032086   -0.623312
  H      2.006224    1.851659    0.707054
  H      3.437704    2.467313   -2.144664
  H      2.087500    1.759650   -3.090657
  H      0.147268    4.015847   -2.578576
  H     -0.589677    3.593904   -0.951176
  H      1.378045    4.407509    0.071344

 Total Charge           Charge          ....    0
 Multiplicity           Mult            ....    1
 Number of Electrons    NEL             ....   60
 Basis Dimension        Dim             ....  290

ORBITAL ENERGIES
----------------

  NO   OCC          E(Eh)            E(eV)
   0   2.0000     -20.575403      -559.8852
   1   2.0000     -20.572171      -559.7972
   2   2.0000     -15.578372      -423.9090
   3   2.0000     -11.344429      -308.6976
   4   2.0000     -11.311014      -307.7883
   5   2.0000     -11.297081      -307.4092
   6   2.0000     -11.292721      -307.2906
   7   2.0000     -11.273533      -306.7684
   8   2.0000      -1.416880       -38.5553
   9   2.0000      -1.402009       -38.1506
  10   2.0000      -1.282337       -34.8942
  11   2.0000      -1.007872       -27.4256
  12   2.0000      -0.979312       -26.6484
  13   2.0000      -0.901142       -24.5213
  14   2.0000      -0.840081       -22.8598
  15   2.0000      -0.766672       -20.8622
  16   2.0000      -0.725425       -19.7398
  17   2.0000      -0.695065       -18.9137
  18   2.0000      -0.681306       -18.5393
  19   2.0000      -0.656665       -17.8688
  20   2.0000      -0.613937       -16.7061
  21   2.0000      -0.598347       -16.2818
  22   2.0000      -0.572421       -15.5764
  23   2.0000      -0.549249       -14.9458
  24   2.0000      -0.513461       -13.9720
  25   2.0000      -0.498055       -13.5528
  26   2.0000      -0.475158       -12.9297
  27   2.0000      -0.450467       -12.2578
  28   2.0000      -0.436516       -11.8782
  29   2.0000      -0.397640       -10.8203
  30   0.0000       0.108347         2.9483
  31   0.0000       0.140113         3.8127
  32   0.0000       0.156555         4.2601
  33   0.0000       0.160455         4.3662
  34   0.0000       0.181619         4.9421

MULLIKEN ATOMIC CHARGES
-----------------------
   0 O :   -0.272668
   1 C :    0.054834
   2 C :    0.170981
   3 O :   -0.333336
   4 C :    0.001400
   5 C :   -0.041691
   6 C :   -0.177126
   7 N :   -0.358077
   8 H :    0.101896
   9 H :    0.114013
  10 H :    0.110092
  11 H :    0.110834
  12 H :    0.131245
  13 H :    0.155595
  14 H :    0.232008
Sum of atomic charges:   -0.0000000

LOEWDIN ATOMIC CHARGES
----------------------
   0 O :    0.136333
   1 C :   -0.267605
   2 C :   -0.253587
   3 O :    0.146510
   4 C :   -0.213825
   5 C :   -0.285091
   6 C :   -0.231223
   7 N :    0.018053
   8 H :    0.117189
   9 H :    0.150036
  10 H :    0.126762
  11 H :    0.123427
  12 H :    0.129169
  13 H :    0.130924
  14 H :    0.172926

  Mayer bond orders larger than 0.1
B(  0-O ,  1-C ) :   1.9560 B(  1-C ,  2-C ) :   0.8414 B(  1-C ,  8-H ) :   0.9291
B(  2-C ,  3-O ) :   0.9660 B(  2-C ,  5-C ) :   0.9364 B(  2-C ,  9-H ) :   0.8830
B(  3-O ,  4-C ) :   0.9324 B(  4-C ,  5-C ) :   0.9501 B(  4-C , 10-H ) :   0.9057
B(  4-C , 11-H ) :   0.9203 B(  5-C ,  6-C ) :   0.9200 B(  5-C ,  7-N ) :   0.9548
B(  6-C ,  7-N ) :   0.9368 B(  6-C , 12-H ) :   0.9132 B(  6-C , 13-H ) :   0.9121
B(  7-N , 14-H ) :   0.8652

MP2 TOTAL ENERGY:     -399.092313422 Eh
FINAL SINGLE POINT ENERGY      -399.092313421848

DIPOLE MOMENT
-------------
                                X             Y             Z
Electronic contribution:     -0.45104      -2.42305       2.49296
Nuclear contribution   :      0.49454       2.59362      -2.87450
                        -----------------------------------------
Total Dipole Moment    :      0.04349       0.17057      -0.38154
                        -----------------------------------------
Magnitude (a.u.)       :      0.42019
Magnitude (Debye)      :      1.06804

                             ****ORCA TERMINATED NORMALLY****
TOTAL RUN TIME: 0 days 0 hours 11 minutes 31 seconds 488 msec
