                         Program Version 3.0.3 - RELEASE   -
|  1> ! RI-MP2 RIJK def2-TZVP def2-TZVP/C def2-TZVP/JK TIGHTSCF
|  2> % maxcore 2000
|  3> % mp2 density relaxed end
|  4> *xyz 0 1
|  5>  C        0.4282758760     1.6010221833    -0.0879229972
|  6>  C       -0.0229552284     0.1434329021    -0.0477272373
|  7>  O        0.4500943424    -0.4529054604    -1.2532538403
|  8>  C       -0.1215006058    -1.6795005079    -1.6078196510
|  9>  O        0.4477474999    -2.7898155241    -0.9712957162
| 10>  C       -0.0102316336    -3.0361414977     0.3469927825
| 11>  C        0.4815070198    -2.0554138595     1.3947887583
| 12>  C        1.7836603458    -1.3089394246     1.2366911781
| 13>  C        0.4726223068    -0.5572934024     1.2103960293
| 14>  H        1.5206996944     1.6574580752    -0.0803325064
| 15>  H        0.0619237898     2.0848713323    -0.9969788900
| 16>  H        0.0463333102     2.1487312105     0.7785266522
| 17>  H       -1.1270067998     0.1117801552    -0.0563130195
| 18>  H       -1.2121615950    -1.6572734415    -1.4271695714
| 19>  H        0.0837936229    -1.8100452968    -2.6731845964
| 20>  H       -1.1132886088    -3.0723101844     0.3569341327
| 21>  H        0.3506214461    -4.0403135768     0.5955211780
| 22>  H        0.2393897110    -2.3941349590     2.4001898698
| 23>  H        2.4345666893    -1.1997682939     2.0968076254
| 24>  H        2.2887915722    -1.4245130919     0.2850535503
| 25>  H        0.2286374547     0.0087626622     2.1066148289
| 26> *
| 27>
| 28>                          ****END OF INPUT****

CARTESIAN COORDINATES (ANGSTROEM)
---------------------------------
  C      0.428276    1.601022   -0.087923
  C     -0.022955    0.143433   -0.047727
  O      0.450094   -0.452905   -1.253254
  C     -0.121501   -1.679501   -1.607820
  O      0.447747   -2.789816   -0.971296
  C     -0.010232   -3.036141    0.346993
  C      0.481507   -2.055414    1.394789
  C      1.783660   -1.308939    1.236691
  C      0.472622   -0.557293    1.210396
  H      1.520700    1.657458   -0.080333
  H      0.061924    2.084871   -0.996979
  H      0.046333    2.148731    0.778527
  H     -1.127007    0.111780   -0.056313
  H     -1.212162   -1.657273   -1.427170
  H      0.083794   -1.810045   -2.673185
  H     -1.113289   -3.072310    0.356934
  H      0.350621   -4.040314    0.595521
  H      0.239390   -2.394135    2.400190
  H      2.434567   -1.199768    2.096808
  H      2.288792   -1.424513    0.285054
  H      0.228637    0.008763    2.106615

 Total Charge           Charge          ....    0
 Multiplicity           Mult            ....    1
 Number of Electrons    NEL             ....   70
 Basis Dimension        Dim             ....  351

ORBITAL ENERGIES
----------------

  NO   OCC          E(Eh)            E(eV)
   0   2.0000     -20.558013      -559.4120
   1   2.0000     -20.556283      -559.3649
   2   2.0000     -11.324849      -308.1648
   3   2.0000     -11.285633      -307.0977
   4   2.0000     -11.279788      -306.9386
   5   2.0000     -11.231927      -305.6363
   6   2.0000     -11.230111      -305.5869
   7   2.0000     -11.219347      -305.2939
   8   2.0000     -11.213197      -305.1266
   9   2.0000      -1.414036       -38.4779
  10   2.0000      -1.348664       -36.6990
  11   2.0000      -1.149639       -31.2833
  12   2.0000      -1.026966       -27.9452
  13   2.0000      -0.974175       -26.5087
  14   2.0000      -0.890116       -24.2213
  15   2.0000      -0.863461       -23.4960
  16   2.0000      -0.781520       -21.2662
  17   2.0000      -0.760848       -20.7037
  18   2.0000      -0.700227       -19.0541
  19   2.0000      -0.691435       -18.8149
  20   2.0000      -0.685955       -18.6658
  21   2.0000      -0.651211       -17.7203
  22   2.0000      -0.606309       -16.4985
  23   2.0000      -0.588764       -16.0211
  24   2.0000      -0.562371       -15.3029
  25   2.0000      -0.549541       -14.9538
  26   2.0000      -0.539620       -14.6838
  27   2.0000      -0.523387       -14.2421
  28   2.0000      -0.517347       -14.0777
  29   2.0000      -0.491357       -13.3705
  30   2.0000      -0.472533       -12.8583
  31   2.0000      -0.449891       -12.2422
  32   2.0000      -0.433248       -11.7893
  33   2.0000      -0.402457       -10.9514
  34   2.0000      -0.397513       -10.8169
  35   0.0000       0.136640         3.7182
  36   0.0000       0.156096         4.2476
  37   0.0000       0.164866         4.4862
  38   0.0000       0.179183         4.8758
  39   0.0000       0.193859         5.2752

MULLIKEN ATOMIC CHARGES
-----------------------
   0 C :   -0.392897
   1 C :    0.110336
   2 O :   -0.298674
   3 C :    0.037296
   4 O :   -0.302755
   5 C :   -0.049850
   6 C :   -0.099766
   7 C :   -0.300620
   8 C :   -0.124886
   9 H :    0.137827
  10 H :    0.137033
  11 H :    0.121093
  12 H :    0.072947
  13 H :    0.089760
  14 H :    0.124526
  15 H :    0.098679
  16 H :    0.124704
  17 H :    0.114515
  18 H :    0.131841
  19 H :    0.154517
  20 H :    0.114375
Sum of atomic charges:    0.0000000

LOEWDIN ATOMIC CHARGES
----------------------
   0 C :   -0.285529
   1 C :   -0.328939
   2 O :    0.189578
   3 C :   -0.406410
   4 O :    0.166027
   5 C :   -0.304169
   6 C :   -0.219142
   7 C :   -0.199323
   8 C :   -0.197680
   9 H :    0.129421
  10 H :    0.125528
  11 H :    0.124903
  12 H :    0.137573
  13 H :    0.105999
  14 H :    0.123460
  15 H :    0.123568
  16 H :    0.135739
  17 H :    0.152166
  18 H :    0.129428
  19 H :    0.143994
  20 H :    0.153810

  Mayer bond orders larger than 0.1
B(  0-C ,  1-C ) :   0.9119 B(  0-C ,  9-H ) :   0.9399 B(  0-C , 10-H ) :   0.9387
B(  0-C , 11-H ) :   0.9329 B(  1-C ,  2-O ) :   0.9004 B(  1-C ,  8-C ) :   0.9180
B(  1-C , 12-H ) :   0.9414 B(  2-O ,  3-C ) :   0.9834 B(  3-C ,  4-O ) :   0.9804
B(  3-C , 13-H ) :   0.9360 B(  3-C , 14-H ) :   0.9339 B(  4-O ,  5-C ) :   0.9181
B(  5-C ,  6-C ) :   0.9278 B(  5-C , 15-H ) :   0.9443 B(  5-C , 16-H ) :   0.9302
B(  6-C ,  7-C ) :   0.8853 B(  6-C ,  8-C ) :   0.8718 B(  6-C , 17-H ) :   0.9175
B(  7-C ,  8-C ) :   0.8705 B(  7-C , 18-H ) :   0.9272 B(  7-C , 19-H ) :   0.9172
B(  8-C , 20-H ) :   0.9184

MP2 TOTAL ENERGY:     -423.511891994 Eh
FINAL SINGLE POINT ENERGY      -423.511891993603

DIPOLE MOMENT
-------------
                                X             Y             Z
Electronic contribution:      0.61097      -3.53857      -2.80267
Nuclear contribution   :     -1.20745       3.66907       3.39058
                        -----------------------------------------
Total Dipole Moment    :     -0.59648       0.13050       0.58791
                        -----------------------------------------
Magnitude (a.u.)       :      0.84762
Magnitude (Debye)      :      2.15449

                             ****ORCA TERMINATED NORMALLY****
TOTAL RUN TIME: 0 days 0 hours 18 minutes 34 seconds 738 msec
