                         Program Version 3.0.3 - RELEASE   -
|  1> ! RI-MP2 RIJK def2-TZVP def2-TZVP/C def2-TZVP/JK TIGHTSCF
|  2> % maxcore 2000
|  3> % mp2 density relaxed end
|  4> *xyz 0 1
|  5>  N        0.0760568771    -1.1901891413    -0.1793567065
|  6>  C        0.0386337874    -0.0374484961    -0.1184285472
|  7>  C       -0.0131237625     1.4258452362    -0.0153099606
|  8>  N        1.3115065483     1.9958705627     0.0948501213
|  9>  C        2.0763609810     1.7990440836     1.3471547833
| 10>  C        2.6032659049     3.2472127490     1.2023276733
| 11>  C        1.4183300319     3.4644522384     0.2305655213
| 12>  H       -0.4965662213     1.8182649494    -0.9181640096
| 13>  H       -0.6712505434     1.6821448602     0.8390259505
| 14>  H        1.4287861824     1.6815681687     2.2315062201
| 15>  H        2.7925606801     0.9735912830     1.3204373581
| 16>  H        2.6266730954     3.8607308686     2.1024729345
| 17>  H        3.5708171933     3.2941032016     0.7006487673
| 18>  H        1.5983452094     3.9989420237    -0.7073455619
| 19>  H        0.5489215160     3.9154316922     0.7375080962
| 20> *
| 21>
| 22>                          ****END OF INPUT****

CARTESIAN COORDINATES (ANGSTROEM)
---------------------------------
  N      0.076057   -1.190189   -0.179357
  C      0.038634   -0.037448   -0.118429
  C     -0.013124    1.425845   -0.015310
  N      1.311507    1.995871    0.094850
  C      2.076361    1.799044    1.347155
  C      2.603266    3.247213    1.202328
  C      1.418330    3.464452    0.230566
  H     -0.496566    1.818265   -0.918164
  H     -0.671251    1.682145    0.839026
  H      1.428786    1.681568    2.231506
  H      2.792561    0.973591    1.320437
  H      2.626673    3.860731    2.102473
  H      3.570817    3.294103    0.700649
  H      1.598345    3.998942   -0.707346
  H      0.548922    3.915432    0.737508

 Total Charge           Charge          ....    0
 Multiplicity           Mult            ....    1
 Number of Electrons    NEL             ....   52
 Basis Dimension        Dim             ....  265

ORBITAL ENERGIES
----------------

  NO   OCC          E(Eh)            E(eV)
   0   2.0000     -15.571905      -423.7331
   1   2.0000     -15.569346      -423.6634
   2   2.0000     -11.309382      -307.7439
   3   2.0000     -11.271526      -306.7138
   4   2.0000     -11.271064      -306.7012
   5   2.0000     -11.267164      -306.5951
   6   2.0000     -11.240499      -305.8695
   7   2.0000      -1.276352       -34.7313
   8   2.0000      -1.215111       -33.0648
   9   2.0000      -1.069359       -29.0987
  10   2.0000      -0.935866       -25.4662
  11   2.0000      -0.930675       -25.3249
  12   2.0000      -0.780715       -21.2443
  13   2.0000      -0.717506       -19.5243
  14   2.0000      -0.690249       -18.7826
  15   2.0000      -0.678238       -18.4558
  16   2.0000      -0.632507       -17.2114
  17   2.0000      -0.571228       -15.5439
  18   2.0000      -0.561795       -15.2872
  19   2.0000      -0.532929       -14.5017
  20   2.0000      -0.531114       -14.4524
  21   2.0000      -0.500144       -13.6096
  22   2.0000      -0.477176       -12.9846
  23   2.0000      -0.460771       -12.5382
  24   2.0000      -0.456626       -12.4254
  25   2.0000      -0.385993       -10.5034
  26   0.0000       0.122355         3.3295
  27   0.0000       0.141869         3.8604
  28   0.0000       0.160199         4.3592
  29   0.0000       0.169466         4.6114
  30   0.0000       0.171653         4.6709

MULLIKEN ATOMIC CHARGES
-----------------------
   0 N :   -0.059197
   1 C :   -0.147636
   2 C :   -0.101004
   3 N :   -0.131535
   4 C :   -0.179726
   5 C :   -0.208472
   6 C :   -0.173149
   7 H :    0.157857
   8 H :    0.134952
   9 H :    0.100266
  10 H :    0.133826
  11 H :    0.127357
  12 H :    0.124740
  13 H :    0.123773
  14 H :    0.097950
Sum of atomic charges:    0.0000000

LOEWDIN ATOMIC CHARGES
----------------------
   0 N :    0.062499
   1 C :   -0.183027
   2 C :   -0.288452
   3 N :    0.091856
   4 C :   -0.246444
   5 C :   -0.239605
   6 C :   -0.251431
   7 H :    0.160607
   8 H :    0.143207
   9 H :    0.121984
  10 H :    0.124748
  11 H :    0.126562
  12 H :    0.135870
  13 H :    0.121296
  14 H :    0.120329

  Mayer bond orders larger than 0.1
B(  0-N ,  1-C ) :   2.8664 B(  1-C ,  2-C ) :   0.9246 B(  2-C ,  3-N ) :   0.9602
B(  2-C ,  7-H ) :   0.9008 B(  2-C ,  8-H ) :   0.9128 B(  3-N ,  4-C ) :   0.9096
B(  3-N ,  6-C ) :   0.9152 B(  4-C ,  5-C ) :   0.9392 B(  4-C ,  9-H ) :   0.9190
B(  4-C , 10-H ) :   0.9259 B(  5-C ,  6-C ) :   0.9416 B(  5-C , 11-H ) :   0.9326
B(  5-C , 12-H ) :   0.9229 B(  6-C , 13-H ) :   0.9226 B(  6-C , 14-H ) :   0.9226

MP2 TOTAL ENERGY:     -304.144397125 Eh
FINAL SINGLE POINT ENERGY      -304.144397125061

DIPOLE MOMENT
-------------
                                X             Y             Z
Electronic contribution:     -2.53390      -6.36739      -2.57890
Nuclear contribution   :      2.53265       8.06548       3.02612
                        -----------------------------------------
Total Dipole Moment    :     -0.00125       1.69809       0.44722
                        -----------------------------------------
Magnitude (a.u.)       :      1.75600
Magnitude (Debye)      :      4.46339

                             ****ORCA TERMINATED NORMALLY****
TOTAL RUN TIME: 0 days 0 hours 8 minutes 5 seconds 21 msec
