                         Program Version 3.0.3 - RELEASE   -
|  1> ! RI-MP2 RIJK def2-TZVP def2-TZVP/C def2-TZVP/JK TIGHTSCF
|  2> % maxcore 2000
|  3> % mp2 density relaxed end
|  4> *xyz 0 1
|  5>  C       -0.0211732818     1.5785581274     0.0158987438
|  6>  C       -0.0097986036     0.0856426111     0.0804057679
|  7>  C        1.1537489679    -0.7790594990    -0.3642189550
|  8>  O        2.4045964367    -0.1660044468    -0.4251695482
|  9>  C        0.5982713732    -0.9434317227     1.0378577092
| 10>  O        1.4307389992    -0.7282529810     2.1335616962
| 11>  C       -0.7004477436    -1.6857861182     0.9996086433
| 12>  C       -1.8431660765    -0.7893266529     1.2906978421
| 13>  N       -1.2505814556    -0.7187291368    -0.0572752301
| 14>  H        1.0022239593     1.9597572093     0.0494535475
| 15>  H       -0.4727779386     1.9032364772    -0.9281876935
| 16>  H       -0.5895469978     2.0273978123     0.8366614705
| 17>  H        1.0116556079    -1.5353947861    -1.1345867263
| 18>  H        2.7097701886    -0.0667539191     0.4874169820
| 19>  H        1.9003484777    -1.5504336873     2.3245792457
| 20>  H       -0.8173189596    -2.7583633563     0.8766611473
| 21>  H       -2.8328355850    -1.2357141408     1.2902559897
| 22>  H       -1.7117234984     0.0456483196     1.9740348677
| 23> *
| 24>
| 25>                          ****END OF INPUT****

CARTESIAN COORDINATES (ANGSTROEM)
---------------------------------
  C     -0.021173    1.578558    0.015899
  C     -0.009799    0.085643    0.080406
  C      1.153749   -0.779059   -0.364219
  O      2.404596   -0.166004   -0.425170
  C      0.598271   -0.943432    1.037858
  O      1.430739   -0.728253    2.133562
  C     -0.700448   -1.685786    0.999609
  C     -1.843166   -0.789327    1.290698
  N     -1.250581   -0.718729   -0.057275
  H      1.002224    1.959757    0.049454
  H     -0.472778    1.903236   -0.928188
  H     -0.589547    2.027398    0.836661
  H      1.011656   -1.535395   -1.134587
  H      2.709770   -0.066754    0.487417
  H      1.900348   -1.550434    2.324579
  H     -0.817319   -2.758363    0.876661
  H     -2.832836   -1.235714    1.290256
  H     -1.711723    0.045648    1.974035

 Total Charge           Charge          ....    0
 Multiplicity           Mult            ....    1
 Number of Electrons    NEL             ....   68
 Basis Dimension        Dim             ....  333

ORBITAL ENERGIES
----------------

  NO   OCC          E(Eh)            E(eV)
   0   2.0000     -20.592655      -560.3546
   1   2.0000     -20.564041      -559.5760
   2   2.0000     -15.575224      -423.8234
   3   2.0000     -11.300098      -307.4913
   4   2.0000     -11.286652      -307.1254
   5   2.0000     -11.274109      -306.7841
   6   2.0000     -11.269503      -306.6588
   7   2.0000     -11.265717      -306.5557
   8   2.0000     -11.221876      -305.3628
   9   2.0000      -1.409396       -38.3516
  10   2.0000      -1.369064       -37.2541
  11   2.0000      -1.309717       -35.6392
  12   2.0000      -1.098718       -29.8976
  13   2.0000      -0.991484       -26.9796
  14   2.0000      -0.911136       -24.7933
  15   2.0000      -0.860858       -23.4251
  16   2.0000      -0.821026       -22.3412
  17   2.0000      -0.747758       -20.3475
  18   2.0000      -0.723179       -19.6787
  19   2.0000      -0.696720       -18.9587
  20   2.0000      -0.667482       -18.1631
  21   2.0000      -0.638393       -17.3716
  22   2.0000      -0.614919       -16.7328
  23   2.0000      -0.588446       -16.0124
  24   2.0000      -0.576024       -15.6744
  25   2.0000      -0.558737       -15.2040
  26   2.0000      -0.554097       -15.0777
  27   2.0000      -0.531152       -14.4534
  28   2.0000      -0.510993       -13.9048
  29   2.0000      -0.496002       -13.4969
  30   2.0000      -0.449002       -12.2180
  31   2.0000      -0.415726       -11.3125
  32   2.0000      -0.389052       -10.5866
  33   2.0000      -0.364454        -9.9173
  34   0.0000       0.120733         3.2853
  35   0.0000       0.154149         4.1946
  36   0.0000       0.168622         4.5885
  37   0.0000       0.178083         4.8459
  38   0.0000       0.193767         5.2727

MULLIKEN ATOMIC CHARGES
-----------------------
   0 C :   -0.402114
   1 C :    0.052022
   2 C :    0.043941
   3 O :   -0.472040
   4 C :    0.130808
   5 O :   -0.471776
   6 C :   -0.137552
   7 C :   -0.140993
   8 N :   -0.223446
   9 H :    0.139001
  10 H :    0.148130
  11 H :    0.130474
  12 H :    0.132675
  13 H :    0.332315
  14 H :    0.334849
  15 H :    0.137849
  16 H :    0.131849
  17 H :    0.134008
Sum of atomic charges:    0.0000000

LOEWDIN ATOMIC CHARGES
----------------------
   0 C :   -0.265822
   1 C :   -0.245995
   2 C :   -0.260274
   3 O :    0.008766
   4 C :   -0.318982
   5 O :    0.021394
   6 C :   -0.180363
   7 C :   -0.231726
   8 N :    0.159990
   9 H :    0.137428
  10 H :    0.138001
  11 H :    0.127631
  12 H :    0.138851
  13 H :    0.180754
  14 H :    0.188929
  15 H :    0.135828
  16 H :    0.134028
  17 H :    0.131563

  Mayer bond orders larger than 0.1
B(  0-C ,  1-C ) :   0.9180 B(  0-C ,  9-H ) :   0.9240 B(  0-C , 10-H ) :   0.9342
B(  0-C , 11-H ) :   0.9325 B(  1-C ,  2-C ) :   0.8061 B(  1-C ,  4-C ) :   0.8133
B(  1-C ,  8-N ) :   0.8898 B(  2-C ,  3-O ) :   0.9482 B(  2-C ,  4-C ) :   0.9325
B(  2-C , 12-H ) :   0.9195 B(  3-O , 13-H ) :   0.8187 B(  4-C ,  5-O ) :   1.0053
B(  4-C ,  6-C ) :   1.0252 B(  5-O , 14-H ) :   0.8275 B(  6-C ,  7-C ) :   0.9360
B(  6-C ,  8-N ) :   0.8836 B(  6-C , 15-H ) :   0.8953 B(  7-C ,  8-N ) :   0.8774
B(  7-C , 16-H ) :   0.9300 B(  7-C , 17-H ) :   0.9011

MP2 TOTAL ENERGY:     -438.296494487 Eh
FINAL SINGLE POINT ENERGY      -438.296494487352

DIPOLE MOMENT
-------------
                                X             Y             Z
Electronic contribution:      2.05173      -3.07290       0.05939
Nuclear contribution   :     -2.04113       2.58303       0.83549
                        -----------------------------------------
Total Dipole Moment    :      0.01059      -0.48987       0.89488
                        -----------------------------------------
Magnitude (a.u.)       :      1.02024
Magnitude (Debye)      :      2.59324

                             ****ORCA TERMINATED NORMALLY****
TOTAL RUN TIME: 0 days 0 hours 17 minutes 22 seconds 36 msec
