                         Program Version 3.0.3 - RELEASE   -
|  1> ! RI-MP2 RIJK def2-TZVP def2-TZVP/C def2-TZVP/JK TIGHTSCF
|  2> % maxcore 2000
|  3> % mp2 density relaxed end
|  4> *xyz 0 1
|  5>  C        0.3847708981     0.7771932535    -0.4791863653
|  6>  O       -0.5325000958     0.6045772554     0.6047777732
|  7>  C       -1.5018428845    -0.3142426169     0.3820290803
|  8>  C       -1.4621481668    -1.6410459019     0.0029500193
|  9>  O       -0.3730475330    -2.4100643194    -0.3671384300
| 10>  C       -2.8059832647    -2.1149504575    -0.0185909659
| 11>  O       -3.1777236080    -3.3804221342    -0.3565400897
| 12>  C       -3.6280866972    -1.0849750060     0.3637434425
| 13>  N       -2.8091862360     0.0129154833     0.6003310967
| 14>  H        1.1237757466     1.5067920776    -0.1425526349
| 15>  H        0.8796380019    -0.1658944688    -0.7308111151
| 16>  H       -0.1313074686     1.1583242931    -1.3686620176
| 17>  H        0.1211618948    -2.6482208523     0.4251070575
| 18>  H       -2.3723856595    -3.8346187688    -0.6328579167
| 19>  H       -4.6949104533    -1.0366701450     0.4905342851
| 20>  H       -3.1092751540     0.9179211880     0.9147635605
| 21> *
| 22>
| 23>                          ****END OF INPUT****

CARTESIAN COORDINATES (ANGSTROEM)
---------------------------------
  C      0.384771    0.777193   -0.479186
  O     -0.532500    0.604577    0.604778
  C     -1.501843   -0.314243    0.382029
  C     -1.462148   -1.641046    0.002950
  O     -0.373048   -2.410064   -0.367138
  C     -2.805983   -2.114950   -0.018591
  O     -3.177724   -3.380422   -0.356540
  C     -3.628087   -1.084975    0.363743
  N     -2.809186    0.012915    0.600331
  H      1.123776    1.506792   -0.142553
  H      0.879638   -0.165894   -0.730811
  H     -0.131307    1.158324   -1.368662
  H      0.121162   -2.648221    0.425107
  H     -2.372386   -3.834619   -0.632858
  H     -4.694910   -1.036670    0.490534
  H     -3.109275    0.917921    0.914764

 Total Charge           Charge          ....    0
 Multiplicity           Mult            ....    1
 Number of Electrons    NEL             ....   68
 Basis Dimension        Dim             ....  321

ORBITAL ENERGIES
----------------

  NO   OCC          E(Eh)            E(eV)
   0   2.0000     -20.590918      -560.3074
   1   2.0000     -20.585796      -560.1680
   2   2.0000     -20.573512      -559.8337
   3   2.0000     -15.599054      -424.4719
   4   2.0000     -11.316495      -307.9375
   5   2.0000     -11.285629      -307.0976
   6   2.0000     -11.273765      -306.7747
   7   2.0000     -11.263756      -306.5024
   8   2.0000     -11.236373      -305.7573
   9   2.0000      -1.422371       -38.7047
  10   2.0000      -1.397245       -38.0210
  11   2.0000      -1.378087       -37.4997
  12   2.0000      -1.278427       -34.7878
  13   2.0000      -1.033988       -28.1362
  14   2.0000      -0.989903       -26.9366
  15   2.0000      -0.926838       -25.2205
  16   2.0000      -0.806805       -21.9543
  17   2.0000      -0.789058       -21.4713
  18   2.0000      -0.754896       -20.5418
  19   2.0000      -0.702307       -19.1107
  20   2.0000      -0.689322       -18.7574
  21   2.0000      -0.656313       -17.8592
  22   2.0000      -0.642984       -17.4965
  23   2.0000      -0.622840       -16.9483
  24   2.0000      -0.606044       -16.4913
  25   2.0000      -0.589379       -16.0378
  26   2.0000      -0.578372       -15.7383
  27   2.0000      -0.554063       -15.0768
  28   2.0000      -0.540410       -14.7053
  29   2.0000      -0.529525       -14.4091
  30   2.0000      -0.492345       -13.3974
  31   2.0000      -0.456414       -12.4196
  32   2.0000      -0.328504        -8.9390
  33   2.0000      -0.280881        -7.6432
  34   0.0000       0.124914         3.3991
  35   0.0000       0.143337         3.9004
  36   0.0000       0.161783         4.4023
  37   0.0000       0.181550         4.9402
  38   0.0000       0.194279         5.2866

MULLIKEN ATOMIC CHARGES
-----------------------
   0 C :   -0.193323
   1 O :   -0.308552
   2 C :    0.157335
   3 C :    0.076971
   4 O :   -0.510359
   5 C :    0.137968
   6 O :   -0.451701
   7 C :   -0.152269
   8 N :   -0.242043
   9 H :    0.139874
  10 H :    0.138454
  11 H :    0.123281
  12 H :    0.349889
  13 H :    0.338688
  14 H :    0.146687
  15 H :    0.249099
Sum of atomic charges:   -0.0000000

LOEWDIN ATOMIC CHARGES
----------------------
   0 C :   -0.314907
   1 O :    0.200341
   2 C :   -0.352664
   3 C :   -0.303402
   4 O :    0.019762
   5 C :   -0.312388
   6 O :    0.055443
   7 C :   -0.228458
   8 N :    0.189477
   9 H :    0.112897
  10 H :    0.110003
  11 H :    0.108086
  12 H :    0.192982
  13 H :    0.195738
  14 H :    0.133746
  15 H :    0.193342

  Mayer bond orders larger than 0.1
B(  0-C ,  1-O ) :   0.8493 B(  0-C ,  9-H ) :   0.9375 B(  0-C , 10-H ) :   0.9331
B(  0-C , 11-H ) :   0.9327 B(  1-O ,  2-C ) :   1.1003 B(  2-C ,  3-C ) :   1.3844
B(  2-C ,  8-N ) :   1.1539 B(  3-C ,  4-O ) :   0.9781 B(  3-C ,  5-C ) :   1.1851
B(  4-O , 12-H ) :   0.8308 B(  5-C ,  6-O ) :   1.0933 B(  5-C ,  7-C ) :   1.5190
B(  6-O , 13-H ) :   0.8268 B(  7-C ,  8-N ) :   1.0558 B(  7-C , 14-H ) :   0.9141
B(  8-N , 15-H ) :   0.8649

MP2 TOTAL ENERGY:     -474.272972898 Eh
FINAL SINGLE POINT ENERGY      -474.272972897928

DIPOLE MOMENT
-------------
                                X             Y             Z
Electronic contribution:     -2.95834      -2.62158       1.62204
Nuclear contribution   :      3.58238       3.22438      -1.41233
                        -----------------------------------------
Total Dipole Moment    :      0.62404       0.60280       0.20970
                        -----------------------------------------
Magnitude (a.u.)       :      0.89262
Magnitude (Debye)      :      2.26886

                             ****ORCA TERMINATED NORMALLY****
TOTAL RUN TIME: 0 days 0 hours 14 minutes 25 seconds 442 msec
