                         Program Version 3.0.3 - RELEASE   -
|  1> ! RI-MP2 RIJK def2-TZVP def2-TZVP/C def2-TZVP/JK TIGHTSCF
|  2> % maxcore 2000
|  3> % mp2 density relaxed end
|  4> *xyz 0 1
|  5>  C       -0.1155033002     1.6562511294     0.0028009097
|  6>  C        0.0234198454     0.1443448923     0.0028515515
|  7>  C        1.1711029687    -0.5803805306    -0.7847187346
|  8>  C        2.4205698452    -0.0373553226    -0.1010670272
|  9>  C        2.1018052766    -0.0682611893     1.1986947411
| 10>  C        0.6763175699    -0.6296602052     1.2185641681
| 11>  C       -0.0411876079    -0.8447312800     2.5301483426
| 12>  C        0.8990142010    -1.8028086227     0.1901453110
| 13>  O       -0.2695974597    -2.5555714529    -0.0185337742
| 14>  H        0.8277402737     2.1545403572     0.2414012983
| 15>  H       -0.4501197920     2.0129767409    -0.9779930388
| 16>  H       -0.8650234363     1.9760085045     0.7358491666
| 17>  H       -0.9347986210    -0.3220809763    -0.2417561041
| 18>  H        1.1607126517    -0.6879753643    -1.8701558173
| 19>  H        3.3469240781     0.2499831280    -0.5787043773
| 20>  H        2.6928397216     0.1914421487     2.0665260460
| 21>  H       -0.2687846050     0.1096198932     3.0181781862
| 22>  H       -0.9822887112    -1.3792045087     2.3711744712
| 23>  H        0.5666216108    -1.4356649615     3.2249903848
| 24>  H        1.7676840990    -2.4445776766     0.3853925064
| 25>  H       -0.0752172186    -3.2459360234    -0.6595066399
| 26> *
| 27>
| 28>                          ****END OF INPUT****

CARTESIAN COORDINATES (ANGSTROEM)
---------------------------------
  C     -0.115503    1.656251    0.002801
  C      0.023420    0.144345    0.002852
  C      1.171103   -0.580381   -0.784719
  C      2.420570   -0.037355   -0.101067
  C      2.101805   -0.068261    1.198695
  C      0.676318   -0.629660    1.218564
  C     -0.041188   -0.844731    2.530148
  C      0.899014   -1.802809    0.190145
  O     -0.269597   -2.555571   -0.018534
  H      0.827740    2.154540    0.241401
  H     -0.450120    2.012977   -0.977993
  H     -0.865023    1.976009    0.735849
  H     -0.934799   -0.322081   -0.241756
  H      1.160713   -0.687975   -1.870156
  H      3.346924    0.249983   -0.578704
  H      2.692840    0.191442    2.066526
  H     -0.268785    0.109620    3.018178
  H     -0.982289   -1.379205    2.371174
  H      0.566622   -1.435665    3.224990
  H      1.767684   -2.444578    0.385393
  H     -0.075217   -3.245936   -0.659507

 Total Charge           Charge          ....    0
 Multiplicity           Mult            ....    1
 Number of Electrons    NEL             ....   68
 Basis Dimension        Dim             ....  351

ORBITAL ENERGIES
----------------

  NO   OCC          E(Eh)            E(eV)
   0   2.0000     -20.558150      -559.4157
   1   2.0000     -11.281586      -306.9876
   2   2.0000     -11.235946      -305.7456
   3   2.0000     -11.230588      -305.5998
   4   2.0000     -11.222767      -305.3870
   5   2.0000     -11.221478      -305.3519
   6   2.0000     -11.219305      -305.2928
   7   2.0000     -11.208480      -304.9983
   8   2.0000     -11.203192      -304.8543
   9   2.0000      -1.368878       -37.2491
  10   2.0000      -1.187037       -32.3009
  11   2.0000      -1.002895       -27.2902
  12   2.0000      -0.991775       -26.9876
  13   2.0000      -0.949773       -25.8446
  14   2.0000      -0.865656       -23.5557
  15   2.0000      -0.833963       -22.6933
  16   2.0000      -0.741545       -20.1785
  17   2.0000      -0.712604       -19.3910
  18   2.0000      -0.680532       -18.5182
  19   2.0000      -0.656390       -17.8613
  20   2.0000      -0.619371       -16.8539
  21   2.0000      -0.600380       -16.3372
  22   2.0000      -0.574970       -15.6457
  23   2.0000      -0.564596       -15.3634
  24   2.0000      -0.551194       -14.9987
  25   2.0000      -0.539052       -14.6684
  26   2.0000      -0.518483       -14.1086
  27   2.0000      -0.509239       -13.8571
  28   2.0000      -0.478858       -13.0304
  29   2.0000      -0.460516       -12.5313
  30   2.0000      -0.435413       -11.8482
  31   2.0000      -0.421666       -11.4741
  32   2.0000      -0.399678       -10.8758
  33   2.0000      -0.330724        -8.9995
  34   0.0000       0.136531         3.7152
  35   0.0000       0.143000         3.8912
  36   0.0000       0.150627         4.0988
  37   0.0000       0.165104         4.4927
  38   0.0000       0.178837         4.8664

MULLIKEN ATOMIC CHARGES
-----------------------
   0 C :   -0.431614
   1 C :   -0.043249
   2 C :   -0.039029
   3 C :   -0.250081
   4 C :   -0.256944
   5 C :    0.175195
   6 C :   -0.442057
   7 C :    0.014836
   8 O :   -0.463969
   9 H :    0.140797
  10 H :    0.130503
  11 H :    0.129626
  12 H :    0.106991
  13 H :    0.134665
  14 H :    0.127674
  15 H :    0.125312
  16 H :    0.135608
  17 H :    0.152427
  18 H :    0.130923
  19 H :    0.100929
  20 H :    0.321458
Sum of atomic charges:   -0.0000000

LOEWDIN ATOMIC CHARGES
----------------------
   0 C :   -0.298056
   1 C :   -0.182173
   2 C :   -0.162662
   3 C :   -0.132176
   4 C :   -0.112917
   5 C :   -0.210573
   6 C :   -0.273383
   7 C :   -0.253712
   8 O :   -0.002940
   9 H :    0.126634
  10 H :    0.125353
  11 H :    0.125035
  12 H :    0.156258
  13 H :    0.130705
  14 H :    0.132235
  15 H :    0.135036
  16 H :    0.128611
  17 H :    0.132965
  18 H :    0.128356
  19 H :    0.129026
  20 H :    0.178380

  Mayer bond orders larger than 0.1
B(  0-C ,  1-C ) :   0.9002 B(  0-C ,  9-H ) :   0.9387 B(  0-C , 10-H ) :   0.9374
B(  0-C , 11-H ) :   0.9377 B(  1-C ,  2-C ) :   0.9407 B(  1-C ,  5-C ) :   0.9134
B(  1-C , 12-H ) :   0.8919 B(  2-C ,  3-C ) :   0.9096 B(  2-C ,  7-C ) :   0.8707
B(  2-C , 13-H ) :   0.8972 B(  3-C ,  4-C ) :   1.7180 B(  3-C , 14-H ) :   0.9395
B(  4-C ,  5-C ) :   0.9272 B(  4-C , 15-H ) :   0.9438 B(  5-C ,  6-C ) :   0.8219
B(  5-C ,  7-C ) :   0.8618 B(  6-C , 16-H ) :   0.9448 B(  6-C , 17-H ) :   0.9530
B(  6-C , 18-H ) :   0.9380 B(  7-C ,  8-O ) :   1.1128 B(  7-C , 19-H ) :   0.9498
B(  8-O , 20-H ) :   0.8403

MP2 TOTAL ENERGY:     -386.392445986 Eh
FINAL SINGLE POINT ENERGY      -386.392445986334

DIPOLE MOMENT
-------------
                                X             Y             Z
Electronic contribution:      1.93414      -3.88096      -2.21389
Nuclear contribution   :     -1.64667       3.64332       1.91713
                        -----------------------------------------
Total Dipole Moment    :      0.28747      -0.23764      -0.29677
                        -----------------------------------------
Magnitude (a.u.)       :      0.47664
Magnitude (Debye)      :      1.21151

                             ****ORCA TERMINATED NORMALLY****
TOTAL RUN TIME: 0 days 0 hours 22 minutes 29 seconds 713 msec
