                         Program Version 3.0.3 - RELEASE   -
|  1> ! RI-MP2 RIJK def2-TZVP def2-TZVP/C def2-TZVP/JK TIGHTSCF
|  2> % maxcore 2000
|  3> % mp2 density relaxed end
|  4> *xyz 0 1
|  5>  C       -0.1862717448     1.5363077956     0.0610353658
|  6>  C        0.0024521726     0.0215976319    -0.0430698755
|  7>  O        0.6877288998    -0.3430942050    -1.2320695705
|  8>  C        0.7356080922    -0.5552795340     1.1734162624
|  9>  C        0.9169748648    -2.0748898599     1.1601838982
| 10>  C        2.2699204032    -2.2713887479     1.8350895560
| 11>  O        2.7356127662    -3.2845356070     2.2817676859
| 12>  C        2.9346936995    -0.8896954377     1.8575204226
| 13>  O        2.0777317741    -0.0256625008     1.1371299489
| 14>  H        0.7799778530     2.0361401562     0.1776886603
| 15>  H       -0.6687645383     1.9124444613    -0.8442636249
| 16>  H       -0.8100880188     1.7968935211     0.9227638006
| 17>  H       -0.9781423815    -0.4653420333    -0.1065378806
| 18>  H        1.5991822118    -0.0485730597    -1.1075653359
| 19>  H        0.2376528000    -0.2292043343     2.1001255562
| 20>  H        0.1326496128    -2.6416589772     1.6644390781
| 21>  H        0.9911107836    -2.4194271597     0.1214554913
| 22>  H        3.0569669403    -0.5685619606     2.9045488886
| 23>  H        3.9232277393    -0.9084958888     1.3885971426
| 24> *
| 25>
| 26>                          ****END OF INPUT****

CARTESIAN COORDINATES (ANGSTROEM)
---------------------------------
  C     -0.186272    1.536308    0.061035
  C      0.002452    0.021598   -0.043070
  O      0.687729   -0.343094   -1.232070
  C      0.735608   -0.555280    1.173416
  C      0.916975   -2.074890    1.160184
  C      2.269920   -2.271389    1.835090
  O      2.735613   -3.284536    2.281768
  C      2.934694   -0.889695    1.857520
  O      2.077732   -0.025663    1.137130
  H      0.779978    2.036140    0.177689
  H     -0.668765    1.912444   -0.844264
  H     -0.810088    1.796894    0.922764
  H     -0.978142   -0.465342   -0.106538
  H      1.599182   -0.048573   -1.107565
  H      0.237653   -0.229204    2.100126
  H      0.132650   -2.641659    1.664439
  H      0.991111   -2.419427    0.121455
  H      3.056967   -0.568562    2.904549
  H      3.923228   -0.908496    1.388597

 Total Charge           Charge          ....    0
 Multiplicity           Mult            ....    1
 Number of Electrons    NEL             ....   70
 Basis Dimension        Dim             ....  339

ORBITAL ENERGIES
----------------

  NO   OCC          E(Eh)            E(eV)
   0   2.0000     -20.582230      -560.0709
   1   2.0000     -20.559952      -559.4647
   2   2.0000     -20.559414      -559.4501
   3   2.0000     -11.343224      -308.6648
   4   2.0000     -11.302648      -307.5607
   5   2.0000     -11.299265      -307.4686
   6   2.0000     -11.292638      -307.2883
   7   2.0000     -11.246041      -306.0203
   8   2.0000     -11.222388      -305.3767
   9   2.0000      -1.417367       -38.5685
  10   2.0000      -1.397686       -38.0330
  11   2.0000      -1.365026       -37.1442
  12   2.0000      -1.075854       -29.2755
  13   2.0000      -1.038081       -28.2476
  14   2.0000      -0.984420       -26.7874
  15   2.0000      -0.883261       -24.0348
  16   2.0000      -0.813248       -22.1296
  17   2.0000      -0.767511       -20.8850
  18   2.0000      -0.719758       -19.5856
  19   2.0000      -0.698739       -19.0137
  20   2.0000      -0.659720       -17.9519
  21   2.0000      -0.648191       -17.6382
  22   2.0000      -0.623367       -16.9627
  23   2.0000      -0.611650       -16.6438
  24   2.0000      -0.607172       -16.5220
  25   2.0000      -0.587363       -15.9830
  26   2.0000      -0.581123       -15.8132
  27   2.0000      -0.546946       -14.8832
  28   2.0000      -0.536620       -14.6022
  29   2.0000      -0.519682       -14.1413
  30   2.0000      -0.504004       -13.7146
  31   2.0000      -0.484661       -13.1883
  32   2.0000      -0.460148       -12.5213
  33   2.0000      -0.445570       -12.1246
  34   2.0000      -0.407590       -11.0911
  35   0.0000       0.125064         3.4032
  36   0.0000       0.127286         3.4636
  37   0.0000       0.150587         4.0977
  38   0.0000       0.159531         4.3411
  39   0.0000       0.170423         4.6374

MULLIKEN ATOMIC CHARGES
-----------------------
   0 C :   -0.393191
   1 C :    0.135702
   2 O :   -0.476219
   3 C :   -0.047148
   4 C :   -0.178193
   5 C :    0.115581
   6 O :   -0.265279
   7 C :   -0.038935
   8 O :   -0.338919
   9 H :    0.138108
  10 H :    0.146666
  11 H :    0.120066
  12 H :    0.099472
  13 H :    0.323461
  14 H :    0.096970
  15 H :    0.145037
  16 H :    0.156165
  17 H :    0.118245
  18 H :    0.142410
Sum of atomic charges:   -0.0000000

LOEWDIN ATOMIC CHARGES
----------------------
   0 C :   -0.298824
   1 C :   -0.358037
   2 O :   -0.015684
   3 C :   -0.288008
   4 C :   -0.207546
   5 C :   -0.319664
   6 O :    0.160498
   7 C :   -0.280153
   8 O :    0.162287
   9 H :    0.127089
  10 H :    0.127353
  11 H :    0.125275
  12 H :    0.148934
  13 H :    0.178277
  14 H :    0.143097
  15 H :    0.151089
  16 H :    0.167299
  17 H :    0.137047
  18 H :    0.139670

  Mayer bond orders larger than 0.1
B(  0-C ,  1-C ) :   0.9264 B(  0-C ,  9-H ) :   0.9247 B(  0-C , 10-H ) :   0.9412
B(  0-C , 11-H ) :   0.9297 B(  1-C ,  2-O ) :   0.9056 B(  1-C ,  3-C ) :   0.9132
B(  1-C , 12-H ) :   0.9259 B(  2-O ,  3-C ) :   0.1029 B(  2-O , 13-H ) :   0.8253
B(  3-C ,  4-C ) :   0.9223 B(  3-C ,  8-O ) :   0.8995 B(  3-C , 14-H ) :   0.9184
B(  4-C ,  5-C ) :   0.8900 B(  4-C , 15-H ) :   0.9088 B(  4-C , 16-H ) :   0.8797
B(  5-C ,  6-O ) :   2.0261 B(  5-C ,  7-C ) :   0.9196 B(  7-C ,  8-O ) :   0.9386
B(  7-C , 17-H ) :   0.9083 B(  7-C , 18-H ) :   0.9131

MP2 TOTAL ENERGY:     -459.453857082 Eh
FINAL SINGLE POINT ENERGY      -459.453857082258

DIPOLE MOMENT
-------------
                                X             Y             Z
Electronic contribution:      4.58544      -5.82661       1.81387
Nuclear contribution   :     -4.94916       6.53345      -1.51224
                        -----------------------------------------
Total Dipole Moment    :     -0.36373       0.70684       0.30163
                        -----------------------------------------
Magnitude (a.u.)       :      0.85023
Magnitude (Debye)      :      2.16112

                             ****ORCA TERMINATED NORMALLY****
TOTAL RUN TIME: 0 days 0 hours 18 minutes 9 seconds 467 msec
