                         Program Version 3.0.3 - RELEASE   -
|  1> ! RI-MP2 RIJK def2-TZVP def2-TZVP/C def2-TZVP/JK TIGHTSCF
|  2> % maxcore 2000
|  3> % mp2 density relaxed end
|  4> *xyz 0 1
|  5>  C        0.0242915105     1.4342160538     0.0541876147
|  6>  C       -0.0705578302    -0.0524685556     0.0322763086
|  7>  C       -0.0782771830    -0.9202512295    -1.0004588677
|  8>  C       -0.0208786333    -2.2959355925    -0.3548503482
|  9>  C       -0.9942150122    -2.1017180206     0.8495568661
| 10>  C       -0.0172914466    -0.9563339973     1.2614397969
| 11>  C        1.0984736699    -1.9355545084     0.7039965572
| 12>  O        2.2066357787    -2.2582187368     0.9741416342
| 13>  H        0.9428276466     1.7636956531     0.5563492258
| 14>  H        0.0289988844     1.8436978549    -0.9599895666
| 15>  H       -0.8119730404     1.8854978894     0.6020637303
| 16>  H        0.0012627273    -0.7116222482    -2.0581893529
| 17>  H       -0.0015809702    -3.1889660043    -0.9743561983
| 18>  H       -2.0059318441    -1.7831126272     0.5864303260
| 19>  H       -1.0029260514    -2.9432286544     1.5495968734
| 20>  H        0.0088992142    -0.5146861963     2.2551738403
| 21> *
| 22>
| 23>                          ****END OF INPUT****

CARTESIAN COORDINATES (ANGSTROEM)
---------------------------------
  C      0.024292    1.434216    0.054188
  C     -0.070558   -0.052469    0.032276
  C     -0.078277   -0.920251   -1.000459
  C     -0.020879   -2.295936   -0.354850
  C     -0.994215   -2.101718    0.849557
  C     -0.017291   -0.956334    1.261440
  C      1.098474   -1.935555    0.703997
  O      2.206636   -2.258219    0.974142
  H      0.942828    1.763696    0.556349
  H      0.028999    1.843698   -0.959990
  H     -0.811973    1.885498    0.602064
  H      0.001263   -0.711622   -2.058189
  H     -0.001581   -3.188966   -0.974356
  H     -2.005932   -1.783113    0.586430
  H     -1.002926   -2.943229    1.549597
  H      0.008899   -0.514686    2.255174

 Total Charge           Charge          ....    0
 Multiplicity           Mult            ....    1
 Number of Electrons    NEL             ....   58
 Basis Dimension        Dim             ....  296

ORBITAL ENERGIES
----------------

  NO   OCC          E(Eh)            E(eV)
   0   2.0000     -20.554298      -559.3109
   1   2.0000     -11.341643      -308.6218
   2   2.0000     -11.255478      -306.2771
   3   2.0000     -11.255368      -306.2741
   4   2.0000     -11.251442      -306.1673
   5   2.0000     -11.247582      -306.0623
   6   2.0000     -11.235552      -305.7349
   7   2.0000     -11.235305      -305.7282
   8   2.0000      -1.404081       -38.2070
   9   2.0000      -1.210238       -32.9322
  10   2.0000      -1.038484       -28.2586
  11   2.0000      -0.962341       -26.1866
  12   2.0000      -0.913365       -24.8539
  13   2.0000      -0.854531       -23.2530
  14   2.0000      -0.732622       -19.9357
  15   2.0000      -0.722086       -19.6489
  16   2.0000      -0.683340       -18.5946
  17   2.0000      -0.651444       -17.7267
  18   2.0000      -0.607596       -16.5335
  19   2.0000      -0.595587       -16.2068
  20   2.0000      -0.582608       -15.8536
  21   2.0000      -0.561710       -15.2849
  22   2.0000      -0.553820       -15.0702
  23   2.0000      -0.513525       -13.9737
  24   2.0000      -0.506686       -13.7876
  25   2.0000      -0.489537       -13.3210
  26   2.0000      -0.472606       -12.8603
  27   2.0000      -0.385155       -10.4806
  28   2.0000      -0.341915        -9.3040
  29   0.0000       0.135411         3.6847
  30   0.0000       0.142119         3.8673
  31   0.0000       0.155591         4.2338
  32   0.0000       0.164854         4.4859
  33   0.0000       0.179214         4.8767

MULLIKEN ATOMIC CHARGES
-----------------------
   0 C :   -0.453965
   1 C :   -0.025402
   2 C :   -0.208735
   3 C :   -0.046282
   4 C :   -0.234855
   5 C :   -0.047877
   6 C :    0.125168
   7 O :   -0.224175
   8 H :    0.148977
   9 H :    0.142317
  10 H :    0.144533
  11 H :    0.137544
  12 H :    0.144648
  13 H :    0.124926
  14 H :    0.129501
  15 H :    0.143677
Sum of atomic charges:    0.0000000

LOEWDIN ATOMIC CHARGES
----------------------
   0 C :   -0.273387
   1 C :   -0.160314
   2 C :   -0.112489
   3 C :   -0.165143
   4 C :   -0.176329
   5 C :   -0.139883
   6 C :   -0.243285
   7 O :    0.178872
   8 H :    0.135940
   9 H :    0.133438
  10 H :    0.132416
  11 H :    0.137811
  12 H :    0.138419
  13 H :    0.136308
  14 H :    0.137732
  15 H :    0.139895

  Mayer bond orders larger than 0.1
B(  0-C ,  1-C ) :   0.8786 B(  0-C ,  8-H ) :   0.9287 B(  0-C ,  9-H ) :   0.9518
B(  0-C , 10-H ) :   0.9362 B(  1-C ,  2-C ) :   1.6692 B(  1-C ,  5-C ) :   0.9008
B(  2-C ,  3-C ) :   0.9250 B(  2-C , 11-H ) :   0.9225 B(  3-C ,  4-C ) :   0.9047
B(  3-C ,  6-C ) :   0.8050 B(  3-C , 12-H ) :   0.9018 B(  4-C ,  5-C ) :   0.9150
B(  4-C , 13-H ) :   0.9125 B(  4-C , 14-H ) :   0.9232 B(  5-C ,  6-C ) :   0.7938
B(  5-C , 15-H ) :   0.9000 B(  6-C ,  7-O ) :   2.0739

MP2 TOTAL ENERGY:     -345.986794756 Eh
FINAL SINGLE POINT ENERGY      -345.986794756290

DIPOLE MOMENT
-------------
                                X             Y             Z
Electronic contribution:      3.97325      -4.60666       0.84136
Nuclear contribution   :     -4.83934       5.01490      -1.00919
                        -----------------------------------------
Total Dipole Moment    :     -0.86608       0.40824      -0.16783
                        -----------------------------------------
Magnitude (a.u.)       :      0.97207
Magnitude (Debye)      :      2.47081

                             ****ORCA TERMINATED NORMALLY****
TOTAL RUN TIME: 0 days 0 hours 13 minutes 6 seconds 235 msec
