                         Program Version 3.0.3 - RELEASE   -
|  1> ! RI-MP2 RIJK def2-TZVP def2-TZVP/C def2-TZVP/JK TIGHTSCF
|  2> % maxcore 2000
|  3> % mp2 density relaxed end
|  4> *xyz 0 1
|  5>  O        0.8451648112    -0.6762881395    -1.1265090875
|  6>  C        0.2008313213    -0.0445502376    -0.0316073331
|  7>  C       -1.2682083181    -0.4267502600     0.0043474212
|  8>  C       -2.2658479396     0.2607630820     0.9705198850
|  9>  O       -1.6894266071     1.2860008049     1.7517718268
| 10>  C       -3.0600498689     0.6653482676    -0.2763049689
| 11>  C       -2.2067677447     1.4496144698    -1.1850528358
| 12>  N       -2.0773919113    -0.0228757542    -1.2151236432
| 13>  H        0.2962011161    -0.5180665839    -1.9033275749
| 14>  H        0.6958394144    -0.3997031624     0.8781620251
| 15>  H        0.3321336481     1.0457301344    -0.0610407863
| 16>  H       -1.3377474217    -1.5153657794     0.0770874133
| 17>  H       -2.8021768213    -0.4613922355     1.5981384058
| 18>  H       -2.3861560377     1.7145423708     2.2597903491
| 19>  H       -4.1325478827     0.5627557568    -0.4077769047
| 20>  H       -2.6651422695     1.8382955179    -2.0886593229
| 21>  H       -1.4148585283     2.0654754384    -0.7706141090
| 22> *
| 23>
| 24>                          ****END OF INPUT****

CARTESIAN COORDINATES (ANGSTROEM)
---------------------------------
  O      0.845165   -0.676288   -1.126509
  C      0.200831   -0.044550   -0.031607
  C     -1.268208   -0.426750    0.004347
  C     -2.265848    0.260763    0.970520
  O     -1.689427    1.286001    1.751772
  C     -3.060050    0.665348   -0.276305
  C     -2.206768    1.449614   -1.185053
  N     -2.077392   -0.022876   -1.215124
  H      0.296201   -0.518067   -1.903328
  H      0.695839   -0.399703    0.878162
  H      0.332134    1.045730   -0.061041
  H     -1.337747   -1.515366    0.077087
  H     -2.802177   -0.461392    1.598138
  H     -2.386156    1.714542    2.259790
  H     -4.132548    0.562756   -0.407777
  H     -2.665142    1.838296   -2.088659
  H     -1.414859    2.065475   -0.770614

 Total Charge           Charge          ....    0
 Multiplicity           Mult            ....    1
 Number of Electrons    NEL             ....   62
 Basis Dimension        Dim             ....  302

ORBITAL ENERGIES
----------------

  NO   OCC          E(Eh)            E(eV)
   0   2.0000     -20.573326      -559.8286
   1   2.0000     -20.548206      -559.1451
   2   2.0000     -15.570206      -423.6869
   3   2.0000     -11.300518      -307.5027
   4   2.0000     -11.270701      -306.6914
   5   2.0000     -11.269479      -306.6581
   6   2.0000     -11.263257      -306.4888
   7   2.0000     -11.262778      -306.4758
   8   2.0000      -1.383638       -37.6507
   9   2.0000      -1.354283       -36.8519
  10   2.0000      -1.289677       -35.0939
  11   2.0000      -1.028817       -27.9955
  12   2.0000      -0.953512       -25.9464
  13   2.0000      -0.903281       -24.5795
  14   2.0000      -0.818882       -22.2829
  15   2.0000      -0.757031       -20.5999
  16   2.0000      -0.722062       -19.6483
  17   2.0000      -0.700116       -19.0511
  18   2.0000      -0.676940       -18.4205
  19   2.0000      -0.636413       -17.3177
  20   2.0000      -0.625505       -17.0209
  21   2.0000      -0.584583       -15.9073
  22   2.0000      -0.571567       -15.5531
  23   2.0000      -0.554328       -15.0840
  24   2.0000      -0.537487       -14.6258
  25   2.0000      -0.508764       -13.8442
  26   2.0000      -0.471304       -12.8248
  27   2.0000      -0.457840       -12.4585
  28   2.0000      -0.433780       -11.8038
  29   2.0000      -0.417431       -11.3589
  30   2.0000      -0.389181       -10.5902
  31   0.0000       0.123268         3.3543
  32   0.0000       0.153453         4.1757
  33   0.0000       0.158484         4.3126
  34   0.0000       0.173270         4.7149
  35   0.0000       0.186614         5.0780

MULLIKEN ATOMIC CHARGES
-----------------------
   0 O :   -0.474065
   1 C :   -0.005592
   2 C :   -0.045110
   3 C :    0.028769
   4 O :   -0.453370
   5 C :   -0.124333
   6 C :   -0.135961
   7 N :   -0.277730
   8 H :    0.325613
   9 H :    0.117417
  10 H :    0.098958
  11 H :    0.115742
  12 H :    0.102022
  13 H :    0.315418
  14 H :    0.135437
  15 H :    0.138045
  16 H :    0.138740
Sum of atomic charges:    0.0000000

LOEWDIN ATOMIC CHARGES
----------------------
   0 O :   -0.044886
   1 C :   -0.326056
   2 C :   -0.244974
   3 C :   -0.305246
   4 O :   -0.012559
   5 C :   -0.208823
   6 C :   -0.250961
   7 N :    0.101292
   8 H :    0.177950
   9 H :    0.135296
  10 H :    0.119177
  11 H :    0.152398
  12 H :    0.133881
  13 H :    0.177714
  14 H :    0.131588
  15 H :    0.134392
  16 H :    0.129818

  Mayer bond orders larger than 0.1
B(  0-O ,  1-C ) :   0.9197 B(  0-O ,  8-H ) :   0.8369 B(  1-C ,  2-C ) :   0.9871
B(  1-C ,  9-H ) :   0.9273 B(  1-C , 10-H ) :   0.9033 B(  2-C ,  3-C ) :   0.9289
B(  2-C ,  7-N ) :   0.8952 B(  2-C , 11-H ) :   0.9155 B(  3-C ,  4-O ) :   1.0992
B(  3-C ,  5-C ) :   0.9358 B(  3-C , 12-H ) :   0.9594 B(  4-O , 13-H ) :   0.8426
B(  5-C ,  6-C ) :   0.9528 B(  5-C ,  7-N ) :   0.9084 B(  5-C , 14-H ) :   0.9031
B(  6-C ,  7-N ) :   0.8426 B(  6-C , 15-H ) :   0.9348 B(  6-C , 16-H ) :   0.8984

MP2 TOTAL ENERGY:     -400.296779109 Eh
FINAL SINGLE POINT ENERGY      -400.296779108881

DIPOLE MOMENT
-------------
                                X             Y             Z
Electronic contribution:     -0.28464      -0.75127      -0.01701
Nuclear contribution   :     -0.86871       1.37244       0.61622
                        -----------------------------------------
Total Dipole Moment    :     -1.15335       0.62118       0.59921
                        -----------------------------------------
Magnitude (a.u.)       :      1.44053
Magnitude (Debye)      :      3.66154

                             ****ORCA TERMINATED NORMALLY****
TOTAL RUN TIME: 0 days 0 hours 12 minutes 25 seconds 107 msec
