                         Program Version 3.0.3 - RELEASE   -
|  1> ! RI-MP2 RIJK def2-TZVP def2-TZVP/C def2-TZVP/JK TIGHTSCF
|  2> % maxcore 2000
|  3> % mp2 density relaxed end
|  4> *xyz 0 1
|  5>  C        0.1551411800     1.4191106426     0.3883001137
|  6>  C        0.0754830664    -0.0746306533     0.0590136077
|  7>  C       -1.3411504083    -0.5298413272    -0.2311714874
|  8>  C       -1.6391141542    -2.0413656456    -0.3082143940
|  9>  C       -2.6792102037    -1.7545388926     0.8112869524
| 10>  C       -2.5528149721    -2.5186544221     2.1222028439
| 11>  O       -2.2187559719    -0.3905015580     0.9263951458
| 12>  C       -4.0721623525    -1.7908597026     0.3226286822
| 13>  N       -5.1595440090    -1.8288664875    -0.0672444608
| 14>  H        1.1817005582     1.7169439165     0.6196345698
| 15>  H       -0.1896243613     2.0289032097    -0.4537536132
| 16>  H       -0.4721556298     1.6550151862     1.2524788051
| 17>  H        0.6936078389    -0.3067651298    -0.8186419735
| 18>  H        0.4717874968    -0.6667649902     0.8931743754
| 19>  H       -1.7566615698     0.0323136954    -1.0786053576
| 20>  H       -2.0317104248    -2.4231608256    -1.2497667865
| 21>  H       -0.8187273688    -2.6745516923     0.0362110800
| 22>  H       -1.5142931763    -2.4879777343     2.4605584419
| 23>  H       -3.1861580490    -2.0632135469     2.8881827672
| 24>  H       -2.8587614688    -3.5610160824     1.9916925780
| 25> *
| 26>
| 27>                          ****END OF INPUT****

CARTESIAN COORDINATES (ANGSTROEM)
---------------------------------
  C      0.155141    1.419111    0.388300
  C      0.075483   -0.074631    0.059014
  C     -1.341150   -0.529841   -0.231171
  C     -1.639114   -2.041366   -0.308214
  C     -2.679210   -1.754539    0.811287
  C     -2.552815   -2.518654    2.122203
  O     -2.218756   -0.390502    0.926395
  C     -4.072162   -1.790860    0.322629
  N     -5.159544   -1.828866   -0.067244
  H      1.181701    1.716944    0.619635
  H     -0.189624    2.028903   -0.453754
  H     -0.472156    1.655015    1.252479
  H      0.693608   -0.306765   -0.818642
  H      0.471787   -0.666765    0.893174
  H     -1.756662    0.032314   -1.078605
  H     -2.031710   -2.423161   -1.249767
  H     -0.818727   -2.674552    0.036211
  H     -1.514293   -2.487978    2.460558
  H     -3.186158   -2.063214    2.888183
  H     -2.858761   -3.561016    1.991693

 Total Charge           Charge          ....    0
 Multiplicity           Mult            ....    1
 Number of Electrons    NEL             ....   68
 Basis Dimension        Dim             ....  345

ORBITAL ENERGIES
----------------

  NO   OCC          E(Eh)            E(eV)
   0   2.0000     -20.572595      -559.8088
   1   2.0000     -15.573447      -423.7750
   2   2.0000     -11.344551      -308.7009
   3   2.0000     -11.301070      -307.5178
   4   2.0000     -11.270606      -306.6888
   5   2.0000     -11.256066      -306.2931
   6   2.0000     -11.244381      -305.9752
   7   2.0000     -11.237214      -305.7801
   8   2.0000     -11.222026      -305.3668
   9   2.0000      -1.407142       -38.2903
  10   2.0000      -1.218500       -33.1571
  11   2.0000      -1.077164       -29.3111
  12   2.0000      -1.068645       -29.0793
  13   2.0000      -1.000630       -27.2285
  14   2.0000      -0.914744       -24.8915
  15   2.0000      -0.857387       -23.3307
  16   2.0000      -0.800949       -21.7949
  17   2.0000      -0.717143       -19.5145
  18   2.0000      -0.674489       -18.3538
  19   2.0000      -0.658924       -17.9302
  20   2.0000      -0.625195       -17.0124
  21   2.0000      -0.595500       -16.2044
  22   2.0000      -0.585780       -15.9399
  23   2.0000      -0.576664       -15.6918
  24   2.0000      -0.566336       -15.4108
  25   2.0000      -0.554279       -15.0827
  26   2.0000      -0.545617       -14.8470
  27   2.0000      -0.513812       -13.9815
  28   2.0000      -0.507114       -13.7993
  29   2.0000      -0.490752       -13.3540
  30   2.0000      -0.477228       -12.9860
  31   2.0000      -0.464453       -12.6384
  32   2.0000      -0.447429       -12.1752
  33   2.0000      -0.440157       -11.9773
  34   0.0000       0.125059         3.4030
  35   0.0000       0.138663         3.7732
  36   0.0000       0.150698         4.1007
  37   0.0000       0.151566         4.1243
  38   0.0000       0.170888         4.6501

MULLIKEN ATOMIC CHARGES
-----------------------
   0 C :   -0.401912
   1 C :   -0.206065
   2 C :    0.065468
   3 C :   -0.284115
   4 C :    0.384864
   5 C :   -0.397179
   6 O :   -0.328165
   7 C :   -0.247686
   8 N :   -0.050525
   9 H :    0.136160
  10 H :    0.124124
  11 H :    0.148328
  12 H :    0.115848
  13 H :    0.106540
  14 H :    0.101571
  15 H :    0.158618
  16 H :    0.135582
  17 H :    0.138917
  18 H :    0.154230
  19 H :    0.145398
Sum of atomic charges:   -0.0000000

LOEWDIN ATOMIC CHARGES
----------------------
   0 C :   -0.312750
   1 C :   -0.279777
   2 C :   -0.267085
   3 C :   -0.161780
   4 C :   -0.339287
   5 C :   -0.246969
   6 O :    0.194324
   7 C :   -0.142725
   8 N :    0.071247
   9 H :    0.122332
  10 H :    0.122575
  11 H :    0.128033
  12 H :    0.143422
  13 H :    0.138833
  14 H :    0.141628
  15 H :    0.140307
  16 H :    0.141433
  17 H :    0.131001
  18 H :    0.138414
  19 H :    0.136824

  Mayer bond orders larger than 0.1
B(  0-C ,  1-C ) :   0.9277 B(  0-C ,  9-H ) :   0.9390 B(  0-C , 10-H ) :   0.9356
B(  0-C , 11-H ) :   0.9359 B(  1-C ,  2-C ) :   0.9401 B(  1-C , 12-H ) :   0.9262
B(  1-C , 13-H ) :   0.9254 B(  2-C ,  3-C ) :   0.9270 B(  2-C ,  6-O ) :   0.9072
B(  2-C , 14-H ) :   0.9109 B(  3-C ,  4-C ) :   0.8764 B(  3-C , 15-H ) :   0.9240
B(  3-C , 16-H ) :   0.9332 B(  4-C ,  5-C ) :   0.9020 B(  4-C ,  6-O ) :   0.9115
B(  4-C ,  7-C ) :   0.9167 B(  5-C , 17-H ) :   0.9333 B(  5-C , 18-H ) :   0.9296
B(  5-C , 19-H ) :   0.9242 B(  7-C ,  8-N ) :   2.8668

MP2 TOTAL ENERGY:     -402.464523617 Eh
FINAL SINGLE POINT ENERGY      -402.464523617183

DIPOLE MOMENT
-------------
                                X             Y             Z
Electronic contribution:    -10.14918      -2.76871      -1.25920
Nuclear contribution   :     11.84106       2.36981       1.31943
                        -----------------------------------------
Total Dipole Moment    :      1.69188      -0.39890       0.06023
                        -----------------------------------------
Magnitude (a.u.)       :      1.73931
Magnitude (Debye)      :      4.42097

                             ****ORCA TERMINATED NORMALLY****
TOTAL RUN TIME: 0 days 0 hours 30 minutes 32 seconds 701 msec
