                         Program Version 3.0.3 - RELEASE   -
|  1> ! RI-MP2 RIJK def2-TZVP def2-TZVP/C def2-TZVP/JK TIGHTSCF
|  2> % maxcore 2000
|  3> % mp2 density relaxed end
|  4> *xyz 0 1
|  5>  C        0.8919741826    -0.1353348721     0.1366310565
|  6>  C        0.1128498886    -0.6618643007    -1.0757510029
|  7>  C       -1.3397103663    -0.9843052866    -0.7783381954
|  8>  C       -2.2320046917     0.2064805901    -0.4084308825
|  9>  C       -2.2008165840     1.2762555698    -1.4060582271
| 10>  N       -2.1596008937     2.1223300977    -2.1918912497
| 11>  O       -1.9736908940    -1.9076045954    -1.6691298395
| 12>  C       -1.7880679627    -2.3093944615    -0.3038749481
| 13>  C       -0.8967027744    -3.4941874022    -0.0339811736
| 14>  H        1.9371734894     0.0431900364    -0.1304103870
| 15>  H        0.4861379593     0.8130061775     0.5030192884
| 16>  H        0.8750827102    -0.8509164523     0.9653781791
| 17>  H        0.1400483167     0.0780959608    -1.8844024953
| 18>  H        0.5904371832    -1.5610048688    -1.4716472978
| 19>  H       -3.2635089186    -0.1412766825    -0.3005012913
| 20>  H       -1.9252153654     0.6258425670     0.5565034645
| 21>  H       -2.7205949588    -2.3254137890     0.2666943591
| 22>  H        0.0419363317    -3.4415578329    -0.5875059202
| 23>  H       -0.6711316679    -3.5628096549     1.0356094999
| 24>  H       -1.4092558642    -4.4166410605    -0.3258975969
| 25> *
| 26>
| 27>                          ****END OF INPUT****

CARTESIAN COORDINATES (ANGSTROEM)
---------------------------------
  C      0.891974   -0.135335    0.136631
  C      0.112850   -0.661864   -1.075751
  C     -1.339710   -0.984305   -0.778338
  C     -2.232005    0.206481   -0.408431
  C     -2.200817    1.276256   -1.406058
  N     -2.159601    2.122330   -2.191891
  O     -1.973691   -1.907605   -1.669130
  C     -1.788068   -2.309394   -0.303875
  C     -0.896703   -3.494187   -0.033981
  H      1.937173    0.043190   -0.130410
  H      0.486138    0.813006    0.503019
  H      0.875083   -0.850916    0.965378
  H      0.140048    0.078096   -1.884402
  H      0.590437   -1.561005   -1.471647
  H     -3.263509   -0.141277   -0.300501
  H     -1.925215    0.625843    0.556503
  H     -2.720595   -2.325414    0.266694
  H      0.041936   -3.441558   -0.587506
  H     -0.671132   -3.562810    1.035609
  H     -1.409256   -4.416641   -0.325898

 Total Charge           Charge          ....    0
 Multiplicity           Mult            ....    1
 Number of Electrons    NEL             ....   68
 Basis Dimension        Dim             ....  345

ORBITAL ENERGIES
----------------

  NO   OCC          E(Eh)            E(eV)
   0   2.0000     -20.577387      -559.9392
   1   2.0000     -15.569845      -423.6770
   2   2.0000     -11.315159      -307.9011
   3   2.0000     -11.303611      -307.5869
   4   2.0000     -11.288709      -307.1814
   5   2.0000     -11.274530      -306.7956
   6   2.0000     -11.241129      -305.8867
   7   2.0000     -11.238983      -305.8283
   8   2.0000     -11.234021      -305.6932
   9   2.0000      -1.426497       -38.8170
  10   2.0000      -1.219532       -33.1852
  11   2.0000      -1.092961       -29.7410
  12   2.0000      -1.036264       -28.1982
  13   2.0000      -1.023664       -27.8553
  14   2.0000      -0.907975       -24.7073
  15   2.0000      -0.870570       -23.6894
  16   2.0000      -0.775843       -21.1118
  17   2.0000      -0.713273       -19.4092
  18   2.0000      -0.689459       -18.7611
  19   2.0000      -0.674836       -18.3632
  20   2.0000      -0.625537       -17.0217
  21   2.0000      -0.603694       -16.4273
  22   2.0000      -0.598337       -16.2816
  23   2.0000      -0.580044       -15.7838
  24   2.0000      -0.576649       -15.6914
  25   2.0000      -0.555796       -15.1240
  26   2.0000      -0.546395       -14.8682
  27   2.0000      -0.523515       -14.2456
  28   2.0000      -0.508652       -13.8411
  29   2.0000      -0.500168       -13.6103
  30   2.0000      -0.470687       -12.8080
  31   2.0000      -0.459387       -12.5005
  32   2.0000      -0.446380       -12.1466
  33   2.0000      -0.432957       -11.7814
  34   0.0000       0.116242         3.1631
  35   0.0000       0.145534         3.9602
  36   0.0000       0.149411         4.0657
  37   0.0000       0.162182         4.4132
  38   0.0000       0.175648         4.7796

MULLIKEN ATOMIC CHARGES
-----------------------
   0 C :   -0.436803
   1 C :   -0.221016
   2 C :    0.166641
   3 C :   -0.143444
   4 C :   -0.198033
   5 N :   -0.053769
   6 O :   -0.328642
   7 C :    0.048310
   8 C :   -0.389801
   9 H :    0.147200
  10 H :    0.135491
  11 H :    0.133816
  12 H :    0.154657
  13 H :    0.126420
  14 H :    0.164646
  15 H :    0.169556
  16 H :    0.105557
  17 H :    0.137487
  18 H :    0.132664
  19 H :    0.149063
Sum of atomic charges:   -0.0000000

LOEWDIN ATOMIC CHARGES
----------------------
   0 C :   -0.305629
   1 C :   -0.244013
   2 C :   -0.299068
   3 C :   -0.203643
   4 C :   -0.186280
   5 N :    0.060952
   6 O :    0.190745
   7 C :   -0.268000
   8 C :   -0.290306
   9 H :    0.127067
  10 H :    0.122282
  11 H :    0.122654
  12 H :    0.153290
  13 H :    0.145220
  14 H :    0.172992
  15 H :    0.169541
  16 H :    0.138479
  17 H :    0.128641
  18 H :    0.131488
  19 H :    0.133588

  Mayer bond orders larger than 0.1
B(  0-C ,  1-C ) :   0.8994 B(  0-C ,  9-H ) :   0.9376 B(  0-C , 10-H ) :   0.9343
B(  0-C , 11-H ) :   0.9373 B(  1-C ,  2-C ) :   0.8887 B(  1-C , 12-H ) :   0.9244
B(  1-C , 13-H ) :   0.9371 B(  2-C ,  3-C ) :   0.8541 B(  2-C ,  6-O ) :   0.9260
B(  2-C ,  7-C ) :   0.9634 B(  3-C ,  4-C ) :   0.9427 B(  3-C , 14-H ) :   0.9036
B(  3-C , 15-H ) :   0.9115 B(  4-C ,  5-N ) :   2.8613 B(  6-O ,  7-C ) :   0.8696
B(  7-C ,  8-C ) :   0.8902 B(  7-C , 16-H ) :   0.9094 B(  8-C , 17-H ) :   0.9406
B(  8-C , 18-H ) :   0.9259 B(  8-C , 19-H ) :   0.9330

MP2 TOTAL ENERGY:     -402.464168877 Eh
FINAL SINGLE POINT ENERGY      -402.464168876756

DIPOLE MOMENT
-------------
                                X             Y             Z
Electronic contribution:     -6.95953       5.39512      -5.73850
Nuclear contribution   :      7.40071      -6.49711       7.37126
                        -----------------------------------------
Total Dipole Moment    :      0.44118      -1.10199       1.63277
                        -----------------------------------------
Magnitude (a.u.)       :      2.01865
Magnitude (Debye)      :      5.13100

                             ****ORCA TERMINATED NORMALLY****
TOTAL RUN TIME: 0 days 0 hours 18 minutes 33 seconds 331 msec
