                         Program Version 3.0.3 - RELEASE   -
|  1> ! RI-MP2 RIJK def2-TZVP def2-TZVP/C def2-TZVP/JK TIGHTSCF
|  2> % maxcore 2000
|  3> % mp2 density relaxed end
|  4> *xyz 0 1
|  5>  N       -0.1560801567     1.1467693309    -0.2464880787
|  6>  C       -0.0880896886    -0.2169913611    -0.0497567963
|  7>  O        0.8641030160    -0.8969726743    -0.3518490802
|  8>  N       -1.2368755636    -0.7308448810     0.5867240539
|  9>  C       -2.5908755171    -0.5472492295     0.1050784331
| 10>  C       -1.9450584418    -1.9128150380     0.1128432304
| 11>  C       -1.6153333305    -2.5442222791    -1.1360234131
| 12>  C       -1.3772470556    -3.1042845953    -2.1718598098
| 13>  H        0.7337740547     1.5833179318    -0.4305130498
| 14>  H       -0.7985487999     1.6809696336     0.3168137660
| 15>  H       -3.3391892326    -0.3031154519     0.8549794480
| 16>  H       -2.7282193807    -0.0831975596    -0.8681005444
| 17>  H       -2.2214514066    -2.5982024376     0.9108780125
| 18>  H       -1.1401071469    -3.5913485188    -3.0852567916
| 19> *
| 20>
| 21>                          ****END OF INPUT****

CARTESIAN COORDINATES (ANGSTROEM)
---------------------------------
  N     -0.156080    1.146769   -0.246488
  C     -0.088090   -0.216991   -0.049757
  O      0.864103   -0.896973   -0.351849
  N     -1.236876   -0.730845    0.586724
  C     -2.590876   -0.547249    0.105078
  C     -1.945058   -1.912815    0.112843
  C     -1.615333   -2.544222   -1.136023
  C     -1.377247   -3.104285   -2.171860
  H      0.733774    1.583318   -0.430513
  H     -0.798549    1.680970    0.316814
  H     -3.339189   -0.303115    0.854979
  H     -2.728219   -0.083198   -0.868101
  H     -2.221451   -2.598202    0.910878
  H     -1.140107   -3.591349   -3.085257

 Total Charge           Charge          ....    0
 Multiplicity           Mult            ....    1
 Number of Electrons    NEL             ....   58
 Basis Dimension        Dim             ....  284

ORBITAL ENERGIES
----------------

  NO   OCC          E(Eh)            E(eV)
   0   2.0000     -20.518811      -558.3452
   1   2.0000     -15.596798      -424.4105
   2   2.0000     -15.584377      -424.0725
   3   2.0000     -11.380344      -309.6749
   4   2.0000     -11.308572      -307.7219
   5   2.0000     -11.291510      -307.2576
   6   2.0000     -11.239433      -305.8405
   7   2.0000     -11.231231      -305.6173
   8   2.0000      -1.401783       -38.1445
   9   2.0000      -1.303756       -35.4770
  10   2.0000      -1.211651       -32.9707
  11   2.0000      -1.047093       -28.4929
  12   2.0000      -0.977158       -26.5898
  13   2.0000      -0.893566       -24.3152
  14   2.0000      -0.807761       -21.9803
  15   2.0000      -0.754431       -20.5291
  16   2.0000      -0.717783       -19.5319
  17   2.0000      -0.702447       -19.1145
  18   2.0000      -0.687603       -18.7106
  19   2.0000      -0.633009       -17.2250
  20   2.0000      -0.590690       -16.0735
  21   2.0000      -0.578229       -15.7344
  22   2.0000      -0.541979       -14.7480
  23   2.0000      -0.527797       -14.3621
  24   2.0000      -0.452747       -12.3199
  25   2.0000      -0.437183       -11.8963
  26   2.0000      -0.419262       -11.4087
  27   2.0000      -0.396282       -10.7834
  28   2.0000      -0.373280       -10.1575
  29   0.0000       0.125511         3.4153
  30   0.0000       0.151942         4.1345
  31   0.0000       0.157941         4.2978
  32   0.0000       0.166875         4.5409
  33   0.0000       0.175446         4.7741

MULLIKEN ATOMIC CHARGES
-----------------------
   0 N :   -0.507148
   1 C :    0.340826
   2 O :   -0.335164
   3 N :   -0.188932
   4 C :   -0.158528
   5 C :   -0.183847
   6 C :   -0.004448
   7 C :   -0.124648
   8 H :    0.264931
   9 H :    0.261762
  10 H :    0.140420
  11 H :    0.154178
  12 H :    0.145626
  13 H :    0.194973
Sum of atomic charges:   -0.0000000

LOEWDIN ATOMIC CHARGES
----------------------
   0 N :   -0.044621
   1 C :   -0.550721
   2 O :    0.102268
   3 N :    0.176760
   4 C :   -0.206387
   5 C :   -0.218501
   6 C :   -0.091239
   7 C :   -0.070169
   8 H :    0.176631
   9 H :    0.172071
  10 H :    0.127526
  11 H :    0.136172
  12 H :    0.161242
  13 H :    0.128969

  Mayer bond orders larger than 0.1
B(  0-N ,  1-C ) :   1.1028 B(  0-N ,  8-H ) :   0.8677 B(  0-N ,  9-H ) :   0.8651
B(  1-C ,  2-O ) :   2.0107 B(  1-C ,  3-N ) :   0.9891 B(  3-N ,  4-C ) :   0.8549
B(  3-N ,  5-C ) :   0.9088 B(  4-C ,  5-C ) :   0.8838 B(  4-C , 10-H ) :   0.9208
B(  4-C , 11-H ) :   0.9156 B(  5-C ,  6-C ) :   1.1949 B(  5-C ,  7-C ) :  -0.1161
B(  5-C , 12-H ) :   0.9225 B(  6-C ,  7-C ) :   2.5558 B(  7-C , 13-H ) :   0.8933

MP2 TOTAL ENERGY:     -378.049219534 Eh
FINAL SINGLE POINT ENERGY      -378.049219533627

DIPOLE MOMENT
-------------
                                X             Y             Z
Electronic contribution:      2.36281      -1.69767       0.18631
Nuclear contribution   :     -3.42025       2.62667      -0.06219
                        -----------------------------------------
Total Dipole Moment    :     -1.05745       0.92900       0.12412
                        -----------------------------------------
Magnitude (a.u.)       :      1.41302
Magnitude (Debye)      :      3.59162

                             ****ORCA TERMINATED NORMALLY****
TOTAL RUN TIME: 0 days 0 hours 10 minutes 9 seconds 205 msec
