                         Program Version 3.0.3 - RELEASE   -
|  1> ! RI-MP2 RIJK def2-TZVP def2-TZVP/C def2-TZVP/JK TIGHTSCF
|  2> % maxcore 2000
|  3> % mp2 density relaxed end
|  4> *xyz 0 1
|  5>  C       -0.0458364432     1.5537252691     0.0016159617
|  6>  C       -0.0257501888     0.0515068172    -0.0165368949
|  7>  C       -0.0344180562    -0.6585654447    -1.1470062971
|  8>  C       -0.0177203801    -2.1613565093    -1.1548870227
|  9>  O        1.1901602967    -2.7755726414    -0.6537342324
| 10>  C        1.4532396713    -2.7769232235     0.6897781967
| 11>  N        1.9001002699    -3.8179777194     1.2589387900
| 12>  C        1.3538239126    -1.4846811731     1.4755458563
| 13>  C        0.0609936223    -0.6555667487     1.3198813861
| 14>  H        0.8483432323     1.9542685763     0.4968372984
| 15>  H       -0.0953376488     1.9734432660    -1.0063271534
| 16>  H       -0.9064804206     1.9251717204     0.5726793422
| 17>  H       -0.0573401993    -0.1545780342    -2.1093888587
| 18>  H       -0.8693263778    -2.5664624082    -0.5896568181
| 19>  H       -0.0957043410    -2.5394439216    -2.1759012633
| 20>  H        1.9462475258    -4.5815373752     0.5794577268
| 21>  H        1.5021819207    -1.7621788762     2.5206952762
| 22>  H        2.2044148791    -0.8562717752     1.1808985464
| 23>  H        0.0303109951     0.0784505476     2.1307748585
| 24>  H       -0.8115980202    -1.3067383059     1.4656264311
| 25> *
| 26>
| 27>                          ****END OF INPUT****

CARTESIAN COORDINATES (ANGSTROEM)
---------------------------------
  C     -0.045836    1.553725    0.001616
  C     -0.025750    0.051507   -0.016537
  C     -0.034418   -0.658565   -1.147006
  C     -0.017720   -2.161357   -1.154887
  O      1.190160   -2.775573   -0.653734
  C      1.453240   -2.776923    0.689778
  N      1.900100   -3.817978    1.258939
  C      1.353824   -1.484681    1.475546
  C      0.060994   -0.655567    1.319881
  H      0.848343    1.954269    0.496837
  H     -0.095338    1.973443   -1.006327
  H     -0.906480    1.925172    0.572679
  H     -0.057340   -0.154578   -2.109389
  H     -0.869326   -2.566462   -0.589657
  H     -0.095704   -2.539444   -2.175901
  H      1.946248   -4.581537    0.579458
  H      1.502182   -1.762179    2.520695
  H      2.204415   -0.856272    1.180899
  H      0.030311    0.078451    2.130775
  H     -0.811598   -1.306738    1.465626

 Total Charge           Charge          ....    0
 Multiplicity           Mult            ....    1
 Number of Electrons    NEL             ....   68
 Basis Dimension        Dim             ....  345

ORBITAL ENERGIES
----------------

  NO   OCC          E(Eh)            E(eV)
   0   2.0000     -20.578705      -559.9750
   1   2.0000     -15.527486      -422.5244
   2   2.0000     -11.328706      -308.2698
   3   2.0000     -11.295465      -307.3652
   4   2.0000     -11.250844      -306.1510
   5   2.0000     -11.242796      -305.9320
   6   2.0000     -11.239512      -305.8427
   7   2.0000     -11.233431      -305.6772
   8   2.0000     -11.225839      -305.4706
   9   2.0000      -1.407809       -38.3084
  10   2.0000      -1.189475       -32.3673
  11   2.0000      -1.123196       -30.5637
  12   2.0000      -1.033621       -28.1262
  13   2.0000      -0.992270       -27.0010
  14   2.0000      -0.902845       -24.5677
  15   2.0000      -0.895219       -24.3601
  16   2.0000      -0.757402       -20.6100
  17   2.0000      -0.729258       -19.8441
  18   2.0000      -0.690840       -18.7987
  19   2.0000      -0.667808       -18.1720
  20   2.0000      -0.662859       -18.0373
  21   2.0000      -0.607914       -16.5422
  22   2.0000      -0.601253       -16.3609
  23   2.0000      -0.591340       -16.0912
  24   2.0000      -0.566185       -15.4067
  25   2.0000      -0.564730       -15.3671
  26   2.0000      -0.542772       -14.7696
  27   2.0000      -0.513472       -13.9723
  28   2.0000      -0.504511       -13.7284
  29   2.0000      -0.490671       -13.3518
  30   2.0000      -0.457830       -12.4582
  31   2.0000      -0.428844       -11.6694
  32   2.0000      -0.396381       -10.7861
  33   2.0000      -0.356303        -9.6955
  34   0.0000       0.123989         3.3739
  35   0.0000       0.136729         3.7206
  36   0.0000       0.152552         4.1512
  37   0.0000       0.164724         4.4824
  38   0.0000       0.169501         4.6124

MULLIKEN ATOMIC CHARGES
-----------------------
   0 C :   -0.421097
   1 C :    0.051723
   2 C :   -0.236344
   3 C :   -0.035905
   4 O :   -0.272717
   5 C :    0.077492
   6 N :   -0.354559
   7 C :   -0.138389
   8 C :   -0.235462
   9 H :    0.140722
  10 H :    0.134083
  11 H :    0.144223
  12 H :    0.124771
  13 H :    0.117587
  14 H :    0.140595
  15 H :    0.216755
  16 H :    0.139942
  17 H :    0.130163
  18 H :    0.139560
  19 H :    0.136858
Sum of atomic charges:    0.0000000

LOEWDIN ATOMIC CHARGES
----------------------
   0 C :   -0.270075
   1 C :   -0.190518
   2 C :   -0.166653
   3 C :   -0.273730
   4 O :    0.216580
   5 C :   -0.413399
   6 N :   -0.050259
   7 C :   -0.215416
   8 C :   -0.217291
   9 H :    0.132251
  10 H :    0.129135
  11 H :    0.132476
  12 H :    0.143923
  13 H :    0.133087
  14 H :    0.137108
  15 H :    0.164828
  16 H :    0.154699
  17 H :    0.155472
  18 H :    0.147616
  19 H :    0.150167

  Mayer bond orders larger than 0.1
B(  0-C ,  1-C ) :   0.9039 B(  0-C ,  9-H ) :   0.9258 B(  0-C , 10-H ) :   0.9454
B(  0-C , 11-H ) :   0.9294 B(  1-C ,  2-C ) :   1.7431 B(  1-C ,  8-C ) :   0.8947
B(  2-C ,  3-C ) :   0.9467 B(  2-C , 12-H ) :   0.9213 B(  3-C ,  4-O ) :   0.8544
B(  3-C , 13-H ) :   0.9277 B(  3-C , 14-H ) :   0.9366 B(  4-O ,  5-C ) :   1.0752
B(  5-C ,  6-N ) :   2.0565 B(  5-C ,  7-C ) :   0.9252 B(  6-N , 15-H ) :   0.8573
B(  7-C ,  8-C ) :   0.8901 B(  7-C , 16-H ) :   0.9158 B(  7-C , 17-H ) :   0.9156
B(  8-C , 18-H ) :   0.9389 B(  8-C , 19-H ) :   0.9253

MP2 TOTAL ENERGY:     -402.463529448 Eh
FINAL SINGLE POINT ENERGY      -402.463529447525

DIPOLE MOMENT
-------------
                                X             Y             Z
Electronic contribution:      2.55942      -6.49386      -1.28922
Nuclear contribution   :     -3.30701       7.40926       0.86614
                        -----------------------------------------
Total Dipole Moment    :     -0.74759       0.91541      -0.42308
                        -----------------------------------------
Magnitude (a.u.)       :      1.25533
Magnitude (Debye)      :      3.19080

                             ****ORCA TERMINATED NORMALLY****
TOTAL RUN TIME: 0 days 0 hours 18 minutes 10 seconds 804 msec
