                         Program Version 3.0.3 - RELEASE   -
|  1> ! RI-MP2 RIJK def2-TZVP def2-TZVP/C def2-TZVP/JK TIGHTSCF
|  2> % maxcore 2000
|  3> % mp2 density relaxed end
|  4> *xyz 0 1
|  5>  C       -0.1403097735     1.5219019530     0.0729746980
|  6>  C       -0.0188308711    -0.0024717946     0.0126041253
|  7>  C       -1.3793888080    -0.6483915174    -0.2322452350
|  8>  C        1.1422248838    -0.4562191869    -0.9317901420
|  9>  C        2.0723683000    -0.5901204476     0.3029720322
| 10>  C        0.8155066065    -0.5938441313     1.2040790462
| 11>  N        0.8906827553     0.1795004196     2.4273050611
| 12>  C       -0.0537458163    -0.1738170545     3.4849235789
| 13>  C        1.3861577068    -0.5278547488     3.6055015328
| 14>  H        0.8254889646     2.0024802539     0.2491665831
| 15>  H       -0.5453582484     1.9036616077    -0.8714403961
| 16>  H       -0.8095617892     1.8338429452     0.8808570012
| 17>  H       -1.8095657582    -0.3119150375    -1.1830856131
| 18>  H       -1.3013392337    -1.7404671362    -0.2709612749
| 19>  H       -2.0913274461    -0.3893918670     0.5605128121
| 20>  H        0.9353998209    -1.4220593872    -1.4022957778
| 21>  H        1.4437966220     0.2499460163    -1.7097561681
| 22>  H        2.7300396794    -1.4607814174     0.3542320799
| 23>  H        2.6676849562     0.3101655384     0.4739783601
| 24>  H        0.4888363212    -1.6315744404     1.3992011722
| 25>  H       -0.4674359261     0.6582673414     4.0474810956
| 26>  H       -0.7515985049    -0.9883304533     3.2959724226
| 27>  H        1.6497660058    -1.5788535661     3.4958540924
| 28>  H        2.0431390529     0.0405817206     4.2575324131
| 29> *
| 30>
| 31>                          ****END OF INPUT****

CARTESIAN COORDINATES (ANGSTROEM)
---------------------------------
  C     -0.140310    1.521902    0.072975
  C     -0.018831   -0.002472    0.012604
  C     -1.379389   -0.648392   -0.232245
  C      1.142225   -0.456219   -0.931790
  C      2.072368   -0.590120    0.302972
  C      0.815507   -0.593844    1.204079
  N      0.890683    0.179500    2.427305
  C     -0.053746   -0.173817    3.484924
  C      1.386158   -0.527855    3.605502
  H      0.825489    2.002480    0.249167
  H     -0.545358    1.903662   -0.871440
  H     -0.809562    1.833843    0.880857
  H     -1.809566   -0.311915   -1.183086
  H     -1.301339   -1.740467   -0.270961
  H     -2.091327   -0.389392    0.560513
  H      0.935400   -1.422059   -1.402296
  H      1.443797    0.249946   -1.709756
  H      2.730040   -1.460781    0.354232
  H      2.667685    0.310166    0.473978
  H      0.488836   -1.631574    1.399201
  H     -0.467436    0.658267    4.047481
  H     -0.751599   -0.988330    3.295972
  H      1.649766   -1.578854    3.495854
  H      2.043139    0.040582    4.257532

 Total Charge           Charge          ....    0
 Multiplicity           Mult            ....    1
 Number of Electrons    NEL             ....   70
 Basis Dimension        Dim             ....  369

ORBITAL ENERGIES
----------------

  NO   OCC          E(Eh)            E(eV)
   0   2.0000     -15.554004      -423.2460
   1   2.0000     -11.251892      -306.1795
   2   2.0000     -11.251165      -306.1598
   3   2.0000     -11.247945      -306.0721
   4   2.0000     -11.226745      -305.4953
   5   2.0000     -11.212662      -305.1120
   6   2.0000     -11.211814      -305.0890
   7   2.0000     -11.208316      -304.9938
   8   2.0000     -11.202056      -304.8234
   9   2.0000      -1.271256       -34.5926
  10   2.0000      -1.133654       -30.8483
  11   2.0000      -0.998711       -27.1763
  12   2.0000      -0.943834       -25.6830
  13   2.0000      -0.924170       -25.1480
  14   2.0000      -0.842761       -22.9327
  15   2.0000      -0.831085       -22.6150
  16   2.0000      -0.811664       -22.0865
  17   2.0000      -0.722482       -19.6597
  18   2.0000      -0.663632       -18.0583
  19   2.0000      -0.656931       -17.8760
  20   2.0000      -0.621290       -16.9062
  21   2.0000      -0.594959       -16.1897
  22   2.0000      -0.577864       -15.7245
  23   2.0000      -0.563994       -15.3471
  24   2.0000      -0.532570       -14.4920
  25   2.0000      -0.526832       -14.3358
  26   2.0000      -0.523792       -14.2531
  27   2.0000      -0.513688       -13.9782
  28   2.0000      -0.492253       -13.3949
  29   2.0000      -0.483252       -13.1500
  30   2.0000      -0.447335       -12.1726
  31   2.0000      -0.441884       -12.0243
  32   2.0000      -0.419884       -11.4256
  33   2.0000      -0.402982       -10.9657
  34   2.0000      -0.367549       -10.0015
  35   0.0000       0.134712         3.6657
  36   0.0000       0.153077         4.1654
  37   0.0000       0.159877         4.3505
  38   0.0000       0.173481         4.7207
  39   0.0000       0.188770         5.1367

MULLIKEN ATOMIC CHARGES
-----------------------
   0 C :   -0.421161
   1 C :    0.166215
   2 C :   -0.413258
   3 C :   -0.242651
   4 C :   -0.235703
   5 C :   -0.072968
   6 N :   -0.209495
   7 C :   -0.181765
   8 C :   -0.180618
   9 H :    0.136760
  10 H :    0.126044
  11 H :    0.124246
  12 H :    0.130737
  13 H :    0.123167
  14 H :    0.127857
  15 H :    0.110554
  16 H :    0.113306
  17 H :    0.112975
  18 H :    0.122261
  19 H :    0.065099
  20 H :    0.131797
  21 H :    0.119532
  22 H :    0.116884
  23 H :    0.130185
Sum of atomic charges:    0.0000000

LOEWDIN ATOMIC CHARGES
----------------------
   0 C :   -0.268519
   1 C :   -0.280080
   2 C :   -0.279927
   3 C :   -0.199601
   4 C :   -0.217063
   5 C :   -0.241552
   6 N :    0.115134
   7 C :   -0.267812
   8 C :   -0.266038
   9 H :    0.129285
  10 H :    0.124038
  11 H :    0.126247
  12 H :    0.126188
  13 H :    0.122129
  14 H :    0.124960
  15 H :    0.133575
  16 H :    0.127176
  17 H :    0.122524
  18 H :    0.138803
  19 H :    0.138163
  20 H :    0.123799
  21 H :    0.121710
  22 H :    0.122937
  23 H :    0.123924

  Mayer bond orders larger than 0.1
B(  0-C ,  1-C ) :   0.9235 B(  0-C ,  9-H ) :   0.9271 B(  0-C , 10-H ) :   0.9363
B(  0-C , 11-H ) :   0.9359 B(  1-C ,  2-C ) :   0.8959 B(  1-C ,  3-C ) :   0.9066
B(  1-C ,  5-C ) :   0.9194 B(  2-C , 12-H ) :   0.9377 B(  2-C , 13-H ) :   0.9315
B(  2-C , 14-H ) :   0.9392 B(  3-C ,  4-C ) :   0.9549 B(  3-C , 15-H ) :   0.9155
B(  3-C , 16-H ) :   0.9233 B(  4-C ,  5-C ) :   0.9312 B(  4-C , 17-H ) :   0.9242
B(  4-C , 18-H ) :   0.9251 B(  5-C ,  6-N ) :   0.9766 B(  5-C , 19-H ) :   0.9118
B(  6-N ,  7-C ) :   0.8670 B(  6-N ,  8-C ) :   0.8815 B(  7-C ,  8-C ) :   0.9524
B(  7-C , 20-H ) :   0.9291 B(  7-C , 21-H ) :   0.9199 B(  8-C , 22-H ) :   0.9215
B(  8-C , 23-H ) :   0.9268

MP2 TOTAL ENERGY:     -367.715672301 Eh
FINAL SINGLE POINT ENERGY      -367.715672300850

DIPOLE MOMENT
-------------
                                X             Y             Z
Electronic contribution:      2.32634       0.00385       2.88767
Nuclear contribution   :     -2.43095      -0.37774      -2.76393
                        -----------------------------------------
Total Dipole Moment    :     -0.10462      -0.37389       0.12374
                        -----------------------------------------
Magnitude (a.u.)       :      0.40749
Magnitude (Debye)      :      1.03576

                             ****ORCA TERMINATED NORMALLY****
TOTAL RUN TIME: 0 days 0 hours 21 minutes 41 seconds 708 msec
