                         Program Version 3.0.3 - RELEASE   -
|  1> ! RI-MP2 RIJK def2-TZVP def2-TZVP/C def2-TZVP/JK TIGHTSCF
|  2> % maxcore 2000
|  3> % mp2 density relaxed end
|  4> *xyz 0 1
|  5>  O       -0.0939178000     1.3749913296     0.0644872020
|  6>  C        0.0330066592    -0.0082054544     0.0276397527
|  7>  C        0.9484699379    -0.7739108084    -0.9813924324
|  8>  C        0.7198027504    -1.9379267331     0.0290224137
|  9>  C        0.7198447717    -0.8538053320     1.1475609021
| 10>  C       -0.7756681364    -2.1752715323    -0.1381432912
| 11>  C       -1.3907361839    -3.3427201301    -0.7666698040
| 12>  O       -1.4158486473    -3.1651298321     0.6591407199
| 13>  C       -1.3138386097    -0.7335977464    -0.1496026259
| 14>  H        0.7804109173     1.7576700434     0.1909160128
| 15>  H        0.5996430732    -0.8966151805    -2.0106634358
| 16>  H        1.9809853106    -0.4135618596    -0.9674260370
| 17>  H        1.3659939662    -2.8125829458     0.0685623707
| 18>  H        1.7278418139    -0.4976514803     1.3785882890
| 19>  H        0.1621986463    -1.0568340122     2.0651360433
| 20>  H       -2.3554172744    -3.2473710571    -1.2641840605
| 21>  H       -0.7672215549    -4.1628245137    -1.1224606770
| 22>  H       -1.9978954305    -0.5526231975     0.6834644324
| 23>  H       -1.8103453796    -0.4550012077    -1.0832396948
| 24> *
| 25>
| 26>                          ****END OF INPUT****

CARTESIAN COORDINATES (ANGSTROEM)
---------------------------------
  O     -0.093918    1.374991    0.064487
  C      0.033007   -0.008205    0.027640
  C      0.948470   -0.773911   -0.981392
  C      0.719803   -1.937927    0.029022
  C      0.719845   -0.853805    1.147561
  C     -0.775668   -2.175272   -0.138143
  C     -1.390736   -3.342720   -0.766670
  O     -1.415849   -3.165130    0.659141
  C     -1.313839   -0.733598   -0.149603
  H      0.780411    1.757670    0.190916
  H      0.599643   -0.896615   -2.010663
  H      1.980985   -0.413562   -0.967426
  H      1.365994   -2.812583    0.068562
  H      1.727842   -0.497651    1.378588
  H      0.162199   -1.056834    2.065136
  H     -2.355417   -3.247371   -1.264184
  H     -0.767222   -4.162825   -1.122461
  H     -1.997895   -0.552623    0.683464
  H     -1.810345   -0.455001   -1.083240

 Total Charge           Charge          ....    0
 Multiplicity           Mult            ....    1
 Number of Electrons    NEL             ....   68
 Basis Dimension        Dim             ....  339

ORBITAL ENERGIES
----------------

  NO   OCC          E(Eh)            E(eV)
   0   2.0000     -20.566514      -559.6433
   1   2.0000     -20.561968      -559.5196
   2   2.0000     -11.296928      -307.4050
   3   2.0000     -11.290752      -307.2370
   4   2.0000     -11.279033      -306.9181
   5   2.0000     -11.242940      -305.9359
   6   2.0000     -11.233006      -305.6656
   7   2.0000     -11.229650      -305.5743
   8   2.0000     -11.225865      -305.4713
   9   2.0000      -1.407964       -38.3126
  10   2.0000      -1.378736       -37.5173
  11   2.0000      -1.184038       -32.2193
  12   2.0000      -0.984250       -26.7828
  13   2.0000      -0.933316       -25.3968
  14   2.0000      -0.911925       -24.8148
  15   2.0000      -0.885855       -24.1053
  16   2.0000      -0.776256       -21.1230
  17   2.0000      -0.750960       -20.4347
  18   2.0000      -0.717617       -19.5274
  19   2.0000      -0.669147       -18.2084
  20   2.0000      -0.652152       -17.7460
  21   2.0000      -0.623618       -16.9695
  22   2.0000      -0.610381       -16.6093
  23   2.0000      -0.590098       -16.0574
  24   2.0000      -0.571693       -15.5566
  25   2.0000      -0.529377       -14.4051
  26   2.0000      -0.525435       -14.2978
  27   2.0000      -0.516928       -14.0663
  28   2.0000      -0.490298       -13.3417
  29   2.0000      -0.483669       -13.1613
  30   2.0000      -0.444307       -12.0902
  31   2.0000      -0.427217       -11.6252
  32   2.0000      -0.423385       -11.5209
  33   2.0000      -0.407180       -11.0799
  34   0.0000       0.129452         3.5226
  35   0.0000       0.150405         4.0927
  36   0.0000       0.166398         4.5279
  37   0.0000       0.177600         4.8327
  38   0.0000       0.178819         4.8659

MULLIKEN ATOMIC CHARGES
-----------------------
   0 O :   -0.446502
   1 C :    0.157426
   2 C :   -0.255448
   3 C :   -0.044429
   4 C :   -0.257209
   5 C :    0.075758
   6 C :   -0.098437
   7 O :   -0.339079
   8 C :   -0.210277
   9 H :    0.320412
  10 H :    0.121337
  11 H :    0.112478
  12 H :    0.135457
  13 H :    0.115042
  14 H :    0.129400
  15 H :    0.116413
  16 H :    0.113729
  17 H :    0.129595
  18 H :    0.124333
Sum of atomic charges:    0.0000000

LOEWDIN ATOMIC CHARGES
----------------------
   0 O :    0.026907
   1 C :   -0.361843
   2 C :   -0.178776
   3 C :   -0.167753
   4 C :   -0.177871
   5 C :   -0.300742
   6 C :   -0.237635
   7 O :    0.162989
   8 C :   -0.157034
   9 H :    0.180688
  10 H :    0.130134
  11 H :    0.136389
  12 H :    0.139958
  13 H :    0.136355
  14 H :    0.134419
  15 H :    0.121463
  16 H :    0.121099
  17 H :    0.148411
  18 H :    0.142842

  Mayer bond orders larger than 0.1
B(  0-O ,  1-C ) :   1.0467 B(  0-O ,  9-H ) :   0.8365 B(  1-C ,  2-C ) :   0.8877
B(  1-C ,  4-C ) :   0.8955 B(  1-C ,  8-C ) :   0.9344 B(  2-C ,  3-C ) :   0.9128
B(  2-C , 10-H ) :   0.9234 B(  2-C , 11-H ) :   0.9087 B(  3-C ,  4-C ) :   0.9194
B(  3-C ,  5-C ) :   0.8793 B(  3-C , 12-H ) :   0.9041 B(  4-C , 13-H ) :   0.9182
B(  4-C , 14-H ) :   0.9181 B(  5-C ,  6-C ) :   0.9830 B(  5-C ,  7-O ) :   0.8836
B(  5-C ,  8-C ) :   0.9194 B(  6-C ,  7-O ) :   0.9035 B(  6-C , 15-H ) :   0.9152
B(  6-C , 16-H ) :   0.9093 B(  8-C , 17-H ) :   0.9097 B(  8-C , 18-H ) :   0.9188

MP2 TOTAL ENERGY:     -422.298496818 Eh
FINAL SINGLE POINT ENERGY      -422.298496817888

DIPOLE MOMENT
-------------
                                X             Y             Z
Electronic contribution:     -1.67074      -0.15554       1.33579
Nuclear contribution   :      2.45785       0.26720      -1.88671
                        -----------------------------------------
Total Dipole Moment    :      0.78711       0.11166      -0.55093
                        -----------------------------------------
Magnitude (a.u.)       :      0.96723
Magnitude (Debye)      :      2.45851

                             ****ORCA TERMINATED NORMALLY****
TOTAL RUN TIME: 0 days 0 hours 17 minutes 51 seconds 350 msec
