                         Program Version 3.0.3 - RELEASE   -
|  1> ! RI-MP2 RIJK def2-TZVP def2-TZVP/C def2-TZVP/JK TIGHTSCF
|  2> % maxcore 2000
|  3> % mp2 density relaxed end
|  4> *xyz 0 1
|  5>  C        0.0035093145     1.5347217802     0.0301378596
|  6>  C        0.0000970894     0.0097278922    -0.0005418210
|  7>  C        0.6472476768    -0.6199801628    -1.2602222641
|  8>  C        0.1178188984    -2.0656513165    -1.1476018441
|  9>  C        0.8842689921    -2.7830137197    -0.0030412593
| 10>  C        1.1056476801    -1.8780883780     1.1884325387
| 11>  C        0.7098999545    -0.6039971832     1.2061109884
| 12>  C       -1.3207870215    -1.7977838486    -0.7246183664
| 13>  C       -1.3916123688    -0.6365512888    -0.0743086791
| 14>  H        1.0264648611     1.9268621710     0.0240115594
| 15>  H       -0.5219670887     1.9457768410    -0.8380201880
| 16>  H       -0.4906459727     1.9138356383     0.9323352540
| 17>  H        0.2619863991    -0.1414485104    -2.1667569930
| 18>  H        1.7391772751    -0.5469943621    -1.2535870549
| 19>  H        0.2032480001    -2.6403070165    -2.0744653965
| 20>  H        0.3409968473    -3.6848876185     0.3147404805
| 21>  H        1.8548046727    -3.1401177759    -0.3760055283
| 22>  H        1.5934532154    -2.3154925733     2.0565556728
| 23>  H        0.8625250773     0.0174316099     2.0853604608
| 24>  H       -2.1275998414    -2.5096541733    -0.8584652250
| 25>  H       -2.2610208009    -0.2200381749     0.4226082153
| 26> *
| 27>
| 28>                          ****END OF INPUT****

CARTESIAN COORDINATES (ANGSTROEM)
---------------------------------
  C      0.003509    1.534722    0.030138
  C      0.000097    0.009728   -0.000542
  C      0.647248   -0.619980   -1.260222
  C      0.117819   -2.065651   -1.147602
  C      0.884269   -2.783014   -0.003041
  C      1.105648   -1.878088    1.188433
  C      0.709900   -0.603997    1.206111
  C     -1.320787   -1.797784   -0.724618
  C     -1.391612   -0.636551   -0.074309
  H      1.026465    1.926862    0.024012
  H     -0.521967    1.945777   -0.838020
  H     -0.490646    1.913836    0.932335
  H      0.261986   -0.141449   -2.166757
  H      1.739177   -0.546994   -1.253587
  H      0.203248   -2.640307   -2.074465
  H      0.340997   -3.684888    0.314740
  H      1.854805   -3.140118   -0.376006
  H      1.593453   -2.315493    2.056556
  H      0.862525    0.017432    2.085360
  H     -2.127600   -2.509654   -0.858465
  H     -2.261021   -0.220038    0.422608

 Total Charge           Charge          ....    0
 Multiplicity           Mult            ....    1
 Number of Electrons    NEL             ....   66
 Basis Dimension        Dim             ....  351

ORBITAL ENERGIES
----------------

  NO   OCC          E(Eh)            E(eV)
   0   2.0000     -11.236415      -305.7584
   1   2.0000     -11.228264      -305.5366
   2   2.0000     -11.224427      -305.4322
   3   2.0000     -11.219839      -305.3073
   4   2.0000     -11.219379      -305.2948
   5   2.0000     -11.217294      -305.2381
   6   2.0000     -11.215565      -305.1910
   7   2.0000     -11.214157      -305.1527
   8   2.0000     -11.213404      -305.1322
   9   2.0000      -1.167194       -31.7610
  10   2.0000      -1.040824       -28.3223
  11   2.0000      -1.032553       -28.0972
  12   2.0000      -0.965277       -26.2665
  13   2.0000      -0.923190       -25.1213
  14   2.0000      -0.840572       -22.8731
  15   2.0000      -0.798863       -21.7382
  16   2.0000      -0.718262       -19.5449
  17   2.0000      -0.705040       -19.1851
  18   2.0000      -0.663217       -18.0471
  19   2.0000      -0.633936       -17.2503
  20   2.0000      -0.596332       -16.2270
  21   2.0000      -0.581543       -15.8246
  22   2.0000      -0.567452       -15.4412
  23   2.0000      -0.548230       -14.9181
  24   2.0000      -0.533635       -14.5209
  25   2.0000      -0.511944       -13.9307
  26   2.0000      -0.508579       -13.8391
  27   2.0000      -0.478830       -13.0296
  28   2.0000      -0.469962       -12.7883
  29   2.0000      -0.448273       -12.1981
  30   2.0000      -0.438243       -11.9252
  31   2.0000      -0.353035        -9.6066
  32   2.0000      -0.323152        -8.7934
  33   0.0000       0.131650         3.5824
  34   0.0000       0.144452         3.9307
  35   0.0000       0.154663         4.2086
  36   0.0000       0.173360         4.7174
  37   0.0000       0.177712         4.8358

MULLIKEN ATOMIC CHARGES
-----------------------
   0 C :   -0.434219
   1 C :    0.358810
   2 C :   -0.310487
   3 C :    0.034986
   4 C :   -0.212894
   5 C :   -0.137306
   6 C :   -0.323885
   7 C :   -0.216908
   8 C :   -0.231317
   9 H :    0.136787
  10 H :    0.136022
  11 H :    0.131066
  12 H :    0.113615
  13 H :    0.120941
  14 H :    0.113341
  15 H :    0.118822
  16 H :    0.123065
  17 H :    0.118230
  18 H :    0.114397
  19 H :    0.126262
  20 H :    0.120670
Sum of atomic charges:   -0.0000000

LOEWDIN ATOMIC CHARGES
----------------------
   0 C :   -0.268645
   1 C :   -0.264676
   2 C :   -0.169480
   3 C :   -0.215473
   4 C :   -0.220787
   5 C :   -0.158124
   6 C :   -0.122740
   7 C :   -0.131846
   8 C :   -0.101934
   9 H :    0.128002
  10 H :    0.127158
  11 H :    0.126113
  12 H :    0.141154
  13 H :    0.139378
  14 H :    0.144860
  15 H :    0.145927
  16 H :    0.145626
  17 H :    0.139675
  18 H :    0.142895
  19 H :    0.135281
  20 H :    0.137636

  Mayer bond orders larger than 0.1
B(  0-C ,  1-C ) :   0.8599 B(  0-C ,  9-H ) :   0.9449 B(  0-C , 10-H ) :   0.9461
B(  0-C , 11-H ) :   0.9386 B(  1-C ,  2-C ) :   0.8873 B(  1-C ,  6-C ) :   0.8621
B(  1-C ,  8-C ) :   0.8606 B(  2-C ,  3-C ) :   0.9284 B(  2-C , 12-H ) :   0.9172
B(  2-C , 13-H ) :   0.9254 B(  3-C ,  4-C ) :   0.9152 B(  3-C ,  7-C ) :   0.8998
B(  3-C , 14-H ) :   0.9263 B(  4-C ,  5-C ) :   0.9407 B(  4-C , 15-H ) :   0.9133
B(  4-C , 16-H ) :   0.9071 B(  5-C ,  6-C ) :   1.8044 B(  5-C , 17-H ) :   0.9314
B(  6-C , 18-H ) :   0.9305 B(  7-C ,  8-C ) :   1.8025 B(  7-C , 19-H ) :   0.9273
B(  8-C , 20-H ) :   0.9239

MP2 TOTAL ENERGY:     -349.325995789 Eh
FINAL SINGLE POINT ENERGY      -349.325995789243

DIPOLE MOMENT
-------------
                                X             Y             Z
Electronic contribution:     -1.18775      -2.11011       0.55166
Nuclear contribution   :      1.24312       2.01866      -0.57726
                        -----------------------------------------
Total Dipole Moment    :      0.05537      -0.09145      -0.02560
                        -----------------------------------------
Magnitude (a.u.)       :      0.10993
Magnitude (Debye)      :      0.27941

                             ****ORCA TERMINATED NORMALLY****
TOTAL RUN TIME: 0 days 0 hours 23 minutes 12 seconds 863 msec
