                         Program Version 3.0.3 - RELEASE   -
|  1> ! RI-MP2 RIJK def2-TZVP def2-TZVP/C def2-TZVP/JK TIGHTSCF
|  2> % maxcore 2000
|  3> % mp2 density relaxed end
|  4> *xyz 0 1
|  5>  C        0.0025456358    -1.1806528565    -0.1158478790
|  6>  C        0.0411576684     0.0185116637    -0.0302584823
|  7>  C        0.0557530981     1.4283163522     0.1258477888
|  8>  O        0.2080188219     2.2800075004    -1.0324769233
|  9>  C        1.1246601918     2.4368013850     0.0502179883
| 10>  C        0.4668729848     3.2780419333     1.1854080713
| 11>  C       -0.9501542792     3.6526433651     0.8356056583
| 12>  C       -0.6476851116     2.2452501806     1.2678149539
| 13>  H       -0.0233852589    -2.2385989005    -0.2043178799
| 14>  H        2.1812572930     2.3305432311    -0.1639879313
| 15>  H        1.0262799112     3.7281539612     1.9935665255
| 16>  H       -1.4551282412     4.2529741829     1.5856117987
| 17>  H       -1.2224810581     3.8647291537    -0.1902394954
| 18>  H       -1.0675847359     1.7723605179     2.1444244564
| 19> *
| 20>
| 21>                          ****END OF INPUT****

CARTESIAN COORDINATES (ANGSTROEM)
---------------------------------
  C      0.002546   -1.180653   -0.115848
  C      0.041158    0.018512   -0.030258
  C      0.055753    1.428316    0.125848
  O      0.208019    2.280008   -1.032477
  C      1.124660    2.436801    0.050218
  C      0.466873    3.278042    1.185408
  C     -0.950154    3.652643    0.835606
  C     -0.647685    2.245250    1.267815
  H     -0.023385   -2.238599   -0.204318
  H      2.181257    2.330543   -0.163988
  H      1.026280    3.728154    1.993567
  H     -1.455128    4.252974    1.585612
  H     -1.222481    3.864729   -0.190239
  H     -1.067585    1.772361    2.144424

 Total Charge           Charge          ....    0
 Multiplicity           Mult            ....    1
 Number of Electrons    NEL             ....   56
 Basis Dimension        Dim             ....  284

ORBITAL ENERGIES
----------------

  NO   OCC          E(Eh)            E(eV)
   0   2.0000     -20.581433      -560.0493
   1   2.0000     -11.318652      -307.9962
   2   2.0000     -11.303888      -307.5944
   3   2.0000     -11.251477      -306.1683
   4   2.0000     -11.248192      -306.0789
   5   2.0000     -11.245881      -306.0160
   6   2.0000     -11.240215      -305.8618
   7   2.0000     -11.239311      -305.8372
   8   2.0000      -1.432247       -38.9734
   9   2.0000      -1.169816       -31.8323
  10   2.0000      -1.055170       -28.7126
  11   2.0000      -0.956462       -26.0266
  12   2.0000      -0.911651       -24.8073
  13   2.0000      -0.814469       -22.1628
  14   2.0000      -0.779881       -21.2216
  15   2.0000      -0.748306       -20.3624
  16   2.0000      -0.712904       -19.3991
  17   2.0000      -0.671771       -18.2798
  18   2.0000      -0.637730       -17.3535
  19   2.0000      -0.582674       -15.8554
  20   2.0000      -0.552559       -15.0359
  21   2.0000      -0.531874       -14.4730
  22   2.0000      -0.509445       -13.8627
  23   2.0000      -0.460159       -12.5216
  24   2.0000      -0.442780       -12.0487
  25   2.0000      -0.408720       -11.1218
  26   2.0000      -0.399847       -10.8804
  27   2.0000      -0.346626        -9.4322
  28   0.0000       0.139638         3.7997
  29   0.0000       0.149997         4.0816
  30   0.0000       0.158592         4.3155
  31   0.0000       0.161963         4.4072
  32   0.0000       0.174456         4.7472

MULLIKEN ATOMIC CHARGES
-----------------------
   0 C :   -0.082241
   1 C :    0.039086
   2 C :   -0.063181
   3 O :   -0.305219
   4 C :   -0.004516
   5 C :   -0.118408
   6 C :   -0.264555
   7 C :   -0.145722
   8 H :    0.198379
   9 H :    0.149955
  10 H :    0.146031
  11 H :    0.135131
  12 H :    0.164854
  13 H :    0.150406
Sum of atomic charges:   -0.0000000

LOEWDIN ATOMIC CHARGES
----------------------
   0 C :   -0.062519
   1 C :   -0.066987
   2 C :   -0.240642
   3 O :    0.212851
   4 C :   -0.181609
   5 C :   -0.166744
   6 C :   -0.195305
   7 C :   -0.131616
   8 H :    0.129695
   9 H :    0.136785
  10 H :    0.138706
  11 H :    0.143685
  12 H :    0.140769
  13 H :    0.142931

  Mayer bond orders larger than 0.1
B(  0-C ,  1-C ) :   2.6247 B(  0-C ,  2-C ) :  -0.1833 B(  0-C ,  8-H ) :   0.8682
B(  1-C ,  2-C ) :   1.1783 B(  2-C ,  3-O ) :   0.8282 B(  2-C ,  4-C ) :   0.9785
B(  2-C ,  7-C ) :   0.8864 B(  3-O ,  4-C ) :   0.9096 B(  4-C ,  5-C ) :   0.8685
B(  4-C ,  9-H ) :   0.9148 B(  5-C ,  6-C ) :   0.9051 B(  5-C ,  7-C ) :   0.8874
B(  5-C , 10-H ) :   0.9164 B(  6-C ,  7-C ) :   0.8982 B(  6-C , 11-H ) :   0.9277
B(  6-C , 12-H ) :   0.9010 B(  7-C , 13-H ) :   0.9192

MP2 TOTAL ENERGY:     -344.664945635 Eh
FINAL SINGLE POINT ENERGY      -344.664945635034

DIPOLE MOMENT
-------------
                                X             Y             Z
Electronic contribution:      0.95511      -2.67554      -2.57023
Nuclear contribution   :     -0.72970       2.63353       3.31214
                        -----------------------------------------
Total Dipole Moment    :      0.22542      -0.04201       0.74192
                        -----------------------------------------
Magnitude (a.u.)       :      0.77654
Magnitude (Debye)      :      1.97381

                             ****ORCA TERMINATED NORMALLY****
TOTAL RUN TIME: 0 days 0 hours 11 minutes 9 seconds 165 msec
