                         Program Version 3.0.3 - RELEASE   -
|  1> ! RI-MP2 RIJK def2-TZVP def2-TZVP/C def2-TZVP/JK TIGHTSCF
|  2> % maxcore 2000
|  3> % mp2 density relaxed end
|  4> *xyz 0 1
|  5>  C        0.2558957542     1.4988326877     0.0020094183
|  6>  C        0.1067421544    -0.0026370681     0.0319988011
|  7>  O        0.6353016865    -0.5836043041    -1.1494436533
|  8>  C        1.0659716624    -1.8730045846    -0.7877501883
|  9>  C        2.4286207615    -1.9510574304    -0.0985256184
| 10>  O        3.3021326030    -0.8785276107    -0.0852666466
| 11>  C        1.1533890454    -1.9045585062     0.7195717312
| 12>  C        0.6639139415    -2.9756494564     1.6492112202
| 13>  O        0.8586252303    -0.5669188982     1.1094108260
| 14>  H       -0.0989528240     1.9299727621     0.9412418999
| 15>  H        1.3047190618     1.7664383258    -0.1490697541
| 16>  H       -0.3335108986     1.9111926104    -0.8205775664
| 17>  H       -0.9493278135    -0.3040465663     0.1479936808
| 18>  H        0.6763044975    -2.6854425088    -1.3934914922
| 19>  H        2.9425501219    -2.9069186271    -0.1661176543
| 20>  H        2.8792632122    -0.1976386609     0.4560983583
| 21>  H        0.9249084461    -3.9641792793     1.2596258622
| 22>  H        1.1216380732    -2.8706068400     2.6383617015
| 23>  H       -0.4240635257    -2.9294850247     1.7666131140
| 24> *
| 25>
| 26>                          ****END OF INPUT****

CARTESIAN COORDINATES (ANGSTROEM)
---------------------------------
  C      0.255896    1.498833    0.002009
  C      0.106742   -0.002637    0.031999
  O      0.635302   -0.583604   -1.149444
  C      1.065972   -1.873005   -0.787750
  C      2.428621   -1.951057   -0.098526
  O      3.302133   -0.878528   -0.085267
  C      1.153389   -1.904559    0.719572
  C      0.663914   -2.975649    1.649211
  O      0.858625   -0.566919    1.109411
  H     -0.098953    1.929973    0.941242
  H      1.304719    1.766438   -0.149070
  H     -0.333511    1.911193   -0.820578
  H     -0.949328   -0.304047    0.147994
  H      0.676304   -2.685443   -1.393491
  H      2.942550   -2.906919   -0.166118
  H      2.879263   -0.197639    0.456098
  H      0.924908   -3.964179    1.259626
  H      1.121638   -2.870607    2.638362
  H     -0.424064   -2.929485    1.766613

 Total Charge           Charge          ....    0
 Multiplicity           Mult            ....    1
 Number of Electrons    NEL             ....   70
 Basis Dimension        Dim             ....  339

ORBITAL ENERGIES
----------------

  NO   OCC          E(Eh)            E(eV)
   0   2.0000     -20.579715      -560.0025
   1   2.0000     -20.572800      -559.8143
   2   2.0000     -20.559809      -559.4608
   3   2.0000     -11.344356      -308.6956
   4   2.0000     -11.296569      -307.3953
   5   2.0000     -11.289737      -307.2094
   6   2.0000     -11.286803      -307.1295
   7   2.0000     -11.234589      -305.7087
   8   2.0000     -11.225986      -305.4746
   9   2.0000      -1.457742       -39.6672
  10   2.0000      -1.369942       -37.2780
  11   2.0000      -1.343815       -36.5671
  12   2.0000      -1.132925       -30.8285
  13   2.0000      -1.010799       -27.5052
  14   2.0000      -0.982263       -26.7287
  15   2.0000      -0.851241       -23.1634
  16   2.0000      -0.822724       -22.3875
  17   2.0000      -0.806328       -21.9413
  18   2.0000      -0.738533       -20.0965
  19   2.0000      -0.696991       -18.9661
  20   2.0000      -0.657261       -17.8850
  21   2.0000      -0.631513       -17.1843
  22   2.0000      -0.618975       -16.8432
  23   2.0000      -0.599092       -16.3021
  24   2.0000      -0.580227       -15.7888
  25   2.0000      -0.576299       -15.6819
  26   2.0000      -0.557615       -15.1735
  27   2.0000      -0.554060       -15.0767
  28   2.0000      -0.538870       -14.6634
  29   2.0000      -0.533150       -14.5078
  30   2.0000      -0.530897       -14.4464
  31   2.0000      -0.498145       -13.5552
  32   2.0000      -0.460044       -12.5184
  33   2.0000      -0.395202       -10.7540
  34   2.0000      -0.377567       -10.2741
  35   0.0000       0.135899         3.6980
  36   0.0000       0.149041         4.0556
  37   0.0000       0.168745         4.5918
  38   0.0000       0.177426         4.8280
  39   0.0000       0.188915         5.1406

MULLIKEN ATOMIC CHARGES
-----------------------
   0 C :   -0.346037
   1 C :    0.171541
   2 O :   -0.299936
   3 C :    0.008032
   4 C :    0.016887
   5 O :   -0.452850
   6 C :    0.167827
   7 C :   -0.388427
   8 O :   -0.342988
   9 H :    0.139573
  10 H :    0.128835
  11 H :    0.141394
  12 H :    0.074410
  13 H :    0.127712
  14 H :    0.115915
  15 H :    0.333217
  16 H :    0.126908
  17 H :    0.144760
  18 H :    0.133225
Sum of atomic charges:   -0.0000000

LOEWDIN ATOMIC CHARGES
----------------------
   0 C :   -0.286875
   1 C :   -0.397045
   2 O :    0.207459
   3 C :   -0.247291
   4 C :   -0.285347
   5 O :    0.016526
   6 C :   -0.325237
   7 C :   -0.268361
   8 O :    0.206423
   9 H :    0.131997
  10 H :    0.128648
  11 H :    0.133893
  12 H :    0.125736
  13 H :    0.136375
  14 H :    0.143683
  15 H :    0.182713
  16 H :    0.133447
  17 H :    0.133398
  18 H :    0.129859

  Mayer bond orders larger than 0.1
B(  0-C ,  1-C ) :   0.9420 B(  0-C ,  9-H ) :   0.9326 B(  0-C , 10-H ) :   0.9242
B(  0-C , 11-H ) :   0.9319 B(  1-C ,  2-O ) :   0.9758 B(  1-C ,  8-O ) :   0.9176
B(  1-C , 12-H ) :   0.9172 B(  2-O ,  3-C ) :   0.9558 B(  3-C ,  4-C ) :   0.8090
B(  3-C ,  6-C ) :   0.8562 B(  3-C , 13-H ) :   0.9192 B(  4-C ,  5-O ) :   0.9895
B(  4-C ,  6-C ) :   0.9162 B(  4-C , 14-H ) :   0.9428 B(  5-O , 15-H ) :   0.8131
B(  6-C ,  7-C ) :   0.8987 B(  6-C ,  8-O ) :   0.9005 B(  7-C , 16-H ) :   0.9299
B(  7-C , 17-H ) :   0.9376 B(  7-C , 18-H ) :   0.9309

MP2 TOTAL ENERGY:     -459.410343202 Eh
FINAL SINGLE POINT ENERGY      -459.410343201683

DIPOLE MOMENT
-------------
                                X             Y             Z
Electronic contribution:      2.66667      -0.09547      -2.46492
Nuclear contribution   :     -3.46424      -0.27672       2.87363
                        -----------------------------------------
Total Dipole Moment    :     -0.79757      -0.37218       0.40871
                        -----------------------------------------
Magnitude (a.u.)       :      0.97040
Magnitude (Debye)      :      2.46657

                             ****ORCA TERMINATED NORMALLY****
TOTAL RUN TIME: 0 days 0 hours 16 minutes 21 seconds 953 msec
