                         Program Version 3.0.3 - RELEASE   -
|  1> ! RI-MP2 RIJK def2-TZVP def2-TZVP/C def2-TZVP/JK TIGHTSCF
|  2> % maxcore 2000
|  3> % mp2 density relaxed end
|  4> *xyz 0 1
|  5>  C        0.1302867962     1.4179248031    -0.0414323369
|  6>  C       -0.0036240754    -0.0925229217     0.0254650967
|  7>  O        0.9370519700    -0.8292779131     0.1824740492
|  8>  C       -1.4426482372    -0.6455723326    -0.1036353819
|  9>  O       -1.4367684062    -1.9989124699    -0.5115669172
| 10>  C       -1.7897544208    -2.8353747524     0.5847733292
| 11>  C       -2.2978275597    -1.9029311115     1.6569804521
| 12>  C       -2.8770326521    -2.4025564094     2.9393184418
| 13>  C       -2.1186714727    -0.6485095690     1.2487928603
| 14>  H        1.1379146582     1.7165451116     0.2497680688
| 15>  H       -0.0643995814     1.7554280103    -1.0665623601
| 16>  H       -0.6078367907     1.9119110450     0.5999701757
| 17>  H       -1.9851179739    -0.0453742861    -0.8511716769
| 18>  H       -2.5524594678    -3.5561147406     0.2546567139
| 19>  H       -0.9171223907    -3.4117259065     0.9303341860
| 20>  H       -2.1505691922    -3.0193750217     3.4830096481
| 21>  H       -3.1803574593    -1.5805269799     3.5921514007
| 22>  H       -3.7528663271    -3.0377434812     2.7577888909
| 23>  H       -2.3670701373     0.2516860057     1.7962884195
| 24> *
| 25>
| 26>                          ****END OF INPUT****

CARTESIAN COORDINATES (ANGSTROEM)
---------------------------------
  C      0.130287    1.417925   -0.041432
  C     -0.003624   -0.092523    0.025465
  O      0.937052   -0.829278    0.182474
  C     -1.442648   -0.645572   -0.103635
  O     -1.436768   -1.998912   -0.511567
  C     -1.789754   -2.835375    0.584773
  C     -2.297828   -1.902931    1.656980
  C     -2.877033   -2.402556    2.939318
  C     -2.118671   -0.648510    1.248793
  H      1.137915    1.716545    0.249768
  H     -0.064400    1.755428   -1.066562
  H     -0.607837    1.911911    0.599970
  H     -1.985118   -0.045374   -0.851172
  H     -2.552459   -3.556115    0.254657
  H     -0.917122   -3.411726    0.930334
  H     -2.150569   -3.019375    3.483010
  H     -3.180357   -1.580527    3.592151
  H     -3.752866   -3.037743    2.757789
  H     -2.367070    0.251686    1.796288

 Total Charge           Charge          ....    0
 Multiplicity           Mult            ....    1
 Number of Electrons    NEL             ....   68
 Basis Dimension        Dim             ....  339

ORBITAL ENERGIES
----------------

  NO   OCC          E(Eh)            E(eV)
   0   2.0000     -20.556149      -559.3613
   1   2.0000     -20.541607      -558.9656
   2   2.0000     -11.325827      -308.1914
   3   2.0000     -11.295727      -307.3723
   4   2.0000     -11.280431      -306.9561
   5   2.0000     -11.249650      -306.1185
   6   2.0000     -11.238081      -305.8037
   7   2.0000     -11.237494      -305.7878
   8   2.0000     -11.234649      -305.7103
   9   2.0000      -1.398991       -38.0685
  10   2.0000      -1.372870       -37.3577
  11   2.0000      -1.101604       -29.9762
  12   2.0000      -1.044258       -28.4157
  13   2.0000      -0.989194       -26.9174
  14   2.0000      -0.950735       -25.8708
  15   2.0000      -0.856825       -23.3154
  16   2.0000      -0.752538       -20.4776
  17   2.0000      -0.739371       -20.1193
  18   2.0000      -0.686582       -18.6829
  19   2.0000      -0.678737       -18.4694
  20   2.0000      -0.630274       -17.1506
  21   2.0000      -0.617773       -16.8104
  22   2.0000      -0.607068       -16.5192
  23   2.0000      -0.588229       -16.0065
  24   2.0000      -0.579242       -15.7620
  25   2.0000      -0.564501       -15.3609
  26   2.0000      -0.557930       -15.1820
  27   2.0000      -0.547812       -14.9067
  28   2.0000      -0.519375       -14.1329
  29   2.0000      -0.491069       -13.3627
  30   2.0000      -0.479751       -13.0547
  31   2.0000      -0.448957       -12.2167
  32   2.0000      -0.414184       -11.2705
  33   2.0000      -0.347420        -9.4538
  34   0.0000       0.126217         3.4345
  35   0.0000       0.134606         3.6628
  36   0.0000       0.139036         3.7834
  37   0.0000       0.165383         4.5003
  38   0.0000       0.174364         4.7447

MULLIKEN ATOMIC CHARGES
-----------------------
   0 C :   -0.434516
   1 C :    0.185517
   2 O :   -0.275901
   3 C :    0.187928
   4 O :   -0.323721
   5 C :   -0.001521
   6 C :   -0.008302
   7 C :   -0.415130
   8 C :   -0.267826
   9 H :    0.154073
  10 H :    0.150321
  11 H :    0.140607
  12 H :    0.124225
  13 H :    0.107071
  14 H :    0.107617
  15 H :    0.147429
  16 H :    0.140284
  17 H :    0.144443
  18 H :    0.137400
Sum of atomic charges:   -0.0000000

LOEWDIN ATOMIC CHARGES
----------------------
   0 C :   -0.280861
   1 C :   -0.329880
   2 O :    0.165329
   3 C :   -0.279935
   4 O :    0.195481
   5 C :   -0.251990
   6 C :   -0.186846
   7 C :   -0.268527
   8 C :   -0.125846
   9 H :    0.134280
  10 H :    0.140116
  11 H :    0.133561
  12 H :    0.149721
  13 H :    0.128638
  14 H :    0.132002
  15 H :    0.135757
  16 H :    0.132635
  17 H :    0.134054
  18 H :    0.142312

  Mayer bond orders larger than 0.1
B(  0-C ,  1-C ) :   0.9043 B(  0-C ,  9-H ) :   0.9340 B(  0-C , 10-H ) :   0.9138
B(  0-C , 11-H ) :   0.9160 B(  1-C ,  2-O ) :   2.0489 B(  1-C ,  3-C ) :   0.8259
B(  3-C ,  4-O ) :   0.9635 B(  3-C ,  8-C ) :   0.9161 B(  3-C , 12-H ) :   0.9009
B(  4-O ,  5-C ) :   0.9444 B(  5-C ,  6-C ) :   0.9968 B(  5-C , 13-H ) :   0.9123
B(  5-C , 14-H ) :   0.8939 B(  6-C ,  7-C ) :   0.8859 B(  6-C ,  8-C ) :   1.7883
B(  7-C , 15-H ) :   0.9291 B(  7-C , 16-H ) :   0.9432 B(  7-C , 17-H ) :   0.9300
B(  8-C , 18-H ) :   0.9012

MP2 TOTAL ENERGY:     -422.332752320 Eh
FINAL SINGLE POINT ENERGY      -422.332752320405

DIPOLE MOMENT
-------------
                                X             Y             Z
Electronic contribution:      3.29934      -1.29818      -4.24102
Nuclear contribution   :     -4.28008       1.92417       4.87043
                        -----------------------------------------
Total Dipole Moment    :     -0.98074       0.62600       0.62941
                        -----------------------------------------
Magnitude (a.u.)       :      1.32283
Magnitude (Debye)      :      3.36236

                             ****ORCA TERMINATED NORMALLY****
TOTAL RUN TIME: 0 days 0 hours 20 minutes 13 seconds 529 msec
