                         Program Version 3.0.3 - RELEASE   -
|  1> ! RI-MP2 RIJK def2-TZVP def2-TZVP/C def2-TZVP/JK TIGHTSCF
|  2> % maxcore 2000
|  3> % mp2 density relaxed end
|  4> *xyz 0 1
|  5>  C       -0.5393917961     1.2663845528     0.2280354920
|  6>  C       -0.1990526434    -0.1902271185     0.4780980666
|  7>  C        1.0043656538    -0.9267015688    -0.0367262536
|  8>  C        0.7698693660    -0.7799926958     1.4733110084
|  9>  C        2.1031376530    -0.0395490326     1.6345661255
| 10>  C        2.1555482052     1.3052929861     2.3497288560
| 11>  O        2.9628338062    -0.9623999634     2.3000156429
| 12>  C        2.2909730778    -0.0829014601     0.0620889052
| 13>  C        3.5531316226    -0.7748125743    -0.4365657299
| 14>  H        0.3415743211     1.8943148591     0.0811064352
| 15>  H       -1.1512866732     1.3551187075    -0.6765130217
| 16>  H       -1.1156698788     1.6877499700     1.0592466163
| 17>  H       -1.0872803386    -0.8202904954     0.4319640042
| 18>  H        0.9194855305    -1.8189601456    -0.6474361855
| 19>  H        0.4571349446    -1.5334418763     2.1875786714
| 20>  H        1.8983395756     1.1775480264     3.4058905090
| 21>  H        3.1681009267     1.7279289594     2.2976875760
| 22>  H        1.4726042863     2.0360957808     1.9132385413
| 23>  H        3.8402142073    -0.5670549480     2.3461764308
| 24>  H        2.2115225540     0.9022448782    -0.4134252485
| 25>  H        3.6751366504    -1.7546081345     0.0309523599
| 26>  H        3.5067783817    -0.9120147334    -1.5223448568
| 27>  H        4.4492611972    -0.1802963836    -0.2224021148
| 28> *
| 29>
| 30>                          ****END OF INPUT****

CARTESIAN COORDINATES (ANGSTROEM)
---------------------------------
  C     -0.539392    1.266385    0.228035
  C     -0.199053   -0.190227    0.478098
  C      1.004366   -0.926702   -0.036726
  C      0.769869   -0.779993    1.473311
  C      2.103138   -0.039549    1.634566
  C      2.155548    1.305293    2.349729
  O      2.962834   -0.962400    2.300016
  C      2.290973   -0.082901    0.062089
  C      3.553132   -0.774813   -0.436566
  H      0.341574    1.894315    0.081106
  H     -1.151287    1.355119   -0.676513
  H     -1.115670    1.687750    1.059247
  H     -1.087280   -0.820290    0.431964
  H      0.919486   -1.818960   -0.647436
  H      0.457135   -1.533442    2.187579
  H      1.898340    1.177548    3.405891
  H      3.168101    1.727929    2.297688
  H      1.472604    2.036096    1.913239
  H      3.840214   -0.567055    2.346176
  H      2.211523    0.902245   -0.413425
  H      3.675137   -1.754608    0.030952
  H      3.506778   -0.912015   -1.522345
  H      4.449261   -0.180296   -0.222402

 Total Charge           Charge          ....    0
 Multiplicity           Mult            ....    1
 Number of Electrons    NEL             ....   70
 Basis Dimension        Dim             ....  363

ORBITAL ENERGIES
----------------

  NO   OCC          E(Eh)            E(eV)
   0   2.0000     -20.549576      -559.1824
   1   2.0000     -11.284291      -307.0612
   2   2.0000     -11.233121      -305.6688
   3   2.0000     -11.226324      -305.4838
   4   2.0000     -11.223502      -305.4070
   5   2.0000     -11.221399      -305.3498
   6   2.0000     -11.215510      -305.1896
   7   2.0000     -11.213517      -305.1353
   8   2.0000     -11.211241      -305.0734
   9   2.0000      -1.359943       -37.0059
  10   2.0000      -1.179563       -32.0975
  11   2.0000      -1.029550       -28.0155
  12   2.0000      -0.990402       -26.9502
  13   2.0000      -0.965382       -26.2694
  14   2.0000      -0.873873       -23.7793
  15   2.0000      -0.842033       -22.9129
  16   2.0000      -0.748999       -20.3813
  17   2.0000      -0.721009       -19.6196
  18   2.0000      -0.677517       -18.4362
  19   2.0000      -0.644351       -17.5337
  20   2.0000      -0.632901       -17.2221
  21   2.0000      -0.604126       -16.4391
  22   2.0000      -0.583510       -15.8781
  23   2.0000      -0.567312       -15.4373
  24   2.0000      -0.558398       -15.1948
  25   2.0000      -0.550822       -14.9886
  26   2.0000      -0.538731       -14.6596
  27   2.0000      -0.523639       -14.2489
  28   2.0000      -0.497974       -13.5506
  29   2.0000      -0.490699       -13.3526
  30   2.0000      -0.480420       -13.0729
  31   2.0000      -0.437778       -11.9126
  32   2.0000      -0.416869       -11.3436
  33   2.0000      -0.400825       -10.9070
  34   2.0000      -0.363815        -9.8999
  35   0.0000       0.126701         3.4477
  36   0.0000       0.150046         4.0830
  37   0.0000       0.162243         4.4149
  38   0.0000       0.170018         4.6264
  39   0.0000       0.193183         5.2568

MULLIKEN ATOMIC CHARGES
-----------------------
   0 C :   -0.394047
   1 C :   -0.091521
   2 C :   -0.170532
   3 C :   -0.099269
   4 C :    0.184854
   5 C :   -0.419515
   6 O :   -0.456205
   7 C :   -0.010320
   8 C :   -0.510353
   9 H :    0.126545
  10 H :    0.134666
  11 H :    0.135375
  12 H :    0.112154
  13 H :    0.127791
  14 H :    0.125924
  15 H :    0.142871
  16 H :    0.116760
  17 H :    0.120344
  18 H :    0.309965
  19 H :    0.090160
  20 H :    0.162909
  21 H :    0.134644
  22 H :    0.126800
Sum of atomic charges:    0.0000000

LOEWDIN ATOMIC CHARGES
----------------------
   0 C :   -0.296196
   1 C :   -0.213651
   2 C :   -0.141181
   3 C :   -0.126199
   4 C :   -0.335671
   5 C :   -0.282220
   6 O :    0.018856
   7 C :   -0.199324
   8 C :   -0.302170
   9 H :    0.119389
  10 H :    0.126433
  11 H :    0.125512
  12 H :    0.160627
  13 H :    0.135993
  14 H :    0.140120
  15 H :    0.129779
  16 H :    0.122649
  17 H :    0.125603
  18 H :    0.173792
  19 H :    0.141969
  20 H :    0.129677
  21 H :    0.125962
  22 H :    0.120252

  Mayer bond orders larger than 0.1
B(  0-C ,  1-C ) :   0.8979 B(  0-C ,  9-H ) :   0.9396 B(  0-C , 10-H ) :   0.9348
B(  0-C , 11-H ) :   0.9371 B(  1-C ,  2-C ) :   0.8769 B(  1-C ,  3-C ) :   0.8547
B(  1-C , 12-H ) :   0.9318 B(  2-C ,  3-C ) :   0.8445 B(  2-C ,  7-C ) :   0.8870
B(  2-C , 13-H ) :   0.9183 B(  3-C ,  4-C ) :   0.8961 B(  3-C , 14-H ) :   0.9200
B(  4-C ,  5-C ) :   0.9469 B(  4-C ,  6-O ) :   0.9741 B(  4-C ,  7-C ) :   0.9389
B(  5-C , 15-H ) :   0.9420 B(  5-C , 16-H ) :   0.9197 B(  5-C , 17-H ) :   0.9290
B(  6-O , 18-H ) :   0.8428 B(  7-C ,  8-C ) :   0.8300 B(  7-C , 19-H ) :   0.9149
B(  8-C , 20-H ) :   0.9418 B(  8-C , 21-H ) :   0.9372 B(  8-C , 22-H ) :   0.9458

MP2 TOTAL ENERGY:     -387.591988760 Eh
FINAL SINGLE POINT ENERGY      -387.591988760270

DIPOLE MOMENT
-------------
                                X             Y             Z
Electronic contribution:      0.13300      -4.07183       2.20887
Nuclear contribution   :     -0.01757       4.52991      -2.44146
                        -----------------------------------------
Total Dipole Moment    :      0.11543       0.45808      -0.23259
                        -----------------------------------------
Magnitude (a.u.)       :      0.52655
Magnitude (Debye)      :      1.33839

                             ****ORCA TERMINATED NORMALLY****
TOTAL RUN TIME: 0 days 0 hours 21 minutes 9 seconds 347 msec
