                         Program Version 3.0.3 - RELEASE   -
|  1> ! RI-MP2 RIJK def2-TZVP def2-TZVP/C def2-TZVP/JK TIGHTSCF
|  2> % maxcore 2000
|  3> % mp2 density relaxed end
|  4> *xyz 0 1
|  5>  C       -0.6862301907     0.8477027178     0.0391398788
|  6>  N        0.5825842430     0.1168392888     0.1509653941
|  7>  C        1.0047181422    -0.5528281213    -1.0152596683
|  8>  C        1.7974507266    -0.1582051701    -2.0742443626
|  9>  C        1.9207314227    -1.2699321732    -2.9508539318
| 10>  C        1.1921803504    -2.3014827236    -2.4074271945
| 11>  N        0.6429459946    -1.8700020278    -1.2236851960
| 12>  C       -0.1780043288    -2.6616430374    -0.3333824040
| 13>  H       -0.6887250070     1.6044192708    -0.7600105699
| 14>  H       -1.4971748537     0.1423590835    -0.1654568838
| 15>  H       -0.9023952086     1.3393229908     0.9925851151
| 16>  H        1.3135048736     0.7400388080     0.4706121908
| 17>  H        2.2392785188     0.8197066513    -2.1944325185
| 18>  H        2.4781275197    -1.3086979030    -3.8742410130
| 19>  H        1.0153791349    -3.3065757498    -2.7565904935
| 20>  H        0.1993926036    -3.6868184156    -0.2939612581
| 21>  H       -0.1285729048    -2.2200413656     0.6634376732
| 22>  H       -1.2259765466    -2.6884514836    -0.6563788780
| 23> *
| 24>
| 25>                          ****END OF INPUT****

CARTESIAN COORDINATES (ANGSTROEM)
---------------------------------
  C     -0.686230    0.847703    0.039140
  N      0.582584    0.116839    0.150965
  C      1.004718   -0.552828   -1.015260
  C      1.797451   -0.158205   -2.074244
  C      1.920731   -1.269932   -2.950854
  C      1.192180   -2.301483   -2.407427
  N      0.642946   -1.870002   -1.223685
  C     -0.178004   -2.661643   -0.333382
  H     -0.688725    1.604419   -0.760011
  H     -1.497175    0.142359   -0.165457
  H     -0.902395    1.339323    0.992585
  H      1.313505    0.740039    0.470612
  H      2.239279    0.819707   -2.194433
  H      2.478128   -1.308698   -3.874241
  H      1.015379   -3.306576   -2.756590
  H      0.199393   -3.686818   -0.293961
  H     -0.128573   -2.220041    0.663438
  H     -1.225977   -2.688451   -0.656379

 Total Charge           Charge          ....    0
 Multiplicity           Mult            ....    1
 Number of Electrons    NEL             ....   60
 Basis Dimension        Dim             ....  308

ORBITAL ENERGIES
----------------

  NO   OCC          E(Eh)            E(eV)
   0   2.0000     -15.594170      -424.3389
   1   2.0000     -15.558363      -423.3646
   2   2.0000     -11.273713      -306.7733
   3   2.0000     -11.260423      -306.4117
   4   2.0000     -11.251854      -306.1785
   5   2.0000     -11.236671      -305.7654
   6   2.0000     -11.200592      -304.7836
   7   2.0000     -11.196072      -304.6606
   8   2.0000      -1.301128       -35.4055
   9   2.0000      -1.201979       -32.7075
  10   2.0000      -1.065835       -29.0029
  11   2.0000      -0.967238       -26.3199
  12   2.0000      -0.924954       -25.1693
  13   2.0000      -0.896525       -24.3957
  14   2.0000      -0.778319       -21.1791
  15   2.0000      -0.734441       -19.9852
  16   2.0000      -0.702230       -19.1086
  17   2.0000      -0.643967       -17.5232
  18   2.0000      -0.621562       -16.9136
  19   2.0000      -0.615772       -16.7560
  20   2.0000      -0.580484       -15.7958
  21   2.0000      -0.572016       -15.5653
  22   2.0000      -0.564275       -15.3547
  23   2.0000      -0.532416       -14.4878
  24   2.0000      -0.529412       -14.4060
  25   2.0000      -0.518481       -14.1086
  26   2.0000      -0.507769       -13.8171
  27   2.0000      -0.399449       -10.8696
  28   2.0000      -0.329872        -8.9763
  29   2.0000      -0.279332        -7.6010
  30   0.0000       0.131571         3.5802
  31   0.0000       0.155164         4.2222
  32   0.0000       0.165636         4.5072
  33   0.0000       0.182673         4.9708
  34   0.0000       0.186899         5.0858

MULLIKEN ATOMIC CHARGES
-----------------------
   0 C :   -0.267305
   1 N :   -0.389668
   2 C :    0.139842
   3 C :   -0.267647
   4 C :   -0.150284
   5 C :   -0.165377
   6 N :   -0.001123
   7 C :   -0.349942
   8 H :    0.123299
   9 H :    0.128358
  10 H :    0.130649
  11 H :    0.223981
  12 H :    0.118157
  13 H :    0.124534
  14 H :    0.135884
  15 H :    0.147093
  16 H :    0.175704
  17 H :    0.143845
Sum of atomic charges:   -0.0000000

LOEWDIN ATOMIC CHARGES
----------------------
   0 C :   -0.333095
   1 N :   -0.004565
   2 C :   -0.297005
   3 C :   -0.192780
   4 C :   -0.204710
   5 C :   -0.228017
   6 N :    0.244721
   7 C :   -0.277264
   8 H :    0.104006
   9 H :    0.114699
  10 H :    0.113446
  11 H :    0.180248
  12 H :    0.136325
  13 H :    0.136486
  14 H :    0.132503
  15 H :    0.124268
  16 H :    0.132702
  17 H :    0.118032

  Mayer bond orders larger than 0.1
B(  0-C ,  1-N ) :   0.8849 B(  0-C ,  8-H ) :   0.9290 B(  0-C ,  9-H ) :   0.9425
B(  0-C , 10-H ) :   0.9361 B(  1-N ,  2-C ) :   1.0396 B(  1-N , 11-H ) :   0.8868
B(  2-C ,  3-C ) :   1.4343 B(  2-C ,  6-N ) :   1.1282 B(  3-C ,  4-C ) :   1.2690
B(  3-C , 12-H ) :   0.9438 B(  4-C ,  5-C ) :   1.4607 B(  4-C , 13-H ) :   0.9324
B(  5-C ,  6-N ) :   1.1382 B(  5-C , 14-H ) :   0.9204 B(  6-N ,  7-C ) :   0.8576
B(  7-C , 15-H ) :   0.9314 B(  7-C , 16-H ) :   0.9246 B(  7-C , 17-H ) :   0.9286

MP2 TOTAL ENERGY:     -343.396962756 Eh
FINAL SINGLE POINT ENERGY      -343.396962756256

DIPOLE MOMENT
-------------
                                X             Y             Z
Electronic contribution:      3.77036      -1.02019      -2.44694
Nuclear contribution   :     -4.24090       1.02845       2.92071
                        -----------------------------------------
Total Dipole Moment    :     -0.47054       0.00826       0.47377
                        -----------------------------------------
Magnitude (a.u.)       :      0.66779
Magnitude (Debye)      :      1.69738

                             ****ORCA TERMINATED NORMALLY****
TOTAL RUN TIME: 0 days 0 hours 13 minutes 35 seconds 20 msec
