                         Program Version 3.0.3 - RELEASE   -
|  1> ! RI-MP2 RIJK def2-TZVP def2-TZVP/C def2-TZVP/JK TIGHTSCF
|  2> % maxcore 2000
|  3> % mp2 density relaxed end
|  4> *xyz 0 1
|  5>  C        0.0853748357     1.5222529967    -0.0931761970
|  6>  C        0.0379435191    -0.0057866966    -0.0066772659
|  7>  C        0.7049860492    -0.5590594894     1.2440047025
|  8>  C        0.7124068120    -2.0990415116     1.3809616271
|  9>  C        2.0223076971    -2.3758893511     2.1171997021
| 10>  C        3.3355786009    -2.3175789262     1.3455690255
| 11>  C        3.4352751212    -2.4072323414    -0.1594184397
| 12>  C        2.8042512675    -1.0902564273     2.0460446634
| 13>  O        2.0931449398    -0.1752461380     1.2534159903
| 14>  H        1.1198497311     1.8748181432    -0.0860508579
| 15>  H       -0.3947358890     1.8810731093    -1.0086510818
| 16>  H       -0.4309213741     1.9819050782     0.7569998504
| 17>  H       -1.0033614306    -0.3525265282    -0.0144495799
| 18>  H        0.5222507291    -0.4474029695    -0.8866722897
| 19>  H        0.2218488636    -0.1224949148     2.1351174225
| 20>  H       -0.1499652202    -2.4545992028     1.9513974921
| 21>  H        0.6741148899    -2.5787096019     0.3963731387
| 22>  H        1.9910815990    -2.9665106604     3.0252517996
| 23>  H        4.1549277237    -2.8007845122     1.8742812920
| 24>  H        2.7429915219    -1.7168592886    -0.6454103414
| 25>  H        4.4448349854    -2.1399384138    -0.4891289082
| 26>  H        3.2254815212    -3.4207553148    -0.5187017926
| 27>  H        3.3221981766    -0.6484374188     2.8926801279
| 28> *
| 29>
| 30>                          ****END OF INPUT****

CARTESIAN COORDINATES (ANGSTROEM)
---------------------------------
  C      0.085375    1.522253   -0.093176
  C      0.037944   -0.005787   -0.006677
  C      0.704986   -0.559059    1.244005
  C      0.712407   -2.099042    1.380962
  C      2.022308   -2.375889    2.117200
  C      3.335579   -2.317579    1.345569
  C      3.435275   -2.407232   -0.159418
  C      2.804251   -1.090256    2.046045
  O      2.093145   -0.175246    1.253416
  H      1.119850    1.874818   -0.086051
  H     -0.394736    1.881073   -1.008651
  H     -0.430921    1.981905    0.757000
  H     -1.003361   -0.352527   -0.014450
  H      0.522251   -0.447403   -0.886672
  H      0.221849   -0.122495    2.135117
  H     -0.149965   -2.454599    1.951397
  H      0.674115   -2.578710    0.396373
  H      1.991082   -2.966511    3.025252
  H      4.154928   -2.800785    1.874281
  H      2.742992   -1.716859   -0.645410
  H      4.444835   -2.139938   -0.489129
  H      3.225482   -3.420755   -0.518702
  H      3.322198   -0.648437    2.892680

 Total Charge           Charge          ....    0
 Multiplicity           Mult            ....    1
 Number of Electrons    NEL             ....   70
 Basis Dimension        Dim             ....  363

ORBITAL ENERGIES
----------------

  NO   OCC          E(Eh)            E(eV)
   0   2.0000     -20.547480      -559.1254
   1   2.0000     -11.274558      -306.7963
   2   2.0000     -11.270231      -306.6786
   3   2.0000     -11.229426      -305.5682
   4   2.0000     -11.226307      -305.4833
   5   2.0000     -11.224380      -305.4309
   6   2.0000     -11.218417      -305.2686
   7   2.0000     -11.211631      -305.0840
   8   2.0000     -11.206640      -304.9482
   9   2.0000      -1.377754       -37.4906
  10   2.0000      -1.132401       -30.8142
  11   2.0000      -1.062339       -28.9077
  12   2.0000      -0.995266       -27.0826
  13   2.0000      -0.955620       -26.0037
  14   2.0000      -0.868790       -23.6410
  15   2.0000      -0.802448       -21.8357
  16   2.0000      -0.772190       -21.0124
  17   2.0000      -0.751338       -20.4449
  18   2.0000      -0.706449       -19.2235
  19   2.0000      -0.645998       -17.5785
  20   2.0000      -0.622520       -16.9396
  21   2.0000      -0.586942       -15.9715
  22   2.0000      -0.577905       -15.7256
  23   2.0000      -0.570126       -15.5139
  24   2.0000      -0.559666       -15.2293
  25   2.0000      -0.548106       -14.9147
  26   2.0000      -0.527552       -14.3554
  27   2.0000      -0.513803       -13.9813
  28   2.0000      -0.502176       -13.6649
  29   2.0000      -0.494789       -13.4639
  30   2.0000      -0.479048       -13.0356
  31   2.0000      -0.448806       -12.2126
  32   2.0000      -0.441300       -12.0084
  33   2.0000      -0.392119       -10.6701
  34   2.0000      -0.374443       -10.1891
  35   0.0000       0.139170         3.7870
  36   0.0000       0.154758         4.2112
  37   0.0000       0.158748         4.3198
  38   0.0000       0.170277         4.6335
  39   0.0000       0.192630         5.2417

MULLIKEN ATOMIC CHARGES
-----------------------
   0 C :   -0.390203
   1 C :   -0.187962
   2 C :    0.027702
   3 C :   -0.237120
   4 C :   -0.107952
   5 C :   -0.124579
   6 C :   -0.407668
   7 C :    0.059285
   8 O :   -0.325580
   9 H :    0.145701
  10 H :    0.130084
  11 H :    0.116649
  12 H :    0.108967
  13 H :    0.105882
  14 H :    0.075206
  15 H :    0.127305
  16 H :    0.121456
  17 H :    0.129334
  18 H :    0.112188
  19 H :    0.142546
  20 H :    0.133702
  21 H :    0.129071
  22 H :    0.115988
Sum of atomic charges:   -0.0000000

LOEWDIN ATOMIC CHARGES
----------------------
   0 C :   -0.316973
   1 C :   -0.278233
   2 C :   -0.293717
   3 C :   -0.214295
   4 C :   -0.187901
   5 C :   -0.215822
   6 C :   -0.294562
   7 C :   -0.263627
   8 O :    0.198456
   9 H :    0.126468
  10 H :    0.119496
  11 H :    0.120259
  12 H :    0.141020
  13 H :    0.137476
  14 H :    0.137537
  15 H :    0.140132
  16 H :    0.140396
  17 H :    0.142364
  18 H :    0.150763
  19 H :    0.127274
  20 H :    0.127775
  21 H :    0.124465
  22 H :    0.131248

  Mayer bond orders larger than 0.1
B(  0-C ,  1-C ) :   0.9262 B(  0-C ,  9-H ) :   0.9365 B(  0-C , 10-H ) :   0.9407
B(  0-C , 11-H ) :   0.9367 B(  1-C ,  2-C ) :   0.9348 B(  1-C , 12-H ) :   0.9312
B(  1-C , 13-H ) :   0.9254 B(  2-C ,  3-C ) :   0.9591 B(  2-C ,  8-O ) :   0.9139
B(  2-C , 14-H ) :   0.9184 B(  3-C ,  4-C ) :   0.9288 B(  3-C , 15-H ) :   0.9228
B(  3-C , 16-H ) :   0.9187 B(  4-C ,  5-C ) :   0.8766 B(  4-C ,  7-C ) :   0.8436
B(  4-C , 17-H ) :   0.9232 B(  5-C ,  6-C ) :   0.9062 B(  5-C ,  7-C ) :   0.8745
B(  5-C , 18-H ) :   0.9245 B(  6-C , 19-H ) :   0.9363 B(  6-C , 20-H ) :   0.9356
B(  6-C , 21-H ) :   0.9375 B(  7-C ,  8-O ) :   0.9741 B(  7-C , 22-H ) :   0.9408

MP2 TOTAL ENERGY:     -387.609864805 Eh
FINAL SINGLE POINT ENERGY      -387.609864805416

DIPOLE MOMENT
-------------
                                X             Y             Z
Electronic contribution:      2.61201      -0.81475       4.30430
Nuclear contribution   :     -2.87041       0.37900      -4.10826
                        -----------------------------------------
Total Dipole Moment    :     -0.25841      -0.43575       0.19604
                        -----------------------------------------
Magnitude (a.u.)       :      0.54321
Magnitude (Debye)      :      1.38074

                             ****ORCA TERMINATED NORMALLY****
TOTAL RUN TIME: 0 days 0 hours 32 minutes 53 seconds 428 msec
