                         Program Version 3.0.3 - RELEASE   -
|  1> ! RI-MP2 RIJK def2-TZVP def2-TZVP/C def2-TZVP/JK TIGHTSCF
|  2> % maxcore 2000
|  3> % mp2 density relaxed end
|  4> *xyz 0 1
|  5>  O        0.0608129371     1.4046184061     0.2042965635
|  6>  C        0.0630074693     0.0026564169    -0.0258226138
|  7>  C        0.6790891756    -0.7129549059     1.1914100247
|  8>  C       -0.1780093658    -1.6307029617     1.6712888034
|  9>  C       -0.8737852970    -1.4297886194     2.9846734352
| 10>  C       -2.0579139441    -0.8979561972     2.6326598824
| 11>  C       -2.3035934606    -1.0128613117     1.1415640952
| 12>  C       -1.3180972735    -0.6507349671    -0.0943860386
| 13>  C       -1.2575005335    -1.9412872014     0.6368199245
| 14>  H       -0.5040022019     1.5624813606     0.9700240565
| 15>  H        0.5899784531    -0.1108119723    -0.9828792172
| 16>  H        1.4128353265    -0.1771373448     1.7856046510
| 17>  H       -0.4275388674    -1.4455674544     3.9694733982
| 18>  H       -2.7826324311    -0.4628364581     3.3106819724
| 19>  H       -3.3321442352    -1.0919678550     0.8030927495
| 20>  H       -1.8747402084    -0.5617513558    -1.0235048762
| 21>  H       -1.4152207430    -2.9340689287     0.2267120193
| 22> *
| 23>
| 24>                          ****END OF INPUT****

CARTESIAN COORDINATES (ANGSTROEM)
---------------------------------
  O      0.060813    1.404618    0.204297
  C      0.063007    0.002656   -0.025823
  C      0.679089   -0.712955    1.191410
  C     -0.178009   -1.630703    1.671289
  C     -0.873785   -1.429789    2.984673
  C     -2.057914   -0.897956    2.632660
  C     -2.303593   -1.012861    1.141564
  C     -1.318097   -0.650735   -0.094386
  C     -1.257501   -1.941287    0.636820
  H     -0.504002    1.562481    0.970024
  H      0.589978   -0.110812   -0.982879
  H      1.412835   -0.177137    1.785605
  H     -0.427539   -1.445567    3.969473
  H     -2.782632   -0.462836    3.310682
  H     -3.332144   -1.091968    0.803093
  H     -1.874740   -0.561751   -1.023505
  H     -1.415221   -2.934069    0.226712

 Total Charge           Charge          ....    0
 Multiplicity           Mult            ....    1
 Number of Electrons    NEL             ....   64
 Basis Dimension        Dim             ....  327

ORBITAL ENERGIES
----------------

  NO   OCC          E(Eh)            E(eV)
   0   2.0000     -20.556103      -559.3600
   1   2.0000     -11.295239      -307.3591
   2   2.0000     -11.253440      -306.2217
   3   2.0000     -11.250904      -306.1527
   4   2.0000     -11.248762      -306.0944
   5   2.0000     -11.247689      -306.0652
   6   2.0000     -11.242403      -305.9213
   7   2.0000     -11.236499      -305.7607
   8   2.0000     -11.230702      -305.6029
   9   2.0000      -1.363753       -37.1096
  10   2.0000      -1.215822       -33.0842
  11   2.0000      -1.060678       -28.8625
  12   2.0000      -1.040137       -28.3036
  13   2.0000      -0.927098       -25.2276
  14   2.0000      -0.857329       -23.3291
  15   2.0000      -0.796943       -21.6859
  16   2.0000      -0.754144       -20.5213
  17   2.0000      -0.736696       -20.0465
  18   2.0000      -0.693512       -18.8714
  19   2.0000      -0.658136       -17.9088
  20   2.0000      -0.646363       -17.5884
  21   2.0000      -0.609183       -16.5767
  22   2.0000      -0.573846       -15.6151
  23   2.0000      -0.561052       -15.2670
  24   2.0000      -0.530480       -14.4351
  25   2.0000      -0.512875       -13.9560
  26   2.0000      -0.502450       -13.6724
  27   2.0000      -0.453567       -12.3422
  28   2.0000      -0.445502       -12.1227
  29   2.0000      -0.419595       -11.4177
  30   2.0000      -0.391594       -10.6558
  31   2.0000      -0.295634        -8.0446
  32   0.0000       0.102578         2.7913
  33   0.0000       0.131413         3.5759
  34   0.0000       0.148867         4.0509
  35   0.0000       0.162521         4.4224
  36   0.0000       0.173460         4.7201

MULLIKEN ATOMIC CHARGES
-----------------------
   0 O :   -0.454595
   1 C :    0.131148
   2 C :   -0.237148
   3 C :    0.077049
   4 C :   -0.165013
   5 C :   -0.228009
   6 C :   -0.092416
   7 C :   -0.229260
   8 C :   -0.040693
   9 H :    0.317011
  10 H :    0.108291
  11 H :    0.134284
  12 H :    0.144486
  13 H :    0.135064
  14 H :    0.129647
  15 H :    0.122196
  16 H :    0.147957
Sum of atomic charges:    0.0000000

LOEWDIN ATOMIC CHARGES
----------------------
   0 O :   -0.013167
   1 C :   -0.305994
   2 C :   -0.093843
   3 C :   -0.109355
   4 C :   -0.110160
   5 C :   -0.138301
   6 C :   -0.144767
   7 C :   -0.129323
   8 C :   -0.137875
   9 H :    0.177804
  10 H :    0.143921
  11 H :    0.140204
  12 H :    0.141171
  13 H :    0.140055
  14 H :    0.148321
  15 H :    0.147480
  16 H :    0.143828

  Mayer bond orders larger than 0.1
B(  0-O ,  1-C ) :   0.9296 B(  0-O ,  9-H ) :   0.8386 B(  1-C ,  2-C ) :   0.9448
B(  1-C ,  7-C ) :   0.9414 B(  1-C , 10-H ) :   0.9032 B(  2-C ,  3-C ) :   1.6759
B(  2-C , 11-H ) :   0.9426 B(  3-C ,  4-C ) :   0.9307 B(  3-C ,  8-C ) :   0.8713
B(  4-C ,  5-C ) :   1.7559 B(  4-C , 12-H ) :   0.9237 B(  5-C ,  6-C ) :   0.9552
B(  5-C , 13-H ) :   0.9258 B(  6-C ,  7-C ) :   0.8346 B(  6-C ,  8-C ) :   0.8629
B(  6-C , 14-H ) :   0.9260 B(  7-C ,  8-C ) :   0.8680 B(  7-C , 15-H ) :   0.9285
B(  8-C , 16-H ) :   0.8978

MP2 TOTAL ENERGY:     -383.938123432 Eh
FINAL SINGLE POINT ENERGY      -383.938123432334

DIPOLE MOMENT
-------------
                                X             Y             Z
Electronic contribution:      1.34406      -0.53460       0.19663
Nuclear contribution   :     -1.90461       0.26464       0.10450
                        -----------------------------------------
Total Dipole Moment    :     -0.56056      -0.26996       0.30113
                        -----------------------------------------
Magnitude (a.u.)       :      0.69122
Magnitude (Debye)      :      1.75694

                             ****ORCA TERMINATED NORMALLY****
TOTAL RUN TIME: 0 days 0 hours 17 minutes 52 seconds 459 msec
