                         Program Version 3.0.3 - RELEASE   -
|  1> ! RI-MP2 RIJK def2-TZVP def2-TZVP/C def2-TZVP/JK TIGHTSCF
|  2> % maxcore 2000
|  3> % mp2 density relaxed end
|  4> *xyz 0 1
|  5>  N       -0.1204988457     1.2747218625     0.2071835509
|  6>  C       -0.0088611119     0.0290985035     0.0032985527
|  7>  N        1.1375525384    -0.7493276556    -0.1741079310
|  8>  C        0.9184073952    -2.0880135267    -0.4847480771
|  9>  O        1.7835649680    -2.9133250489    -0.6398741536
| 10>  C       -0.5915563170    -2.2748624345    -0.5990695155
| 11>  C       -1.2607305697    -2.9492685786     0.6257453707
| 12>  N       -1.4504558954    -1.6047430406     1.2212717117
| 13>  C       -1.1735610338    -0.9397155945    -0.0800676094
| 14>  H        0.7879441742     1.7399766298     0.2629054694
| 15>  H        2.0774583280    -0.3980842032    -0.0599037151
| 16>  H       -0.8581148045    -2.6482401576    -1.5869530000
| 17>  H       -2.1889503733    -3.4629684198     0.3446947313
| 18>  H       -0.6428273544    -3.6301839921     1.2190271154
| 19>  H       -2.3609911762    -1.4126989510     1.6200752847
| 20>  H       -2.0328846319    -0.5058746527    -0.5962019952
| 21> *
| 22>
| 23>                          ****END OF INPUT****

CARTESIAN COORDINATES (ANGSTROEM)
---------------------------------
  N     -0.120499    1.274722    0.207184
  C     -0.008861    0.029099    0.003299
  N      1.137553   -0.749328   -0.174108
  C      0.918407   -2.088014   -0.484748
  O      1.783565   -2.913325   -0.639874
  C     -0.591556   -2.274862   -0.599070
  C     -1.260731   -2.949269    0.625745
  N     -1.450456   -1.604743    1.221272
  C     -1.173561   -0.939716   -0.080068
  H      0.787944    1.739977    0.262905
  H      2.077458   -0.398084   -0.059904
  H     -0.858115   -2.648240   -1.586953
  H     -2.188950   -3.462968    0.344695
  H     -0.642827   -3.630184    1.219027
  H     -2.360991   -1.412699    1.620075
  H     -2.032885   -0.505875   -0.596202

 Total Charge           Charge          ....    0
 Multiplicity           Mult            ....    1
 Number of Electrons    NEL             ....   66
 Basis Dimension        Dim             ....  321

ORBITAL ENERGIES
----------------

  NO   OCC          E(Eh)            E(eV)
   0   2.0000     -20.544373      -559.0408
   1   2.0000     -15.615383      -424.9162
   2   2.0000     -15.566849      -423.5955
   3   2.0000     -15.546300      -423.0363
   4   2.0000     -11.372076      -309.4499
   5   2.0000     -11.332988      -308.3863
   6   2.0000     -11.287700      -307.1539
   7   2.0000     -11.278963      -306.9162
   8   2.0000     -11.263682      -306.5004
   9   2.0000      -1.409543       -38.3556
  10   2.0000      -1.309992       -35.6467
  11   2.0000      -1.246945       -33.9311
  12   2.0000      -1.184669       -32.2365
  13   2.0000      -1.028752       -27.9938
  14   2.0000      -0.970489       -26.4083
  15   2.0000      -0.874854       -23.8060
  16   2.0000      -0.815369       -22.1873
  17   2.0000      -0.790473       -21.5099
  18   2.0000      -0.739683       -20.1278
  19   2.0000      -0.705912       -19.2089
  20   2.0000      -0.666611       -18.1394
  21   2.0000      -0.644770       -17.5451
  22   2.0000      -0.615858       -16.7583
  23   2.0000      -0.597414       -16.2564
  24   2.0000      -0.576164       -15.6782
  25   2.0000      -0.562346       -15.3022
  26   2.0000      -0.531449       -14.4615
  27   2.0000      -0.506518       -13.7830
  28   2.0000      -0.483459       -13.1556
  29   2.0000      -0.450494       -12.2586
  30   2.0000      -0.427805       -11.6412
  31   2.0000      -0.398758       -10.8508
  32   2.0000      -0.390615       -10.6292
  33   0.0000       0.119905         3.2628
  34   0.0000       0.131240         3.5712
  35   0.0000       0.137078         3.7301
  36   0.0000       0.161858         4.4044
  37   0.0000       0.173542         4.7223

MULLIKEN ATOMIC CHARGES
-----------------------
   0 N :   -0.336270
   1 C :    0.050869
   2 N :   -0.286562
   3 C :    0.167496
   4 O :   -0.302262
   5 C :   -0.029632
   6 C :   -0.141527
   7 N :   -0.390347
   8 C :    0.086490
   9 H :    0.208187
  10 H :    0.241444
  11 H :    0.147353
  12 H :    0.117117
  13 H :    0.125204
  14 H :    0.213495
  15 H :    0.128946
Sum of atomic charges:    0.0000000

LOEWDIN ATOMIC CHARGES
----------------------
   0 N :   -0.048836
   1 C :   -0.337172
   2 N :    0.176627
   3 C :   -0.393965
   4 O :    0.119419
   5 C :   -0.160897
   6 C :   -0.237355
   7 N :    0.009822
   8 C :   -0.193397
   9 H :    0.161296
  10 H :    0.192188
  11 H :    0.156339
  12 H :    0.122944
  13 H :    0.126973
  14 H :    0.160244
  15 H :    0.145772

  Mayer bond orders larger than 0.1
B(  0-N ,  1-C ) :   2.1225 B(  0-N ,  9-H ) :   0.8568 B(  1-C ,  2-N ) :   1.0566
B(  1-C ,  8-C ) :   0.8286 B(  2-N ,  3-C ) :   1.0850 B(  2-N , 10-H ) :   0.8600
B(  3-C ,  4-O ) :   2.0450 B(  3-C ,  5-C ) :   0.8867 B(  5-C ,  6-C ) :   0.9092
B(  5-C ,  8-C ) :   0.9085 B(  5-C , 11-H ) :   0.9126 B(  6-C ,  7-N ) :   0.9500
B(  6-C , 12-H ) :   0.9231 B(  6-C , 13-H ) :   0.9124 B(  7-N ,  8-C ) :   1.0876
B(  7-N , 14-H ) :   0.8829 B(  8-C , 15-H ) :   0.9216

MP2 TOTAL ENERGY:     -433.371758227 Eh
FINAL SINGLE POINT ENERGY      -433.371758226579

DIPOLE MOMENT
-------------
                                X             Y             Z
Electronic contribution:      3.89330       0.77501      -1.17649
Nuclear contribution   :     -4.43858      -0.71749       1.01480
                        -----------------------------------------
Total Dipole Moment    :     -0.54529       0.05752      -0.16170
                        -----------------------------------------
Magnitude (a.u.)       :      0.57166
Magnitude (Debye)      :      1.45304

                             ****ORCA TERMINATED NORMALLY****
TOTAL RUN TIME: 0 days 0 hours 15 minutes 11 seconds 288 msec
