                         Program Version 3.0.3 - RELEASE   -
|  1> ! RI-MP2 RIJK def2-TZVP def2-TZVP/C def2-TZVP/JK TIGHTSCF
|  2> % maxcore 2000
|  3> % mp2 density relaxed end
|  4> *xyz 0 1
|  5>  C       -0.0781241716     1.6069025442     0.1912455033
|  6>  C        0.0065189985     0.0869896847     0.0199800664
|  7>  C       -1.3756870979    -0.5619211158    -0.1089407687
|  8>  C       -1.3727144332    -2.1134299311    -0.0855501469
|  9>  C       -0.5476232308    -2.7155648159    -1.2318707914
| 10>  O       -0.7477364914    -2.5891121548     1.1176431302
| 11>  C       -2.7629046981    -2.5921950738    -0.1514994064
| 12>  C       -3.9093958286    -2.9623305265    -0.1726833136
| 13>  C       -5.2900536854    -3.4237605175    -0.2074574298
| 14>  H        0.9176161181     2.0531052490     0.2773483424
| 15>  H       -0.5808445770     2.0771565212    -0.6614656366
| 16>  H       -0.6416140522     1.8736114881     1.0924780835
| 17>  H        0.6118590290    -0.1415928717    -0.8649293337
| 18>  H        0.5256027552    -0.3595967162     0.8745767268
| 19>  H       -2.0136007658    -0.2234795350     0.7187008863
| 20>  H       -1.8719944986    -0.2277024608    -1.0284172865
| 21>  H        0.5029812223    -2.4368357145    -1.1222055965
| 22>  H       -0.6203668283    -3.8047334596    -1.2059124140
| 23>  H       -0.9136578304    -2.3604065867    -2.1985348106
| 24>  H       -1.3579055493    -2.4188683192     1.8434008973
| 25>  H       -5.4164952199    -4.3417018948     0.3771341505
| 26>  H       -5.9749901596    -2.6723392123     0.2006345122
| 27>  H       -5.6085145551    -3.6398114109    -1.2332805542
| 28> *
| 29>
| 30>                          ****END OF INPUT****

CARTESIAN COORDINATES (ANGSTROEM)
---------------------------------
  C     -0.078124    1.606903    0.191246
  C      0.006519    0.086990    0.019980
  C     -1.375687   -0.561921   -0.108941
  C     -1.372714   -2.113430   -0.085550
  C     -0.547623   -2.715565   -1.231871
  O     -0.747736   -2.589112    1.117643
  C     -2.762905   -2.592195   -0.151499
  C     -3.909396   -2.962331   -0.172683
  C     -5.290054   -3.423761   -0.207457
  H      0.917616    2.053105    0.277348
  H     -0.580845    2.077157   -0.661466
  H     -0.641614    1.873611    1.092478
  H      0.611859   -0.141593   -0.864929
  H      0.525603   -0.359597    0.874577
  H     -2.013601   -0.223480    0.718701
  H     -1.871994   -0.227702   -1.028417
  H      0.502981   -2.436836   -1.122206
  H     -0.620367   -3.804733   -1.205912
  H     -0.913658   -2.360407   -2.198535
  H     -1.357906   -2.418868    1.843401
  H     -5.416495   -4.341702    0.377134
  H     -5.974990   -2.672339    0.200635
  H     -5.608515   -3.639811   -1.233281

 Total Charge           Charge          ....    0
 Multiplicity           Mult            ....    1
 Number of Electrons    NEL             ....   70
 Basis Dimension        Dim             ....  363

ORBITAL ENERGIES
----------------

  NO   OCC          E(Eh)            E(eV)
   0   2.0000     -20.553585      -559.2915
   1   2.0000     -11.307405      -307.6901
   2   2.0000     -11.248975      -306.1002
   3   2.0000     -11.227751      -305.5226
   4   2.0000     -11.222152      -305.3703
   5   2.0000     -11.215339      -305.1849
   6   2.0000     -11.215299      -305.1838
   7   2.0000     -11.213868      -305.1449
   8   2.0000     -11.211584      -305.0827
   9   2.0000      -1.361915       -37.0596
  10   2.0000      -1.087930       -29.6041
  11   2.0000      -1.053767       -28.6745
  12   2.0000      -1.017152       -27.6781
  13   2.0000      -0.951057       -25.8796
  14   2.0000      -0.928653       -25.2699
  15   2.0000      -0.843740       -22.9593
  16   2.0000      -0.783559       -21.3217
  17   2.0000      -0.717178       -19.5154
  18   2.0000      -0.644881       -17.5481
  19   2.0000      -0.637778       -17.3548
  20   2.0000      -0.627744       -17.0818
  21   2.0000      -0.594938       -16.1891
  22   2.0000      -0.588798       -16.0220
  23   2.0000      -0.583461       -15.8768
  24   2.0000      -0.570286       -15.5183
  25   2.0000      -0.540680       -14.7126
  26   2.0000      -0.532632       -14.4936
  27   2.0000      -0.527581       -14.3562
  28   2.0000      -0.507326       -13.8051
  29   2.0000      -0.499717       -13.5980
  30   2.0000      -0.467427       -12.7193
  31   2.0000      -0.465755       -12.6738
  32   2.0000      -0.446077       -12.1384
  33   2.0000      -0.376210       -10.2372
  34   2.0000      -0.368490       -10.0271
  35   0.0000       0.123349         3.3565
  36   0.0000       0.143494         3.9047
  37   0.0000       0.159896         4.3510
  38   0.0000       0.164672         4.4810
  39   0.0000       0.181136         4.9290

MULLIKEN ATOMIC CHARGES
-----------------------
   0 C :   -0.385705
   1 C :   -0.229151
   2 C :   -0.209077
   3 C :    0.130130
   4 C :   -0.404912
   5 O :   -0.468036
   6 C :   -0.104865
   7 C :    0.102319
   8 C :   -0.488202
   9 H :    0.134220
  10 H :    0.120229
  11 H :    0.121806
  12 H :    0.111008
  13 H :    0.130093
  14 H :    0.104016
  15 H :    0.116601
  16 H :    0.144319
  17 H :    0.141704
  18 H :    0.125794
  19 H :    0.315855
  20 H :    0.164902
  21 H :    0.162580
  22 H :    0.164376
Sum of atomic charges:   -0.0000000

LOEWDIN ATOMIC CHARGES
----------------------
   0 C :   -0.321112
   1 C :   -0.293685
   2 C :   -0.226384
   3 C :   -0.389424
   4 C :   -0.251670
   5 O :    0.011999
   6 C :   -0.053034
   7 C :   -0.094986
   8 C :   -0.294731
   9 H :    0.120521
  10 H :    0.119585
  11 H :    0.119495
  12 H :    0.134332
  13 H :    0.139372
  14 H :    0.142767
  15 H :    0.145309
  16 H :    0.128745
  17 H :    0.131811
  18 H :    0.129970
  19 H :    0.176931
  20 H :    0.141854
  21 H :    0.140332
  22 H :    0.142003

  Mayer bond orders larger than 0.1
B(  0-C ,  1-C ) :   0.9124 B(  0-C ,  9-H ) :   0.9447 B(  0-C , 10-H ) :   0.9375
B(  0-C , 11-H ) :   0.9424 B(  1-C ,  2-C ) :   0.9167 B(  1-C , 12-H ) :   0.9325
B(  1-C , 13-H ) :   0.9379 B(  2-C ,  3-C ) :   0.9796 B(  2-C , 14-H ) :   0.9185
B(  2-C , 15-H ) :   0.9146 B(  3-C ,  4-C ) :   0.8556 B(  3-C ,  5-O ) :   0.9040
B(  3-C ,  6-C ) :   1.1542 B(  3-C ,  7-C ) :  -0.1238 B(  4-C , 16-H ) :   0.9419
B(  4-C , 17-H ) :   0.9383 B(  4-C , 18-H ) :   0.9288 B(  5-O , 19-H ) :   0.8411
B(  6-C ,  7-C ) :   2.6464 B(  7-C ,  8-C ) :   0.8203 B(  8-C , 20-H ) :   0.9471
B(  8-C , 21-H ) :   0.9496 B(  8-C , 22-H ) :   0.9515

MP2 TOTAL ENERGY:     -387.594212633 Eh
FINAL SINGLE POINT ENERGY      -387.594212632811

DIPOLE MOMENT
-------------
                                X             Y             Z
Electronic contribution:     -2.40543      -6.09141       2.04258
Nuclear contribution   :      1.72317       6.29112      -2.10205
                        -----------------------------------------
Total Dipole Moment    :     -0.68225       0.19971      -0.05947
                        -----------------------------------------
Magnitude (a.u.)       :      0.71337
Magnitude (Debye)      :      1.81324

                             ****ORCA TERMINATED NORMALLY****
TOTAL RUN TIME: 0 days 0 hours 20 minutes 7 seconds 153 msec
