                         Program Version 3.0.3 - RELEASE   -
|  1> ! RI-MP2 RIJK def2-TZVP def2-TZVP/C def2-TZVP/JK TIGHTSCF
|  2> % maxcore 2000
|  3> % mp2 density relaxed end
|  4> *xyz 0 1
|  5>  O       -0.1018950861     1.3160250313    -0.1547468029
|  6>  N        0.0186301229    -0.0759299963    -0.0518059573
|  7>  C       -1.1127505088    -0.6431615761    -0.0037798368
|  8>  C       -1.3416117833    -2.1314912606     0.0880431741
|  9>  C       -2.4003809756    -2.3509898446    -1.0231987798
| 10>  C       -3.2106125967    -1.5300605312    -0.0022668520
| 11>  O       -2.4397306893    -2.1747153621     1.0745038135
| 12>  C       -2.5618105313    -0.1223063369     0.0105796741
| 13>  O       -2.9002234477     0.6071683659     1.1649819301
| 14>  H        0.8184707750     1.6009618630    -0.1709025665
| 15>  H       -0.5064091861    -2.7962317561     0.2945560868
| 16>  H       -2.2128902944    -1.9373930867    -2.0171005380
| 17>  H       -2.7330991160    -3.3884788709    -1.0705601940
| 18>  H       -4.2905449282    -1.5910847298     0.1234283970
| 19>  H       -2.8072456853     0.5027435579    -0.8511023148
| 20>  H       -2.7141153891     0.0212522333     1.9109919967
| 21> *
| 22>
| 23>                          ****END OF INPUT****

CARTESIAN COORDINATES (ANGSTROEM)
---------------------------------
  O     -0.101895    1.316025   -0.154747
  N      0.018630   -0.075930   -0.051806
  C     -1.112751   -0.643162   -0.003780
  C     -1.341612   -2.131491    0.088043
  C     -2.400381   -2.350990   -1.023199
  C     -3.210613   -1.530061   -0.002267
  O     -2.439731   -2.174715    1.074504
  C     -2.561811   -0.122306    0.010580
  O     -2.900223    0.607168    1.164982
  H      0.818471    1.600962   -0.170903
  H     -0.506409   -2.796232    0.294556
  H     -2.212890   -1.937393   -2.017101
  H     -2.733099   -3.388479   -1.070560
  H     -4.290545   -1.591085    0.123428
  H     -2.807246    0.502744   -0.851102
  H     -2.714115    0.021252    1.910992

 Total Charge           Charge          ....    0
 Multiplicity           Mult            ....    1
 Number of Electrons    NEL             ....   68
 Basis Dimension        Dim             ....  321

ORBITAL ENERGIES
----------------

  NO   OCC          E(Eh)            E(eV)
   0   2.0000     -20.597875      -560.4967
   1   2.0000     -20.574553      -559.8620
   2   2.0000     -20.564091      -559.5774
   3   2.0000     -15.629986      -425.3135
   4   2.0000     -11.313369      -307.8524
   5   2.0000     -11.306536      -307.6665
   6   2.0000     -11.304601      -307.6138
   7   2.0000     -11.283927      -307.0513
   8   2.0000     -11.255418      -306.2755
   9   2.0000      -1.429625       -38.9021
  10   2.0000      -1.414354       -38.4865
  11   2.0000      -1.366439       -37.1827
  12   2.0000      -1.171307       -31.8729
  13   2.0000      -1.067259       -29.0416
  14   2.0000      -0.973379       -26.4870
  15   2.0000      -0.935654       -25.4604
  16   2.0000      -0.807535       -21.9741
  17   2.0000      -0.764388       -20.8001
  18   2.0000      -0.725093       -19.7308
  19   2.0000      -0.696796       -18.9608
  20   2.0000      -0.688450       -18.7337
  21   2.0000      -0.645670       -17.5696
  22   2.0000      -0.633049       -17.2261
  23   2.0000      -0.607826       -16.5398
  24   2.0000      -0.603406       -16.4195
  25   2.0000      -0.574935       -15.6448
  26   2.0000      -0.557310       -15.1652
  27   2.0000      -0.526132       -14.3168
  28   2.0000      -0.516649       -14.0587
  29   2.0000      -0.499826       -13.6010
  30   2.0000      -0.475137       -12.9291
  31   2.0000      -0.460442       -12.5293
  32   2.0000      -0.404950       -11.0193
  33   2.0000      -0.396252       -10.7826
  34   0.0000       0.134463         3.6589
  35   0.0000       0.144131         3.9220
  36   0.0000       0.154867         4.2141
  37   0.0000       0.166629         4.5342
  38   0.0000       0.172192         4.6856

MULLIKEN ATOMIC CHARGES
-----------------------
   0 O :   -0.343959
   1 N :   -0.067914
   2 C :   -0.078433
   3 C :    0.043390
   4 C :   -0.230973
   5 C :   -0.005125
   6 O :   -0.319211
   7 C :    0.107624
   8 O :   -0.452771
   9 H :    0.336548
  10 H :    0.150820
  11 H :    0.135854
  12 H :    0.132198
  13 H :    0.140309
  14 H :    0.124865
  15 H :    0.326778
Sum of atomic charges:    0.0000000

LOEWDIN ATOMIC CHARGES
----------------------
   0 O :   -0.060773
   1 N :    0.035396
   2 C :   -0.258389
   3 C :   -0.209709
   4 C :   -0.190617
   5 C :   -0.233959
   6 O :    0.147063
   7 C :   -0.292935
   8 O :    0.003875
   9 H :    0.171220
  10 H :    0.139957
  11 H :    0.135266
  12 H :    0.143441
  13 H :    0.135209
  14 H :    0.151131
  15 H :    0.183825

  Mayer bond orders larger than 0.1
B(  0-O ,  1-N ) :   0.8172 B(  0-O ,  9-H ) :   0.8428 B(  1-N ,  2-C ) :   1.8923
B(  2-C ,  3-C ) :   0.9527 B(  2-C ,  7-C ) :   0.9163 B(  3-C ,  4-C ) :   0.9132
B(  3-C ,  6-O ) :   0.9255 B(  3-C , 10-H ) :   0.8934 B(  4-C ,  5-C ) :   0.9414
B(  4-C , 11-H ) :   0.9282 B(  4-C , 12-H ) :   0.9124 B(  5-C ,  6-O ) :   0.8718
B(  5-C ,  7-C ) :   0.9372 B(  5-C , 13-H ) :   0.9146 B(  7-C ,  8-O ) :   0.9333
B(  7-C , 14-H ) :   0.9122 B(  8-O , 15-H ) :   0.8233

MP2 TOTAL ENERGY:     -474.196994544 Eh
FINAL SINGLE POINT ENERGY      -474.196994544208

DIPOLE MOMENT
-------------
                                X             Y             Z
Electronic contribution:      2.01860       1.78880       1.94388
Nuclear contribution   :     -1.89655      -2.29822      -2.64739
                        -----------------------------------------
Total Dipole Moment    :      0.12206      -0.50942      -0.70352
                        -----------------------------------------
Magnitude (a.u.)       :      0.87712
Magnitude (Debye)      :      2.22946

                             ****ORCA TERMINATED NORMALLY****
TOTAL RUN TIME: 0 days 0 hours 15 minutes 13 seconds 618 msec
