                         Program Version 3.0.3 - RELEASE   -
|  1> ! RI-MP2 RIJK def2-TZVP def2-TZVP/C def2-TZVP/JK TIGHTSCF
|  2> % maxcore 2000
|  3> % mp2 density relaxed end
|  4> *xyz 0 1
|  5>  C        0.3783431641     1.3392688540     0.2187231507
|  6>  C       -0.0690134747    -0.0916671587    -0.0370680608
|  7>  C       -1.5716855835    -0.2672083526     0.1396525910
|  8>  C        0.5266548116    -0.7860766315    -1.2925378038
|  9>  C        1.1406185651    -1.7780970161    -0.2875102442
| 10>  C        2.6687138200    -1.9066635477    -0.2912760819
| 11>  C        3.1675079339    -2.7265697333     0.8107583408
| 12>  N        3.5554442355    -3.3864675899     1.6760321617
| 13>  O        0.6562967166    -1.0222730432     0.8325105719
| 14>  H        1.4614223523     1.4382245008     0.1045497510
| 15>  H       -0.1087445185     2.0275882726    -0.4804737355
| 16>  H        0.1150618449     1.6425800945     1.2370144285
| 17>  H       -2.1219031067     0.3659038909    -0.5648726952
| 18>  H       -1.8655840869    -1.3072274615    -0.0282211864
| 19>  H       -1.8682136039     0.0105988290     1.1557943320
| 20>  H       -0.1944027133    -1.2027882867    -1.9971620735
| 21>  H        1.2564858400    -0.1826384294    -1.8377964667
| 22>  H        0.6958319072    -2.7813838684    -0.3125167340
| 23>  H        2.9914369158    -2.3566457465    -1.2381869939
| 24>  H        3.1196070505    -0.9106124362    -0.2276837818
| 25> *
| 26>
| 27>                          ****END OF INPUT****

CARTESIAN COORDINATES (ANGSTROEM)
---------------------------------
  C      0.378343    1.339269    0.218723
  C     -0.069013   -0.091667   -0.037068
  C     -1.571686   -0.267208    0.139653
  C      0.526655   -0.786077   -1.292538
  C      1.140619   -1.778097   -0.287510
  C      2.668714   -1.906664   -0.291276
  C      3.167508   -2.726570    0.810758
  N      3.555444   -3.386468    1.676032
  O      0.656297   -1.022273    0.832511
  H      1.461422    1.438225    0.104550
  H     -0.108745    2.027588   -0.480474
  H      0.115062    1.642580    1.237014
  H     -2.121903    0.365904   -0.564873
  H     -1.865584   -1.307227   -0.028221
  H     -1.868214    0.010599    1.155794
  H     -0.194403   -1.202788   -1.997162
  H      1.256486   -0.182638   -1.837796
  H      0.695832   -2.781384   -0.312517
  H      2.991437   -2.356646   -1.238187
  H      3.119607   -0.910612   -0.227684

 Total Charge           Charge          ....    0
 Multiplicity           Mult            ....    1
 Number of Electrons    NEL             ....   68
 Basis Dimension        Dim             ....  345

ORBITAL ENERGIES
----------------

  NO   OCC          E(Eh)            E(eV)
   0   2.0000     -20.557332      -559.3934
   1   2.0000     -15.564547      -423.5328
   2   2.0000     -11.309345      -307.7429
   3   2.0000     -11.303893      -307.5946
   4   2.0000     -11.283595      -307.0422
   5   2.0000     -11.269228      -306.6513
   6   2.0000     -11.245661      -306.0100
   7   2.0000     -11.227764      -305.5230
   8   2.0000     -11.226660      -305.4930
   9   2.0000      -1.393625       -37.9225
  10   2.0000      -1.213858       -33.0308
  11   2.0000      -1.080146       -29.3923
  12   2.0000      -1.066972       -29.0338
  13   2.0000      -0.985972       -26.8297
  14   2.0000      -0.952696       -25.9242
  15   2.0000      -0.849351       -23.1120
  16   2.0000      -0.745777       -20.2936
  17   2.0000      -0.717982       -19.5373
  18   2.0000      -0.687085       -18.6965
  19   2.0000      -0.661582       -18.0026
  20   2.0000      -0.636179       -17.3113
  21   2.0000      -0.616484       -16.7754
  22   2.0000      -0.589694       -16.0464
  23   2.0000      -0.572097       -15.5676
  24   2.0000      -0.567811       -15.4509
  25   2.0000      -0.552660       -15.0386
  26   2.0000      -0.538142       -14.6436
  27   2.0000      -0.532495       -14.4899
  28   2.0000      -0.515499       -14.0274
  29   2.0000      -0.478396       -13.0178
  30   2.0000      -0.466298       -12.6886
  31   2.0000      -0.454347       -12.3634
  32   2.0000      -0.447829       -12.1860
  33   2.0000      -0.422847       -11.5062
  34   0.0000       0.117025         3.1844
  35   0.0000       0.138334         3.7643
  36   0.0000       0.147439         4.0120
  37   0.0000       0.168618         4.5883
  38   0.0000       0.173087         4.7099

MULLIKEN ATOMIC CHARGES
-----------------------
   0 C :   -0.394932
   1 C :    0.239444
   2 C :   -0.413938
   3 C :   -0.286579
   4 C :    0.074739
   5 C :   -0.134287
   6 C :   -0.186888
   7 N :   -0.056715
   8 O :   -0.329377
   9 H :    0.125536
  10 H :    0.130998
  11 H :    0.141784
  12 H :    0.129282
  13 H :    0.134249
  14 H :    0.140446
  15 H :    0.142430
  16 H :    0.130394
  17 H :    0.103448
  18 H :    0.157179
  19 H :    0.152785
Sum of atomic charges:    0.0000000

LOEWDIN ATOMIC CHARGES
----------------------
   0 C :   -0.270240
   1 C :   -0.353483
   2 C :   -0.269014
   3 C :   -0.181964
   4 C :   -0.276539
   5 C :   -0.230702
   6 C :   -0.188199
   7 N :    0.060383
   8 O :    0.183254
   9 H :    0.125037
  10 H :    0.129974
  11 H :    0.132803
  12 H :    0.128976
  13 H :    0.128949
  14 H :    0.131930
  15 H :    0.135718
  16 H :    0.137537
  17 H :    0.141836
  18 H :    0.168125
  19 H :    0.165618

  Mayer bond orders larger than 0.1
B(  0-C ,  1-C ) :   0.9170 B(  0-C ,  9-H ) :   0.9337 B(  0-C , 10-H ) :   0.9305
B(  0-C , 11-H ) :   0.9343 B(  1-C ,  2-C ) :   0.9322 B(  1-C ,  3-C ) :   0.8801
B(  1-C ,  8-O ) :   0.8754 B(  2-C , 12-H ) :   0.9312 B(  2-C , 13-H ) :   0.9308
B(  2-C , 14-H ) :   0.9356 B(  3-C ,  4-C ) :   0.9277 B(  3-C , 15-H ) :   0.9311
B(  3-C , 16-H ) :   0.9340 B(  4-C ,  5-C ) :   0.9030 B(  4-C ,  8-O ) :   0.9630
B(  4-C , 17-H ) :   0.9161 B(  5-C ,  6-C ) :   0.9511 B(  5-C , 18-H ) :   0.9041
B(  5-C , 19-H ) :   0.9021 B(  6-C ,  7-N ) :   2.8705

MP2 TOTAL ENERGY:     -402.469646655 Eh
FINAL SINGLE POINT ENERGY      -402.469646655317

DIPOLE MOMENT
-------------
                                X             Y             Z
Electronic contribution:      7.33958      -7.53503       4.10783
Nuclear contribution   :     -8.16876       8.62052      -5.86627
                        -----------------------------------------
Total Dipole Moment    :     -0.82917       1.08549      -1.75844
                        -----------------------------------------
Magnitude (a.u.)       :      2.22664
Magnitude (Debye)      :      5.65968

                             ****ORCA TERMINATED NORMALLY****
TOTAL RUN TIME: 0 days 0 hours 20 minutes 1 seconds 125 msec
