                         Program Version 3.0.3 - RELEASE   -
|  1> ! RI-MP2 RIJK def2-TZVP def2-TZVP/C def2-TZVP/JK TIGHTSCF
|  2> % maxcore 2000
|  3> % mp2 density relaxed end
|  4> *xyz 0 1
|  5>  C       -0.0449768744     1.4215742508     0.1837443153
|  6>  C       -0.2128990922    -0.0217026412    -0.2773191501
|  7>  N        0.9959024448    -0.4801961607    -0.9723289313
|  8>  C        1.0672549650    -1.8068750590    -1.3670755639
|  9>  C        1.4691020184    -2.4177106143    -2.5235378491
| 10>  C        1.8826986289    -1.7621738879    -3.8048197652
| 11>  C        1.4119442333    -3.8292181042    -2.2388854160
| 12>  C        0.9695054802    -3.9613142857    -0.9670739961
| 13>  O        0.7592774871    -2.7248043679    -0.4127800586
| 14>  H        0.8217405577     1.5186073455     0.8435908356
| 15>  H        0.1004426903     2.0963245087    -0.6682087514
| 16>  H       -0.9353259818     1.7582510863     0.7224324286
| 17>  H       -0.3626627086    -0.6774296639     0.5842363614
| 18>  H       -1.1104428859    -0.1164068664    -0.9108415138
| 19>  H        1.2583095973     0.1359402855    -1.7306567401
| 20>  H        2.9723738558    -1.7351763114    -3.9334262388
| 21>  H        1.4707183764    -2.2898734273    -4.6719667421
| 22>  H        1.5256724042    -0.7273838916    -3.8613059641
| 23>  H        1.6584605159    -4.6321251565    -2.9174885271
| 24>  H        0.7426404275    -4.7991509888    -0.3305045930
| 25> *
| 26>
| 27>                          ****END OF INPUT****

CARTESIAN COORDINATES (ANGSTROEM)
---------------------------------
  C     -0.044977    1.421574    0.183744
  C     -0.212899   -0.021703   -0.277319
  N      0.995902   -0.480196   -0.972329
  C      1.067255   -1.806875   -1.367076
  C      1.469102   -2.417711   -2.523538
  C      1.882699   -1.762174   -3.804820
  C      1.411944   -3.829218   -2.238885
  C      0.969505   -3.961314   -0.967074
  O      0.759277   -2.724804   -0.412780
  H      0.821741    1.518607    0.843591
  H      0.100443    2.096325   -0.668209
  H     -0.935326    1.758251    0.722432
  H     -0.362663   -0.677430    0.584236
  H     -1.110443   -0.116407   -0.910842
  H      1.258310    0.135940   -1.730657
  H      2.972374   -1.735176   -3.933426
  H      1.470718   -2.289873   -4.671967
  H      1.525672   -0.727384   -3.861306
  H      1.658461   -4.632125   -2.917489
  H      0.742640   -4.799151   -0.330505

 Total Charge           Charge          ....    0
 Multiplicity           Mult            ....    1
 Number of Electrons    NEL             ....   68
 Basis Dimension        Dim             ....  345

ORBITAL ENERGIES
----------------

  NO   OCC          E(Eh)            E(eV)
   0   2.0000     -20.607004      -560.7451
   1   2.0000     -15.566028      -423.5732
   2   2.0000     -11.311327      -307.7969
   3   2.0000     -11.268811      -306.6399
   4   2.0000     -11.258747      -306.3661
   5   2.0000     -11.225507      -305.4616
   6   2.0000     -11.221003      -305.3390
   7   2.0000     -11.219043      -305.2857
   8   2.0000     -11.212704      -305.1132
   9   2.0000      -1.449337       -39.4385
  10   2.0000      -1.228407       -33.4267
  11   2.0000      -1.087598       -29.5950
  12   2.0000      -1.024849       -27.8876
  13   2.0000      -0.979200       -26.6454
  14   2.0000      -0.927132       -25.2285
  15   2.0000      -0.847147       -23.0520
  16   2.0000      -0.792398       -21.5622
  17   2.0000      -0.752625       -20.4800
  18   2.0000      -0.706983       -19.2380
  19   2.0000      -0.651901       -17.7391
  20   2.0000      -0.639200       -17.3935
  21   2.0000      -0.624266       -16.9871
  22   2.0000      -0.606132       -16.4937
  23   2.0000      -0.577570       -15.7165
  24   2.0000      -0.563205       -15.3256
  25   2.0000      -0.558877       -15.2078
  26   2.0000      -0.537362       -14.6224
  27   2.0000      -0.531632       -14.4665
  28   2.0000      -0.524855       -14.2820
  29   2.0000      -0.505541       -13.7565
  30   2.0000      -0.499057       -13.5800
  31   2.0000      -0.429019       -11.6742
  32   2.0000      -0.377942       -10.2843
  33   2.0000      -0.274010        -7.4562
  34   0.0000       0.127308         3.4642
  35   0.0000       0.151252         4.1158
  36   0.0000       0.164346         4.4721
  37   0.0000       0.179529         4.8852
  38   0.0000       0.188086         5.1181

MULLIKEN ATOMIC CHARGES
-----------------------
   0 C :   -0.383348
   1 C :   -0.089577
   2 N :   -0.316593
   3 C :    0.225773
   4 C :   -0.040143
   5 C :   -0.428088
   6 C :   -0.216674
   7 C :   -0.029730
   8 O :   -0.234392
   9 H :    0.136745
  10 H :    0.117667
  11 H :    0.131503
  12 H :    0.133663
  13 H :    0.098435
  14 H :    0.215330
  15 H :    0.149457
  16 H :    0.143949
  17 H :    0.111636
  18 H :    0.131123
  19 H :    0.143264
Sum of atomic charges:    0.0000000

LOEWDIN ATOMIC CHARGES
----------------------
   0 C :   -0.321069
   1 C :   -0.312599
   2 N :    0.053667
   3 C :   -0.315353
   4 C :   -0.208109
   5 C :   -0.278164
   6 C :   -0.175489
   7 C :   -0.251012
   8 O :    0.343058
   9 H :    0.124556
  10 H :    0.118616
  11 H :    0.124957
  12 H :    0.136220
  13 H :    0.119393
  14 H :    0.184812
  15 H :    0.129177
  16 H :    0.131566
  17 H :    0.123368
  18 H :    0.142817
  19 H :    0.129588

  Mayer bond orders larger than 0.1
B(  0-C ,  1-C ) :   0.9305 B(  0-C ,  9-H ) :   0.9350 B(  0-C , 10-H ) :   0.9363
B(  0-C , 11-H ) :   0.9370 B(  1-C ,  2-N ) :   0.8812 B(  1-C , 12-H ) :   0.9314
B(  1-C , 13-H ) :   0.9177 B(  2-N ,  3-C ) :   1.1539 B(  2-N , 14-H ) :   0.8795
B(  3-C ,  4-C ) :   1.4869 B(  3-C ,  8-O ) :   1.0485 B(  4-C ,  5-C ) :   0.8527
B(  4-C ,  6-C ) :   1.1539 B(  5-C , 15-H ) :   0.9446 B(  5-C , 16-H ) :   0.9430
B(  5-C , 17-H ) :   0.9448 B(  6-C ,  7-C ) :   1.5805 B(  6-C , 18-H ) :   0.9253
B(  7-C ,  8-O ) :   1.0087 B(  7-C , 19-H ) :   0.9388

MP2 TOTAL ENERGY:     -402.475196784 Eh
FINAL SINGLE POINT ENERGY      -402.475196783868

DIPOLE MOMENT
-------------
                                X             Y             Z
Electronic contribution:      1.43053      -7.88221       1.50408
Nuclear contribution   :     -1.67026       8.30041      -1.85726
                        -----------------------------------------
Total Dipole Moment    :     -0.23974       0.41819      -0.35318
                        -----------------------------------------
Magnitude (a.u.)       :      0.59757
Magnitude (Debye)      :      1.51891

                             ****ORCA TERMINATED NORMALLY****
TOTAL RUN TIME: 0 days 0 hours 17 minutes 16 seconds 126 msec
