                         Program Version 3.0.3 - RELEASE   -
|  1> ! RI-MP2 RIJK def2-TZVP def2-TZVP/C def2-TZVP/JK TIGHTSCF
|  2> % maxcore 2000
|  3> % mp2 density relaxed end
|  4> *xyz 0 1
|  5>  C        0.0000845688     1.5351627613    -0.0732184380
|  6>  C        0.1113404018     0.0056696697    -0.0255712832
|  7>  C        1.0090498697    -0.4955574270    -1.1670406753
|  8>  C        0.6158670387    -0.5122261549     1.3439232450
|  9>  C       -0.2246844518    -0.0219875876     2.5368863425
| 10>  C        0.5749306466    -2.0445814679     1.3535777333
| 11>  N        1.7442898004    -2.6660087486     1.6858068594
| 12>  O       -0.4433784821    -2.6671469699     1.1139882104
| 13>  H        0.9666958494     2.0106720260     0.1358951397
| 14>  H       -0.3159956206     1.8617020196    -1.0693767180
| 15>  H       -0.7274211694     1.9241772066     0.6437699576
| 16>  H       -0.8872839520    -0.4255032833    -0.1666605177
| 17>  H        2.0308880389    -0.1090970498    -1.0630590773
| 18>  H        1.0603930020    -1.5878099963    -1.1931429854
| 19>  H        0.6285268554    -0.1590581490    -2.1366368456
| 20>  H        1.6526139741    -0.1722056934     1.4807735428
| 21>  H        0.1415623791    -0.4540819079     3.4738004268
| 22>  H       -0.1854499229     1.0652191966     2.6351746063
| 23>  H       -1.2669044875    -0.3291577754     2.4125033765
| 24>  H        2.6025120731    -2.1620514219     1.8190372191
| 25>  H        1.7639143883    -3.6730739973     1.6957752013
| 26> *
| 27>
| 28>                          ****END OF INPUT****

CARTESIAN COORDINATES (ANGSTROEM)
---------------------------------
  C      0.000085    1.535163   -0.073218
  C      0.111340    0.005670   -0.025571
  C      1.009050   -0.495557   -1.167041
  C      0.615867   -0.512226    1.343923
  C     -0.224684   -0.021988    2.536886
  C      0.574931   -2.044581    1.353578
  N      1.744290   -2.666009    1.685807
  O     -0.443378   -2.667147    1.113988
  H      0.966696    2.010672    0.135895
  H     -0.315996    1.861702   -1.069377
  H     -0.727421    1.924177    0.643770
  H     -0.887284   -0.425503   -0.166661
  H      2.030888   -0.109097   -1.063059
  H      1.060393   -1.587810   -1.193143
  H      0.628527   -0.159058   -2.136637
  H      1.652614   -0.172206    1.480774
  H      0.141562   -0.454082    3.473800
  H     -0.185450    1.065219    2.635175
  H     -1.266904   -0.329158    2.412503
  H      2.602512   -2.162051    1.819037
  H      1.763914   -3.673074    1.695775

 Total Charge           Charge          ....    0
 Multiplicity           Mult            ....    1
 Number of Electrons    NEL             ....   64
 Basis Dimension        Dim             ....  326

ORBITAL ENERGIES
----------------

  NO   OCC          E(Eh)            E(eV)
   0   2.0000     -20.510678      -558.1239
   1   2.0000     -15.581811      -424.0026
   2   2.0000     -11.344062      -308.6876
   3   2.0000     -11.241804      -305.9051
   4   2.0000     -11.229830      -305.5792
   5   2.0000     -11.219904      -305.3091
   6   2.0000     -11.214259      -305.1555
   7   2.0000     -11.212494      -305.1075
   8   2.0000      -1.376419       -37.4543
   9   2.0000      -1.207827       -32.8667
  10   2.0000      -1.101665       -29.9778
  11   2.0000      -1.007973       -27.4283
  12   2.0000      -0.932726       -25.3808
  13   2.0000      -0.885221       -24.0881
  14   2.0000      -0.811323       -22.0772
  15   2.0000      -0.759020       -20.6540
  16   2.0000      -0.712832       -19.3971
  17   2.0000      -0.677562       -18.4374
  18   2.0000      -0.621938       -16.9238
  19   2.0000      -0.613930       -16.7059
  20   2.0000      -0.592888       -16.1333
  21   2.0000      -0.587278       -15.9806
  22   2.0000      -0.551460       -15.0060
  23   2.0000      -0.538228       -14.6459
  24   2.0000      -0.530618       -14.4388
  25   2.0000      -0.525716       -14.3055
  26   2.0000      -0.506975       -13.7955
  27   2.0000      -0.477103       -12.9826
  28   2.0000      -0.462675       -12.5900
  29   2.0000      -0.454529       -12.3684
  30   2.0000      -0.413323       -11.2471
  31   2.0000      -0.410958       -11.1827
  32   0.0000       0.120772         3.2864
  33   0.0000       0.148161         4.0317
  34   0.0000       0.161450         4.3933
  35   0.0000       0.167886         4.5684
  36   0.0000       0.190473         5.1830

MULLIKEN ATOMIC CHARGES
-----------------------
   0 C :   -0.404540
   1 C :   -0.048592
   2 C :   -0.419834
   3 C :   -0.049467
   4 C :   -0.423682
   5 C :    0.260276
   6 N :   -0.468411
   7 O :   -0.353414
   8 H :    0.118486
   9 H :    0.134787
  10 H :    0.139342
  11 H :    0.112089
  12 H :    0.112330
  13 H :    0.147762
  14 H :    0.132134
  15 H :    0.073226
  16 H :    0.134298
  17 H :    0.137356
  18 H :    0.151244
  19 H :    0.257983
  20 H :    0.256627
Sum of atomic charges:   -0.0000000

LOEWDIN ATOMIC CHARGES
----------------------
   0 C :   -0.294121
   1 C :   -0.280845
   2 C :   -0.291595
   3 C :   -0.232942
   4 C :   -0.280562
   5 C :   -0.462717
   6 N :   -0.015826
   7 O :    0.083951
   8 H :    0.122519
   9 H :    0.125252
  10 H :    0.121922
  11 H :    0.160469
  12 H :    0.120442
  13 H :    0.127928
  14 H :    0.124079
  15 H :    0.148916
  16 H :    0.126300
  17 H :    0.122580
  18 H :    0.133669
  19 H :    0.168704
  20 H :    0.171876

  Mayer bond orders larger than 0.1
B(  0-C ,  1-C ) :   0.8966 B(  0-C ,  8-H ) :   0.9301 B(  0-C ,  9-H ) :   0.9413
B(  0-C , 10-H ) :   0.9436 B(  1-C ,  2-C ) :   0.9202 B(  1-C ,  3-C ) :   0.9160
B(  1-C , 11-H ) :   0.9231 B(  2-C , 12-H ) :   0.9299 B(  2-C , 13-H ) :   0.9361
B(  2-C , 14-H ) :   0.9398 B(  3-C ,  4-C ) :   0.8906 B(  3-C ,  5-C ) :   0.8693
B(  3-C , 15-H ) :   0.9196 B(  4-C , 16-H ) :   0.9347 B(  4-C , 17-H ) :   0.9402
B(  4-C , 18-H ) :   0.9345 B(  5-C ,  6-N ) :   1.1362 B(  5-C ,  7-O ) :   2.0013
B(  6-N , 19-H ) :   0.8696 B(  6-N , 20-H ) :   0.8564

MP2 TOTAL ENERGY:     -365.696682009 Eh
FINAL SINGLE POINT ENERGY      -365.696682009184

DIPOLE MOMENT
-------------
                                X             Y             Z
Electronic contribution:     -0.48711      -8.12943       2.46802
Nuclear contribution   :      1.71022       8.54931      -2.21997
                        -----------------------------------------
Total Dipole Moment    :      1.22311       0.41988       0.24804
                        -----------------------------------------
Magnitude (a.u.)       :      1.31674
Magnitude (Debye)      :      3.34690

                             ****ORCA TERMINATED NORMALLY****
TOTAL RUN TIME: 0 days 0 hours 14 minutes 49 seconds 399 msec
