                         Program Version 3.0.3 - RELEASE   -
|  1> ! RI-MP2 RIJK def2-TZVP def2-TZVP/C def2-TZVP/JK TIGHTSCF
|  2> % maxcore 2000
|  3> % mp2 density relaxed end
|  4> *xyz 0 1
|  5>  O        0.1388949185     1.3837871923     0.0559278522
|  6>  C        0.0516977777    -0.0061472154    -0.0012224807
|  7>  C       -0.5119222474    -0.7216817377     1.2017866668
|  8>  O       -0.9750062588     0.1091698632     2.2407907873
|  9>  C       -1.3103699930    -0.6791497865    -0.0764390789
| 10>  C       -2.5746357797     0.1823527423    -0.1966853774
| 11>  C       -3.3980370367    -0.5721151783    -1.2107884721
| 12>  C       -2.8290645149    -1.7120371801    -1.5956086140
| 13>  C       -1.5058133171    -1.9557202228    -0.9102699347
| 14>  H       -0.2759226477     1.6421577406     0.8912294038
| 15>  H        0.8788760027    -0.4430363878    -0.5550571209
| 16>  H       -0.0994914844    -1.6767473876     1.5254776528
| 17>  H       -0.2560390532     0.2172239459     2.8735585934
| 18>  H       -3.0999060377     0.2860180935     0.7613360805
| 19>  H       -2.3305860334     1.1994460767    -0.5286687611
| 20>  H       -4.3537476804    -0.2007880494    -1.5644420163
| 21>  H       -3.2467038159    -2.4130166348    -2.3098805071
| 22>  H       -0.6891461482    -2.1109134913    -1.6290206393
| 23>  H       -1.5378402706    -2.8598066629    -0.2846462443
| 24> *
| 25>
| 26>                          ****END OF INPUT****

CARTESIAN COORDINATES (ANGSTROEM)
---------------------------------
  O      0.138895    1.383787    0.055928
  C      0.051698   -0.006147   -0.001222
  C     -0.511922   -0.721682    1.201787
  O     -0.975006    0.109170    2.240791
  C     -1.310370   -0.679150   -0.076439
  C     -2.574636    0.182353   -0.196685
  C     -3.398037   -0.572115   -1.210788
  C     -2.829065   -1.712037   -1.595609
  C     -1.505813   -1.955720   -0.910270
  H     -0.275923    1.642158    0.891229
  H      0.878876   -0.443036   -0.555057
  H     -0.099491   -1.676747    1.525478
  H     -0.256039    0.217224    2.873559
  H     -3.099906    0.286018    0.761336
  H     -2.330586    1.199446   -0.528669
  H     -4.353748   -0.200788   -1.564442
  H     -3.246704   -2.413017   -2.309881
  H     -0.689146   -2.110913   -1.629021
  H     -1.537840   -2.859807   -0.284646

 Total Charge           Charge          ....    0
 Multiplicity           Mult            ....    1
 Number of Electrons    NEL             ....   68
 Basis Dimension        Dim             ....  339

ORBITAL ENERGIES
----------------

  NO   OCC          E(Eh)            E(eV)
   0   2.0000     -20.581564      -560.0528
   1   2.0000     -20.557462      -559.3970
   2   2.0000     -11.285637      -307.0978
   3   2.0000     -11.278708      -306.9093
   4   2.0000     -11.233882      -305.6895
   5   2.0000     -11.229498      -305.5702
   6   2.0000     -11.222617      -305.3829
   7   2.0000     -11.221201      -305.3444
   8   2.0000     -11.220646      -305.3293
   9   2.0000      -1.396506       -38.0009
  10   2.0000      -1.359185       -36.9853
  11   2.0000      -1.155057       -31.4307
  12   2.0000      -1.076301       -29.2876
  13   2.0000      -0.962401       -26.1883
  14   2.0000      -0.906633       -24.6707
  15   2.0000      -0.830119       -22.5887
  16   2.0000      -0.759385       -20.6639
  17   2.0000      -0.740622       -20.1533
  18   2.0000      -0.705848       -19.2071
  19   2.0000      -0.700536       -19.0626
  20   2.0000      -0.657548       -17.8928
  21   2.0000      -0.626479       -17.0474
  22   2.0000      -0.615578       -16.7507
  23   2.0000      -0.569102       -15.4861
  24   2.0000      -0.553838       -15.0707
  25   2.0000      -0.548946       -14.9376
  26   2.0000      -0.535899       -14.5826
  27   2.0000      -0.528220       -14.3736
  28   2.0000      -0.509424       -13.8621
  29   2.0000      -0.492543       -13.4028
  30   2.0000      -0.476398       -12.9635
  31   2.0000      -0.400918       -10.9095
  32   2.0000      -0.375105       -10.2071
  33   2.0000      -0.341425        -9.2906
  34   0.0000       0.126557         3.4438
  35   0.0000       0.148827         4.0498
  36   0.0000       0.163962         4.4616
  37   0.0000       0.165588         4.5059
  38   0.0000       0.185809         5.0561

MULLIKEN ATOMIC CHARGES
-----------------------
   0 O :   -0.469247
   1 C :    0.010018
   2 C :   -0.053361
   3 O :   -0.479566
   4 C :    0.066724
   5 C :   -0.175370
   6 C :   -0.182107
   7 C :   -0.181734
   8 C :   -0.176868
   9 H :    0.331393
  10 H :    0.119261
  11 H :    0.113230
  12 H :    0.330027
  13 H :    0.136741
  14 H :    0.129620
  15 H :    0.125277
  16 H :    0.125653
  17 H :    0.116956
  18 H :    0.113354
Sum of atomic charges:   -0.0000000

LOEWDIN ATOMIC CHARGES
----------------------
   0 O :    0.003964
   1 C :   -0.290796
   2 C :   -0.291332
   3 O :   -0.006518
   4 C :   -0.186134
   5 C :   -0.196219
   6 C :   -0.155028
   7 C :   -0.161043
   8 C :   -0.196385
   9 H :    0.178723
  10 H :    0.137671
  11 H :    0.131554
  12 H :    0.183537
  13 H :    0.146637
  14 H :    0.146141
  15 H :    0.136839
  16 H :    0.135776
  17 H :    0.141498
  18 H :    0.141116

  Mayer bond orders larger than 0.1
B(  0-O ,  1-C ) :   0.9699 B(  0-O ,  9-H ) :   0.8168 B(  1-C ,  2-C ) :   0.9143
B(  1-C ,  4-C ) :   0.8409 B(  1-C , 10-H ) :   0.9349 B(  2-C ,  3-O ) :   1.0334
B(  2-C ,  4-C ) :   0.8173 B(  2-C , 11-H ) :   0.9322 B(  3-O , 12-H ) :   0.8359
B(  4-C ,  5-C ) :   0.9425 B(  4-C ,  8-C ) :   0.8750 B(  5-C ,  6-C ) :   0.9408
B(  5-C , 13-H ) :   0.9097 B(  5-C , 14-H ) :   0.9015 B(  6-C ,  7-C ) :   1.8174
B(  6-C , 15-H ) :   0.9309 B(  7-C ,  8-C ) :   0.9426 B(  7-C , 16-H ) :   0.9318
B(  8-C , 17-H ) :   0.9132 B(  8-C , 18-H ) :   0.9085

MP2 TOTAL ENERGY:     -422.302536766 Eh
FINAL SINGLE POINT ENERGY      -422.302536766334

DIPOLE MOMENT
-------------
                                X             Y             Z
Electronic contribution:      1.38853       1.83675       1.46877
Nuclear contribution   :     -1.14569      -2.35152      -0.91576
                        -----------------------------------------
Total Dipole Moment    :      0.24284      -0.51477       0.55301
                        -----------------------------------------
Magnitude (a.u.)       :      0.79359
Magnitude (Debye)      :      2.01713

                             ****ORCA TERMINATED NORMALLY****
TOTAL RUN TIME: 0 days 0 hours 16 minutes 15 seconds 953 msec
