                         Program Version 3.0.3 - RELEASE   -
|  1> ! RI-MP2 RIJK def2-TZVP def2-TZVP/C def2-TZVP/JK TIGHTSCF
|  2> % maxcore 2000
|  3> % mp2 density relaxed end
|  4> *xyz 0 1
|  5>  O       -0.3862394089     0.0804323603     0.5099923440
|  6>  C       -0.1782931992     1.2501414362     0.3521925117
|  7>  O       -1.1841815394     2.1615909831     0.2480760885
|  8>  C       -0.6495288504     3.4773140690     0.0175790499
|  9>  C        0.8150011347     3.4118794909     0.4737928646
| 10>  C        1.1672011434     1.9462032662     0.2131113815
| 11>  C        2.3695904263     1.3211354004     0.9658447941
| 12>  C        3.2249780931     1.4327833469    -0.3235662421
| 13>  C        1.9177500055     1.6393724822    -1.1322993859
| 14>  H       -0.7399891410     3.7082561119    -1.0504830822
| 15>  H       -1.2577230606     4.1878360656     0.5808800221
| 16>  H        1.4498107496     4.1245611398    -0.0580586856
| 17>  H        0.8842302139     3.6298380533     1.5453382542
| 18>  H        2.7165222743     1.8534028876     1.8552934513
| 19>  H        2.1472374268     0.2843389784     1.2306009986
| 20>  H        3.8582761408     2.3239919987    -0.3265060405
| 21>  H        3.8401059429     0.5713256280    -0.5904317148
| 22>  H        1.5590678351     0.7098300830    -1.5804615411
| 23>  H        1.9016266932     2.4289280384    -1.8881555981
| 24> *
| 25>
| 26>                          ****END OF INPUT****

CARTESIAN COORDINATES (ANGSTROEM)
---------------------------------
  O     -0.386239    0.080432    0.509992
  C     -0.178293    1.250141    0.352193
  O     -1.184182    2.161591    0.248076
  C     -0.649529    3.477314    0.017579
  C      0.815001    3.411879    0.473793
  C      1.167201    1.946203    0.213111
  C      2.369590    1.321135    0.965845
  C      3.224978    1.432783   -0.323566
  C      1.917750    1.639372   -1.132299
  H     -0.739989    3.708256   -1.050483
  H     -1.257723    4.187836    0.580880
  H      1.449811    4.124561   -0.058059
  H      0.884230    3.629838    1.545338
  H      2.716522    1.853403    1.855293
  H      2.147237    0.284339    1.230601
  H      3.858276    2.323992   -0.326506
  H      3.840106    0.571326   -0.590432
  H      1.559068    0.709830   -1.580462
  H      1.901627    2.428928   -1.888156

 Total Charge           Charge          ....    0
 Multiplicity           Mult            ....    1
 Number of Electrons    NEL             ....   68
 Basis Dimension        Dim             ....  339

ORBITAL ENERGIES
----------------

  NO   OCC          E(Eh)            E(eV)
   0   2.0000     -20.597525      -560.4872
   1   2.0000     -20.535252      -558.7926
   2   2.0000     -11.369053      -309.3677
   3   2.0000     -11.300622      -307.5055
   4   2.0000     -11.257765      -306.3394
   5   2.0000     -11.248427      -306.0853
   6   2.0000     -11.241561      -305.8984
   7   2.0000     -11.234135      -305.6964
   8   2.0000     -11.233548      -305.6804
   9   2.0000      -1.453287       -39.5459
  10   2.0000      -1.361483       -37.0478
  11   2.0000      -1.157322       -31.4923
  12   2.0000      -1.047069       -28.4922
  13   2.0000      -0.962507       -26.1912
  14   2.0000      -0.916090       -24.9281
  15   2.0000      -0.859116       -23.3777
  16   2.0000      -0.801231       -21.8026
  17   2.0000      -0.737386       -20.0653
  18   2.0000      -0.700157       -19.0522
  19   2.0000      -0.685767       -18.6607
  20   2.0000      -0.658045       -17.9063
  21   2.0000      -0.649744       -17.6804
  22   2.0000      -0.600567       -16.3423
  23   2.0000      -0.595252       -16.1976
  24   2.0000      -0.574586       -15.6353
  25   2.0000      -0.560281       -15.2460
  26   2.0000      -0.547094       -14.8872
  27   2.0000      -0.520672       -14.1682
  28   2.0000      -0.485951       -13.2234
  29   2.0000      -0.484953       -13.1962
  30   2.0000      -0.456011       -12.4087
  31   2.0000      -0.450945       -12.2708
  32   2.0000      -0.445564       -12.1244
  33   2.0000      -0.422896       -11.5076
  34   0.0000       0.124193         3.3795
  35   0.0000       0.143113         3.8943
  36   0.0000       0.150987         4.1086
  37   0.0000       0.167041         4.5454
  38   0.0000       0.171843         4.6761

MULLIKEN ATOMIC CHARGES
-----------------------
   0 O :   -0.297515
   1 C :    0.232610
   2 O :   -0.217132
   3 C :   -0.031037
   4 C :   -0.313587
   5 C :    0.128122
   6 C :   -0.270117
   7 C :   -0.213023
   8 C :   -0.289066
   9 H :    0.109706
  10 H :    0.129275
  11 H :    0.138389
  12 H :    0.129074
  13 H :    0.119406
  14 H :    0.148066
  15 H :    0.118759
  16 H :    0.121611
  17 H :    0.137609
  18 H :    0.118851
Sum of atomic charges:   -0.0000000

LOEWDIN ATOMIC CHARGES
----------------------
   0 O :    0.138980
   1 C :   -0.435823
   2 O :    0.254378
   3 C :   -0.261916
   4 C :   -0.214764
   5 C :   -0.222243
   6 C :   -0.187973
   7 C :   -0.236145
   8 C :   -0.182892
   9 H :    0.126178
  10 H :    0.128732
  11 H :    0.142942
  12 H :    0.145532
  13 H :    0.128111
  14 H :    0.147317
  15 H :    0.132504
  16 H :    0.125979
  17 H :    0.143901
  18 H :    0.127204

  Mayer bond orders larger than 0.1
B(  0-O ,  1-C ) :   2.0189 B(  1-C ,  2-O ) :   1.1281 B(  1-C ,  5-C ) :   0.8851
B(  2-O ,  3-C ) :   0.8805 B(  3-C ,  4-C ) :   0.9600 B(  3-C ,  9-H ) :   0.9206
B(  3-C , 10-H ) :   0.9307 B(  4-C ,  5-C ) :   0.8952 B(  4-C , 11-H ) :   0.9248
B(  4-C , 12-H ) :   0.9218 B(  5-C ,  6-C ) :   0.8810 B(  5-C ,  8-C ) :   0.8815
B(  6-C ,  7-C ) :   0.9391 B(  6-C , 13-H ) :   0.9301 B(  6-C , 14-H ) :   0.9195
B(  7-C ,  8-C ) :   0.9455 B(  7-C , 15-H ) :   0.9270 B(  7-C , 16-H ) :   0.9274
B(  8-C , 17-H ) :   0.9139 B(  8-C , 18-H ) :   0.9263

MP2 TOTAL ENERGY:     -422.358182399 Eh
FINAL SINGLE POINT ENERGY      -422.358182398878

DIPOLE MOMENT
-------------
                                X             Y             Z
Electronic contribution:     -7.25980      -3.51062       1.39585
Nuclear contribution   :      8.20306       4.94175      -1.64467
                        -----------------------------------------
Total Dipole Moment    :      0.94326       1.43113      -0.24882
                        -----------------------------------------
Magnitude (a.u.)       :      1.73199
Magnitude (Debye)      :      4.40238

                             ****ORCA TERMINATED NORMALLY****
TOTAL RUN TIME: 0 days 0 hours 18 minutes 7 seconds 912 msec
