                         Program Version 3.0.3 - RELEASE   -
|  1> ! RI-MP2 RIJK def2-TZVP def2-TZVP/C def2-TZVP/JK TIGHTSCF
|  2> % maxcore 2000
|  3> % mp2 density relaxed end
|  4> *xyz 0 1
|  5>  C       -0.0277206873     1.6092697194     0.0102930221
|  6>  C       -0.0149806361     0.0894364692    -0.0070125759
|  7>  C        0.6648790021    -0.5929345566    -1.2427191093
|  8>  O        1.1312662944     0.2793529865    -2.2403679973
|  9>  C        1.7243208989    -1.0927808035    -0.2332713866
| 10>  O        2.7711909985    -1.6885175020    -0.3132541597
| 11>  N        1.0351612002    -0.5475117657     0.8128641870
| 12>  C        1.2964410104    -0.5441567387     2.2294043993
| 13>  H        0.9491898865     2.0085624963    -0.2704929641
| 14>  H       -0.7657523247     1.9857006203    -0.7041015280
| 15>  H       -0.2965078342     1.9866524787     1.0023325888
| 16>  H       -1.0120699193    -0.3111934360     0.2153236613
| 17>  H        0.0590302962    -1.4047041547    -1.6672573386
| 18>  H        2.0072974379    -0.0281074306    -2.4999330991
| 19>  H        2.2146670518    -1.1114332484     2.3992031403
| 20>  H        1.4364091854     0.4737299018     2.6117134410
| 21>  H        0.4792106992    -1.0159955459     2.7885839087
| 22> *
| 23>
| 24>                          ****END OF INPUT****

CARTESIAN COORDINATES (ANGSTROEM)
---------------------------------
  C     -0.027721    1.609270    0.010293
  C     -0.014981    0.089436   -0.007013
  C      0.664879   -0.592935   -1.242719
  O      1.131266    0.279353   -2.240368
  C      1.724321   -1.092781   -0.233271
  O      2.771191   -1.688518   -0.313254
  N      1.035161   -0.547512    0.812864
  C      1.296441   -0.544157    2.229404
  H      0.949190    2.008562   -0.270493
  H     -0.765752    1.985701   -0.704102
  H     -0.296508    1.986652    1.002333
  H     -1.012070   -0.311193    0.215324
  H      0.059030   -1.404704   -1.667257
  H      2.007297   -0.028107   -2.499933
  H      2.214667   -1.111433    2.399203
  H      1.436409    0.473730    2.611713
  H      0.479211   -1.015996    2.788584

 Total Charge           Charge          ....    0
 Multiplicity           Mult            ....    1
 Number of Electrons    NEL             ....   62
 Basis Dimension        Dim             ....  302

ORBITAL ENERGIES
----------------

  NO   OCC          E(Eh)            E(eV)
   0   2.0000     -20.575005      -559.8743
   1   2.0000     -20.528769      -558.6162
   2   2.0000     -15.591190      -424.2578
   3   2.0000     -11.348767      -308.8156
   4   2.0000     -11.302903      -307.5676
   5   2.0000     -11.285652      -307.0982
   6   2.0000     -11.270330      -306.6813
   7   2.0000     -11.226333      -305.4840
   8   2.0000      -1.400497       -38.1095
   9   2.0000      -1.373711       -37.3806
  10   2.0000      -1.280157       -34.8348
  11   2.0000      -1.058576       -28.8053
  12   2.0000      -0.998603       -27.1734
  13   2.0000      -0.903721       -24.5915
  14   2.0000      -0.841663       -22.9028
  15   2.0000      -0.747144       -20.3308
  16   2.0000      -0.709202       -19.2984
  17   2.0000      -0.699948       -19.0466
  18   2.0000      -0.662654       -18.0317
  19   2.0000      -0.630444       -17.1553
  20   2.0000      -0.614939       -16.7333
  21   2.0000      -0.599176       -16.3044
  22   2.0000      -0.575669       -15.6647
  23   2.0000      -0.562074       -15.2948
  24   2.0000      -0.539754       -14.6874
  25   2.0000      -0.533939       -14.5292
  26   2.0000      -0.528587       -14.3836
  27   2.0000      -0.504210       -13.7203
  28   2.0000      -0.456790       -12.4299
  29   2.0000      -0.412379       -11.2214
  30   2.0000      -0.382477       -10.4077
  31   0.0000       0.124236         3.3806
  32   0.0000       0.151954         4.1349
  33   0.0000       0.158183         4.3044
  34   0.0000       0.173055         4.7091
  35   0.0000       0.182790         4.9740

MULLIKEN ATOMIC CHARGES
-----------------------
   0 C :   -0.404452
   1 C :    0.028514
   2 C :    0.067188
   3 O :   -0.480556
   4 C :    0.127074
   5 O :   -0.339473
   6 N :   -0.084144
   7 C :   -0.337874
   8 H :    0.140755
   9 H :    0.137757
  10 H :    0.133123
  11 H :    0.105033
  12 H :    0.109944
  13 H :    0.338183
  14 H :    0.173066
  15 H :    0.144204
  16 H :    0.141657
Sum of atomic charges:    0.0000000

LOEWDIN ATOMIC CHARGES
----------------------
   0 C :   -0.292444
   1 C :   -0.230381
   2 C :   -0.269584
   3 O :   -0.006220
   4 C :   -0.432455
   5 O :    0.085218
   6 N :    0.211824
   7 C :   -0.295607
   8 H :    0.130576
   9 H :    0.133508
  10 H :    0.124196
  11 H :    0.138081
  12 H :    0.136030
  13 H :    0.189780
  14 H :    0.137009
  15 H :    0.120365
  16 H :    0.120106

  Mayer bond orders larger than 0.1
B(  0-C ,  1-C ) :   0.9068 B(  0-C ,  8-H ) :   0.9295 B(  0-C ,  9-H ) :   0.9293
B(  0-C , 10-H ) :   0.9341 B(  1-C ,  2-C ) :   0.8649 B(  1-C ,  6-N ) :   0.9171
B(  1-C , 11-H ) :   0.9220 B(  2-C ,  3-O ) :   0.9848 B(  2-C ,  4-C ) :   0.8957
B(  2-C , 12-H ) :   0.9189 B(  3-O , 13-H ) :   0.8298 B(  4-C ,  5-O ) :   1.9974
B(  4-C ,  6-N ) :   1.1596 B(  6-N ,  7-C ) :   0.8725 B(  7-C , 14-H ) :   0.9257
B(  7-C , 15-H ) :   0.9295 B(  7-C , 16-H ) :   0.9302

MP2 TOTAL ENERGY:     -400.369539252 Eh
FINAL SINGLE POINT ENERGY      -400.369539251790

DIPOLE MOMENT
-------------
                                X             Y             Z
Electronic contribution:      3.57735      -4.47061      -4.11344
Nuclear contribution   :     -4.44311       4.90279       4.81573
                        -----------------------------------------
Total Dipole Moment    :     -0.86577       0.43218       0.70229
                        -----------------------------------------
Magnitude (a.u.)       :      1.19564
Magnitude (Debye)      :      3.03907

                             ****ORCA TERMINATED NORMALLY****
TOTAL RUN TIME: 0 days 0 hours 12 minutes 41 seconds 428 msec
