                         Program Version 3.0.3 - RELEASE   -
|  1> ! RI-MP2 RIJK def2-TZVP def2-TZVP/C def2-TZVP/JK TIGHTSCF
|  2> % maxcore 2000
|  3> % mp2 density relaxed end
|  4> *xyz 0 1
|  5>  C       -0.0197108801     1.5817225451     0.0839840811
|  6>  C        0.1282279411     0.0571027611     0.1401067329
|  7>  C        0.6554337919    -0.5444440436    -1.1622901973
|  8>  C        0.9006119804    -2.0553454501    -1.2524569433
|  9>  C       -0.3749622272    -2.8459408826    -1.2934239277
| 10>  O       -1.5334318061    -2.5572697076    -0.5662116777
| 11>  C        0.0345487849    -2.1402250482    -2.5470665017
| 12>  C       -0.2648868717    -0.6520519921    -2.4411658877
| 13>  O       -1.6642158374    -0.3963306182    -2.3121716476
| 14>  H        0.9338295953     2.0676912031    -0.1522500108
| 15>  H       -0.7401690657     1.8976733481    -0.6808052255
| 16>  H       -0.3708993011     1.9827714085     1.0395290157
| 17>  H        0.8299681881    -0.2062532243     0.9420208542
| 18>  H       -0.8201073965    -0.4142464980     0.4075912952
| 19>  H        1.5645324457    -0.0068762206    -1.4578392721
| 20>  H        1.8560397916    -2.5305348334    -1.0596412767
| 21>  H       -0.1988181417    -3.9194365448    -1.3302500108
| 22>  H       -1.9872186363    -1.8430511493    -1.0352107676
| 23>  H        0.2192114136    -2.6606083636    -3.4792762139
| 24>  H        0.1403791170    -0.0755052493    -3.2800284616
| 25>  H       -1.7938602057     0.5455646799    -2.1606928771
| 26> *
| 27>
| 28>                          ****END OF INPUT****

CARTESIAN COORDINATES (ANGSTROEM)
---------------------------------
  C     -0.019711    1.581723    0.083984
  C      0.128228    0.057103    0.140107
  C      0.655434   -0.544444   -1.162290
  C      0.900612   -2.055345   -1.252457
  C     -0.374962   -2.845941   -1.293424
  O     -1.533432   -2.557270   -0.566212
  C      0.034549   -2.140225   -2.547067
  C     -0.264887   -0.652052   -2.441166
  O     -1.664216   -0.396331   -2.312172
  H      0.933830    2.067691   -0.152250
  H     -0.740169    1.897673   -0.680805
  H     -0.370899    1.982771    1.039529
  H      0.829968   -0.206253    0.942021
  H     -0.820107   -0.414246    0.407591
  H      1.564532   -0.006876   -1.457839
  H      1.856040   -2.530535   -1.059641
  H     -0.198818   -3.919437   -1.330250
  H     -1.987219   -1.843051   -1.035211
  H      0.219211   -2.660608   -3.479276
  H      0.140379   -0.075505   -3.280028
  H     -1.793860    0.545565   -2.160693

 Total Charge           Charge          ....    0
 Multiplicity           Mult            ....    1
 Number of Electrons    NEL             ....   70
 Basis Dimension        Dim             ....  351

ORBITAL ENERGIES
----------------

  NO   OCC          E(Eh)            E(eV)
   0   2.0000     -20.572643      -559.8101
   1   2.0000     -20.539776      -558.9157
   2   2.0000     -11.293254      -307.3051
   3   2.0000     -11.282020      -306.9994
   4   2.0000     -11.236647      -305.7647
   5   2.0000     -11.233959      -305.6916
   6   2.0000     -11.233027      -305.6662
   7   2.0000     -11.221222      -305.3450
   8   2.0000     -11.217950      -305.2559
   9   2.0000      -1.380972       -37.5782
  10   2.0000      -1.350480       -36.7484
  11   2.0000      -1.177791       -32.0493
  12   2.0000      -1.050758       -28.5926
  13   2.0000      -0.964158       -26.2361
  14   2.0000      -0.907871       -24.7044
  15   2.0000      -0.827935       -22.5293
  16   2.0000      -0.793303       -21.5869
  17   2.0000      -0.740853       -20.1596
  18   2.0000      -0.721887       -19.6435
  19   2.0000      -0.689839       -18.7715
  20   2.0000      -0.660509       -17.9734
  21   2.0000      -0.623736       -16.9727
  22   2.0000      -0.598509       -16.2863
  23   2.0000      -0.581362       -15.8197
  24   2.0000      -0.573284       -15.5998
  25   2.0000      -0.561889       -15.2898
  26   2.0000      -0.546384       -14.8679
  27   2.0000      -0.541985       -14.7482
  28   2.0000      -0.501774       -13.6540
  29   2.0000      -0.485916       -13.2224
  30   2.0000      -0.473069       -12.8729
  31   2.0000      -0.463861       -12.6223
  32   2.0000      -0.429818       -11.6960
  33   2.0000      -0.391914       -10.6645
  34   2.0000      -0.376331       -10.2405
  35   0.0000       0.121019         3.2931
  36   0.0000       0.148825         4.0497
  37   0.0000       0.160285         4.3616
  38   0.0000       0.174702         4.7539
  39   0.0000       0.187052         5.0899

MULLIKEN ATOMIC CHARGES
-----------------------
   0 C :   -0.380323
   1 C :   -0.235049
   2 C :   -0.033433
   3 C :   -0.127299
   4 C :    0.058827
   5 O :   -0.482854
   6 C :   -0.155416
   7 C :   -0.003500
   8 O :   -0.493807
   9 H :    0.126177
  10 H :    0.084481
  11 H :    0.141913
  12 H :    0.114995
  13 H :    0.128854
  14 H :    0.096865
  15 H :    0.131561
  16 H :    0.117472
  17 H :    0.348925
  18 H :    0.133952
  19 H :    0.107101
  20 H :    0.320560
Sum of atomic charges:    0.0000000

LOEWDIN ATOMIC CHARGES
----------------------
   0 C :   -0.319278
   1 C :   -0.276554
   2 C :   -0.201735
   3 C :   -0.138913
   4 C :   -0.301008
   5 O :   -0.006531
   6 C :   -0.151397
   7 C :   -0.272956
   8 O :   -0.024686
   9 H :    0.120762
  10 H :    0.109051
  11 H :    0.123570
  12 H :    0.142788
  13 H :    0.141283
  14 H :    0.154469
  15 H :    0.135094
  16 H :    0.148928
  17 H :    0.174245
  18 H :    0.135310
  19 H :    0.134443
  20 H :    0.173114

  Mayer bond orders larger than 0.1
B(  0-C ,  1-C ) :   0.9123 B(  0-C ,  9-H ) :   0.9370 B(  0-C , 10-H ) :   0.9410
B(  0-C , 11-H ) :   0.9423 B(  1-C ,  2-C ) :   0.8563 B(  1-C , 12-H ) :   0.9326
B(  1-C , 13-H ) :   0.9256 B(  2-C ,  3-C ) :   0.9279 B(  2-C ,  7-C ) :   0.9679
B(  2-C , 14-H ) :   0.9251 B(  3-C ,  4-C ) :   0.8605 B(  3-C ,  6-C ) :   0.7748
B(  3-C , 15-H ) :   0.9159 B(  4-C ,  5-O ) :   0.9891 B(  4-C ,  6-C ) :   0.9110
B(  4-C , 16-H ) :   0.9606 B(  5-O , 17-H ) :   0.8050 B(  6-C ,  7-C ) :   0.9206
B(  6-C , 18-H ) :   0.9236 B(  7-C ,  8-O ) :   0.9662 B(  7-C , 19-H ) :   0.9539
B(  8-O , 20-H ) :   0.8409

MP2 TOTAL ENERGY:     -423.492504796 Eh
FINAL SINGLE POINT ENERGY      -423.492504796357

DIPOLE MOMENT
-------------
                                X             Y             Z
Electronic contribution:     -2.37843      -5.89075      -3.01549
Nuclear contribution   :      3.02588       6.71307       2.57235
                        -----------------------------------------
Total Dipole Moment    :      0.64744       0.82233      -0.44314
                        -----------------------------------------
Magnitude (a.u.)       :      1.13656
Magnitude (Debye)      :      2.88891

                             ****ORCA TERMINATED NORMALLY****
TOTAL RUN TIME: 0 days 0 hours 18 minutes 41 seconds 466 msec
