                         Program Version 3.0.3 - RELEASE   -
|  1> ! RI-MP2 RIJK def2-TZVP def2-TZVP/C def2-TZVP/JK TIGHTSCF
|  2> % maxcore 2000
|  3> % mp2 density relaxed end
|  4> *xyz 0 1
|  5>  C       -0.2292099355     1.5380011093    -0.1654959143
|  6>  C       -0.0065494220     0.0526090352     0.0128216522
|  7>  C        1.3436335401    -0.5873756026    -0.1859856939
|  8>  O        2.4267890770     0.2753636904    -0.3836747137
|  9>  C        3.4283452973     0.2215704338     0.6190488032
| 10>  C        2.8777214169     0.5058012768     2.0027512354
| 11>  O        1.8696571848     1.5132481204     2.0731504294
| 12>  C        1.4763717318     0.1469066171     2.2663458267
| 13>  C        0.7194961656    -0.5798603425     1.1918512490
| 14>  H        0.6676700493     2.1044938919     0.0767351079
| 15>  H       -0.5093508826     1.7495700767    -1.2032160624
| 16>  H       -1.0420757404     1.8896669519     0.4784318646
| 17>  H       -0.8317099254    -0.5623746254    -0.3397615517
| 18>  H        1.4227428082    -1.5228149930    -0.7388637408
| 19>  H        3.9354915729    -0.7580509721     0.6356353369
| 20>  H        4.1669244271     0.9780020220     0.3354494991
| 21>  H        3.6082683051     0.5138070955     2.8118581994
| 22>  H        1.1711977251    -0.0769258932     3.2875715950
| 23>  H        0.3072681446    -1.5190625121     1.5502517779
| 24> *
| 25>
| 26>                          ****END OF INPUT****

CARTESIAN COORDINATES (ANGSTROEM)
---------------------------------
  C     -0.229210    1.538001   -0.165496
  C     -0.006549    0.052609    0.012822
  C      1.343634   -0.587376   -0.185986
  O      2.426789    0.275364   -0.383675
  C      3.428345    0.221570    0.619049
  C      2.877721    0.505801    2.002751
  O      1.869657    1.513248    2.073150
  C      1.476372    0.146907    2.266346
  C      0.719496   -0.579860    1.191851
  H      0.667670    2.104494    0.076735
  H     -0.509351    1.749570   -1.203216
  H     -1.042076    1.889667    0.478432
  H     -0.831710   -0.562375   -0.339762
  H      1.422743   -1.522815   -0.738864
  H      3.935492   -0.758051    0.635635
  H      4.166924    0.978002    0.335449
  H      3.608268    0.513807    2.811858
  H      1.171198   -0.076926    3.287572
  H      0.307268   -1.519063    1.550252

 Total Charge           Charge          ....    0
 Multiplicity           Mult            ....    1
 Number of Electrons    NEL             ....   68
 Basis Dimension        Dim             ....  339

ORBITAL ENERGIES
----------------

  NO   OCC          E(Eh)            E(eV)
   0   2.0000     -20.567313      -559.6650
   1   2.0000     -20.561898      -559.5177
   2   2.0000     -11.291951      -307.2696
   3   2.0000     -11.286696      -307.1266
   4   2.0000     -11.285752      -307.1009
   5   2.0000     -11.279444      -306.9293
   6   2.0000     -11.237495      -305.7878
   7   2.0000     -11.235279      -305.7275
   8   2.0000     -11.202642      -304.8394
   9   2.0000      -1.420043       -38.6413
  10   2.0000      -1.379039       -37.5256
  11   2.0000      -1.142785       -31.0968
  12   2.0000      -1.005642       -27.3649
  13   2.0000      -0.969689       -26.3866
  14   2.0000      -0.910682       -24.7809
  15   2.0000      -0.859087       -23.3770
  16   2.0000      -0.771034       -20.9809
  17   2.0000      -0.748594       -20.3703
  18   2.0000      -0.720853       -19.6154
  19   2.0000      -0.680632       -18.5209
  20   2.0000      -0.657715       -17.8973
  21   2.0000      -0.634142       -17.2559
  22   2.0000      -0.606471       -16.5029
  23   2.0000      -0.569975       -15.5098
  24   2.0000      -0.555693       -15.1212
  25   2.0000      -0.554233       -15.0814
  26   2.0000      -0.541452       -14.7337
  27   2.0000      -0.516500       -14.0547
  28   2.0000      -0.489113       -13.3094
  29   2.0000      -0.483965       -13.1694
  30   2.0000      -0.443444       -12.0667
  31   2.0000      -0.441562       -12.0155
  32   2.0000      -0.394866       -10.7448
  33   2.0000      -0.375809       -10.2263
  34   0.0000       0.140421         3.8211
  35   0.0000       0.154690         4.2093
  36   0.0000       0.170252         4.6328
  37   0.0000       0.171669         4.6713
  38   0.0000       0.189853         5.1662

MULLIKEN ATOMIC CHARGES
-----------------------
   0 C :   -0.390427
   1 C :   -0.114381
   2 C :    0.034209
   3 O :   -0.311813
   4 C :   -0.022173
   5 C :   -0.007713
   6 O :   -0.329730
   7 C :   -0.013088
   8 C :   -0.089643
   9 H :    0.165830
  10 H :    0.125100
  11 H :    0.124335
  12 H :    0.115953
  13 H :    0.114188
  14 H :    0.097688
  15 H :    0.129051
  16 H :    0.119243
  17 H :    0.128748
  18 H :    0.124622
Sum of atomic charges:   -0.0000000

LOEWDIN ATOMIC CHARGES
----------------------
   0 C :   -0.290651
   1 C :   -0.203263
   2 C :   -0.264414
   3 O :    0.202426
   4 C :   -0.291021
   5 C :   -0.274370
   6 O :    0.176772
   7 C :   -0.242331
   8 C :   -0.180197
   9 H :    0.132768
  10 H :    0.125422
  11 H :    0.125507
  12 H :    0.151657
  13 H :    0.131741
  14 H :    0.128987
  15 H :    0.136736
  16 H :    0.138220
  17 H :    0.140830
  18 H :    0.155180

  Mayer bond orders larger than 0.1
B(  0-C ,  1-C ) :   0.9046 B(  0-C ,  9-H ) :   0.9308 B(  0-C , 10-H ) :   0.9301
B(  0-C , 11-H ) :   0.9373 B(  1-C ,  2-C ) :   0.8759 B(  1-C ,  8-C ) :   0.8712
B(  1-C , 12-H ) :   0.9266 B(  2-C ,  3-O ) :   0.9805 B(  2-C ,  8-C ) :   0.8576
B(  2-C , 13-H ) :   0.9457 B(  3-O ,  4-C ) :   0.9301 B(  4-C ,  5-C ) :   0.9304
B(  4-C , 14-H ) :   0.9240 B(  4-C , 15-H ) :   0.9215 B(  5-C ,  6-O ) :   0.9117
B(  5-C ,  7-C ) :   0.9701 B(  5-C , 16-H ) :   0.9185 B(  6-O ,  7-C ) :   0.8847
B(  7-C ,  8-C ) :   0.9222 B(  7-C , 17-H ) :   0.9314 B(  8-C , 18-H ) :   0.9162

MP2 TOTAL ENERGY:     -422.280237636 Eh
FINAL SINGLE POINT ENERGY      -422.280237636496

DIPOLE MOMENT
-------------
                                X             Y             Z
Electronic contribution:      2.69759      -0.03797       1.56634
Nuclear contribution   :     -2.54589      -0.85793      -1.18649
                        -----------------------------------------
Total Dipole Moment    :      0.15170      -0.89590       0.37985
                        -----------------------------------------
Magnitude (a.u.)       :      0.98485
Magnitude (Debye)      :      2.50330

                             ****ORCA TERMINATED NORMALLY****
TOTAL RUN TIME: 0 days 0 hours 19 minutes 33 seconds 40 msec
