                         Program Version 3.0.3 - RELEASE   -
|  1> ! RI-MP2 RIJK def2-TZVP def2-TZVP/C def2-TZVP/JK TIGHTSCF
|  2> % maxcore 2000
|  3> % mp2 density relaxed end
|  4> *xyz 0 1
|  5>  C       -0.3685235465     1.4849882575     0.4361734908
|  6>  C       -0.0298524228     0.0474989346     0.0799827224
|  7>  O        0.7279839950    -0.5102316644     1.1340985377
|  8>  C        1.1072788089    -1.8480957763     0.9000468297
|  9>  C        1.9027586188    -2.3194726551     2.0891594796
| 10>  O        1.1962511025    -2.9570521253     3.1583554131
| 11>  C        2.1440816388    -3.7332299582     2.4151246568
| 12>  C        1.6181956322    -4.9166349213     1.6350675161
| 13>  C        1.2519209505    -6.0844712538     2.5594145107
| 14>  H        0.5443637742     2.0707363257     0.5762811358
| 15>  H       -0.9594853231     1.9464524973    -0.3606046787
| 16>  H       -0.9453564902     1.5228387254     1.3644402779
| 17>  H       -0.9506995039    -0.5393488054    -0.0782518912
| 18>  H        0.5425046901     0.0051579121    -0.8630679323
| 19>  H        0.2228358736    -2.4856609927     0.7555570513
| 20>  H        1.7255971079    -1.9186383213    -0.0134370595
| 21>  H        2.6419587666    -1.5876514498     2.4195654531
| 22>  H        3.0571390734    -3.9492127015     2.9771475059
| 23>  H        0.7430283339    -4.6210028412     1.0491191231
| 24>  H        2.3899592949    -5.2319318224     0.9205956315
| 25>  H        0.8767915035    -6.9381424351     1.9875369651
| 26>  H        2.1212139690    -6.4219902785     3.1343777966
| 27>  H        0.4777960725    -5.7809477405     3.2702449245
| 28> *
| 29>
| 30>                          ****END OF INPUT****

CARTESIAN COORDINATES (ANGSTROEM)
---------------------------------
  C     -0.368524    1.484988    0.436173
  C     -0.029852    0.047499    0.079983
  O      0.727984   -0.510232    1.134099
  C      1.107279   -1.848096    0.900047
  C      1.902759   -2.319473    2.089159
  O      1.196251   -2.957052    3.158355
  C      2.144082   -3.733230    2.415125
  C      1.618196   -4.916635    1.635068
  C      1.251921   -6.084471    2.559415
  H      0.544364    2.070736    0.576281
  H     -0.959485    1.946452   -0.360605
  H     -0.945356    1.522839    1.364440
  H     -0.950700   -0.539349   -0.078252
  H      0.542505    0.005158   -0.863068
  H      0.222836   -2.485661    0.755557
  H      1.725597   -1.918638   -0.013437
  H      2.641959   -1.587651    2.419565
  H      3.057139   -3.949213    2.977148
  H      0.743028   -4.621003    1.049119
  H      2.389959   -5.231932    0.920596
  H      0.876792   -6.938142    1.987537
  H      2.121214   -6.421990    3.134378
  H      0.477796   -5.780948    3.270245

 Total Charge           Charge          ....    0
 Multiplicity           Mult            ....    1
 Number of Electrons    NEL             ....   72
 Basis Dimension        Dim             ....  363

ORBITAL ENERGIES
----------------

  NO   OCC          E(Eh)            E(eV)
   0   2.0000     -20.559326      -559.4477
   1   2.0000     -20.556031      -559.3580
   2   2.0000     -11.283354      -307.0357
   3   2.0000     -11.281448      -306.9838
   4   2.0000     -11.280754      -306.9649
   5   2.0000     -11.276436      -306.8474
   6   2.0000     -11.231392      -305.6217
   7   2.0000     -11.217195      -305.2354
   8   2.0000     -11.214449      -305.1607
   9   2.0000      -1.406322       -38.2680
  10   2.0000      -1.377492       -37.4835
  11   2.0000      -1.052235       -28.6328
  12   2.0000      -1.037528       -28.2326
  13   2.0000      -0.970071       -26.3970
  14   2.0000      -0.907941       -24.7063
  15   2.0000      -0.841438       -22.8967
  16   2.0000      -0.833678       -22.6855
  17   2.0000      -0.778968       -21.1968
  18   2.0000      -0.703982       -19.1563
  19   2.0000      -0.673949       -18.3391
  20   2.0000      -0.653704       -17.7882
  21   2.0000      -0.648432       -17.6447
  22   2.0000      -0.613793       -16.7021
  23   2.0000      -0.588390       -16.0109
  24   2.0000      -0.579212       -15.7612
  25   2.0000      -0.548147       -14.9158
  26   2.0000      -0.538421       -14.6512
  27   2.0000      -0.530840       -14.4449
  28   2.0000      -0.522278       -14.2119
  29   2.0000      -0.504433       -13.7263
  30   2.0000      -0.490331       -13.3426
  31   2.0000      -0.486196       -13.2301
  32   2.0000      -0.474944       -12.9239
  33   2.0000      -0.438407       -11.9297
  34   2.0000      -0.431270       -11.7354
  35   2.0000      -0.416788       -11.3414
  36   0.0000       0.137913         3.7528
  37   0.0000       0.145834         3.9684
  38   0.0000       0.160764         4.3746
  39   0.0000       0.167083         4.5466
  40   0.0000       0.185584         5.0500

MULLIKEN ATOMIC CHARGES
-----------------------
   0 C :   -0.359507
   1 C :   -0.050422
   2 O :   -0.286022
   3 C :   -0.078594
   4 C :    0.054780
   5 O :   -0.340699
   6 C :    0.035602
   7 C :   -0.192013
   8 C :   -0.396576
   9 H :    0.127967
  10 H :    0.120867
  11 H :    0.133324
  12 H :    0.091424
  13 H :    0.087882
  14 H :    0.108586
  15 H :    0.093901
  16 H :    0.118850
  17 H :    0.112921
  18 H :    0.108235
  19 H :    0.109174
  20 H :    0.133615
  21 H :    0.122707
  22 H :    0.143999
Sum of atomic charges:    0.0000000

LOEWDIN ATOMIC CHARGES
----------------------
   0 C :   -0.316285
   1 C :   -0.354579
   2 O :    0.161937
   3 C :   -0.314220
   4 C :   -0.266745
   5 O :    0.162864
   6 C :   -0.270504
   7 C :   -0.278420
   8 C :   -0.312199
   9 H :    0.123784
  10 H :    0.124062
  11 H :    0.125297
  12 H :    0.116370
  13 H :    0.115006
  14 H :    0.126112
  15 H :    0.125351
  16 H :    0.142358
  17 H :    0.138784
  18 H :    0.139197
  19 H :    0.142099
  20 H :    0.120978
  21 H :    0.121430
  22 H :    0.127322

  Mayer bond orders larger than 0.1
B(  0-C ,  1-C ) :   0.9532 B(  0-C ,  9-H ) :   0.9358 B(  0-C , 10-H ) :   0.9324
B(  0-C , 11-H ) :   0.9363 B(  1-C ,  2-O ) :   0.9254 B(  1-C , 12-H ) :   0.9239
B(  1-C , 13-H ) :   0.9236 B(  2-O ,  3-C ) :   0.9463 B(  3-C ,  4-C ) :   0.9077
B(  3-C , 14-H ) :   0.9339 B(  3-C , 15-H ) :   0.9072 B(  4-C ,  5-O ) :   0.9202
B(  4-C ,  6-C ) :   0.9674 B(  4-C , 16-H ) :   0.9240 B(  5-O ,  6-C ) :   0.8593
B(  6-C ,  7-C ) :   0.9171 B(  6-C , 17-H ) :   0.9073 B(  7-C ,  8-C ) :   0.9234
B(  7-C , 18-H ) :   0.9359 B(  7-C , 19-H ) :   0.9257 B(  8-C , 20-H ) :   0.9401
B(  8-C , 21-H ) :   0.9377 B(  8-C , 22-H ) :   0.9362

MP2 TOTAL ENERGY:     -424.691421165 Eh
FINAL SINGLE POINT ENERGY      -424.691421165288

DIPOLE MOMENT
-------------
                                X             Y             Z
Electronic contribution:      2.16530       1.42521       3.88218
Nuclear contribution   :     -1.90337      -1.72016      -4.83249
                        -----------------------------------------
Total Dipole Moment    :      0.26193      -0.29495      -0.95030
                        -----------------------------------------
Magnitude (a.u.)       :      1.02892
Magnitude (Debye)      :      2.61531

                             ****ORCA TERMINATED NORMALLY****
TOTAL RUN TIME: 0 days 0 hours 15 minutes 34 seconds 114 msec
