                         Program Version 3.0.3 - RELEASE   -
|  1> ! RI-MP2 RIJK def2-TZVP def2-TZVP/C def2-TZVP/JK TIGHTSCF
|  2> % maxcore 2000
|  3> % mp2 density relaxed end
|  4> *xyz 0 1
|  5>  N       -0.2436025827     1.3887305428    -0.2074340009
|  6>  C       -0.0091641487     0.1377839133    -0.2465506860
|  7>  N        1.1399558254    -0.5037760618    -0.6888122449
|  8>  C        1.3383065580    -1.9163691847    -0.3638564268
|  9>  C        0.1169930188    -2.6572079089    -0.8735655418
| 10>  C       -0.8480518847    -3.3171888433     0.0669313428
| 11>  N       -1.1352305371    -2.0149140377    -0.5108094448
| 12>  C       -1.0963901670    -0.8290920149     0.2340079452
| 13>  O       -1.8489042581    -0.5831212997     1.1396958230
| 14>  H        0.5601937112     1.9295810780    -0.5378167129
| 15>  H        1.9638720261     0.0739055704    -0.7725408708
| 16>  H        2.2472277463    -2.2669563996    -0.8581472049
| 17>  H        1.4641741204    -2.0795097707     0.7175864558
| 18>  H        0.1651669086    -3.0036556917    -1.9036773124
| 19>  H       -1.4661520154    -4.1363505081    -0.2873649236
| 20>  H       -0.6011998313    -3.3471890633     1.1251059830
| 21> *
| 22>
| 23>                          ****END OF INPUT****

CARTESIAN COORDINATES (ANGSTROEM)
---------------------------------
  N     -0.243603    1.388731   -0.207434
  C     -0.009164    0.137784   -0.246551
  N      1.139956   -0.503776   -0.688812
  C      1.338307   -1.916369   -0.363856
  C      0.116993   -2.657208   -0.873566
  C     -0.848052   -3.317189    0.066931
  N     -1.135231   -2.014914   -0.510809
  C     -1.096390   -0.829092    0.234008
  O     -1.848904   -0.583121    1.139696
  H      0.560194    1.929581   -0.537817
  H      1.963872    0.073906   -0.772541
  H      2.247228   -2.266956   -0.858147
  H      1.464174   -2.079510    0.717586
  H      0.165167   -3.003656   -1.903677
  H     -1.466152   -4.136351   -0.287365
  H     -0.601200   -3.347189    1.125106

 Total Charge           Charge          ....    0
 Multiplicity           Mult            ....    1
 Number of Electrons    NEL             ....   66
 Basis Dimension        Dim             ....  321

ORBITAL ENERGIES
----------------

  NO   OCC          E(Eh)            E(eV)
   0   2.0000     -20.546426      -559.0967
   1   2.0000     -15.597690      -424.4347
   2   2.0000     -15.595023      -424.3621
   3   2.0000     -15.543264      -422.9537
   4   2.0000     -11.365369      -309.2674
   5   2.0000     -11.331099      -308.3349
   6   2.0000     -11.300398      -307.4995
   7   2.0000     -11.296302      -307.3880
   8   2.0000     -11.292908      -307.2956
   9   2.0000      -1.409018       -38.3413
  10   2.0000      -1.321347       -35.9557
  11   2.0000      -1.276875       -34.7455
  12   2.0000      -1.175698       -31.9924
  13   2.0000      -1.026421       -27.9303
  14   2.0000      -0.968128       -26.3441
  15   2.0000      -0.880119       -23.9492
  16   2.0000      -0.847350       -23.0576
  17   2.0000      -0.743184       -20.2231
  18   2.0000      -0.729973       -19.8636
  19   2.0000      -0.696365       -18.9491
  20   2.0000      -0.686569       -18.6825
  21   2.0000      -0.662108       -18.0169
  22   2.0000      -0.633409       -17.2359
  23   2.0000      -0.607316       -16.5259
  24   2.0000      -0.576851       -15.6969
  25   2.0000      -0.551409       -15.0046
  26   2.0000      -0.532749       -14.4968
  27   2.0000      -0.508827       -13.8459
  28   2.0000      -0.498526       -13.5656
  29   2.0000      -0.449144       -12.2218
  30   2.0000      -0.428175       -11.6512
  31   2.0000      -0.404302       -11.0016
  32   2.0000      -0.373709       -10.1691
  33   0.0000       0.100903         2.7457
  34   0.0000       0.118014         3.2113
  35   0.0000       0.149571         4.0700
  36   0.0000       0.153907         4.1880
  37   0.0000       0.168042         4.5727

MULLIKEN ATOMIC CHARGES
-----------------------
   0 N :   -0.318167
   1 C :    0.039892
   2 N :   -0.323534
   3 C :   -0.154920
   4 C :   -0.032625
   5 C :   -0.176262
   6 N :   -0.158680
   7 C :    0.260798
   8 O :   -0.258795
   9 H :    0.195040
  10 H :    0.226893
  11 H :    0.143421
  12 H :    0.135534
  13 H :    0.136707
  14 H :    0.142539
  15 H :    0.142161
Sum of atomic charges:   -0.0000000

LOEWDIN ATOMIC CHARGES
----------------------
   0 N :   -0.040873
   1 C :   -0.350444
   2 N :    0.079175
   3 C :   -0.263255
   4 C :   -0.232618
   5 C :   -0.203975
   6 N :    0.194216
   7 C :   -0.379526
   8 O :    0.170948
   9 H :    0.157379
  10 H :    0.179804
  11 H :    0.141571
  12 H :    0.135275
  13 H :    0.145186
  14 H :    0.132999
  15 H :    0.134138

  Mayer bond orders larger than 0.1
B(  0-N ,  1-C ) :   2.0550 B(  0-N ,  9-H ) :   0.8583 B(  1-C ,  2-N ) :   1.1114
B(  1-C ,  7-C ) :   0.8690 B(  2-N ,  3-C ) :   0.8992 B(  2-N , 10-H ) :   0.8707
B(  3-C ,  4-C ) :   0.9421 B(  3-C , 11-H ) :   0.9248 B(  3-C , 12-H ) :   0.9354
B(  4-C ,  5-C ) :   0.9521 B(  4-C ,  6-N ) :   0.8625 B(  4-C , 13-H ) :   0.9059
B(  5-C ,  6-N ) :   0.8725 B(  5-C , 14-H ) :   0.9238 B(  5-C , 15-H ) :   0.9081
B(  6-N ,  7-C ) :   1.0153 B(  7-C ,  8-O ) :   2.0426

MP2 TOTAL ENERGY:     -433.338863146 Eh
FINAL SINGLE POINT ENERGY      -433.338863146098

DIPOLE MOMENT
-------------
                                X             Y             Z
Electronic contribution:     -3.74287       3.22813       0.75224
Nuclear contribution   :      5.85832      -4.60755      -1.39129
                        -----------------------------------------
Total Dipole Moment    :      2.11545      -1.37941      -0.63905
                        -----------------------------------------
Magnitude (a.u.)       :      2.60506
Magnitude (Debye)      :      6.62152

                             ****ORCA TERMINATED NORMALLY****
TOTAL RUN TIME: 0 days 0 hours 16 minutes 31 seconds 159 msec
