                         Program Version 3.0.3 - RELEASE   -
|  1> ! RI-MP2 RIJK def2-TZVP def2-TZVP/C def2-TZVP/JK TIGHTSCF
|  2> % maxcore 2000
|  3> % mp2 density relaxed end
|  4> *xyz 0 1
|  5>  O        0.0222979516    -0.1061993048     0.0487505432
|  6>  C       -0.0045140819     1.0963545439     0.1715582371
|  7>  C       -1.3094452744     1.8611814220     0.3613788950
|  8>  N       -1.0938658425     3.1733286099     0.9693231748
|  9>  C        0.1940485514     3.7628487257     0.7436771489
| 10>  C        1.0880645157     3.4003962733    -0.4999801822
| 11>  N        2.2592352201     3.8832529308     0.3273802213
| 12>  C        1.4461789949     3.0040332410     1.2520912329
| 13>  C        1.2250127606     1.9598001518     0.1000466281
| 14>  H       -1.7495090087     1.9294702408    -0.6496285935
| 15>  H       -1.9902557253     1.2505736044     0.9624983373
| 16>  H       -1.8336628883     3.8170064344     0.7239842322
| 17>  H        0.1910858307     4.8239992578     0.9928316874
| 18>  H        0.9707621674     3.6728670497    -1.5504966171
| 19>  H        3.0958015317     3.3665803326     0.0391610159
| 20>  H        1.7454217447     2.7952949485     2.2800489483
| 21>  H        2.1062041922     1.3854168781    -0.1979858098
| 22> *
| 23>
| 24>                          ****END OF INPUT****

CARTESIAN COORDINATES (ANGSTROEM)
---------------------------------
  O      0.022298   -0.106199    0.048751
  C     -0.004514    1.096355    0.171558
  C     -1.309445    1.861181    0.361379
  N     -1.093866    3.173329    0.969323
  C      0.194049    3.762849    0.743677
  C      1.088065    3.400396   -0.499980
  N      2.259235    3.883253    0.327380
  C      1.446179    3.004033    1.252091
  C      1.225013    1.959800    0.100047
  H     -1.749509    1.929470   -0.649629
  H     -1.990256    1.250574    0.962498
  H     -1.833663    3.817006    0.723984
  H      0.191086    4.823999    0.992832
  H      0.970762    3.672867   -1.550497
  H      3.095802    3.366580    0.039161
  H      1.745422    2.795295    2.280049
  H      2.106204    1.385417   -0.197986

 Total Charge           Charge          ....    0
 Multiplicity           Mult            ....    1
 Number of Electrons    NEL             ....   66
 Basis Dimension        Dim             ....  327

ORBITAL ENERGIES
----------------

  NO   OCC          E(Eh)            E(eV)
   0   2.0000     -20.550248      -559.2007
   1   2.0000     -15.567148      -423.6036
   2   2.0000     -15.565373      -423.5553
   3   2.0000     -11.335425      -308.4526
   4   2.0000     -11.290168      -307.2211
   5   2.0000     -11.289287      -307.1971
   6   2.0000     -11.282833      -307.0215
   7   2.0000     -11.272680      -306.7452
   8   2.0000     -11.255148      -306.2682
   9   2.0000      -1.394230       -37.9389
  10   2.0000      -1.309498       -35.6333
  11   2.0000      -1.220723       -33.2176
  12   2.0000      -1.031434       -28.0667
  13   2.0000      -1.001112       -27.2416
  14   2.0000      -0.901382       -24.5279
  15   2.0000      -0.887498       -24.1500
  16   2.0000      -0.807590       -21.9756
  17   2.0000      -0.712739       -19.3946
  18   2.0000      -0.705567       -19.1994
  19   2.0000      -0.693199       -18.8629
  20   2.0000      -0.665738       -18.1157
  21   2.0000      -0.648081       -17.6352
  22   2.0000      -0.611394       -16.6369
  23   2.0000      -0.584741       -15.9116
  24   2.0000      -0.550519       -14.9804
  25   2.0000      -0.537369       -14.6226
  26   2.0000      -0.518790       -14.1170
  27   2.0000      -0.502551       -13.6751
  28   2.0000      -0.487529       -13.2663
  29   2.0000      -0.454393       -12.3646
  30   2.0000      -0.435722       -11.8566
  31   2.0000      -0.387818       -10.5531
  32   2.0000      -0.375130       -10.2078
  33   0.0000       0.119418         3.2495
  34   0.0000       0.131192         3.5699
  35   0.0000       0.145090         3.9481
  36   0.0000       0.163046         4.4367
  37   0.0000       0.179343         4.8802

MULLIKEN ATOMIC CHARGES
-----------------------
   0 O :   -0.275313
   1 C :    0.089738
   2 C :   -0.143072
   3 N :   -0.349057
   4 C :    0.012053
   5 C :   -0.084892
   6 N :   -0.314630
   7 C :   -0.084213
   8 C :   -0.069659
   9 H :    0.130398
  10 H :    0.142940
  11 H :    0.220825
  12 H :    0.121734
  13 H :    0.139151
  14 H :    0.203557
  15 H :    0.141527
  16 H :    0.118914
Sum of atomic charges:   -0.0000000

LOEWDIN ATOMIC CHARGES
----------------------
   0 O :    0.155362
   1 C :   -0.313968
   2 C :   -0.257318
   3 N :    0.011229
   4 C :   -0.249897
   5 C :   -0.189582
   6 N :    0.010160
   7 C :   -0.178727
   8 C :   -0.161064
   9 H :    0.143303
  10 H :    0.143533
  11 H :    0.174956
  12 H :    0.148701
  13 H :    0.123862
  14 H :    0.160405
  15 H :    0.127590
  16 H :    0.151455

  Mayer bond orders larger than 0.1
B(  0-O ,  1-C ) :   1.9957 B(  1-C ,  2-C ) :   0.9396 B(  1-C ,  8-C ) :   0.9244
B(  2-C ,  3-N ) :   0.9403 B(  2-C ,  9-H ) :   0.8984 B(  2-C , 10-H ) :   0.9129
B(  3-N ,  4-C ) :   1.0311 B(  3-N , 11-H ) :   0.8773 B(  4-C ,  5-C ) :   0.8634
B(  4-C ,  7-C ) :   0.8671 B(  4-C , 12-H ) :   0.8917 B(  5-C ,  6-N ) :   0.9466
B(  5-C ,  8-C ) :   0.8693 B(  5-C , 13-H ) :   0.8910 B(  6-N ,  7-C ) :   0.9496
B(  6-N , 14-H ) :   0.8783 B(  7-C ,  8-C ) :   0.8812 B(  7-C , 15-H ) :   0.8849
B(  8-C , 16-H ) :   0.9310

MP2 TOTAL ENERGY:     -417.246391439 Eh
FINAL SINGLE POINT ENERGY      -417.246391439241

DIPOLE MOMENT
-------------
                                X             Y             Z
Electronic contribution:      0.40981      -2.69408       0.07820
Nuclear contribution   :     -0.70433       3.36033      -0.41183
                        -----------------------------------------
Total Dipole Moment    :     -0.29452       0.66625      -0.33364
                        -----------------------------------------
Magnitude (a.u.)       :      0.80121
Magnitude (Debye)      :      2.03652

                             ****ORCA TERMINATED NORMALLY****
TOTAL RUN TIME: 0 days 0 hours 17 minutes 20 seconds 990 msec
