                         Program Version 3.0.3 - RELEASE   -
|  1> ! RI-MP2 RIJK def2-TZVP def2-TZVP/C def2-TZVP/JK TIGHTSCF
|  2> % maxcore 2000
|  3> % mp2 density relaxed end
|  4> *xyz 0 1
|  5>  O        0.0505187956     1.3945025562     0.3256736626
|  6>  C        0.0277310514     0.0086963315     0.0769385015
|  7>  C       -1.4015146236    -0.4882549170     0.1330076208
|  8>  C       -2.3118335642     0.1548582897    -0.9078565277
|  9>  C       -2.2634718735    -0.3601396787    -2.3657114321
| 10>  O       -3.6769456018    -0.6447100462    -2.3609431279
| 11>  C       -3.7828802152    -0.3135704411    -0.9612121325
| 12>  C        1.0163616187    -0.5883816309    -0.8900046303
| 13>  C        1.1455356336    -0.8493924489     0.6043960382
| 14>  H        0.8946786486     1.7510987895     0.0345934367
| 15>  H       -1.4080657200    -1.5785583856     0.0175206466
| 16>  H       -1.7965742568    -0.2732952181     1.1349940205
| 17>  H       -2.2175116765     1.2401804252    -0.8472274449
| 18>  H       -1.9931204032     0.3671978216    -3.1403084566
| 19>  H       -1.6659226756    -1.2711830147    -2.5136137998
| 20>  H       -4.0043522068    -1.1985341528    -0.3468290915
| 21>  H       -4.5512386499     0.4462139502    -0.7747495301
| 22>  H        0.7026956192    -1.4031852094    -1.5336059902
| 23>  H        1.7443881673     0.0746257609    -1.3496030894
| 24>  H        1.9492314945    -0.3468369800     1.1326762017
| 25>  H        0.9179616581    -1.8423943214     0.9776545045
| 26> *
| 27>
| 28>                          ****END OF INPUT****

CARTESIAN COORDINATES (ANGSTROEM)
---------------------------------
  O      0.050519    1.394503    0.325674
  C      0.027731    0.008696    0.076939
  C     -1.401515   -0.488255    0.133008
  C     -2.311834    0.154858   -0.907857
  C     -2.263472   -0.360140   -2.365711
  O     -3.676946   -0.644710   -2.360943
  C     -3.782880   -0.313570   -0.961212
  C      1.016362   -0.588382   -0.890005
  C      1.145536   -0.849392    0.604396
  H      0.894679    1.751099    0.034593
  H     -1.408066   -1.578558    0.017521
  H     -1.796574   -0.273295    1.134994
  H     -2.217512    1.240180   -0.847227
  H     -1.993120    0.367198   -3.140308
  H     -1.665923   -1.271183   -2.513614
  H     -4.004352   -1.198534   -0.346829
  H     -4.551239    0.446214   -0.774750
  H      0.702696   -1.403185   -1.533606
  H      1.744388    0.074626   -1.349603
  H      1.949231   -0.346837    1.132676
  H      0.917962   -1.842394    0.977655

 Total Charge           Charge          ....    0
 Multiplicity           Mult            ....    1
 Number of Electrons    NEL             ....   70
 Basis Dimension        Dim             ....  351

ORBITAL ENERGIES
----------------

  NO   OCC          E(Eh)            E(eV)
   0   2.0000     -20.566672      -559.6476
   1   2.0000     -20.540537      -558.9364
   2   2.0000     -11.296641      -307.3972
   3   2.0000     -11.271544      -306.7143
   4   2.0000     -11.271431      -306.7112
   5   2.0000     -11.235575      -305.7355
   6   2.0000     -11.230807      -305.6058
   7   2.0000     -11.230668      -305.6020
   8   2.0000     -11.227864      -305.5257
   9   2.0000      -1.378221       -37.5033
  10   2.0000      -1.370065       -37.2814
  11   2.0000      -1.138999       -30.9937
  12   2.0000      -1.052430       -28.6381
  13   2.0000      -0.932746       -25.3813
  14   2.0000      -0.927698       -25.2439
  15   2.0000      -0.839559       -22.8456
  16   2.0000      -0.791622       -21.5411
  17   2.0000      -0.756027       -20.5726
  18   2.0000      -0.701153       -19.0794
  19   2.0000      -0.679496       -18.4900
  20   2.0000      -0.668262       -18.1843
  21   2.0000      -0.644528       -17.5385
  22   2.0000      -0.608340       -16.5538
  23   2.0000      -0.580344       -15.7920
  24   2.0000      -0.561006       -15.2658
  25   2.0000      -0.560616       -15.2551
  26   2.0000      -0.555427       -15.1139
  27   2.0000      -0.540692       -14.7130
  28   2.0000      -0.524906       -14.2834
  29   2.0000      -0.501291       -13.6408
  30   2.0000      -0.459142       -12.4939
  31   2.0000      -0.447062       -12.1652
  32   2.0000      -0.420554       -11.4439
  33   2.0000      -0.407188       -11.0801
  34   2.0000      -0.386717       -10.5231
  35   0.0000       0.127721         3.4755
  36   0.0000       0.152170         4.1408
  37   0.0000       0.161613         4.3977
  38   0.0000       0.163735         4.4555
  39   0.0000       0.181588         4.9413

MULLIKEN ATOMIC CHARGES
-----------------------
   0 O :   -0.452599
   1 C :    0.181538
   2 C :   -0.287923
   3 C :   -0.100444
   4 C :   -0.025330
   5 O :   -0.330359
   6 C :    0.002839
   7 C :   -0.311467
   8 C :   -0.262762
   9 H :    0.316856
  10 H :    0.133870
  11 H :    0.123211
  12 H :    0.128996
  13 H :    0.098172
  14 H :    0.076024
  15 H :    0.084746
  16 H :    0.097028
  17 H :    0.130628
  18 H :    0.132786
  19 H :    0.134035
  20 H :    0.130155
Sum of atomic charges:   -0.0000000

LOEWDIN ATOMIC CHARGES
----------------------
   0 O :    0.023831
   1 C :   -0.363617
   2 C :   -0.211680
   3 C :   -0.233780
   4 C :   -0.256140
   5 O :    0.106353
   6 C :   -0.253055
   7 C :   -0.221761
   8 C :   -0.215871
   9 H :    0.177911
  10 H :    0.149914
  11 H :    0.151847
  12 H :    0.153435
  13 H :    0.115678
  14 H :    0.113758
  15 H :    0.116202
  16 H :    0.115350
  17 H :    0.132939
  18 H :    0.131337
  19 H :    0.133826
  20 H :    0.133524

  Mayer bond orders larger than 0.1
B(  0-O ,  1-C ) :   1.0385 B(  0-O ,  9-H ) :   0.8391 B(  1-C ,  2-C ) :   0.9219
B(  1-C ,  7-C ) :   0.8865 B(  1-C ,  8-C ) :   0.8767 B(  2-C ,  3-C ) :   0.9261
B(  2-C , 10-H ) :   0.9357 B(  2-C , 11-H ) :   0.9167 B(  3-C ,  4-C ) :   0.9553
B(  3-C ,  6-C ) :   0.9556 B(  3-C , 12-H ) :   0.9213 B(  4-C ,  5-O ) :   0.9546
B(  4-C , 13-H ) :   0.9144 B(  4-C , 14-H ) :   0.9052 B(  5-O ,  6-C ) :   0.9570
B(  6-C , 15-H ) :   0.9020 B(  6-C , 16-H ) :   0.9176 B(  7-C ,  8-C ) :   0.8655
B(  7-C , 17-H ) :   0.9186 B(  7-C , 18-H ) :   0.9241 B(  8-C , 19-H ) :   0.9271
B(  8-C , 20-H ) :   0.9178

MP2 TOTAL ENERGY:     -423.474913292 Eh
FINAL SINGLE POINT ENERGY      -423.474913292129

DIPOLE MOMENT
-------------
                                X             Y             Z
Electronic contribution:     -2.35836       1.93800      -0.94257
Nuclear contribution   :      3.35658      -1.89549       1.27414
                        -----------------------------------------
Total Dipole Moment    :      0.99822       0.04251       0.33157
                        -----------------------------------------
Magnitude (a.u.)       :      1.05270
Magnitude (Debye)      :      2.67576

                             ****ORCA TERMINATED NORMALLY****
TOTAL RUN TIME: 0 days 0 hours 16 minutes 16 seconds 465 msec
