                         Program Version 3.0.3 - RELEASE   -
|  1> ! RI-MP2 RIJK def2-TZVP def2-TZVP/C def2-TZVP/JK TIGHTSCF
|  2> % maxcore 2000
|  3> % mp2 density relaxed end
|  4> *xyz 0 1
|  5>  C       -0.4556644461     1.5123514847    -0.4791320953
|  6>  C        0.0081610920     0.1470836496    -0.0045058185
|  7>  C        1.1123550814    -0.6042425080    -0.8518899535
|  8>  C        1.9376804876    -0.5598414098     0.4216622251
|  9>  C        2.9269937079    -0.9411647714     1.2966598190
| 10>  C        2.5311096006    -0.4120594147     2.5745772870
| 11>  C        3.3204537366    -0.5078843167     3.8478404890
| 12>  C        1.3093296171     0.2319456372     2.4303747780
| 13>  N        0.9959776055     0.1529149499     1.0986766583
| 14>  H        0.3998015701     2.1517369488    -0.7167349096
| 15>  H       -1.0745523628     1.4091528093    -1.3765886280
| 16>  H       -1.0560940812     2.0122174801     0.2878488898
| 17>  H       -0.8481262265    -0.4977445234     0.2234211000
| 18>  H        0.8160500700    -1.5968504373    -1.2019085141
| 19>  H        1.4932173734    -0.0281412166    -1.7010260054
| 20>  H        3.8214754169    -1.5099027538     1.0931905651
| 21>  H        4.2563164478     0.0620194382     3.7956108578
| 22>  H        2.7483337388    -0.1208886471     4.6964955869
| 23>  H        3.5917542196    -1.5448702552     4.0780644635
| 24>  H        0.7094239913     0.7617500459     3.1530900449
| 25> *
| 26>
| 27>                          ****END OF INPUT****

CARTESIAN COORDINATES (ANGSTROEM)
---------------------------------
  C     -0.455664    1.512351   -0.479132
  C      0.008161    0.147084   -0.004506
  C      1.112355   -0.604243   -0.851890
  C      1.937680   -0.559841    0.421662
  C      2.926994   -0.941165    1.296660
  C      2.531110   -0.412059    2.574577
  C      3.320454   -0.507884    3.847840
  C      1.309330    0.231946    2.430375
  N      0.995978    0.152915    1.098677
  H      0.399802    2.151737   -0.716735
  H     -1.074552    1.409153   -1.376589
  H     -1.056094    2.012217    0.287849
  H     -0.848126   -0.497745    0.223421
  H      0.816050   -1.596850   -1.201909
  H      1.493217   -0.028141   -1.701026
  H      3.821475   -1.509903    1.093191
  H      4.256316    0.062019    3.795611
  H      2.748334   -0.120889    4.696496
  H      3.591754   -1.544870    4.078064
  H      0.709424    0.761750    3.153090

 Total Charge           Charge          ....    0
 Multiplicity           Mult            ....    1
 Number of Electrons    NEL             ....   66
 Basis Dimension        Dim             ....  345

ORBITAL ENERGIES
----------------

  NO   OCC          E(Eh)            E(eV)
   0   2.0000     -15.580483      -423.9665
   1   2.0000     -11.289539      -307.2040
   2   2.0000     -11.247339      -306.0557
   3   2.0000     -11.245103      -305.9948
   4   2.0000     -11.235359      -305.7297
   5   2.0000     -11.227328      -305.5111
   6   2.0000     -11.211140      -305.0706
   7   2.0000     -11.209150      -305.0165
   8   2.0000     -11.197397      -304.6967
   9   2.0000      -1.312497       -35.7149
  10   2.0000      -1.105257       -30.0756
  11   2.0000      -1.012787       -27.5593
  12   2.0000      -1.002286       -27.2736
  13   2.0000      -0.946904       -25.7666
  14   2.0000      -0.883445       -24.0398
  15   2.0000      -0.821772       -22.3616
  16   2.0000      -0.746306       -20.3080
  17   2.0000      -0.701419       -19.0866
  18   2.0000      -0.691155       -18.8073
  19   2.0000      -0.642662       -17.4877
  20   2.0000      -0.596722       -16.2376
  21   2.0000      -0.574652       -15.6371
  22   2.0000      -0.559375       -15.2214
  23   2.0000      -0.558386       -15.1944
  24   2.0000      -0.536228       -14.5915
  25   2.0000      -0.532176       -14.4812
  26   2.0000      -0.528742       -14.3878
  27   2.0000      -0.508166       -13.8279
  28   2.0000      -0.492343       -13.3973
  29   2.0000      -0.485978       -13.2241
  30   2.0000      -0.460015       -12.5177
  31   2.0000      -0.318963        -8.6794
  32   2.0000      -0.281036        -7.6474
  33   0.0000       0.132641         3.6094
  34   0.0000       0.157640         4.2896
  35   0.0000       0.164793         4.4843
  36   0.0000       0.167784         4.5656
  37   0.0000       0.182173         4.9572

MULLIKEN ATOMIC CHARGES
-----------------------
   0 C :   -0.397114
   1 C :   -0.003079
   2 C :   -0.189390
   3 C :    0.087986
   4 C :   -0.372538
   5 C :    0.161955
   6 C :   -0.437482
   7 C :   -0.245111
   8 N :   -0.025417
   9 H :    0.138223
  10 H :    0.132755
  11 H :    0.135738
  12 H :    0.109840
  13 H :    0.125632
  14 H :    0.124383
  15 H :    0.118367
  16 H :    0.136460
  17 H :    0.129980
  18 H :    0.136855
  19 H :    0.131957
Sum of atomic charges:   -0.0000000

LOEWDIN ATOMIC CHARGES
----------------------
   0 C :   -0.293860
   1 C :   -0.216952
   2 C :   -0.180679
   3 C :   -0.196235
   4 C :   -0.163158
   5 C :   -0.207332
   6 C :   -0.279550
   7 C :   -0.214721
   8 N :    0.301134
   9 H :    0.129497
  10 H :    0.129274
  11 H :    0.127550
  12 H :    0.143866
  13 H :    0.134814
  14 H :    0.134847
  15 H :    0.136944
  16 H :    0.126963
  17 H :    0.128067
  18 H :    0.127802
  19 H :    0.131730

  Mayer bond orders larger than 0.1
B(  0-C ,  1-C ) :   0.9052 B(  0-C ,  9-H ) :   0.9365 B(  0-C , 10-H ) :   0.9315
B(  0-C , 11-H ) :   0.9345 B(  1-C ,  2-C ) :   0.9369 B(  1-C ,  8-N ) :   0.8549
B(  1-C , 12-H ) :   0.9136 B(  2-C ,  3-C ) :   0.9424 B(  2-C , 13-H ) :   0.8984
B(  2-C , 14-H ) :   0.9188 B(  3-C ,  4-C ) :   1.4354 B(  3-C ,  8-N ) :   1.1072
B(  4-C ,  5-C ) :   1.2371 B(  4-C , 15-H ) :   0.9445 B(  5-C ,  6-C ) :   0.8485
B(  5-C ,  7-C ) :   1.4292 B(  6-C , 16-H ) :   0.9308 B(  6-C , 17-H ) :   0.9555
B(  6-C , 18-H ) :   0.9439 B(  7-C ,  8-N ) :   1.1570 B(  7-C , 19-H ) :   0.9175

MP2 TOTAL ENERGY:     -365.355482417 Eh
FINAL SINGLE POINT ENERGY      -365.355482416794

DIPOLE MOMENT
-------------
                                X             Y             Z
Electronic contribution:      0.82324      -1.74721      -0.21055
Nuclear contribution   :     -1.50761       1.91491      -0.24693
                        -----------------------------------------
Total Dipole Moment    :     -0.68438       0.16770      -0.45748
                        -----------------------------------------
Magnitude (a.u.)       :      0.84011
Magnitude (Debye)      :      2.13539

                             ****ORCA TERMINATED NORMALLY****
TOTAL RUN TIME: 0 days 0 hours 19 minutes 18 seconds 398 msec
