                         Program Version 3.0.3 - RELEASE   -
|  1> ! RI-MP2 RIJK def2-TZVP def2-TZVP/C def2-TZVP/JK TIGHTSCF
|  2> % maxcore 2000
|  3> % mp2 density relaxed end
|  4> *xyz 0 1
|  5>  O        0.3739147701     0.9083088502    -0.7334551580
|  6>  C        0.1530478390    -0.2108574406     0.0780999165
|  7>  C        0.4969270380    -0.0578993126     1.5456228742
|  8>  C       -0.3976059951    -0.6413418624     2.3369629205
|  9>  C       -1.5239017266    -1.2755705632     1.5552977060
| 10>  C       -1.3636822587    -0.6368452188     0.1470749499
| 11>  O       -2.0918704700     0.5833310548     0.0558330830
| 12>  C       -1.7563626051    -1.5422955715    -0.9418753182
| 13>  N       -2.0974909473    -2.2542691613    -1.7861946581
| 14>  H       -0.3471376956     1.5260968547    -0.5561096368
| 15>  H        0.7386194261    -1.0256567214    -0.3655578980
| 16>  H        1.4069561801     0.4417819244     1.8542881989
| 17>  H       -0.3433220255    -0.7037921762     3.4175465062
| 18>  H       -1.4215156386    -2.3669536807     1.5088808045
| 19>  H       -2.5189476094    -1.0623301567     1.9606446127
| 20>  H       -3.0224218714     0.3862538913    -0.0923208132
| 21> *
| 22>
| 23>                          ****END OF INPUT****

CARTESIAN COORDINATES (ANGSTROEM)
---------------------------------
  O      0.373915    0.908309   -0.733455
  C      0.153048   -0.210857    0.078100
  C      0.496927   -0.057899    1.545623
  C     -0.397606   -0.641342    2.336963
  C     -1.523902   -1.275571    1.555298
  C     -1.363682   -0.636845    0.147075
  O     -2.091870    0.583331    0.055833
  C     -1.756363   -1.542296   -0.941875
  N     -2.097491   -2.254269   -1.786195
  H     -0.347138    1.526097   -0.556110
  H      0.738619   -1.025657   -0.365558
  H      1.406956    0.441782    1.854288
  H     -0.343322   -0.703792    3.417547
  H     -1.421516   -2.366954    1.508881
  H     -2.518948   -1.062330    1.960645
  H     -3.022422    0.386254   -0.092321

 Total Charge           Charge          ....    0
 Multiplicity           Mult            ....    1
 Number of Electrons    NEL             ....   66
 Basis Dimension        Dim             ....  321

ORBITAL ENERGIES
----------------

  NO   OCC          E(Eh)            E(eV)
   0   2.0000     -20.603020      -560.6367
   1   2.0000     -20.566745      -559.6496
   2   2.0000     -15.586030      -424.1174
   3   2.0000     -11.354424      -308.9696
   4   2.0000     -11.312222      -307.8212
   5   2.0000     -11.282581      -307.0146
   6   2.0000     -11.264748      -306.5294
   7   2.0000     -11.253833      -306.2324
   8   2.0000     -11.245055      -305.9935
   9   2.0000      -1.421678       -38.6858
  10   2.0000      -1.373854       -37.3845
  11   2.0000      -1.230559       -33.4852
  12   2.0000      -1.153400       -31.3856
  13   2.0000      -1.013650       -27.5828
  14   2.0000      -0.978128       -26.6162
  15   2.0000      -0.856763       -23.3137
  16   2.0000      -0.798763       -21.7355
  17   2.0000      -0.773608       -21.0510
  18   2.0000      -0.718935       -19.5632
  19   2.0000      -0.681860       -18.5543
  20   2.0000      -0.630984       -17.1699
  21   2.0000      -0.620542       -16.8858
  22   2.0000      -0.607614       -16.5340
  23   2.0000      -0.596264       -16.2252
  24   2.0000      -0.590479       -16.0677
  25   2.0000      -0.559401       -15.2221
  26   2.0000      -0.552387       -15.0312
  27   2.0000      -0.514637       -14.0040
  28   2.0000      -0.507191       -13.8014
  29   2.0000      -0.482560       -13.1311
  30   2.0000      -0.474279       -12.9058
  31   2.0000      -0.440295       -11.9810
  32   2.0000      -0.379478       -10.3261
  33   0.0000       0.110094         2.9958
  34   0.0000       0.129692         3.5291
  35   0.0000       0.146735         3.9929
  36   0.0000       0.162011         4.4085
  37   0.0000       0.166476         4.5300

MULLIKEN ATOMIC CHARGES
-----------------------
   0 O :   -0.464768
   1 C :    0.155174
   2 C :   -0.229156
   3 C :   -0.155292
   4 C :   -0.187083
   5 C :    0.332800
   6 O :   -0.495663
   7 C :   -0.264492
   8 N :   -0.043664
   9 H :    0.335516
  10 H :    0.123097
  11 H :    0.144394
  12 H :    0.142377
  13 H :    0.144286
  14 H :    0.124823
  15 H :    0.337651
Sum of atomic charges:    0.0000000

LOEWDIN ATOMIC CHARGES
----------------------
   0 O :    0.008478
   1 C :   -0.281625
   2 C :   -0.136290
   3 C :   -0.144891
   4 C :   -0.185133
   5 C :   -0.325274
   6 O :    0.030472
   7 C :   -0.158395
   8 N :    0.077190
   9 H :    0.184212
  10 H :    0.158978
  11 H :    0.144233
  12 H :    0.140833
  13 H :    0.154341
  14 H :    0.144520
  15 H :    0.188355

  Mayer bond orders larger than 0.1
B(  0-O ,  1-C ) :   0.9974 B(  0-O ,  9-H ) :   0.8169 B(  1-C ,  2-C ) :   0.9284
B(  1-C ,  5-C ) :   0.8733 B(  1-C , 10-H ) :   0.9227 B(  2-C ,  3-C ) :   1.7531
B(  2-C , 11-H ) :   0.9257 B(  3-C ,  4-C ) :   0.9386 B(  3-C , 12-H ) :   0.9174
B(  4-C ,  5-C ) :   0.9111 B(  4-C , 13-H ) :   0.9010 B(  4-C , 14-H ) :   0.9069
B(  5-C ,  6-O ) :   0.8969 B(  5-C ,  7-C ) :   0.9264 B(  6-O , 15-H ) :   0.8301
B(  7-C ,  8-N ) :   2.8578

MP2 TOTAL ENERGY:     -437.182781964 Eh
FINAL SINGLE POINT ENERGY      -437.182781964151

DIPOLE MOMENT
-------------
                                X             Y             Z
Electronic contribution:     -1.22895      -0.42438      -4.21583
Nuclear contribution   :      0.87242       0.70071       5.71887
                        -----------------------------------------
Total Dipole Moment    :     -0.35653       0.27632       1.50304
                        -----------------------------------------
Magnitude (a.u.)       :      1.56926
Magnitude (Debye)      :      3.98875

                             ****ORCA TERMINATED NORMALLY****
TOTAL RUN TIME: 0 days 0 hours 16 minutes 23 seconds 380 msec
