                         Program Version 3.0.3 - RELEASE   -
|  1> ! RI-MP2 RIJK def2-TZVP def2-TZVP/C def2-TZVP/JK TIGHTSCF
|  2> % maxcore 2000
|  3> % mp2 density relaxed end
|  4> *xyz 0 1
|  5>  O       -0.0295934482     1.3853212069    -0.0778023988
|  6>  C        0.0756272168    -0.0130961243    -0.0174305267
|  7>  C        0.0794337875    -0.6258402355     1.4214524375
|  8>  O       -1.3789219372    -0.5445071379     1.4299218542
|  9>  C       -1.3328857757    -0.6342809965    -0.0169176245
| 10>  C       -1.2953870398    -2.1218686803    -0.3980221423
| 11>  O       -1.0221699966    -2.1816223796    -1.7969922901
| 12>  C       -0.2174752729    -2.8032922243     0.4301764524
| 13>  C        0.4725934388    -2.0811085433     1.3135603153
| 14>  H        0.8465390692     1.7596592681     0.0578572211
| 15>  H        0.8072789366    -0.4149611446    -0.7257002263
| 16>  H        0.5378816872    -0.0708302208     2.2427697415
| 17>  H       -2.1310389043    -0.0798615064    -0.5148767665
| 18>  H       -2.2788831918    -2.5686464004    -0.1823815288
| 19>  H       -1.0374870468    -3.1041755833    -2.0703650344
| 20>  H       -0.0394229830    -3.8641073092     0.2713484695
| 21>  H        1.2789167403    -2.4881829186     1.9147720870
| 22> *
| 23>
| 24>                          ****END OF INPUT****

CARTESIAN COORDINATES (ANGSTROEM)
---------------------------------
  O     -0.029593    1.385321   -0.077802
  C      0.075627   -0.013096   -0.017431
  C      0.079434   -0.625840    1.421452
  O     -1.378922   -0.544507    1.429922
  C     -1.332886   -0.634281   -0.016918
  C     -1.295387   -2.121869   -0.398022
  O     -1.022170   -2.181622   -1.796992
  C     -0.217475   -2.803292    0.430176
  C      0.472593   -2.081109    1.313560
  H      0.846539    1.759659    0.057857
  H      0.807279   -0.414961   -0.725700
  H      0.537882   -0.070830    2.242770
  H     -2.131039   -0.079862   -0.514877
  H     -2.278883   -2.568646   -0.182382
  H     -1.037487   -3.104176   -2.070365
  H     -0.039423   -3.864107    0.271348
  H      1.278917   -2.488183    1.914772

 Total Charge           Charge          ....    0
 Multiplicity           Mult            ....    1
 Number of Electrons    NEL             ....   68
 Basis Dimension        Dim             ....  327

ORBITAL ENERGIES
----------------

  NO   OCC          E(Eh)            E(eV)
   0   2.0000     -20.567039      -559.6576
   1   2.0000     -20.564125      -559.5783
   2   2.0000     -20.548586      -559.1555
   3   2.0000     -11.294255      -307.3323
   4   2.0000     -11.291065      -307.2455
   5   2.0000     -11.287619      -307.1517
   6   2.0000     -11.283196      -307.0314
   7   2.0000     -11.241317      -305.8918
   8   2.0000     -11.239510      -305.8426
   9   2.0000      -1.401821       -38.1455
  10   2.0000      -1.371107       -37.3097
  11   2.0000      -1.355359       -36.8812
  12   2.0000      -1.094534       -29.7838
  13   2.0000      -1.002097       -27.2684
  14   2.0000      -0.981051       -26.6958
  15   2.0000      -0.851204       -23.1624
  16   2.0000      -0.817415       -22.2430
  17   2.0000      -0.731000       -19.8915
  18   2.0000      -0.726297       -19.7636
  19   2.0000      -0.699270       -19.0281
  20   2.0000      -0.681145       -18.5349
  21   2.0000      -0.649073       -17.6622
  22   2.0000      -0.618912       -16.8415
  23   2.0000      -0.599294       -16.3076
  24   2.0000      -0.584471       -15.9043
  25   2.0000      -0.566183       -15.4066
  26   2.0000      -0.551099       -14.9962
  27   2.0000      -0.523112       -14.2346
  28   2.0000      -0.520634       -14.1672
  29   2.0000      -0.476829       -12.9752
  30   2.0000      -0.447685       -12.1821
  31   2.0000      -0.440178       -11.9778
  32   2.0000      -0.410677       -11.1751
  33   2.0000      -0.362451        -9.8628
  34   0.0000       0.118690         3.2297
  35   0.0000       0.133463         3.6317
  36   0.0000       0.144709         3.9377
  37   0.0000       0.162350         4.4178
  38   0.0000       0.180678         4.9165

MULLIKEN ATOMIC CHARGES
-----------------------
   0 O :   -0.449794
   1 C :   -0.032637
   2 C :    0.146197
   3 O :   -0.335354
   4 C :    0.140953
   5 C :    0.077510
   6 O :   -0.468678
   7 C :   -0.191958
   8 C :   -0.270445
   9 H :    0.320339
  10 H :    0.114401
  11 H :    0.138195
  12 H :    0.130954
  13 H :    0.103134
  14 H :    0.316597
  15 H :    0.130125
  16 H :    0.130463
Sum of atomic charges:    0.0000000

LOEWDIN ATOMIC CHARGES
----------------------
   0 O :    0.002334
   1 C :   -0.290181
   2 C :   -0.239121
   3 O :    0.166842
   4 C :   -0.225748
   5 C :   -0.310284
   6 O :   -0.014682
   7 C :   -0.138245
   8 C :   -0.137656
   9 H :    0.178382
  10 H :    0.132903
  11 H :    0.134925
  12 H :    0.143639
  13 H :    0.141376
  14 H :    0.174958
  15 H :    0.139327
  16 H :    0.141230

  Mayer bond orders larger than 0.1
B(  0-O ,  1-C ) :   1.0538 B(  0-O ,  9-H ) :   0.8430 B(  1-C ,  2-C ) :   0.9041
B(  1-C ,  4-C ) :   0.9112 B(  1-C , 10-H ) :   0.9494 B(  2-C ,  3-O ) :   0.9188
B(  2-C ,  8-C ) :   0.9206 B(  2-C , 11-H ) :   0.9099 B(  3-O ,  4-C ) :   0.9277
B(  4-C ,  5-C ) :   0.9138 B(  4-C , 12-H ) :   0.9134 B(  5-C ,  6-O ) :   1.0045
B(  5-C ,  7-C ) :   0.9247 B(  5-C , 13-H ) :   0.9259 B(  6-O , 14-H ) :   0.8440
B(  7-C ,  8-C ) :   1.7927 B(  7-C , 15-H ) :   0.9152 B(  8-C , 16-H ) :   0.9171

MP2 TOTAL ENERGY:     -458.198670389 Eh
FINAL SINGLE POINT ENERGY      -458.198670389371

DIPOLE MOMENT
-------------
                                X             Y             Z
Electronic contribution:     -1.09768       1.60525       0.55764
Nuclear contribution   :      2.05355      -2.41427      -0.64830
                        -----------------------------------------
Total Dipole Moment    :      0.95586      -0.80902      -0.09066
                        -----------------------------------------
Magnitude (a.u.)       :      1.25555
Magnitude (Debye)      :      3.19135

                             ****ORCA TERMINATED NORMALLY****
TOTAL RUN TIME: 0 days 0 hours 19 minutes 14 seconds 152 msec
