                         Program Version 3.0.3 - RELEASE   -
|  1> ! RI-MP2 RIJK def2-TZVP def2-TZVP/C def2-TZVP/JK TIGHTSCF
|  2> % maxcore 2000
|  3> % mp2 density relaxed end
|  4> *xyz 0 1
|  5>  C        0.0886983686     1.3719901482     0.0077714890
|  6>  O       -0.0493770866    -0.0589642764     0.0013963926
|  7>  C       -1.3127354576    -0.5122528230     0.0121486991
|  8>  O       -2.2950700419     0.1752127525     0.0261022924
|  9>  C       -1.2870823631    -2.0414313142     0.0039415612
| 10>  C       -2.6168386579    -2.6375929032     0.0126490038
| 11>  N       -3.6542981562    -3.1430230302     0.0191904708
| 12>  H        1.1610566313     1.5635858918    -0.0019574046
| 13>  H       -0.3885811239     1.8048557003    -0.8743306254
| 14>  H       -0.3707535060     1.7952311037     0.9038948174
| 15>  H       -0.7317722851    -2.3783654365    -0.8781079626
| 16>  H       -0.7163973417    -2.3873207730     0.8726338663
| 17> *
| 18>
| 19>                          ****END OF INPUT****

CARTESIAN COORDINATES (ANGSTROEM)
---------------------------------
  C      0.088698    1.371990    0.007771
  O     -0.049377   -0.058964    0.001396
  C     -1.312735   -0.512253    0.012149
  O     -2.295070    0.175213    0.026102
  C     -1.287082   -2.041431    0.003942
  C     -2.616839   -2.637593    0.012649
  N     -3.654298   -3.143023    0.019190
  H      1.161057    1.563586   -0.001957
  H     -0.388581    1.804856   -0.874331
  H     -0.370754    1.795231    0.903895
  H     -0.731772   -2.378365   -0.878108
  H     -0.716397   -2.387321    0.872634

 Total Charge           Charge          ....    0
 Multiplicity           Mult            ....    1
 Number of Electrons    NEL             ....   52
 Basis Dimension        Dim             ....  247

ORBITAL ENERGIES
----------------

  NO   OCC          E(Eh)            E(eV)
   0   2.0000     -20.629570      -561.3591
   1   2.0000     -20.571804      -559.7872
   2   2.0000     -15.578691      -423.9177
   3   2.0000     -11.412820      -310.5586
   4   2.0000     -11.311788      -307.8094
   5   2.0000     -11.305285      -307.6324
   6   2.0000     -11.282626      -307.0159
   7   2.0000      -1.489631       -40.5349
   8   2.0000      -1.390632       -37.8410
   9   2.0000      -1.227048       -33.3897
  10   2.0000      -1.091080       -29.6898
  11   2.0000      -0.986054       -26.8319
  12   2.0000      -0.816927       -22.2297
  13   2.0000      -0.743155       -20.2223
  14   2.0000      -0.726421       -19.7669
  15   2.0000      -0.708795       -19.2873
  16   2.0000      -0.675584       -18.3836
  17   2.0000      -0.646843       -17.6015
  18   2.0000      -0.614877       -16.7317
  19   2.0000      -0.562577       -15.3085
  20   2.0000      -0.560593       -15.2545
  21   2.0000      -0.554582       -15.0909
  22   2.0000      -0.489575       -13.3220
  23   2.0000      -0.488690       -13.2979
  24   2.0000      -0.468202       -12.7404
  25   2.0000      -0.465251       -12.6601
  26   0.0000       0.115165         3.1338
  27   0.0000       0.139245         3.7891
  28   0.0000       0.147373         4.0102
  29   0.0000       0.176422         4.8007
  30   0.0000       0.177128         4.8199

MULLIKEN ATOMIC CHARGES
-----------------------
   0 C :   -0.222840
   1 O :   -0.255151
   2 C :    0.302244
   3 O :   -0.288338
   4 C :   -0.136543
   5 C :   -0.159317
   6 N :   -0.051081
   7 H :    0.150647
   8 H :    0.147663
   9 H :    0.147670
  10 H :    0.182536
  11 H :    0.182510
Sum of atomic charges:    0.0000000

LOEWDIN ATOMIC CHARGES
----------------------
   0 C :   -0.297993
   1 O :    0.230702
   2 C :   -0.479231
   3 O :    0.156195
   4 C :   -0.211182
   5 C :   -0.180910
   6 N :    0.073286
   7 H :    0.117323
   8 H :    0.116863
   9 H :    0.116863
  10 H :    0.179027
  11 H :    0.179056

  Mayer bond orders larger than 0.1
B(  0-C ,  1-O ) :   0.8265 B(  0-C ,  7-H ) :   0.9327 B(  0-C ,  8-H ) :   0.9377
B(  0-C ,  9-H ) :   0.9377 B(  1-O ,  2-C ) :   1.1374 B(  2-C ,  3-O ) :   1.9619
B(  2-C ,  4-C ) :   0.9118 B(  4-C ,  5-C ) :   0.9274 B(  4-C , 10-H ) :   0.8940
B(  4-C , 11-H ) :   0.8939 B(  5-C ,  6-N ) :   2.8542

MP2 TOTAL ENERGY:     -359.975031666 Eh
FINAL SINGLE POINT ENERGY      -359.975031666108

DIPOLE MOMENT
-------------
                                X             Y             Z
Electronic contribution:     -4.17505      -3.84696       0.01944
Nuclear contribution   :      6.18155       4.53755      -0.03451
                        -----------------------------------------
Total Dipole Moment    :      2.00650       0.69060      -0.01507
                        -----------------------------------------
Magnitude (a.u.)       :      2.12207
Magnitude (Debye)      :      5.39387

                             ****ORCA TERMINATED NORMALLY****
TOTAL RUN TIME: 0 days 0 hours 5 minutes 50 seconds 636 msec
