                         Program Version 3.0.3 - RELEASE   -
|  1> ! RI-MP2 RIJK def2-TZVP def2-TZVP/C def2-TZVP/JK TIGHTSCF
|  2> % maxcore 2000
|  3> % mp2 density relaxed end
|  4> *xyz 0 1
|  5>  C       -0.2042925554     1.5373737501     0.0488852134
|  6>  C        0.0560957036     0.0379736461     0.0285639797
|  7>  C        0.8858465033    -0.4728409129    -1.1870520816
|  8>  N        1.6805853889    -1.6058915104    -0.6491419367
|  9>  C        1.8169013850    -1.3518182523     0.7147207878
| 10>  C        2.4453593709    -1.7361385941     1.8777723381
| 11>  N        1.8772985816    -1.0204573450     2.9013132252
| 12>  N        0.9408938484    -0.2350235505     2.4465286399
| 13>  N        0.9255761313    -0.4217360485     1.1057348697
| 14>  H        0.7347685358     2.0956706599    -0.0052627710
| 15>  H       -0.8325641514     1.8220867956    -0.8004623113
| 16>  H       -0.7198829313     1.8203462997     0.9695353686
| 17>  H       -0.8953324036    -0.5062574148     0.0881665877
| 18>  H        0.2486773553    -0.8005073107    -2.0114839883
| 19>  H        1.5342506880     0.3387975165    -1.5470940901
| 20>  H        2.5400190373    -1.7910549039    -1.1476795230
| 21>  H        3.2377654323    -2.4435281749     2.0514083118
| 22> *
| 23>
| 24>                          ****END OF INPUT****

CARTESIAN COORDINATES (ANGSTROEM)
---------------------------------
  C     -0.204293    1.537374    0.048885
  C      0.056096    0.037974    0.028564
  C      0.885847   -0.472841   -1.187052
  N      1.680585   -1.605892   -0.649142
  C      1.816901   -1.351818    0.714721
  C      2.445359   -1.736139    1.877772
  N      1.877299   -1.020457    2.901313
  N      0.940894   -0.235024    2.446529
  N      0.925576   -0.421736    1.105735
  H      0.734769    2.095671   -0.005263
  H     -0.832564    1.822087   -0.800462
  H     -0.719883    1.820346    0.969535
  H     -0.895332   -0.506257    0.088167
  H      0.248677   -0.800507   -2.011484
  H      1.534251    0.338798   -1.547094
  H      2.540019   -1.791055   -1.147680
  H      3.237765   -2.443528    2.051408

 Total Charge           Charge          ....    0
 Multiplicity           Mult            ....    1
 Number of Electrons    NEL             ....   66
 Basis Dimension        Dim             ....  327

ORBITAL ENERGIES
----------------

  NO   OCC          E(Eh)            E(eV)
   0   2.0000     -15.634241      -425.4293
   1   2.0000     -15.620623      -425.0588
   2   2.0000     -15.595653      -424.3793
   3   2.0000     -15.589144      -424.2022
   4   2.0000     -11.309998      -307.7607
   5   2.0000     -11.302743      -307.5633
   6   2.0000     -11.292415      -307.2822
   7   2.0000     -11.238849      -305.8246
   8   2.0000     -11.238693      -305.8204
   9   2.0000      -1.429756       -38.9056
  10   2.0000      -1.286904       -35.0184
  11   2.0000      -1.180355       -32.1191
  12   2.0000      -1.073902       -29.2224
  13   2.0000      -1.045853       -28.4591
  14   2.0000      -0.951389       -25.8886
  15   2.0000      -0.869985       -23.6735
  16   2.0000      -0.832855       -22.6631
  17   2.0000      -0.783676       -21.3249
  18   2.0000      -0.719504       -19.5787
  19   2.0000      -0.701441       -19.0872
  20   2.0000      -0.641554       -17.4576
  21   2.0000      -0.624736       -16.9999
  22   2.0000      -0.605712       -16.4823
  23   2.0000      -0.601454       -16.3664
  24   2.0000      -0.598596       -16.2886
  25   2.0000      -0.549816       -14.9612
  26   2.0000      -0.538869       -14.6634
  27   2.0000      -0.515667       -14.0320
  28   2.0000      -0.499017       -13.5790
  29   2.0000      -0.471638       -12.8339
  30   2.0000      -0.423548       -11.5253
  31   2.0000      -0.383947       -10.4477
  32   2.0000      -0.319806        -8.7024
  33   0.0000       0.120135         3.2691
  34   0.0000       0.132919         3.6169
  35   0.0000       0.150340         4.0910
  36   0.0000       0.174029         4.7356
  37   0.0000       0.179661         4.8888

MULLIKEN ATOMIC CHARGES
-----------------------
   0 C :   -0.394608
   1 C :   -0.014655
   2 C :   -0.139018
   3 N :   -0.325874
   4 C :    0.126516
   5 C :   -0.207873
   6 N :   -0.136921
   7 N :   -0.228168
   8 N :    0.128150
   9 H :    0.135193
  10 H :    0.136316
  11 H :    0.166190
  12 H :    0.119969
  13 H :    0.137452
  14 H :    0.121697
  15 H :    0.239640
  16 H :    0.135994
Sum of atomic charges:    0.0000000

LOEWDIN ATOMIC CHARGES
----------------------
   0 C :   -0.283525
   1 C :   -0.249293
   2 C :   -0.226331
   3 N :    0.052032
   4 C :   -0.309339
   5 C :   -0.272118
   6 N :   -0.006302
   7 N :   -0.044946
   8 N :    0.210445
   9 H :    0.129259
  10 H :    0.130739
  11 H :    0.136506
  12 H :    0.154514
  13 H :    0.132911
  14 H :    0.129908
  15 H :    0.181894
  16 H :    0.133646

  Mayer bond orders larger than 0.1
B(  0-C ,  1-C ) :   0.9301 B(  0-C ,  9-H ) :   0.9252 B(  0-C , 10-H ) :   0.9324
B(  0-C , 11-H ) :   0.9308 B(  1-C ,  2-C ) :   0.9289 B(  1-C ,  8-N ) :   0.8530
B(  1-C , 12-H ) :   0.9177 B(  2-C ,  3-N ) :   0.9340 B(  2-C , 13-H ) :   0.9213
B(  2-C , 14-H ) :   0.9252 B(  3-N ,  4-C ) :   1.0685 B(  3-N , 15-H ) :   0.8714
B(  4-C ,  5-C ) :   1.4127 B(  4-C ,  8-N ) :   1.1530 B(  5-C ,  6-N ) :   1.3761
B(  5-C , 16-H ) :   0.9502 B(  6-N ,  7-N ) :   1.2677 B(  7-N ,  8-N ) :   0.9703

MP2 TOTAL ENERGY:     -413.481649419 Eh
FINAL SINGLE POINT ENERGY      -413.481649419408

DIPOLE MOMENT
-------------
                                X             Y             Z
Electronic contribution:      3.02540      -4.48296       5.72417
Nuclear contribution   :     -3.08947       4.68588      -8.08508
                        -----------------------------------------
Total Dipole Moment    :     -0.06407       0.20292      -2.36092
                        -----------------------------------------
Magnitude (a.u.)       :      2.37049
Magnitude (Debye)      :      6.02530

                             ****ORCA TERMINATED NORMALLY****
TOTAL RUN TIME: 0 days 0 hours 18 minutes 1 seconds 278 msec
