                         Program Version 3.0.3 - RELEASE   -
|  1> ! RI-MP2 RIJK def2-TZVP def2-TZVP/C def2-TZVP/JK TIGHTSCF
|  2> % maxcore 2000
|  3> % mp2 density relaxed end
|  4> *xyz 0 1
|  5>  O       -0.0071771517     1.3801747344     0.0746084241
|  6>  C        0.0478011481    -0.0223484948    -0.0179746714
|  7>  C       -0.5289725757    -0.6494889008    -1.2715227736
|  8>  C       -1.2937825347    -0.7272614891     0.0284986663
|  9>  C       -1.3912467997    -2.0206347214     0.7853853390
| 10>  N       -0.7017479547    -3.1937736404     0.2282072981
| 11>  C       -0.1788780898    -2.5642277008     1.4721657583
| 12>  C        1.0840475208    -1.7995955371     1.3812870468
| 13>  C        1.1771476977    -0.6500187661     0.7051641724
| 14>  H        0.5947276884     1.7423303236    -0.5848543283
| 15>  H       -0.9019589395     0.0423973568    -2.0192811979
| 16>  H       -0.0875152227    -1.5682640935    -1.6378856452
| 17>  H       -2.1420511837    -0.0610232342     0.1332319601
| 18>  H       -2.3447651999    -2.1865381841     1.2791211879
| 19>  H       -1.2130482705    -4.0391784798     0.4692302958
| 20>  H       -0.3247368753    -3.1243582798     2.3927603559
| 21>  H        1.9489619147    -2.1916102026     1.9089502091
| 22>  H        2.1139191580    -0.0977020502     0.6916422926
| 23> *
| 24>
| 25>                          ****END OF INPUT****

CARTESIAN COORDINATES (ANGSTROEM)
---------------------------------
  O     -0.007177    1.380175    0.074608
  C      0.047801   -0.022348   -0.017975
  C     -0.528973   -0.649489   -1.271523
  C     -1.293783   -0.727261    0.028499
  C     -1.391247   -2.020635    0.785385
  N     -0.701748   -3.193774    0.228207
  C     -0.178878   -2.564228    1.472166
  C      1.084048   -1.799596    1.381287
  C      1.177148   -0.650019    0.705164
  H      0.594728    1.742330   -0.584854
  H     -0.901959    0.042397   -2.019281
  H     -0.087515   -1.568264   -1.637886
  H     -2.142051   -0.061023    0.133232
  H     -2.344765   -2.186538    1.279121
  H     -1.213048   -4.039178    0.469230
  H     -0.324737   -3.124358    2.392760
  H      1.948962   -2.191610    1.908950
  H      2.113919   -0.097702    0.691642

 Total Charge           Charge          ....    0
 Multiplicity           Mult            ....    1
 Number of Electrons    NEL             ....   66
 Basis Dimension        Dim             ....  333

ORBITAL ENERGIES
----------------

  NO   OCC          E(Eh)            E(eV)
   0   2.0000     -20.560750      -559.4864
   1   2.0000     -15.558684      -423.3733
   2   2.0000     -11.287435      -307.1467
   3   2.0000     -11.263966      -306.5081
   4   2.0000     -11.262202      -306.4601
   5   2.0000     -11.230948      -305.6096
   6   2.0000     -11.230904      -305.6084
   7   2.0000     -11.227684      -305.5208
   8   2.0000     -11.222197      -305.3715
   9   2.0000      -1.371224       -37.3129
  10   2.0000      -1.266351       -34.4592
  11   2.0000      -1.134842       -30.8806
  12   2.0000      -1.050765       -28.5928
  13   2.0000      -0.924632       -25.1605
  14   2.0000      -0.886545       -24.1241
  15   2.0000      -0.822709       -22.3871
  16   2.0000      -0.793135       -21.5823
  17   2.0000      -0.726353       -19.7651
  18   2.0000      -0.697186       -18.9714
  19   2.0000      -0.667667       -18.1681
  20   2.0000      -0.656361       -17.8605
  21   2.0000      -0.630404       -17.1542
  22   2.0000      -0.612259       -16.6604
  23   2.0000      -0.544476       -14.8159
  24   2.0000      -0.533902       -14.5282
  25   2.0000      -0.530099       -14.4247
  26   2.0000      -0.506233       -13.7753
  27   2.0000      -0.491652       -13.3785
  28   2.0000      -0.482845       -13.1389
  29   2.0000      -0.427382       -11.6297
  30   2.0000      -0.415839       -11.3156
  31   2.0000      -0.368478       -10.0268
  32   2.0000      -0.337768        -9.1911
  33   0.0000       0.133131         3.6227
  34   0.0000       0.146098         3.9755
  35   0.0000       0.147133         4.0037
  36   0.0000       0.174703         4.7539
  37   0.0000       0.179431         4.8826

MULLIKEN ATOMIC CHARGES
-----------------------
   0 O :   -0.464695
   1 C :    0.248659
   2 C :   -0.347728
   3 C :   -0.065568
   4 C :   -0.069620
   5 N :   -0.388038
   6 C :    0.011839
   7 C :   -0.182844
   8 C :   -0.186320
   9 H :    0.323814
  10 H :    0.137937
  11 H :    0.157336
  12 H :    0.131147
  13 H :    0.129853
  14 H :    0.214845
  15 H :    0.122931
  16 H :    0.122416
  17 H :    0.104037
Sum of atomic charges:    0.0000000

LOEWDIN ATOMIC CHARGES
----------------------
   0 O :    0.020531
   1 C :   -0.324262
   2 C :   -0.178651
   3 C :   -0.161435
   4 C :   -0.227846
   5 N :    0.010025
   6 C :   -0.234505
   7 C :   -0.146066
   8 C :   -0.117921
   9 H :    0.180571
  10 H :    0.136367
  11 H :    0.143545
  12 H :    0.158288
  13 H :    0.142594
  14 H :    0.166376
  15 H :    0.139930
  16 H :    0.145307
  17 H :    0.147153

  Mayer bond orders larger than 0.1
B(  0-O ,  1-C ) :   0.9864 B(  0-O ,  9-H ) :   0.8399 B(  1-C ,  2-C ) :   0.8826
B(  1-C ,  3-C ) :   0.8444 B(  1-C ,  8-C ) :   0.9923 B(  2-C ,  3-C ) :   0.8748
B(  2-C , 10-H ) :   0.9246 B(  2-C , 11-H ) :   0.8947 B(  3-C ,  4-C ) :   0.9567
B(  3-C , 12-H ) :   0.9238 B(  4-C ,  5-N ) :   0.9026 B(  4-C ,  6-C ) :   0.9266
B(  4-C , 13-H ) :   0.9260 B(  5-N ,  6-C ) :   0.8862 B(  5-N , 14-H ) :   0.8672
B(  6-C ,  7-C ) :   0.9587 B(  6-C , 15-H ) :   0.9213 B(  7-C ,  8-C ) :   1.7608
B(  7-C , 16-H ) :   0.9298 B(  8-C , 17-H ) :   0.9231

MP2 TOTAL ENERGY:     -401.222941854 Eh
FINAL SINGLE POINT ENERGY      -401.222941853612

DIPOLE MOMENT
-------------
                                X             Y             Z
Electronic contribution:      0.40539       1.16005       0.63663
Nuclear contribution   :     -0.47338      -1.45711      -0.55651
                        -----------------------------------------
Total Dipole Moment    :     -0.06800      -0.29706       0.08011
                        -----------------------------------------
Magnitude (a.u.)       :      0.31510
Magnitude (Debye)      :      0.80091

                             ****ORCA TERMINATED NORMALLY****
TOTAL RUN TIME: 0 days 0 hours 17 minutes 38 seconds 214 msec
