                         Program Version 3.0.3 - RELEASE   -
|  1> ! RI-MP2 RIJK def2-TZVP def2-TZVP/C def2-TZVP/JK TIGHTSCF
|  2> % maxcore 2000
|  3> % mp2 density relaxed end
|  4> *xyz 0 1
|  5>  C        0.1506888578     1.4880715214     0.0582753575
|  6>  C        0.0528222765    -0.0130103134     0.0162379920
|  7>  C        0.5833841339    -0.9663748121    -1.1005144797
|  8>  C       -0.0671756760    -1.8999532702    -0.0392882509
|  9>  C       -0.1454986943    -3.4132112885    -0.0959750872
| 10>  C       -0.9044361470    -3.9929973174     1.0778726164
| 11>  O       -0.4554461433    -4.7844984737     1.8662212311
| 12>  C        0.6372494684    -1.0298855018     1.0452702454
| 13>  C       -1.2456350907    -0.8776663152     0.0207842439
| 14>  H        1.1962889523     1.8147393104     0.0443911382
| 15>  H       -0.3534084814     1.9405858042    -0.8027436287
| 16>  H       -0.3129561992     1.8879485074     0.9667683965
| 17>  H        0.0850235544    -0.9094414553    -2.0735257683
| 18>  H        1.6700547900    -1.0350267332    -1.2113040915
| 19>  H       -0.6765798415    -3.7070575002    -1.0134798381
| 20>  H        0.8537569940    -3.8590949521    -0.1196429102
| 21>  H       -1.9514575382    -3.6222495031     1.1744562003
| 22>  H        1.7278101539    -1.1039686949     1.0974484794
| 23>  H        0.1901878280    -1.0295211300     2.0441920840
| 24>  H       -1.8405366964    -0.8579889152     0.9391819639
| 25>  H       -1.8825817413    -0.8116728069    -0.8671568943
| 26> *
| 27>
| 28>                          ****END OF INPUT****

CARTESIAN COORDINATES (ANGSTROEM)
---------------------------------
  C      0.150689    1.488072    0.058275
  C      0.052822   -0.013010    0.016238
  C      0.583384   -0.966375   -1.100514
  C     -0.067176   -1.899953   -0.039288
  C     -0.145499   -3.413211   -0.095975
  C     -0.904436   -3.992997    1.077873
  O     -0.455446   -4.784498    1.866221
  C      0.637249   -1.029886    1.045270
  C     -1.245635   -0.877666    0.020784
  H      1.196289    1.814739    0.044391
  H     -0.353408    1.940586   -0.802744
  H     -0.312956    1.887949    0.966768
  H      0.085024   -0.909441   -2.073526
  H      1.670055   -1.035027   -1.211304
  H     -0.676580   -3.707058   -1.013480
  H      0.853757   -3.859095   -0.119643
  H     -1.951458   -3.622250    1.174456
  H      1.727810   -1.103969    1.097448
  H      0.190188   -1.029521    2.044192
  H     -1.840537   -0.857989    0.939182
  H     -1.882582   -0.811673   -0.867157

 Total Charge           Charge          ....    0
 Multiplicity           Mult            ....    1
 Number of Electrons    NEL             ....   68
 Basis Dimension        Dim             ....  351

ORBITAL ENERGIES
----------------

  NO   OCC          E(Eh)            E(eV)
   0   2.0000     -20.554661      -559.3207
   1   2.0000     -11.329546      -308.2926
   2   2.0000     -11.261176      -306.4322
   3   2.0000     -11.254917      -306.2619
   4   2.0000     -11.239872      -305.8525
   5   2.0000     -11.234170      -305.6973
   6   2.0000     -11.232885      -305.6623
   7   2.0000     -11.230998      -305.6110
   8   2.0000     -11.220778      -305.3329
   9   2.0000      -1.393259       -37.9125
  10   2.0000      -1.220982       -33.2246
  11   2.0000      -1.038973       -28.2719
  12   2.0000      -0.979436       -26.6518
  13   2.0000      -0.914984       -24.8980
  14   2.0000      -0.913248       -24.8507
  15   2.0000      -0.817243       -22.2383
  16   2.0000      -0.763199       -20.7677
  17   2.0000      -0.734663       -19.9912
  18   2.0000      -0.668985       -18.2040
  19   2.0000      -0.632883       -17.2216
  20   2.0000      -0.628577       -17.1044
  21   2.0000      -0.622720       -16.9451
  22   2.0000      -0.615653       -16.7528
  23   2.0000      -0.582672       -15.8553
  24   2.0000      -0.568579       -15.4718
  25   2.0000      -0.560143       -15.2423
  26   2.0000      -0.516706       -14.0603
  27   2.0000      -0.506889       -13.7931
  28   2.0000      -0.466421       -12.6920
  29   2.0000      -0.449926       -12.2431
  30   2.0000      -0.442837       -12.0502
  31   2.0000      -0.437790       -11.9129
  32   2.0000      -0.434386       -11.8203
  33   2.0000      -0.407312       -11.0835
  34   0.0000       0.125494         3.4149
  35   0.0000       0.135008         3.6737
  36   0.0000       0.151650         4.1266
  37   0.0000       0.163430         4.4472
  38   0.0000       0.174870         4.7585

MULLIKEN ATOMIC CHARGES
-----------------------
   0 C :   -0.414823
   1 C :   -0.011250
   2 C :   -0.161868
   3 C :   -0.122551
   4 C :   -0.146115
   5 C :    0.092639
   6 O :   -0.261824
   7 C :   -0.185230
   8 C :   -0.207149
   9 H :    0.135923
  10 H :    0.134622
  11 H :    0.135646
  12 H :    0.109397
  13 H :    0.112830
  14 H :    0.130223
  15 H :    0.120089
  16 H :    0.077439
  17 H :    0.114735
  18 H :    0.117383
  19 H :    0.118169
  20 H :    0.111718
Sum of atomic charges:    0.0000000

LOEWDIN ATOMIC CHARGES
----------------------
   0 C :   -0.280875
   1 C :   -0.234753
   2 C :   -0.154616
   3 C :   -0.216113
   4 C :   -0.230305
   5 C :   -0.287712
   6 O :    0.131680
   7 C :   -0.154420
   8 C :   -0.161117
   9 H :    0.129586
  10 H :    0.129063
  11 H :    0.129518
  12 H :    0.129331
  13 H :    0.130294
  14 H :    0.157275
  15 H :    0.151838
  16 H :    0.110530
  17 H :    0.130913
  18 H :    0.131188
  19 H :    0.129362
  20 H :    0.129334

  Mayer bond orders larger than 0.1
B(  0-C ,  1-C ) :   0.8320 B(  0-C ,  9-H ) :   0.9451 B(  0-C , 10-H ) :   0.9452
B(  0-C , 11-H ) :   0.9449 B(  1-C ,  2-C ) :   0.8909 B(  1-C ,  7-C ) :   0.8917
B(  1-C ,  8-C ) :   0.8949 B(  2-C ,  3-C ) :   0.8814 B(  2-C , 12-H ) :   0.9252
B(  2-C , 13-H ) :   0.9270 B(  3-C ,  4-C ) :   0.8351 B(  3-C ,  7-C ) :   0.9096
B(  3-C ,  8-C ) :   0.9065 B(  4-C ,  5-C ) :   0.8914 B(  4-C , 14-H ) :   0.9253
B(  4-C , 15-H ) :   0.9050 B(  5-C ,  6-O ) :   2.0059 B(  5-C , 16-H ) :   0.9369
B(  7-C , 17-H ) :   0.9281 B(  7-C , 18-H ) :   0.9246 B(  8-C , 19-H ) :   0.9261
B(  8-C , 20-H ) :   0.9263

MP2 TOTAL ENERGY:     -386.382869495 Eh
FINAL SINGLE POINT ENERGY      -386.382869494605

DIPOLE MOMENT
-------------
                                X             Y             Z
Electronic contribution:     -0.75664      -8.12659       2.85337
Nuclear contribution   :      0.58216       8.98854      -3.60299
                        -----------------------------------------
Total Dipole Moment    :     -0.17447       0.86195      -0.74962
                        -----------------------------------------
Magnitude (a.u.)       :      1.15556
Magnitude (Debye)      :      2.93721

                             ****ORCA TERMINATED NORMALLY****
TOTAL RUN TIME: 0 days 0 hours 19 minutes 25 seconds 856 msec
