                         Program Version 3.0.3 - RELEASE   -
|  1> ! RI-MP2 RIJK def2-TZVP def2-TZVP/C def2-TZVP/JK TIGHTSCF
|  2> % maxcore 2000
|  3> % mp2 density relaxed end
|  4> *xyz 0 1
|  5>  N       -0.0114350476     1.1192044333     0.6718214894
|  6>  C        0.0011202966     0.0135057187     0.0588835438
|  7>  O        1.0843252695    -0.3787044519    -0.6677638519
|  8>  C        1.2856033392    -1.7201491202    -1.1168165341
|  9>  C        0.0626067317    -2.5738974069    -1.1455062382
| 10>  C       -1.0875649400    -2.1814182051    -0.6099772804
| 11>  C       -1.2163772173    -0.8760494416     0.0611716366
| 12>  C       -2.2195984271    -0.6761526150     1.1285361825
| 13>  O       -2.4643634196    -0.1911066235    -0.1819590225
| 14>  H        0.8768109425     1.6061680201     0.5440681565
| 15>  H        1.7165287104    -1.6364484355    -2.1221664331
| 16>  H        2.0592556959    -2.1778585398    -0.4812773326
| 17>  H        0.1665739972    -3.5417015716    -1.6267553664
| 18>  H       -1.9803559728    -2.7969230077    -0.6487661118
| 19>  H       -2.8303588731    -1.5232353948     1.4415460151
| 20>  H       -2.0156230755     0.0863461015     1.8758279470
| 21> *
| 22>
| 23>                          ****END OF INPUT****

CARTESIAN COORDINATES (ANGSTROEM)
---------------------------------
  N     -0.011435    1.119204    0.671821
  C      0.001120    0.013506    0.058884
  O      1.084325   -0.378704   -0.667764
  C      1.285603   -1.720149   -1.116817
  C      0.062607   -2.573897   -1.145506
  C     -1.087565   -2.181418   -0.609977
  C     -1.216377   -0.876049    0.061172
  C     -2.219598   -0.676153    1.128536
  O     -2.464363   -0.191107   -0.181959
  H      0.876811    1.606168    0.544068
  H      1.716529   -1.636448   -2.122166
  H      2.059256   -2.177859   -0.481277
  H      0.166574   -3.541702   -1.626755
  H     -1.980356   -2.796923   -0.648766
  H     -2.830359   -1.523235    1.441546
  H     -2.015623    0.086346    1.875828

 Total Charge           Charge          ....    0
 Multiplicity           Mult            ....    1
 Number of Electrons    NEL             ....   66
 Basis Dimension        Dim             ....  321

ORBITAL ENERGIES
----------------

  NO   OCC          E(Eh)            E(eV)
   0   2.0000     -20.601004      -560.5818
   1   2.0000     -20.579536      -559.9976
   2   2.0000     -15.534649      -422.7193
   3   2.0000     -11.346589      -308.7564
   4   2.0000     -11.312844      -307.8381
   5   2.0000     -11.312567      -307.8306
   6   2.0000     -11.291043      -307.2449
   7   2.0000     -11.258806      -306.3677
   8   2.0000     -11.254501      -306.2505
   9   2.0000      -1.437325       -39.1116
  10   2.0000      -1.419024       -38.6136
  11   2.0000      -1.200609       -32.6702
  12   2.0000      -1.109229       -30.1837
  13   2.0000      -1.005952       -27.3734
  14   2.0000      -0.930607       -25.3231
  15   2.0000      -0.885879       -24.1060
  16   2.0000      -0.843215       -22.9450
  17   2.0000      -0.736582       -20.0434
  18   2.0000      -0.714906       -19.4536
  19   2.0000      -0.703701       -19.1487
  20   2.0000      -0.678605       -18.4658
  21   2.0000      -0.645649       -17.5690
  22   2.0000      -0.624355       -16.9896
  23   2.0000      -0.609743       -16.5920
  24   2.0000      -0.578516       -15.7422
  25   2.0000      -0.564784       -15.3686
  26   2.0000      -0.541925       -14.7465
  27   2.0000      -0.501696       -13.6518
  28   2.0000      -0.481544       -13.1035
  29   2.0000      -0.467345       -12.7171
  30   2.0000      -0.440581       -11.9888
  31   2.0000      -0.393829       -10.7166
  32   2.0000      -0.369859       -10.0644
  33   0.0000       0.123256         3.3540
  34   0.0000       0.136183         3.7057
  35   0.0000       0.160115         4.3570
  36   0.0000       0.162203         4.4138
  37   0.0000       0.174945         4.7605

MULLIKEN ATOMIC CHARGES
-----------------------
   0 N :   -0.370141
   1 C :    0.094416
   2 O :   -0.258347
   3 C :   -0.013274
   4 C :   -0.143692
   5 C :   -0.265283
   6 C :    0.317182
   7 C :   -0.075000
   8 O :   -0.317021
   9 H :    0.221177
  10 H :    0.135535
  11 H :    0.124574
  12 H :    0.141370
  13 H :    0.138988
  14 H :    0.117659
  15 H :    0.151857
Sum of atomic charges:   -0.0000000

LOEWDIN ATOMIC CHARGES
----------------------
   0 N :   -0.034741
   1 C :   -0.360864
   2 O :    0.249454
   3 C :   -0.270182
   4 C :   -0.160459
   5 C :   -0.123284
   6 C :   -0.274437
   7 C :   -0.226214
   8 O :    0.191173
   9 H :    0.168668
  10 H :    0.141682
  11 H :    0.137749
  12 H :    0.151448
  13 H :    0.156685
  14 H :    0.120721
  15 H :    0.132601

  Mayer bond orders larger than 0.1
B(  0-N ,  1-C ) :   2.0455 B(  0-N ,  6-C ) :  -0.1216 B(  0-N ,  9-H ) :   0.8548
B(  1-C ,  2-O ) :   1.0978 B(  1-C ,  6-C ) :   0.8874 B(  2-O ,  3-C ) :   0.9006
B(  3-C ,  4-C ) :   0.9350 B(  3-C , 10-H ) :   0.9247 B(  3-C , 11-H ) :   0.9203
B(  4-C ,  5-C ) :   1.7911 B(  4-C , 12-H ) :   0.9085 B(  5-C ,  6-C ) :   0.9633
B(  5-C , 13-H ) :   0.9246 B(  6-C ,  7-C ) :   0.9299 B(  6-C ,  8-O ) :   0.8235
B(  7-C ,  8-O ) :   0.8956 B(  7-C , 14-H ) :   0.9155 B(  7-C , 15-H ) :   0.8981

MP2 TOTAL ENERGY:     -437.138680965 Eh
FINAL SINGLE POINT ENERGY      -437.138680964763

DIPOLE MOMENT
-------------
                                X             Y             Z
Electronic contribution:     -0.68537       2.71018      -0.42150
Nuclear contribution   :      1.38835      -4.10479       0.34047
                        -----------------------------------------
Total Dipole Moment    :      0.70299      -1.39461      -0.08103
                        -----------------------------------------
Magnitude (a.u.)       :      1.56387
Magnitude (Debye)      :      3.97503

                             ****ORCA TERMINATED NORMALLY****
TOTAL RUN TIME: 0 days 0 hours 14 minutes 52 seconds 717 msec
