                         Program Version 3.0.3 - RELEASE   -
|  1> ! RI-MP2 RIJK def2-TZVP def2-TZVP/C def2-TZVP/JK TIGHTSCF
|  2> % maxcore 2000
|  3> % mp2 density relaxed end
|  4> *xyz 0 1
|  5>  O        0.1043956341     1.4429684915    -0.1424492232
|  6>  C       -0.0435790691     0.0622314133     0.0258988313
|  7>  C       -0.4721773119    -0.6993074446     1.2443029914
|  8>  N       -1.5953168233    -0.2122507791     2.1131945696
|  9>  C       -2.1016121731     1.1148548095     1.6632913315
| 10>  C       -2.4515437870    -0.0930231988     0.8919752918
| 11>  C       -1.3592476584    -0.6545916295    -0.0511561368
| 12>  C       -1.6428002596    -1.6572358308    -1.0166067341
| 13>  C       -1.9073395982    -2.5044557473    -1.8303154627
| 14>  H        0.9210785218     1.7044110518     0.2989170040
| 15>  H        0.7090194601    -0.5170698218    -0.5146083501
| 16>  H        0.1096259028    -1.5250190734     1.6372008697
| 17>  H       -2.8658355398     1.4804804627     2.3440843267
| 18>  H       -1.4298019419     1.8556314108     1.2590919198
| 19>  H       -3.4430116566    -0.5323396269     0.8747178874
| 20>  H       -2.1343592400    -3.2501609174    -2.5510403762
| 21> *
| 22>
| 23>                          ****END OF INPUT****

CARTESIAN COORDINATES (ANGSTROEM)
---------------------------------
  O      0.104396    1.442968   -0.142449
  C     -0.043579    0.062231    0.025899
  C     -0.472177   -0.699307    1.244303
  N     -1.595317   -0.212251    2.113195
  C     -2.101612    1.114855    1.663291
  C     -2.451544   -0.093023    0.891975
  C     -1.359248   -0.654592   -0.051156
  C     -1.642800   -1.657236   -1.016607
  C     -1.907340   -2.504456   -1.830315
  H      0.921079    1.704411    0.298917
  H      0.709019   -0.517070   -0.514608
  H      0.109626   -1.525019    1.637201
  H     -2.865836    1.480480    2.344084
  H     -1.429802    1.855631    1.259092
  H     -3.443012   -0.532340    0.874718
  H     -2.134359   -3.250161   -2.551040

 Total Charge           Charge          ....    0
 Multiplicity           Mult            ....    1
 Number of Electrons    NEL             ....   64
 Basis Dimension        Dim             ....  321

ORBITAL ENERGIES
----------------

  NO   OCC          E(Eh)            E(eV)
   0   2.0000     -20.581516      -560.0515
   1   2.0000     -15.569559      -423.6692
   2   2.0000     -11.315401      -307.9077
   3   2.0000     -11.287056      -307.1364
   4   2.0000     -11.277893      -306.8871
   5   2.0000     -11.274493      -306.7945
   6   2.0000     -11.260472      -306.4130
   7   2.0000     -11.240400      -305.8668
   8   2.0000     -11.227665      -305.5203
   9   2.0000      -1.393323       -37.9142
  10   2.0000      -1.307245       -35.5719
  11   2.0000      -1.131029       -30.7769
  12   2.0000      -1.031565       -28.0703
  13   2.0000      -0.937770       -25.5180
  14   2.0000      -0.896489       -24.3947
  15   2.0000      -0.804215       -21.8838
  16   2.0000      -0.791319       -21.5329
  17   2.0000      -0.754559       -20.5326
  18   2.0000      -0.713480       -19.4148
  19   2.0000      -0.697650       -18.9840
  20   2.0000      -0.641701       -17.4616
  21   2.0000      -0.616543       -16.7770
  22   2.0000      -0.605736       -16.4829
  23   2.0000      -0.579746       -15.7757
  24   2.0000      -0.527220       -14.3464
  25   2.0000      -0.501279       -13.6405
  26   2.0000      -0.493510       -13.4291
  27   2.0000      -0.474220       -12.9042
  28   2.0000      -0.419272       -11.4090
  29   2.0000      -0.401408       -10.9229
  30   2.0000      -0.375554       -10.2193
  31   2.0000      -0.330814        -9.0019
  32   0.0000       0.126764         3.4494
  33   0.0000       0.148851         4.0504
  34   0.0000       0.155376         4.2280
  35   0.0000       0.164924         4.4878
  36   0.0000       0.173652         4.7253

MULLIKEN ATOMIC CHARGES
-----------------------
   0 O :   -0.458509
   1 C :   -0.004965
   2 C :   -0.053177
   3 N :   -0.237643
   4 C :   -0.153640
   5 C :   -0.081834
   6 C :   -0.111785
   7 C :   -0.005777
   8 C :   -0.120341
   9 H :    0.329764
  10 H :    0.121197
  11 H :    0.142539
  12 H :    0.129068
  13 H :    0.161495
  14 H :    0.149824
  15 H :    0.193784
Sum of atomic charges:    0.0000000

LOEWDIN ATOMIC CHARGES
----------------------
   0 O :    0.000897
   1 C :   -0.277266
   2 C :   -0.150840
   3 N :    0.118390
   4 C :   -0.227000
   5 C :   -0.163801
   6 C :   -0.157495
   7 C :   -0.078656
   8 C :   -0.084094
   9 H :    0.183796
  10 H :    0.158421
  11 H :    0.139997
  12 H :    0.135077
  13 H :    0.130850
  14 H :    0.143980
  15 H :    0.127744

  Mayer bond orders larger than 0.1
B(  0-O ,  1-C ) :   1.0600 B(  0-O ,  6-C ) :  -0.1042 B(  0-O ,  9-H ) :   0.8337
B(  1-C ,  2-C ) :   0.9133 B(  1-C ,  6-C ) :   0.7951 B(  1-C , 10-H ) :   0.9449
B(  2-C ,  3-N ) :   0.9495 B(  2-C ,  6-C ) :   0.8119 B(  2-C , 11-H ) :   0.9070
B(  3-N ,  4-C ) :   0.8794 B(  3-N ,  5-C ) :   0.8737 B(  4-C ,  5-C ) :   0.9484
B(  4-C , 12-H ) :   0.9223 B(  4-C , 13-H ) :   0.8921 B(  5-C ,  6-C ) :   0.9482
B(  5-C , 14-H ) :   0.8951 B(  6-C ,  7-C ) :   1.2364 B(  6-C ,  8-C ) :  -0.1587
B(  7-C ,  8-C ) :   2.5895 B(  8-C , 15-H ) :   0.8793

MP2 TOTAL ENERGY:     -399.909794504 Eh
FINAL SINGLE POINT ENERGY      -399.909794503969

DIPOLE MOMENT
-------------
                                X             Y             Z
Electronic contribution:      0.11288      -1.04591      -0.94960
Nuclear contribution   :      0.44986       1.12830       0.87593
                        -----------------------------------------
Total Dipole Moment    :      0.56273       0.08239      -0.07367
                        -----------------------------------------
Magnitude (a.u.)       :      0.57348
Magnitude (Debye)      :      1.45768

                             ****ORCA TERMINATED NORMALLY****
TOTAL RUN TIME: 0 days 0 hours 18 minutes 31 seconds 496 msec
