                         Program Version 3.0.3 - RELEASE   -
|  1> ! RI-MP2 RIJK def2-TZVP def2-TZVP/C def2-TZVP/JK TIGHTSCF
|  2> % maxcore 2000
|  3> % mp2 density relaxed end
|  4> *xyz 0 1
|  5>  O       -0.0973318596     1.3911737240    -0.0612093326
|  6>  C        0.0009486603     0.0019282960     0.0076657575
|  7>  C       -0.4140530219    -0.7127302092     1.2917336028
|  8>  C       -1.2795049057    -0.7388677971     0.0700661157
|  9>  C       -2.6977346228    -0.2532903982    -0.2413406929
| 10>  O       -2.5057908116    -0.7456282053    -1.6356930058
| 11>  C       -1.8792357311    -1.8266403013    -0.8278596066
| 12>  C       -3.1767516382    -1.7127160121     0.0342244022
| 13>  O       -4.0665105284    -2.3460959244     0.4920968085
| 14>  H        0.6503857840     1.7686035099     0.4147004996
| 15>  H        0.8144217544    -0.4403118657    -0.5682106439
| 16>  H        0.1167117734    -1.6137766390     1.5822013085
| 17>  H       -0.7368244345    -0.0821941525     2.1140300824
| 18>  H       -3.1531796818     0.7230651712    -0.1008291462
| 19>  H       -1.4081257465    -2.6534105964    -1.3547522692
| 20> *
| 21>
| 22>                          ****END OF INPUT****

CARTESIAN COORDINATES (ANGSTROEM)
---------------------------------
  O     -0.097332    1.391174   -0.061209
  C      0.000949    0.001928    0.007666
  C     -0.414053   -0.712730    1.291734
  C     -1.279505   -0.738868    0.070066
  C     -2.697735   -0.253290   -0.241341
  O     -2.505791   -0.745628   -1.635693
  C     -1.879236   -1.826640   -0.827860
  C     -3.176752   -1.712716    0.034224
  O     -4.066511   -2.346096    0.492097
  H      0.650386    1.768604    0.414700
  H      0.814422   -0.440312   -0.568211
  H      0.116712   -1.613777    1.582201
  H     -0.736824   -0.082194    2.114030
  H     -3.153180    0.723065   -0.100829
  H     -1.408126   -2.653411   -1.354752

 Total Charge           Charge          ....    0
 Multiplicity           Mult            ....    1
 Number of Electrons    NEL             ....   66
 Basis Dimension        Dim             ....  315

ORBITAL ENERGIES
----------------

  NO   OCC          E(Eh)            E(eV)
   0   2.0000     -20.582980      -560.0914
   1   2.0000     -20.582745      -560.0850
   2   2.0000     -20.571286      -559.7732
   3   2.0000     -11.359161      -309.0985
   4   2.0000     -11.324641      -308.1591
   5   2.0000     -11.323138      -308.1182
   6   2.0000     -11.309019      -307.7341
   7   2.0000     -11.275281      -306.8160
   8   2.0000     -11.253236      -306.2161
   9   2.0000      -1.437063       -39.1045
  10   2.0000      -1.403605       -38.1940
  11   2.0000      -1.391807       -37.8730
  12   2.0000      -1.161518       -31.6065
  13   2.0000      -1.041572       -28.3426
  14   2.0000      -0.923505       -25.1298
  15   2.0000      -0.860625       -23.4188
  16   2.0000      -0.818405       -22.2699
  17   2.0000      -0.736680       -20.0461
  18   2.0000      -0.726113       -19.7585
  19   2.0000      -0.715947       -19.4819
  20   2.0000      -0.674828       -18.3630
  21   2.0000      -0.641251       -17.4493
  22   2.0000      -0.632654       -17.2154
  23   2.0000      -0.606709       -16.5094
  24   2.0000      -0.579681       -15.7739
  25   2.0000      -0.562061       -15.2945
  26   2.0000      -0.547284       -14.8924
  27   2.0000      -0.513151       -13.9636
  28   2.0000      -0.493302       -13.4234
  29   2.0000      -0.469902       -12.7867
  30   2.0000      -0.437899       -11.9158
  31   2.0000      -0.416453       -11.3323
  32   2.0000      -0.409705       -11.1486
  33   0.0000       0.126485         3.4418
  34   0.0000       0.135682         3.6921
  35   0.0000       0.152716         4.1556
  36   0.0000       0.170633         4.6432
  37   0.0000       0.175562         4.7773

MULLIKEN ATOMIC CHARGES
-----------------------
   0 O :   -0.448875
   1 C :   -0.050490
   2 C :   -0.289433
   3 C :    0.082629
   4 C :   -0.058235
   5 O :   -0.268741
   6 C :   -0.047251
   7 C :    0.253729
   8 O :   -0.222910
   9 H :    0.325660
  10 H :    0.116999
  11 H :    0.138514
  12 H :    0.144924
  13 H :    0.163276
  14 H :    0.160205
Sum of atomic charges:   -0.0000000

LOEWDIN ATOMIC CHARGES
----------------------
   0 O :    0.008520
   1 C :   -0.290544
   2 C :   -0.185311
   3 C :   -0.192920
   4 C :   -0.142965
   5 O :    0.168767
   6 C :   -0.155467
   7 C :   -0.266113
   8 O :    0.184072
   9 H :    0.183676
  10 H :    0.137043
  11 H :    0.138936
  12 H :    0.143535
  13 H :    0.136582
  14 H :    0.132189

  Mayer bond orders larger than 0.1
B(  0-O ,  1-C ) :   1.1291 B(  0-O ,  3-C ) :  -0.1376 B(  0-O ,  9-H ) :   0.8389
B(  1-C ,  2-C ) :   0.9098 B(  1-C ,  3-C ) :   0.7943 B(  1-C , 10-H ) :   0.9593
B(  2-C ,  3-C ) :   0.8588 B(  2-C , 11-H ) :   0.9051 B(  2-C , 12-H ) :   0.9100
B(  3-C ,  4-C ) :   0.9103 B(  3-C ,  6-C ) :   0.9054 B(  4-C ,  5-O ) :   0.8959
B(  4-C ,  7-C ) :   0.8715 B(  4-C , 13-H ) :   0.8751 B(  5-O ,  6-C ) :   0.9075
B(  6-C ,  7-C ) :   0.8806 B(  6-C , 14-H ) :   0.8667 B(  7-C ,  8-O ) :   2.0862

MP2 TOTAL ENERGY:     -456.924171023 Eh
FINAL SINGLE POINT ENERGY      -456.924171023022

DIPOLE MOMENT
-------------
                                X             Y             Z
Electronic contribution:     -4.96511      -1.72295      -1.89188
Nuclear contribution   :      6.48786       1.97975       2.53207
                        -----------------------------------------
Total Dipole Moment    :      1.52275       0.25680       0.64019
                        -----------------------------------------
Magnitude (a.u.)       :      1.67169
Magnitude (Debye)      :      4.24909

                             ****ORCA TERMINATED NORMALLY****
TOTAL RUN TIME: 0 days 0 hours 14 minutes 48 seconds 95 msec
