                         Program Version 3.0.3 - RELEASE   -
|  1> ! RI-MP2 RIJK def2-TZVP def2-TZVP/C def2-TZVP/JK TIGHTSCF
|  2> % maxcore 2000
|  3> % mp2 density relaxed end
|  4> *xyz 0 1
|  5>  N        0.0242566380     1.4460692210     0.1002794223
|  6>  C       -0.0037124194     0.0111283058    -0.0173187619
|  7>  C        0.2598546997    -0.7195875264    -1.3705666956
|  8>  N       -0.8338060598    -1.6633252513    -1.0377134778
|  9>  C       -1.3480194070    -0.7690363286     0.0267980169
| 10>  C       -1.3904167710    -1.4208291098     1.4018563144
| 11>  O       -0.0198013101    -1.4634429018     1.8508859788
| 12>  C        0.7601652904    -0.6067207016     1.1441325936
| 13>  N        1.9635221314    -0.3238283852     1.4043817364
| 14>  H        0.9591497312     1.7325734327     0.3783884656
| 15>  H       -0.1910301539     1.8907054817    -0.7859482211
| 16>  H        0.0440884635    -0.0509463886    -2.2172037998
| 17>  H        1.2411508118    -1.1803769460    -1.5189859696
| 18>  H       -1.4838636794    -1.8583262481    -1.7893213982
| 19>  H       -2.2468810293    -0.1931936841    -0.2142507029
| 20>  H       -1.9751893617    -0.8333763455     2.1193268730
| 21>  H       -1.7630257908    -2.4473329401     1.3734097110
| 22>  H        2.2849081662    -0.8119232040     2.2413597551
| 23> *
| 24>
| 25>                          ****END OF INPUT****

CARTESIAN COORDINATES (ANGSTROEM)
---------------------------------
  N      0.024257    1.446069    0.100279
  C     -0.003712    0.011128   -0.017319
  C      0.259855   -0.719588   -1.370567
  N     -0.833806   -1.663325   -1.037713
  C     -1.348019   -0.769036    0.026798
  C     -1.390417   -1.420829    1.401856
  O     -0.019801   -1.463443    1.850886
  C      0.760165   -0.606721    1.144133
  N      1.963522   -0.323828    1.404382
  H      0.959150    1.732573    0.378388
  H     -0.191030    1.890705   -0.785948
  H      0.044088   -0.050946   -2.217204
  H      1.241151   -1.180377   -1.518986
  H     -1.483864   -1.858326   -1.789321
  H     -2.246881   -0.193194   -0.214251
  H     -1.975189   -0.833376    2.119327
  H     -1.763026   -2.447333    1.373410
  H      2.284908   -0.811923    2.241360

 Total Charge           Charge          ....    0
 Multiplicity           Mult            ....    1
 Number of Electrons    NEL             ....   68
 Basis Dimension        Dim             ....  333

ORBITAL ENERGIES
----------------

  NO   OCC          E(Eh)            E(eV)
   0   2.0000     -20.590488      -560.2957
   1   2.0000     -15.555100      -423.2758
   2   2.0000     -15.552420      -423.2029
   3   2.0000     -15.528854      -422.5616
   4   2.0000     -11.333254      -308.3935
   5   2.0000     -11.289542      -307.2041
   6   2.0000     -11.281066      -306.9734
   7   2.0000     -11.269544      -306.6599
   8   2.0000     -11.263072      -306.4838
   9   2.0000      -1.428115       -38.8610
  10   2.0000      -1.257677       -34.2231
  11   2.0000      -1.203171       -32.7399
  12   2.0000      -1.169282       -31.8178
  13   2.0000      -1.005610       -27.3640
  14   2.0000      -0.969890       -26.3921
  15   2.0000      -0.897214       -24.4144
  16   2.0000      -0.812706       -22.1149
  17   2.0000      -0.747643       -20.3444
  18   2.0000      -0.717670       -19.5288
  19   2.0000      -0.687228       -18.7004
  20   2.0000      -0.664161       -18.0727
  21   2.0000      -0.655338       -17.8327
  22   2.0000      -0.640939       -17.4408
  23   2.0000      -0.601590       -16.3701
  24   2.0000      -0.582162       -15.8414
  25   2.0000      -0.567341       -15.4381
  26   2.0000      -0.532689       -14.4952
  27   2.0000      -0.513826       -13.9819
  28   2.0000      -0.489607       -13.3229
  29   2.0000      -0.483585       -13.1590
  30   2.0000      -0.431687       -11.7468
  31   2.0000      -0.400196       -10.8899
  32   2.0000      -0.392550       -10.6818
  33   2.0000      -0.386760       -10.5243
  34   0.0000       0.126602         3.4450
  35   0.0000       0.140708         3.8289
  36   0.0000       0.158423         4.3109
  37   0.0000       0.175791         4.7835
  38   0.0000       0.191184         5.2024

MULLIKEN ATOMIC CHARGES
-----------------------
   0 N :   -0.547958
   1 C :    0.286772
   2 C :   -0.153647
   3 N :   -0.372319
   4 C :   -0.082993
   5 C :   -0.001807
   6 O :   -0.252967
   7 C :    0.050002
   8 N :   -0.412802
   9 H :    0.259774
  10 H :    0.224080
  11 H :    0.099144
  12 H :    0.123561
  13 H :    0.208156
  14 H :    0.121707
  15 H :    0.107972
  16 H :    0.117466
  17 H :    0.225858
Sum of atomic charges:   -0.0000000

LOEWDIN ATOMIC CHARGES
----------------------
   0 N :   -0.108366
   1 C :   -0.290857
   2 C :   -0.229914
   3 N :   -0.000238
   4 C :   -0.233550
   5 C :   -0.245755
   6 O :    0.247151
   7 C :   -0.373867
   8 N :   -0.059488
   9 H :    0.170173
  10 H :    0.155194
  11 H :    0.117830
  12 H :    0.126187
  13 H :    0.156734
  14 H :    0.138874
  15 H :    0.128303
  16 H :    0.132380
  17 H :    0.169207

  Mayer bond orders larger than 0.1
B(  0-N ,  1-C ) :   0.9998 B(  0-N ,  9-H ) :   0.8657 B(  0-N , 10-H ) :   0.8855
B(  1-C ,  2-C ) :   0.9059 B(  1-C ,  4-C ) :   0.8938 B(  1-C ,  7-C ) :   0.8292
B(  2-C ,  3-N ) :   0.9580 B(  2-C , 11-H ) :   0.9135 B(  2-C , 12-H ) :   0.9142
B(  3-N ,  4-C ) :   1.0634 B(  3-N , 13-H ) :   0.8776 B(  4-C ,  5-C ) :   0.9590
B(  4-C , 14-H ) :   0.9071 B(  5-C ,  6-O ) :   0.8835 B(  5-C , 15-H ) :   0.9266
B(  5-C , 16-H ) :   0.9076 B(  6-O ,  7-C ) :   1.1289 B(  7-C ,  8-N ) :   2.0270
B(  8-N , 17-H ) :   0.8550

MP2 TOTAL ENERGY:     -434.538958739 Eh
FINAL SINGLE POINT ENERGY      -434.538958738658

DIPOLE MOMENT
-------------
                                X             Y             Z
Electronic contribution:      1.43694      -1.42807       2.92693
Nuclear contribution   :     -2.39829       1.57913      -3.68833
                        -----------------------------------------
Total Dipole Moment    :     -0.96135       0.15106      -0.76139
                        -----------------------------------------
Magnitude (a.u.)       :      1.23561
Magnitude (Debye)      :      3.14068

                             ****ORCA TERMINATED NORMALLY****
TOTAL RUN TIME: 0 days 0 hours 17 minutes 48 seconds 93 msec
