                         Program Version 3.0.3 - RELEASE   -
|  1> ! RI-MP2 RIJK def2-TZVP def2-TZVP/C def2-TZVP/JK TIGHTSCF
|  2> % maxcore 2000
|  3> % mp2 density relaxed end
|  4> *xyz 0 1
|  5>  C       -0.5441805078     1.1520288861    -0.0272848470
|  6>  C        0.3371123362     0.1572406354    -0.7711652150
|  7>  C        1.8287369067     0.5712490849    -0.9184328037
|  8>  C        2.1261611098    -0.4607186190     0.2162140640
|  9>  N        0.7829419247    -1.0219218617     0.0182583667
| 10>  C        3.2565639390    -1.4314834084    -0.0505216770
| 11>  O        4.3028484883    -1.4493812808     0.5458622827
| 12>  C        3.0173398082    -2.3861116661    -1.1610410355
| 13>  N        2.9002262607    -3.1232678308    -2.0441595224
| 14>  H       -0.0687292018     1.4979704689     0.8976142288
| 15>  H       -0.7505907598     2.0281758206    -0.6514266010
| 16>  H       -1.5063375357     0.6971698577     0.2334945895
| 17>  H       -0.1489209685    -0.1374828756    -1.7075671522
| 18>  H        2.2647444084     0.2939712720    -1.8798471278
| 19>  H        2.0809395538     1.6066264246    -0.6883795450
| 20>  H        2.3293801930     0.0096639777     1.1851549931
| 21>  H        0.2574912249    -1.2310585854     0.8600627616
| 22> *
| 23>
| 24>                          ****END OF INPUT****

CARTESIAN COORDINATES (ANGSTROEM)
---------------------------------
  C     -0.544181    1.152029   -0.027285
  C      0.337112    0.157241   -0.771165
  C      1.828737    0.571249   -0.918433
  C      2.126161   -0.460719    0.216214
  N      0.782942   -1.021922    0.018258
  C      3.256564   -1.431483   -0.050522
  O      4.302848   -1.449381    0.545862
  C      3.017340   -2.386112   -1.161041
  N      2.900226   -3.123268   -2.044160
  H     -0.068729    1.497970    0.897614
  H     -0.750591    2.028176   -0.651427
  H     -1.506338    0.697170    0.233495
  H     -0.148921   -0.137483   -1.707567
  H      2.264744    0.293971   -1.879847
  H      2.080940    1.606626   -0.688380
  H      2.329380    0.009664    1.185155
  H      0.257491   -1.231059    0.860063

 Total Charge           Charge          ....    0
 Multiplicity           Mult            ....    1
 Number of Electrons    NEL             ....   66
 Basis Dimension        Dim             ....  327

ORBITAL ENERGIES
----------------

  NO   OCC          E(Eh)            E(eV)
   0   2.0000     -20.597579      -560.4886
   1   2.0000     -15.597069      -424.4178
   2   2.0000     -15.571921      -423.7335
   3   2.0000     -11.388846      -309.9063
   4   2.0000     -11.299588      -307.4774
   5   2.0000     -11.287224      -307.1410
   6   2.0000     -11.283582      -307.0419
   7   2.0000     -11.258765      -306.3666
   8   2.0000     -11.239180      -305.8336
   9   2.0000      -1.439739       -39.1773
  10   2.0000      -1.271160       -34.5900
  11   2.0000      -1.233015       -33.5520
  12   2.0000      -1.040280       -28.3074
  13   2.0000      -1.017390       -27.6846
  14   2.0000      -0.953641       -25.9499
  15   2.0000      -0.881455       -23.9856
  16   2.0000      -0.792677       -21.5698
  17   2.0000      -0.734725       -19.9929
  18   2.0000      -0.703107       -19.1325
  19   2.0000      -0.683276       -18.5929
  20   2.0000      -0.629409       -17.1271
  21   2.0000      -0.619333       -16.8529
  22   2.0000      -0.590311       -16.0632
  23   2.0000      -0.585969       -15.9450
  24   2.0000      -0.566003       -15.4017
  25   2.0000      -0.552274       -15.0281
  26   2.0000      -0.530954       -14.4480
  27   2.0000      -0.506581       -13.7848
  28   2.0000      -0.497313       -13.5326
  29   2.0000      -0.487348       -13.2614
  30   2.0000      -0.477060       -12.9815
  31   2.0000      -0.456584       -12.4243
  32   2.0000      -0.404566       -11.0088
  33   0.0000       0.064485         1.7547
  34   0.0000       0.115305         3.1376
  35   0.0000       0.143794         3.9128
  36   0.0000       0.156200         4.2504
  37   0.0000       0.162676         4.4267

MULLIKEN ATOMIC CHARGES
-----------------------
   0 C :   -0.450243
   1 C :    0.084653
   2 C :   -0.285506
   3 C :    0.006302
   4 N :   -0.357341
   5 C :    0.276331
   6 O :   -0.224065
   7 C :   -0.157523
   8 N :   -0.042501
   9 H :    0.134085
  10 H :    0.136871
  11 H :    0.142731
  12 H :    0.110317
  13 H :    0.146361
  14 H :    0.141422
  15 H :    0.125825
  16 H :    0.212281
Sum of atomic charges:    0.0000000

LOEWDIN ATOMIC CHARGES
----------------------
   0 C :   -0.302368
   1 C :   -0.286808
   2 C :   -0.178958
   3 C :   -0.241732
   4 N :    0.041028
   5 C :   -0.305930
   6 O :    0.208946
   7 C :   -0.139036
   8 N :    0.096203
   9 H :    0.124654
  10 H :    0.129755
  11 H :    0.127068
  12 H :    0.139157
  13 H :    0.142489
  14 H :    0.135396
  15 H :    0.148880
  16 H :    0.161256

  Mayer bond orders larger than 0.1
B(  0-C ,  1-C ) :   0.9278 B(  0-C ,  9-H ) :   0.9321 B(  0-C , 10-H ) :   0.9351
B(  0-C , 11-H ) :   0.9373 B(  1-C ,  2-C ) :   0.9071 B(  1-C ,  4-N ) :   0.9484
B(  1-C , 12-H ) :   0.9109 B(  2-C ,  3-C ) :   0.9091 B(  2-C , 13-H ) :   0.9108
B(  2-C , 14-H ) :   0.9259 B(  3-C ,  4-N ) :   0.9996 B(  3-C ,  5-C ) :   0.8914
B(  3-C , 15-H ) :   0.9114 B(  4-N , 16-H ) :   0.8821 B(  5-C ,  6-O ) :   2.0107
B(  5-C ,  7-C ) :   0.8810 B(  7-C ,  8-N ) :   2.7793

MP2 TOTAL ENERGY:     -417.293727612 Eh
FINAL SINGLE POINT ENERGY      -417.293727612291

DIPOLE MOMENT
-------------
                                X             Y             Z
Electronic contribution:      9.49724      -9.26536      -0.92955
Nuclear contribution   :    -10.61476      10.81106       1.62931
                        -----------------------------------------
Total Dipole Moment    :     -1.11752       1.54570       0.69976
                        -----------------------------------------
Magnitude (a.u.)       :      2.03168
Magnitude (Debye)      :      5.16411

                             ****ORCA TERMINATED NORMALLY****
TOTAL RUN TIME: 0 days 0 hours 16 minutes 23 seconds 171 msec
