                         Program Version 3.0.3 - RELEASE   -
|  1> ! RI-MP2 RIJK def2-TZVP def2-TZVP/C def2-TZVP/JK TIGHTSCF
|  2> % maxcore 2000
|  3> % mp2 density relaxed end
|  4> *xyz 0 1
|  5>  C        0.0632478866     1.5795084435     0.0864493570
|  6>  C        0.1279038430     0.0673834504     0.0572434627
|  7>  O       -0.8511310424    -0.5798895574     0.8955642735
|  8>  C        0.5350055155    -0.6986741139     1.2505303155
|  9>  C        1.1387673186    -2.0840252290     1.1181395258
| 10>  C        2.5500509821    -2.0986609485     0.4987129865
| 11>  C        2.7126644080    -1.1501720964    -0.7190401000
| 12>  C        1.5108761019    -1.0988738502    -1.6394177004
| 13>  C        0.3466514467    -0.5518995895    -1.2874583880
| 14>  H        0.9994065760     2.0179663897    -0.2753612465
| 15>  H       -0.7447352204     1.9395925006    -0.5600656090
| 16>  H       -0.1277551340     1.9358470638     1.1023244657
| 17>  H        0.8109608666    -0.1294126043     2.1404714183
| 18>  H        1.1593236796    -2.5779159228     2.0962153893
| 19>  H        0.4592931292    -2.6627345674     0.4880079111
| 20>  H        3.3015257819    -1.8216326215     1.2472951557
| 21>  H        2.7804249962    -3.1286018074     0.2038400794
| 22>  H        2.9122108049    -0.1395238024    -0.3444329236
| 23>  H        3.6047366592    -1.4421449934    -1.2813461046
| 24>  H        1.6145006352    -1.5351979107    -2.6301664878
| 25>  H       -0.4899140744    -0.5200991532    -1.9823328205
| 26> *
| 27>
| 28>                          ****END OF INPUT****

CARTESIAN COORDINATES (ANGSTROEM)
---------------------------------
  C      0.063248    1.579508    0.086449
  C      0.127904    0.067383    0.057243
  O     -0.851131   -0.579890    0.895564
  C      0.535006   -0.698674    1.250530
  C      1.138767   -2.084025    1.118140
  C      2.550051   -2.098661    0.498713
  C      2.712664   -1.150172   -0.719040
  C      1.510876   -1.098874   -1.639418
  C      0.346651   -0.551900   -1.287458
  H      0.999407    2.017966   -0.275361
  H     -0.744735    1.939593   -0.560066
  H     -0.127755    1.935847    1.102324
  H      0.810961   -0.129413    2.140471
  H      1.159324   -2.577916    2.096215
  H      0.459293   -2.662735    0.488008
  H      3.301526   -1.821633    1.247295
  H      2.780425   -3.128602    0.203840
  H      2.912211   -0.139524   -0.344433
  H      3.604737   -1.442145   -1.281346
  H      1.614501   -1.535198   -2.630166
  H     -0.489914   -0.520099   -1.982333

 Total Charge           Charge          ....    0
 Multiplicity           Mult            ....    1
 Number of Electrons    NEL             ....   68
 Basis Dimension        Dim             ....  351

ORBITAL ENERGIES
----------------

  NO   OCC          E(Eh)            E(eV)
   0   2.0000     -20.555272      -559.3374
   1   2.0000     -11.287060      -307.1365
   2   2.0000     -11.278038      -306.8910
   3   2.0000     -11.233688      -305.6842
   4   2.0000     -11.230841      -305.6067
   5   2.0000     -11.229683      -305.5752
   6   2.0000     -11.226916      -305.4999
   7   2.0000     -11.222332      -305.3752
   8   2.0000     -11.221645      -305.3565
   9   2.0000      -1.399894       -38.0930
  10   2.0000      -1.105894       -30.0929
  11   2.0000      -1.046793       -28.4847
  12   2.0000      -1.000111       -27.2144
  13   2.0000      -0.958243       -26.0751
  14   2.0000      -0.875218       -23.8159
  15   2.0000      -0.844999       -22.9936
  16   2.0000      -0.774223       -21.0677
  17   2.0000      -0.719579       -19.5807
  18   2.0000      -0.671535       -18.2734
  19   2.0000      -0.651205       -17.7202
  20   2.0000      -0.617561       -16.8047
  21   2.0000      -0.611822       -16.6485
  22   2.0000      -0.597503       -16.2589
  23   2.0000      -0.567864       -15.4524
  24   2.0000      -0.552357       -15.0304
  25   2.0000      -0.545484       -14.8434
  26   2.0000      -0.517654       -14.0861
  27   2.0000      -0.509928       -13.8759
  28   2.0000      -0.490930       -13.3589
  29   2.0000      -0.478004       -13.0072
  30   2.0000      -0.463288       -12.6067
  31   2.0000      -0.430627       -11.7180
  32   2.0000      -0.409654       -11.1472
  33   2.0000      -0.357275        -9.7219
  34   0.0000       0.121959         3.3187
  35   0.0000       0.152725         4.1558
  36   0.0000       0.153611         4.1800
  37   0.0000       0.165795         4.5115
  38   0.0000       0.172902         4.7049

MULLIKEN ATOMIC CHARGES
-----------------------
   0 C :   -0.409696
   1 C :    0.219364
   2 O :   -0.337399
   3 C :   -0.015274
   4 C :   -0.154967
   5 C :   -0.283888
   6 C :   -0.155891
   7 C :   -0.176917
   8 C :   -0.195832
   9 H :    0.131380
  10 H :    0.136650
  11 H :    0.138883
  12 H :    0.106660
  13 H :    0.127024
  14 H :    0.132594
  15 H :    0.117407
  16 H :    0.120348
  17 H :    0.116879
  18 H :    0.129958
  19 H :    0.124552
  20 H :    0.128166
Sum of atomic charges:    0.0000000

LOEWDIN ATOMIC CHARGES
----------------------
   0 C :   -0.262417
   1 C :   -0.316148
   2 O :    0.178391
   3 C :   -0.240044
   4 C :   -0.245381
   5 C :   -0.254971
   6 C :   -0.249005
   7 C :   -0.153273
   8 C :   -0.129974
   9 H :    0.130104
  10 H :    0.131232
  11 H :    0.131547
  12 H :    0.136585
  13 H :    0.141131
  14 H :    0.152520
  15 H :    0.136475
  16 H :    0.138074
  17 H :    0.145785
  18 H :    0.139956
  19 H :    0.141682
  20 H :    0.147730

  Mayer bond orders larger than 0.1
B(  0-C ,  1-C ) :   0.8760 B(  0-C ,  9-H ) :   0.9281 B(  0-C , 10-H ) :   0.9393
B(  0-C , 11-H ) :   0.9355 B(  1-C ,  2-O ) :   0.8732 B(  1-C ,  3-C ) :   0.9841
B(  1-C ,  8-C ) :   0.9215 B(  2-O ,  3-C ) :   0.9359 B(  3-C ,  4-C ) :   0.8462
B(  3-C , 12-H ) :   0.9204 B(  4-C ,  5-C ) :   0.9146 B(  4-C , 13-H ) :   0.9296
B(  4-C , 14-H ) :   0.9281 B(  5-C ,  6-C ) :   0.9121 B(  5-C , 15-H ) :   0.9329
B(  5-C , 16-H ) :   0.9309 B(  6-C ,  7-C ) :   0.9130 B(  6-C , 17-H ) :   0.9237
B(  6-C , 18-H ) :   0.9380 B(  7-C ,  8-C ) :   1.8001 B(  7-C , 19-H ) :   0.9274
B(  8-C , 20-H ) :   0.9216

MP2 TOTAL ENERGY:     -386.407364197 Eh
FINAL SINGLE POINT ENERGY      -386.407364197006

DIPOLE MOMENT
-------------
                                X             Y             Z
Electronic contribution:     -4.37419      -0.50845       0.27567
Nuclear contribution   :      5.21068       0.58668      -0.42213
                        -----------------------------------------
Total Dipole Moment    :      0.83649       0.07823      -0.14647
                        -----------------------------------------
Magnitude (a.u.)       :      0.85282
Magnitude (Debye)      :      2.16768

                             ****ORCA TERMINATED NORMALLY****
TOTAL RUN TIME: 0 days 0 hours 19 minutes 50 seconds 297 msec
