                         Program Version 3.0.3 - RELEASE   -
|  1> ! RI-MP2 RIJK def2-TZVP def2-TZVP/C def2-TZVP/JK TIGHTSCF
|  2> % maxcore 2000
|  3> % mp2 density relaxed end
|  4> *xyz 0 1
|  5>  C       -0.1549112826     1.5249134717     0.0050656620
|  6>  C        0.0347506044     0.0176403110     0.0434655900
|  7>  N        1.0929943651    -0.5166877249    -0.8306527800
|  8>  C        1.8036156534    -1.1645140644     0.1492241165
|  9>  O        2.7843669554    -1.8587737931     0.1401317551
| 10>  C        0.8294881268    -0.6140380724     1.2344063699
| 11>  C        1.3677119706     0.1520943361     2.4556278569
| 12>  C        0.6993650574    -0.9770500468     3.2650239837
| 13>  O        0.1485432822    -1.5589416592     2.0592087887
| 14>  H        0.7916195601     2.0464156582     0.1778496240
| 15>  H       -0.5463941867     1.8463355134    -0.9658216699
| 16>  H       -0.8730326008     1.8397609686     0.7693903170
| 17>  H       -0.9214992013    -0.5029716085    -0.0857121037
| 18>  H        1.1986928610    -0.5105236417    -1.8345075597
| 19>  H        2.4545362098     0.2124719180     2.5220724322
| 20>  H        0.9337452251     1.1427647892     2.6003718808
| 21>  H        1.3914387998    -1.6642433087     3.7630721786
| 22>  H       -0.0875169497    -0.6802563065     3.9667890079
| 23> *
| 24>
| 25>                          ****END OF INPUT****

CARTESIAN COORDINATES (ANGSTROEM)
---------------------------------
  C     -0.154911    1.524913    0.005066
  C      0.034751    0.017640    0.043466
  N      1.092994   -0.516688   -0.830653
  C      1.803616   -1.164514    0.149224
  O      2.784367   -1.858774    0.140132
  C      0.829488   -0.614038    1.234406
  C      1.367712    0.152094    2.455628
  C      0.699365   -0.977050    3.265024
  O      0.148543   -1.558942    2.059209
  H      0.791620    2.046416    0.177850
  H     -0.546394    1.846336   -0.965822
  H     -0.873033    1.839761    0.769390
  H     -0.921499   -0.502972   -0.085712
  H      1.198693   -0.510524   -1.834508
  H      2.454536    0.212472    2.522072
  H      0.933745    1.142765    2.600372
  H      1.391439   -1.664243    3.763072
  H     -0.087517   -0.680256    3.966789

 Total Charge           Charge          ....    0
 Multiplicity           Mult            ....    1
 Number of Electrons    NEL             ....   68
 Basis Dimension        Dim             ....  333

ORBITAL ENERGIES
----------------

  NO   OCC          E(Eh)            E(eV)
   0   2.0000     -20.565349      -559.6116
   1   2.0000     -20.526568      -558.5563
   2   2.0000     -15.586455      -424.1290
   3   2.0000     -11.347195      -308.7729
   4   2.0000     -11.308933      -307.7317
   5   2.0000     -11.290432      -307.2283
   6   2.0000     -11.286057      -307.1092
   7   2.0000     -11.245577      -306.0077
   8   2.0000     -11.236554      -305.7622
   9   2.0000      -1.405360       -38.2418
  10   2.0000      -1.380474       -37.5646
  11   2.0000      -1.267751       -34.4973
  12   2.0000      -1.039080       -28.2748
  13   2.0000      -1.017189       -27.6791
  14   2.0000      -0.968540       -26.3553
  15   2.0000      -0.854528       -23.2529
  16   2.0000      -0.840422       -22.8691
  17   2.0000      -0.730523       -19.8785
  18   2.0000      -0.699624       -19.0377
  19   2.0000      -0.686137       -18.6707
  20   2.0000      -0.658840       -17.9280
  21   2.0000      -0.651699       -17.7336
  22   2.0000      -0.625500       -17.0207
  23   2.0000      -0.597779       -16.2664
  24   2.0000      -0.579603       -15.7718
  25   2.0000      -0.552223       -15.0268
  26   2.0000      -0.545254       -14.8371
  27   2.0000      -0.533855       -14.5269
  28   2.0000      -0.521535       -14.1917
  29   2.0000      -0.487249       -13.2587
  30   2.0000      -0.476238       -12.9591
  31   2.0000      -0.451001       -12.2723
  32   2.0000      -0.400258       -10.8916
  33   2.0000      -0.390645       -10.6300
  34   0.0000       0.124269         3.3815
  35   0.0000       0.145197         3.9510
  36   0.0000       0.153788         4.1848
  37   0.0000       0.163624         4.4524
  38   0.0000       0.177375         4.8266

MULLIKEN ATOMIC CHARGES
-----------------------
   0 C :   -0.442188
   1 C :    0.086407
   2 N :   -0.337033
   3 C :    0.158691
   4 O :   -0.306841
   5 C :    0.230499
   6 C :   -0.306205
   7 C :   -0.017108
   8 O :   -0.328171
   9 H :    0.139343
  10 H :    0.141056
  11 H :    0.137027
  12 H :    0.118403
  13 H :    0.235016
  14 H :    0.148517
  15 H :    0.132272
  16 H :    0.107946
  17 H :    0.102370
Sum of atomic charges:    0.0000000

LOEWDIN ATOMIC CHARGES
----------------------
   0 C :   -0.298203
   1 C :   -0.235849
   2 N :    0.148184
   3 C :   -0.411183
   4 O :    0.108016
   5 C :   -0.246903
   6 C :   -0.199491
   7 C :   -0.253886
   8 O :    0.172389
   9 H :    0.127475
  10 H :    0.127184
  11 H :    0.130153
  12 H :    0.145794
  13 H :    0.171355
  14 H :    0.140938
  15 H :    0.136030
  16 H :    0.121791
  17 H :    0.116206

  Mayer bond orders larger than 0.1
B(  0-C ,  1-C ) :   0.8875 B(  0-C ,  9-H ) :   0.9401 B(  0-C , 10-H ) :   0.9330
B(  0-C , 11-H ) :   0.9356 B(  1-C ,  2-N ) :   0.8762 B(  1-C ,  5-C ) :   0.8384
B(  1-C , 12-H ) :   0.9253 B(  2-N ,  3-C ) :   1.1704 B(  2-N , 13-H ) :   0.8583
B(  3-C ,  4-O ) :   2.0577 B(  3-C ,  5-C ) :   0.8065 B(  5-C ,  6-C ) :   0.8891
B(  5-C ,  8-O ) :   0.9474 B(  6-C ,  7-C ) :   0.9969 B(  6-C , 14-H ) :   0.9161
B(  6-C , 15-H ) :   0.9250 B(  7-C ,  8-O ) :   0.9360 B(  7-C , 16-H ) :   0.9130
B(  7-C , 17-H ) :   0.9157

MP2 TOTAL ENERGY:     -438.362886169 Eh
FINAL SINGLE POINT ENERGY      -438.362886169309

DIPOLE MOMENT
-------------
                                X             Y             Z
Electronic contribution:      3.17128      -6.73985      -2.24756
Nuclear contribution   :     -3.98780       8.17388       2.23336
                        -----------------------------------------
Total Dipole Moment    :     -0.81652       1.43403      -0.01420
                        -----------------------------------------
Magnitude (a.u.)       :      1.65026
Magnitude (Debye)      :      4.19462

                             ****ORCA TERMINATED NORMALLY****
TOTAL RUN TIME: 0 days 0 hours 18 minutes 11 seconds 382 msec
