                         Program Version 3.0.3 - RELEASE   -
|  1> ! RI-MP2 RIJK def2-TZVP def2-TZVP/C def2-TZVP/JK TIGHTSCF
|  2> % maxcore 2000
|  3> % mp2 density relaxed end
|  4> *xyz 0 1
|  5>  O       -0.0905347363     1.4807595122    -0.0106244134
|  6>  C        0.0360317945     0.0750060115     0.0768164870
|  7>  C        0.1344643650    -0.5530307464     1.5020480673
|  8>  C       -0.9035101617    -1.6233606818     1.0406659656
|  9>  C       -1.3360766381    -0.6183958987    -0.0765462198
| 10>  C       -0.3058662217    -2.8834410574     0.4766984812
| 11>  C        0.7943797285    -2.9619678907    -0.2744433832
| 12>  C        1.7187817979    -1.8265317066    -0.6528110060
| 13>  C        1.0988022139    -0.4358292038    -0.9142520171
| 14>  H        0.7884877579     1.8699723591     0.0528557015
| 15>  H        1.1029332387    -0.9030657534     1.8667723494
| 16>  H       -0.3044355141     0.1305708926     2.2328656875
| 17>  H       -1.6761706765    -1.8683077819     1.7712352320
| 18>  H       -2.1260833711     0.0547464814     0.2657914661
| 19>  H       -1.5941243192    -1.0309867502    -1.0544634224
| 20>  H       -0.8520105667    -3.8020112811     0.6794320073
| 21>  H        1.1035263112    -3.9441720672    -0.6254887546
| 22>  H        2.4836389677    -1.7309308323     0.1314998016
| 23>  H        2.2774086798    -2.1133929558    -1.5509201513
| 24>  H        0.6608033484    -0.4039892172    -1.9188257572
| 25>  H        1.9269339619     0.2869886180    -0.9220534315
| 26> *
| 27>
| 28>                          ****END OF INPUT****

CARTESIAN COORDINATES (ANGSTROEM)
---------------------------------
  O     -0.090535    1.480760   -0.010624
  C      0.036032    0.075006    0.076816
  C      0.134464   -0.553031    1.502048
  C     -0.903510   -1.623361    1.040666
  C     -1.336077   -0.618396   -0.076546
  C     -0.305866   -2.883441    0.476698
  C      0.794380   -2.961968   -0.274443
  C      1.718782   -1.826532   -0.652811
  C      1.098802   -0.435829   -0.914252
  H      0.788488    1.869972    0.052856
  H      1.102933   -0.903066    1.866772
  H     -0.304436    0.130571    2.232866
  H     -1.676171   -1.868308    1.771235
  H     -2.126083    0.054746    0.265791
  H     -1.594124   -1.030987   -1.054463
  H     -0.852011   -3.802011    0.679432
  H      1.103526   -3.944172   -0.625489
  H      2.483639   -1.730931    0.131500
  H      2.277409   -2.113393   -1.550920
  H      0.660803   -0.403989   -1.918826
  H      1.926934    0.286989   -0.922053

 Total Charge           Charge          ....    0
 Multiplicity           Mult            ....    1
 Number of Electrons    NEL             ....   68
 Basis Dimension        Dim             ....  351

ORBITAL ENERGIES
----------------

  NO   OCC          E(Eh)            E(eV)
   0   2.0000     -20.551536      -559.2357
   1   2.0000     -11.282480      -307.0119
   2   2.0000     -11.230570      -305.5994
   3   2.0000     -11.230081      -305.5860
   4   2.0000     -11.226584      -305.4909
   5   2.0000     -11.223394      -305.4041
   6   2.0000     -11.221434      -305.3507
   7   2.0000     -11.217250      -305.2369
   8   2.0000     -11.214335      -305.1576
   9   2.0000      -1.361398       -37.0455
  10   2.0000      -1.145460       -31.1696
  11   2.0000      -1.056137       -28.7390
  12   2.0000      -1.018457       -27.7136
  13   2.0000      -0.903237       -24.5783
  14   2.0000      -0.879905       -23.9434
  15   2.0000      -0.864694       -23.5295
  16   2.0000      -0.737995       -20.0819
  17   2.0000      -0.700525       -19.0622
  18   2.0000      -0.692463       -18.8429
  19   2.0000      -0.647009       -17.6060
  20   2.0000      -0.641771       -17.4635
  21   2.0000      -0.616356       -16.7719
  22   2.0000      -0.583538       -15.8789
  23   2.0000      -0.567568       -15.4443
  24   2.0000      -0.552574       -15.0363
  25   2.0000      -0.534106       -14.5338
  26   2.0000      -0.516154       -14.0453
  27   2.0000      -0.502672       -13.6784
  28   2.0000      -0.474445       -12.9103
  29   2.0000      -0.468736       -12.7550
  30   2.0000      -0.449510       -12.2318
  31   2.0000      -0.429729       -11.6935
  32   2.0000      -0.407167       -11.0796
  33   2.0000      -0.339454        -9.2370
  34   0.0000       0.126563         3.4440
  35   0.0000       0.148051         4.0287
  36   0.0000       0.155002         4.2178
  37   0.0000       0.166052         4.5185
  38   0.0000       0.179493         4.8843

MULLIKEN ATOMIC CHARGES
-----------------------
   0 O :   -0.457502
   1 C :    0.265838
   2 C :   -0.292959
   3 C :    0.069460
   4 C :   -0.256591
   5 C :   -0.288789
   6 C :   -0.148000
   7 C :   -0.206406
   8 C :   -0.303852
   9 H :    0.308052
  10 H :    0.119527
  11 H :    0.120069
  12 H :    0.115623
  13 H :    0.122746
  14 H :    0.116441
  15 H :    0.114917
  16 H :    0.118811
  17 H :    0.122576
  18 H :    0.133103
  19 H :    0.124760
  20 H :    0.102175
Sum of atomic charges:   -0.0000000

LOEWDIN ATOMIC CHARGES
----------------------
   0 O :    0.007264
   1 C :   -0.360817
   2 C :   -0.177122
   3 C :   -0.208995
   4 C :   -0.166413
   5 C :   -0.158712
   6 C :   -0.175706
   7 C :   -0.253065
   8 C :   -0.225061
   9 H :    0.171628
  10 H :    0.128602
  11 H :    0.140701
  12 H :    0.142755
  13 H :    0.142991
  14 H :    0.129800
  15 H :    0.144843
  16 H :    0.143055
  17 H :    0.146630
  18 H :    0.144901
  19 H :    0.144648
  20 H :    0.138075

  Mayer bond orders larger than 0.1
B(  0-O ,  1-C ) :   1.0007 B(  0-O ,  9-H ) :   0.8406 B(  1-C ,  2-C ) :   0.9282
B(  1-C ,  4-C ) :   0.8822 B(  1-C ,  8-C ) :   0.9018 B(  2-C ,  3-C ) :   0.8755
B(  2-C , 10-H ) :   0.9244 B(  2-C , 11-H ) :   0.9113 B(  3-C ,  4-C ) :   0.8670
B(  3-C ,  5-C ) :   0.9091 B(  3-C , 12-H ) :   0.9283 B(  4-C , 13-H ) :   0.9147
B(  4-C , 14-H ) :   0.9246 B(  5-C ,  6-C ) :   1.8137 B(  5-C , 15-H ) :   0.9326
B(  6-C ,  7-C ) :   0.9249 B(  6-C , 16-H ) :   0.9277 B(  7-C ,  8-C ) :   0.9093
B(  7-C , 17-H ) :   0.9173 B(  7-C , 18-H ) :   0.9275 B(  8-C , 19-H ) :   0.9330
B(  8-C , 20-H ) :   0.9277

MP2 TOTAL ENERGY:     -386.413139602 Eh
FINAL SINGLE POINT ENERGY      -386.413139602288

DIPOLE MOMENT
-------------
                                X             Y             Z
Electronic contribution:     -1.42922       1.52090       0.52893
Nuclear contribution   :      1.99108      -1.71483      -0.48301
                        -----------------------------------------
Total Dipole Moment    :      0.56186      -0.19393       0.04592
                        -----------------------------------------
Magnitude (a.u.)       :      0.59616
Magnitude (Debye)      :      1.51532

                             ****ORCA TERMINATED NORMALLY****
TOTAL RUN TIME: 0 days 0 hours 20 minutes 20 seconds 797 msec
