                         Program Version 3.0.3 - RELEASE   -
|  1> ! RI-MP2 RIJK def2-TZVP def2-TZVP/C def2-TZVP/JK TIGHTSCF
|  2> % maxcore 2000
|  3> % mp2 density relaxed end
|  4> *xyz 0 1
|  5>  O       -0.2096544730     0.4082589091    -1.2972286013
|  6>  C       -0.0075502032     0.1688625416     0.1097715795
|  7>  C       -1.1453877977    -0.6231563414     0.7510880534
|  8>  C       -1.2952489224    -2.0371651532     0.2710811070
|  9>  C       -1.1399344132    -2.5692760289    -0.9908292619
| 10>  O       -0.7968112038    -2.0789509546    -2.1943334310
| 11>  N       -1.4253692104    -3.9068549705    -0.8792670827
| 12>  C       -1.7409337298    -4.1425598935     0.4354319315
| 13>  N       -1.6711123723    -3.0474323023     1.1447916319
| 14>  H       -1.0000512050     0.9518725911    -1.3916958364
| 15>  H        0.9338899997    -0.3834755799     0.1719512330
| 16>  H        0.1259609080     1.1307346012     0.6212516417
| 17>  H       -0.9745092086    -0.6594386827     1.8328724301
| 18>  H       -2.0784931754    -0.0495595435     0.6200485061
| 19>  H       -0.5380725673    -1.1423023473    -2.0593315648
| 20>  H       -1.3773325155    -4.5685678808    -1.6357878842
| 21>  H       -2.0044528001    -5.1249234945     0.7963339781
| 22> *
| 23>
| 24>                          ****END OF INPUT****

CARTESIAN COORDINATES (ANGSTROEM)
---------------------------------
  O     -0.209654    0.408259   -1.297229
  C     -0.007550    0.168863    0.109772
  C     -1.145388   -0.623156    0.751088
  C     -1.295249   -2.037165    0.271081
  C     -1.139934   -2.569276   -0.990829
  O     -0.796811   -2.078951   -2.194333
  N     -1.425369   -3.906855   -0.879267
  C     -1.740934   -4.142560    0.435432
  N     -1.671112   -3.047432    1.144792
  H     -1.000051    0.951873   -1.391696
  H      0.933890   -0.383476    0.171951
  H      0.125961    1.130735    0.621252
  H     -0.974509   -0.659439    1.832872
  H     -2.078493   -0.049560    0.620049
  H     -0.538073   -1.142302   -2.059332
  H     -1.377333   -4.568568   -1.635788
  H     -2.004453   -5.124923    0.796334

 Total Charge           Charge          ....    0
 Multiplicity           Mult            ....    1
 Number of Electrons    NEL             ....   68
 Basis Dimension        Dim             ....  327

ORBITAL ENERGIES
----------------

  NO   OCC          E(Eh)            E(eV)
   0   2.0000     -20.587174      -560.2055
   1   2.0000     -20.577021      -559.9292
   2   2.0000     -15.607708      -424.7073
   3   2.0000     -15.538321      -422.8192
   4   2.0000     -11.315156      -307.9010
   5   2.0000     -11.291463      -307.2563
   6   2.0000     -11.283369      -307.0361
   7   2.0000     -11.233802      -305.6873
   8   2.0000     -11.230128      -305.5873
   9   2.0000      -1.411980       -38.4219
  10   2.0000      -1.384247       -37.6673
  11   2.0000      -1.320230       -35.9253
  12   2.0000      -1.160478       -31.5782
  13   2.0000      -1.051326       -28.6080
  14   2.0000      -0.969290       -26.3757
  15   2.0000      -0.877116       -23.8675
  16   2.0000      -0.825689       -22.4681
  17   2.0000      -0.793333       -21.5877
  18   2.0000      -0.742987       -20.2177
  19   2.0000      -0.697649       -18.9840
  20   2.0000      -0.680750       -18.5242
  21   2.0000      -0.648082       -17.6352
  22   2.0000      -0.626022       -17.0349
  23   2.0000      -0.618088       -16.8190
  24   2.0000      -0.612728       -16.6732
  25   2.0000      -0.575721       -15.6662
  26   2.0000      -0.544345       -14.8124
  27   2.0000      -0.539888       -14.6911
  28   2.0000      -0.525796       -14.3076
  29   2.0000      -0.501835       -13.6556
  30   2.0000      -0.468788       -12.7564
  31   2.0000      -0.427627       -11.6363
  32   2.0000      -0.389420       -10.5967
  33   2.0000      -0.286454        -7.7948
  34   0.0000       0.121694         3.3115
  35   0.0000       0.143062         3.8929
  36   0.0000       0.168282         4.5792
  37   0.0000       0.178305         4.8519
  38   0.0000       0.185288         5.0419

MULLIKEN ATOMIC CHARGES
-----------------------
   0 O :   -0.515246
   1 C :   -0.041749
   2 C :   -0.302927
   3 C :    0.028864
   4 C :    0.190824
   5 O :   -0.449496
   6 N :   -0.273616
   7 C :    0.036505
   8 N :   -0.303724
   9 H :    0.333407
  10 H :    0.133746
  11 H :    0.127182
  12 H :    0.143197
  13 H :    0.127407
  14 H :    0.368004
  15 H :    0.251580
  16 H :    0.146041
Sum of atomic charges:    0.0000000

LOEWDIN ATOMIC CHARGES
----------------------
   0 O :   -0.049545
   1 C :   -0.321284
   2 C :   -0.253032
   3 C :   -0.276015
   4 C :   -0.358911
   5 O :    0.059585
   6 N :    0.186636
   7 C :   -0.329888
   8 N :    0.098793
   9 H :    0.178137
  10 H :    0.135309
  11 H :    0.122773
  12 H :    0.160130
  13 H :    0.141668
  14 H :    0.183213
  15 H :    0.195006
  16 H :    0.127426

  Mayer bond orders larger than 0.1
B(  0-O ,  1-C ) :   0.8275 B(  0-O ,  9-H ) :   0.8348 B(  1-C ,  2-C ) :   0.9384
B(  1-C , 10-H ) :   0.9340 B(  1-C , 11-H ) :   0.9326 B(  2-C ,  3-C ) :   0.8816
B(  2-C , 12-H ) :   0.9320 B(  2-C , 13-H ) :   0.9376 B(  3-C ,  4-C ) :   1.4226
B(  3-C ,  8-N ) :   1.2505 B(  4-C ,  5-O ) :   1.1452 B(  4-C ,  6-N ) :   1.1573
B(  5-O , 14-H ) :   0.7554 B(  6-N ,  7-C ) :   1.1187 B(  6-N , 15-H ) :   0.8615
B(  7-C ,  8-N ) :   1.5840 B(  7-C , 16-H ) :   0.9287

MP2 TOTAL ENERGY:     -454.453807111 Eh
FINAL SINGLE POINT ENERGY      -454.453807111114

DIPOLE MOMENT
-------------
                                X             Y             Z
Electronic contribution:     -1.20507      -4.70523      -2.16905
Nuclear contribution   :      1.16500       5.10542       1.69501
                        -----------------------------------------
Total Dipole Moment    :     -0.04008       0.40019      -0.47404
                        -----------------------------------------
Magnitude (a.u.)       :      0.62167
Magnitude (Debye)      :      1.58015

                             ****ORCA TERMINATED NORMALLY****
TOTAL RUN TIME: 0 days 0 hours 14 minutes 23 seconds 536 msec
