                         Program Version 3.0.3 - RELEASE   -
|  1> ! RI-MP2 RIJK def2-TZVP def2-TZVP/C def2-TZVP/JK TIGHTSCF
|  2> % maxcore 2000
|  3> % mp2 density relaxed end
|  4> *xyz 0 1
|  5>  C       -0.0377131214     1.5652453768    -0.1446787869
|  6>  C        0.0584352830     0.0509363028    -0.0413333147
|  7>  C        1.1240185896    -0.7096395187    -0.8863843737
|  8>  C        1.3403332782    -1.6589750223     0.3240396047
|  9>  O        2.6216043136    -2.1021592679     0.6649842209
| 10>  C        0.6712021869    -0.5823854389     1.2354374780
| 11>  O        1.6722441720     0.2825233489     1.7706421305
| 12>  C        2.1724686599    -0.0367700140     2.9836475539
| 13>  N        3.2096328911     0.5449368592     3.4052732317
| 14>  H        0.9268107976     2.0335135548     0.0657261336
| 15>  H       -0.3521590297     1.8598668497    -1.1512965607
| 16>  H       -0.7680679555     1.9681734339     0.5651091714
| 17>  H       -0.9271015256    -0.4006212920    -0.1988144973
| 18>  H        0.8155496860    -1.1525534144    -1.8355203126
| 19>  H        2.0086595228    -0.0870405189    -1.0551708634
| 20>  H        0.7095112741    -2.5497514345     0.2519048447
| 21>  H        3.1813328948    -1.3228671635     0.7662967249
| 22>  H       -0.0040607227    -0.9117422384     2.0331919633
| 23>  H        1.5830407368    -0.7969482610     3.5128082826
| 24>  H        3.4320815483     0.2202256985     4.3439444992
| 25> *
| 26>
| 27>                          ****END OF INPUT****

CARTESIAN COORDINATES (ANGSTROEM)
---------------------------------
  C     -0.037713    1.565245   -0.144679
  C      0.058435    0.050936   -0.041333
  C      1.124019   -0.709640   -0.886384
  C      1.340333   -1.658975    0.324040
  O      2.621604   -2.102159    0.664984
  C      0.671202   -0.582385    1.235437
  O      1.672244    0.282523    1.770642
  C      2.172469   -0.036770    2.983648
  N      3.209633    0.544937    3.405273
  H      0.926811    2.033514    0.065726
  H     -0.352159    1.859867   -1.151297
  H     -0.768068    1.968173    0.565109
  H     -0.927102   -0.400621   -0.198814
  H      0.815550   -1.152553   -1.835520
  H      2.008660   -0.087041   -1.055171
  H      0.709511   -2.549751    0.251905
  H      3.181333   -1.322867    0.766297
  H     -0.004061   -0.911742    2.033192
  H      1.583041   -0.796948    3.512808
  H      3.432082    0.220226    4.343944

 Total Charge           Charge          ....    0
 Multiplicity           Mult            ....    1
 Number of Electrons    NEL             ....   70
 Basis Dimension        Dim             ....  345

ORBITAL ENERGIES
----------------

  NO   OCC          E(Eh)            E(eV)
   0   2.0000     -20.597222      -560.4789
   1   2.0000     -20.563197      -559.5530
   2   2.0000     -15.543259      -422.9536
   3   2.0000     -11.342024      -308.6322
   4   2.0000     -11.297512      -307.4209
   5   2.0000     -11.288812      -307.1842
   6   2.0000     -11.243058      -305.9392
   7   2.0000     -11.228396      -305.5402
   8   2.0000     -11.217975      -305.2566
   9   2.0000      -1.436216       -39.0814
  10   2.0000      -1.371036       -37.3078
  11   2.0000      -1.204930       -32.7878
  12   2.0000      -1.132000       -30.8033
  13   2.0000      -0.985752       -26.8237
  14   2.0000      -0.923077       -25.1182
  15   2.0000      -0.856405       -23.3040
  16   2.0000      -0.833201       -22.6725
  17   2.0000      -0.781647       -21.2697
  18   2.0000      -0.725923       -19.7534
  19   2.0000      -0.693242       -18.8641
  20   2.0000      -0.672542       -18.3008
  21   2.0000      -0.644202       -17.5296
  22   2.0000      -0.624370       -16.9900
  23   2.0000      -0.609391       -16.5824
  24   2.0000      -0.570608       -15.5270
  25   2.0000      -0.564953       -15.3731
  26   2.0000      -0.555072       -15.1043
  27   2.0000      -0.542466       -14.7613
  28   2.0000      -0.537276       -14.6200
  29   2.0000      -0.485092       -13.2000
  30   2.0000      -0.456629       -12.4255
  31   2.0000      -0.450605       -12.2616
  32   2.0000      -0.440265       -11.9802
  33   2.0000      -0.434784       -11.8311
  34   2.0000      -0.393150       -10.6981
  35   0.0000       0.126263         3.4358
  36   0.0000       0.148534         4.0418
  37   0.0000       0.149907         4.0792
  38   0.0000       0.162262         4.4154
  39   0.0000       0.167521         4.5585

MULLIKEN ATOMIC CHARGES
-----------------------
   0 C :   -0.428891
   1 C :   -0.015523
   2 C :   -0.250188
   3 C :    0.039721
   4 O :   -0.455272
   5 C :    0.014466
   6 O :   -0.247993
   7 C :    0.042559
   8 N :   -0.335705
   9 H :    0.152057
  10 H :    0.134751
  11 H :    0.129099
  12 H :    0.108181
  13 H :    0.127617
  14 H :    0.119208
  15 H :    0.104031
  16 H :    0.337077
  17 H :    0.111091
  18 H :    0.085642
  19 H :    0.228072
Sum of atomic charges:    0.0000000

LOEWDIN ATOMIC CHARGES
----------------------
   0 C :   -0.297694
   1 C :   -0.237361
   2 C :   -0.205567
   3 C :   -0.322880
   4 O :    0.000497
   5 C :   -0.251370
   6 O :    0.263389
   7 C :   -0.402774
   8 N :   -0.083586
   9 H :    0.129870
  10 H :    0.126354
  11 H :    0.125657
  12 H :    0.154965
  13 H :    0.126085
  14 H :    0.141711
  15 H :    0.144843
  16 H :    0.182813
  17 H :    0.126537
  18 H :    0.109427
  19 H :    0.169083

  Mayer bond orders larger than 0.1
B(  0-C ,  1-C ) :   0.8849 B(  0-C ,  9-H ) :   0.9339 B(  0-C , 10-H ) :   0.9380
B(  0-C , 11-H ) :   0.9373 B(  1-C ,  2-C ) :   0.9249 B(  1-C ,  5-C ) :   0.9226
B(  1-C , 12-H ) :   0.9231 B(  2-C ,  3-C ) :   0.9282 B(  2-C , 13-H ) :   0.9287
B(  2-C , 14-H ) :   0.9076 B(  3-C ,  4-O ) :   1.0016 B(  3-C ,  5-C ) :   0.8867
B(  3-C , 15-H ) :   0.9291 B(  4-O , 16-H ) :   0.8244 B(  5-C ,  6-O ) :   0.8921
B(  5-C , 17-H ) :   0.9266 B(  6-O ,  7-C ) :   1.0368 B(  7-C ,  8-N ) :   1.9707
B(  7-C , 18-H ) :   0.9271 B(  8-N , 19-H ) :   0.8514

MP2 TOTAL ENERGY:     -439.551278246 Eh
FINAL SINGLE POINT ENERGY      -439.551278246101

DIPOLE MOMENT
-------------
                                X             Y             Z
Electronic contribution:      4.00891      -2.37137       4.07111
Nuclear contribution   :     -5.06932       2.04176      -3.97838
                        -----------------------------------------
Total Dipole Moment    :     -1.06040      -0.32961       0.09273
                        -----------------------------------------
Magnitude (a.u.)       :      1.11431
Magnitude (Debye)      :      2.83236

                             ****ORCA TERMINATED NORMALLY****
TOTAL RUN TIME: 0 days 0 hours 17 minutes 38 seconds 276 msec
