                         Program Version 3.0.3 - RELEASE   -
|  1> ! RI-MP2 RIJK def2-TZVP def2-TZVP/C def2-TZVP/JK TIGHTSCF
|  2> % maxcore 2000
|  3> % mp2 density relaxed end
|  4> *xyz 0 1
|  5>  C       -0.0049691753     1.5228757272    -0.0183114335
|  6>  C        0.0215121773     0.0167684996    -0.0438164386
|  7>  C        0.5255302609    -0.9447831843    -1.1185812310
|  8>  N        0.0524749096    -1.9435018737    -0.0693662227
|  9>  C        0.5410838591    -0.9819442621     1.0464492559
| 10>  C       -0.8039410264    -1.0720884434     1.7730755222
| 11>  C       -1.1282657674    -0.9983013615     0.2782274536
| 12>  H        1.0065758837     1.9343871481    -0.1077440310
| 13>  H       -0.6007379539     1.9186567110    -0.8483595678
| 14>  H       -0.4385752016     1.8993274012     0.9147190644
| 15>  H       -0.0305432398    -1.0056798445    -2.0612115519
| 16>  H        1.6040503473    -0.9896749963    -1.3089924816
| 17>  H        1.5575979218    -1.0678497556     1.4369086079
| 18>  H       -1.0207452403    -2.0240691070     2.2644532629
| 19>  H       -1.0970866942    -0.2205045946     2.3919519359
| 20>  H       -2.0844977108    -1.1035427140    -0.2391536947
| 21> *
| 22>
| 23>                          ****END OF INPUT****

CARTESIAN COORDINATES (ANGSTROEM)
---------------------------------
  C     -0.004969    1.522876   -0.018311
  C      0.021512    0.016768   -0.043816
  C      0.525530   -0.944783   -1.118581
  N      0.052475   -1.943502   -0.069366
  C      0.541084   -0.981944    1.046449
  C     -0.803941   -1.072088    1.773076
  C     -1.128266   -0.998301    0.278227
  H      1.006576    1.934387   -0.107744
  H     -0.600738    1.918657   -0.848360
  H     -0.438575    1.899327    0.914719
  H     -0.030543   -1.005680   -2.061212
  H      1.604050   -0.989675   -1.308992
  H      1.557598   -1.067850    1.436909
  H     -1.020745   -2.024069    2.264453
  H     -1.097087   -0.220505    2.391952
  H     -2.084498   -1.103543   -0.239154

 Total Charge           Charge          ....    0
 Multiplicity           Mult            ....    1
 Number of Electrons    NEL             ....   52
 Basis Dimension        Dim             ....  271

ORBITAL ENERGIES
----------------

  NO   OCC          E(Eh)            E(eV)
   0   2.0000     -15.558217      -423.3606
   1   2.0000     -11.267424      -306.6022
   2   2.0000     -11.267351      -306.6002
   3   2.0000     -11.249658      -306.1187
   4   2.0000     -11.247073      -306.0484
   5   2.0000     -11.228003      -305.5295
   6   2.0000     -11.223338      -305.4026
   7   2.0000      -1.311467       -35.6868
   8   2.0000      -1.027521       -27.9603
   9   2.0000      -1.011256       -27.5177
  10   2.0000      -0.874896       -23.8071
  11   2.0000      -0.872410       -23.7395
  12   2.0000      -0.834134       -22.6979
  13   2.0000      -0.698534       -19.0081
  14   2.0000      -0.654614       -17.8130
  15   2.0000      -0.618007       -16.8168
  16   2.0000      -0.608245       -16.5512
  17   2.0000      -0.594411       -16.1748
  18   2.0000      -0.569181       -15.4882
  19   2.0000      -0.552134       -15.0243
  20   2.0000      -0.469949       -12.7880
  21   2.0000      -0.465128       -12.6568
  22   2.0000      -0.445916       -12.1340
  23   2.0000      -0.425641       -11.5823
  24   2.0000      -0.423934       -11.5358
  25   2.0000      -0.368266       -10.0210
  26   0.0000       0.136360         3.7105
  27   0.0000       0.160531         4.3683
  28   0.0000       0.175296         4.7700
  29   0.0000       0.180804         4.9199
  30   0.0000       0.199772         5.4361

MULLIKEN ATOMIC CHARGES
-----------------------
   0 C :   -0.383585
   1 C :    0.012476
   2 C :   -0.146413
   3 N :   -0.208108
   4 C :   -0.083148
   5 C :   -0.218888
   6 C :   -0.083166
   7 H :    0.133828
   8 H :    0.133830
   9 H :    0.133931
  10 H :    0.108961
  11 H :    0.108963
  12 H :    0.127621
  13 H :    0.118301
  14 H :    0.117775
  15 H :    0.127621
Sum of atomic charges:    0.0000000

LOEWDIN ATOMIC CHARGES
----------------------
   0 C :   -0.283179
   1 C :   -0.225509
   2 C :   -0.222300
   3 N :    0.123086
   4 C :   -0.162868
   5 C :   -0.209934
   6 C :   -0.162869
   7 H :    0.129330
   8 H :    0.129331
   9 H :    0.129444
  10 H :    0.121658
  11 H :    0.121658
  12 H :    0.124549
  13 H :    0.133146
  14 H :    0.129907
  15 H :    0.124549

  Mayer bond orders larger than 0.1
B(  0-C ,  1-C ) :   0.8736 B(  0-C ,  7-H ) :   0.9351 B(  0-C ,  8-H ) :   0.9351
B(  0-C ,  9-H ) :   0.9363 B(  1-C ,  2-C ) :   0.9449 B(  1-C ,  4-C ) :   0.9021
B(  1-C ,  6-C ) :   0.9021 B(  2-C ,  3-N ) :   0.9374 B(  2-C , 10-H ) :   0.9230
B(  2-C , 11-H ) :   0.9230 B(  3-N ,  4-C ) :   0.9382 B(  3-N ,  6-C ) :   0.9382
B(  4-C ,  5-C ) :   0.9325 B(  4-C , 12-H ) :   0.8849 B(  5-C ,  6-C ) :   0.9325
B(  5-C , 13-H ) :   0.9041 B(  5-C , 14-H ) :   0.9271 B(  6-C , 15-H ) :   0.8849

MP2 TOTAL ENERGY:     -288.026171738 Eh
FINAL SINGLE POINT ENERGY      -288.026171737974

DIPOLE MOMENT
-------------
                                X             Y             Z
Electronic contribution:      0.05079      -3.62738      -0.03316
Nuclear contribution   :     -0.09627       4.46865       0.11409
                        -----------------------------------------
Total Dipole Moment    :     -0.04549       0.84127       0.08093
                        -----------------------------------------
Magnitude (a.u.)       :      0.84638
Magnitude (Debye)      :      2.15133

                             ****ORCA TERMINATED NORMALLY****
TOTAL RUN TIME: 0 days 0 hours 8 minutes 47 seconds 288 msec
