                         Program Version 3.0.3 - RELEASE   -
|  1> ! RI-MP2 RIJK def2-TZVP def2-TZVP/C def2-TZVP/JK TIGHTSCF
|  2> % maxcore 2000
|  3> % mp2 density relaxed end
|  4> *xyz 0 1
|  5>  N       -0.2177716716     1.4284220617    -0.0455379219
|  6>  C       -0.0128602313     0.0148323155    -0.0122611374
|  7>  C       -1.0810144016    -0.8470445675    -0.0924783136
|  8>  O       -2.3990541627    -0.5779484905    -0.2066072236
|  9>  N       -0.6271123986    -2.1288931393    -0.0395564386
| 10>  C        0.7561734880    -2.1120366659     0.0765546772
| 11>  C        1.1604808006    -0.8022294638     0.0956087135
| 12>  H        0.2659158652     1.8613283371    -0.8267927191
| 13>  H        0.1284264632     1.8796420631     0.7960561044
| 14>  H       -2.4460153664     0.3901464161    -0.2219122493
| 15>  H       -1.2124200677    -2.9441756449    -0.0796857073
| 16>  H        1.3125226586    -3.0323536713     0.1339532056
| 17>  H        2.1803865942    -0.4568258303     0.1774798101
| 18> *
| 19>
| 20>                          ****END OF INPUT****

CARTESIAN COORDINATES (ANGSTROEM)
---------------------------------
  N     -0.217772    1.428422   -0.045538
  C     -0.012860    0.014832   -0.012261
  C     -1.081014   -0.847045   -0.092478
  O     -2.399054   -0.577948   -0.206607
  N     -0.627112   -2.128893   -0.039556
  C      0.756173   -2.112037    0.076555
  C      1.160481   -0.802229    0.095609
  H      0.265916    1.861328   -0.826793
  H      0.128426    1.879642    0.796056
  H     -2.446015    0.390146   -0.221912
  H     -1.212420   -2.944176   -0.079686
  H      1.312523   -3.032354    0.133953
  H      2.180387   -0.456826    0.177480

 Total Charge           Charge          ....    0
 Multiplicity           Mult            ....    1
 Number of Electrons    NEL             ....   52
 Basis Dimension        Dim             ....  253

ORBITAL ENERGIES
----------------

  NO   OCC          E(Eh)            E(eV)
   0   2.0000     -20.587344      -560.2101
   1   2.0000     -15.598307      -424.4515
   2   2.0000     -15.553248      -423.2254
   3   2.0000     -11.308467      -307.7190
   4   2.0000     -11.245334      -306.0011
   5   2.0000     -11.226571      -305.4905
   6   2.0000     -11.210715      -305.0591
   7   2.0000      -1.412609       -38.4390
   8   2.0000      -1.279945       -34.8291
   9   2.0000      -1.182308       -32.1722
  10   2.0000      -1.025174       -27.8964
  11   2.0000      -0.954998       -25.9868
  12   2.0000      -0.798698       -21.7337
  13   2.0000      -0.783249       -21.3133
  14   2.0000      -0.742118       -20.1941
  15   2.0000      -0.659241       -17.9389
  16   2.0000      -0.654227       -17.8024
  17   2.0000      -0.615136       -16.7387
  18   2.0000      -0.606545       -16.5049
  19   2.0000      -0.591720       -16.1015
  20   2.0000      -0.573195       -15.5974
  21   2.0000      -0.532333       -14.4855
  22   2.0000      -0.519566       -14.1381
  23   2.0000      -0.414105       -11.2684
  24   2.0000      -0.347166        -9.4469
  25   2.0000      -0.275784        -7.5045
  26   0.0000       0.134037         3.6473
  27   0.0000       0.145906         3.9703
  28   0.0000       0.178280         4.8512
  29   0.0000       0.178812         4.8657
  30   0.0000       0.198230         5.3941

MULLIKEN ATOMIC CHARGES
-----------------------
   0 N :   -0.605528
   1 C :    0.092679
   2 C :    0.193796
   3 O :   -0.445248
   4 N :   -0.268521
   5 C :   -0.072779
   6 C :   -0.256856
   7 H :    0.247415
   8 H :    0.247419
   9 H :    0.352334
  10 H :    0.248867
  11 H :    0.144842
  12 H :    0.121580
Sum of atomic charges:   -0.0000000

LOEWDIN ATOMIC CHARGES
----------------------
   0 N :   -0.136805
   1 C :   -0.304364
   2 C :   -0.359279
   3 O :    0.061240
   4 N :    0.190867
   5 C :   -0.244995
   6 C :   -0.197933
   7 H :    0.161946
   8 H :    0.161948
   9 H :    0.206953
  10 H :    0.193520
  11 H :    0.130097
  12 H :    0.136805

  Mayer bond orders larger than 0.1
B(  0-N ,  1-C ) :   0.9530 B(  0-N ,  7-H ) :   0.8939 B(  0-N ,  8-H ) :   0.8938
B(  1-C ,  2-C ) :   1.4629 B(  1-C ,  6-C ) :   1.2160 B(  2-C ,  3-O ) :   1.1333
B(  2-C ,  4-N ) :   1.1729 B(  3-O ,  9-H ) :   0.8060 B(  4-N ,  5-C ) :   1.0611
B(  4-N , 10-H ) :   0.8707 B(  5-C ,  6-C ) :   1.5308 B(  5-C , 11-H ) :   0.9163
B(  6-C , 12-H ) :   0.9314

MP2 TOTAL ENERGY:     -340.098798028 Eh
FINAL SINGLE POINT ENERGY      -340.098798028107

DIPOLE MOMENT
-------------
                                X             Y             Z
Electronic contribution:     -2.23675      -1.64837      -0.16964
Nuclear contribution   :      2.48615       1.65376       0.19064
                        -----------------------------------------
Total Dipole Moment    :      0.24941       0.00539       0.02099
                        -----------------------------------------
Magnitude (a.u.)       :      0.25035
Magnitude (Debye)      :      0.63633

                             ****ORCA TERMINATED NORMALLY****
TOTAL RUN TIME: 0 days 0 hours 6 minutes 44 seconds 151 msec
