                         Program Version 3.0.3 - RELEASE   -
|  1> ! RI-MP2 RIJK def2-TZVP def2-TZVP/C def2-TZVP/JK TIGHTSCF
|  2> % maxcore 2000
|  3> % mp2 density relaxed end
|  4> *xyz 0 1
|  5>  C       -0.0238312564     1.4979923832    -0.0816325723
|  6>  C        0.0426860597    -0.0229335738     0.0465368705
|  7>  C        0.6409103747    -0.4776234652     1.3701997100
|  8>  O       -1.2776935767    -0.5966378267    -0.0102394893
|  9>  C       -1.8501630690    -0.7110325746    -1.2229505377
| 10>  C       -1.4259491536    -0.4176643832    -2.4859509335
| 11>  O       -2.3886504342    -0.7532307231    -3.3744767206
| 12>  N       -3.4751746503    -1.2766550661    -2.6976937041
| 13>  C       -3.1540327365    -1.2485906940    -1.4293898604
| 14>  H        0.9848738807     1.9222612588    -0.0776329050
| 15>  H       -0.5170468506     1.8014861646    -1.0085089633
| 16>  H       -0.5815902864     1.9232924581     0.7582716319
| 17>  H        0.6305066446    -0.4443029018    -0.7819111750
| 18>  H        0.0401361356    -0.1047636063     2.2054279186
| 19>  H        0.6698844290    -1.5686349883     1.4259371189
| 20>  H        1.6594868372    -0.0945056019     1.4787676860
| 21>  H       -0.5292550086     0.0092637492    -2.9010070274
| 22>  H       -3.8470901490    -1.6103852489    -0.6840721572
| 23> *
| 24>
| 25>                          ****END OF INPUT****

CARTESIAN COORDINATES (ANGSTROEM)
---------------------------------
  C     -0.023831    1.497992   -0.081633
  C      0.042686   -0.022934    0.046537
  C      0.640910   -0.477623    1.370200
  O     -1.277694   -0.596638   -0.010239
  C     -1.850163   -0.711033   -1.222951
  C     -1.425949   -0.417664   -2.485951
  O     -2.388650   -0.753231   -3.374477
  N     -3.475175   -1.276655   -2.697694
  C     -3.154033   -1.248591   -1.429390
  H      0.984874    1.922261   -0.077633
  H     -0.517047    1.801486   -1.008509
  H     -0.581590    1.923292    0.758272
  H      0.630507   -0.444303   -0.781911
  H      0.040136   -0.104764    2.205428
  H      0.669884   -1.568635    1.425937
  H      1.659487   -0.094506    1.478768
  H     -0.529255    0.009264   -2.901007
  H     -3.847090   -1.610385   -0.684072

 Total Charge           Charge          ....    0
 Multiplicity           Mult            ....    1
 Number of Electrons    NEL             ....   68
 Basis Dimension        Dim             ....  333

ORBITAL ENERGIES
----------------

  NO   OCC          E(Eh)            E(eV)
   0   2.0000     -20.640301      -561.6511
   1   2.0000     -20.594127      -560.3947
   2   2.0000     -15.627118      -425.2355
   3   2.0000     -11.306196      -307.6572
   4   2.0000     -11.303447      -307.5824
   5   2.0000     -11.300035      -307.4896
   6   2.0000     -11.277079      -306.8649
   7   2.0000     -11.231195      -305.6164
   8   2.0000     -11.229366      -305.5666
   9   2.0000      -1.491789       -40.5937
  10   2.0000      -1.421170       -38.6720
  11   2.0000      -1.161991       -31.6194
  12   2.0000      -1.087590       -29.5948
  13   2.0000      -1.042487       -28.3675
  14   2.0000      -0.954602       -25.9761
  15   2.0000      -0.863076       -23.4855
  16   2.0000      -0.826170       -22.4812
  17   2.0000      -0.789856       -21.4931
  18   2.0000      -0.750444       -20.4206
  19   2.0000      -0.681765       -18.5518
  20   2.0000      -0.665803       -18.1174
  21   2.0000      -0.642569       -17.4852
  22   2.0000      -0.639797       -17.4098
  23   2.0000      -0.601240       -16.3606
  24   2.0000      -0.579425       -15.7670
  25   2.0000      -0.561612       -15.2822
  26   2.0000      -0.558025       -15.1846
  27   2.0000      -0.547926       -14.9098
  28   2.0000      -0.531822       -14.4716
  29   2.0000      -0.494789       -13.4639
  30   2.0000      -0.488777       -13.3003
  31   2.0000      -0.475724       -12.9451
  32   2.0000      -0.413338       -11.2475
  33   2.0000      -0.341464        -9.2917
  34   0.0000       0.119028         3.2389
  35   0.0000       0.126966         3.4549
  36   0.0000       0.158077         4.3015
  37   0.0000       0.171850         4.6763
  38   0.0000       0.176008         4.7894

MULLIKEN ATOMIC CHARGES
-----------------------
   0 C :   -0.395105
   1 C :    0.068436
   2 C :   -0.369491
   3 O :   -0.279199
   4 C :    0.187839
   5 C :   -0.084358
   6 O :   -0.108400
   7 N :   -0.103950
   8 C :   -0.145117
   9 H :    0.135623
  10 H :    0.145542
  11 H :    0.134163
  12 H :    0.086990
  13 H :    0.135326
  14 H :    0.142547
  15 H :    0.128942
  16 H :    0.167895
  17 H :    0.152318
Sum of atomic charges:   -0.0000000

LOEWDIN ATOMIC CHARGES
----------------------
   0 C :   -0.292079
   1 C :   -0.341430
   2 C :   -0.287733
   3 O :    0.270048
   4 C :   -0.323001
   5 C :   -0.275737
   6 O :    0.265848
   7 N :    0.028477
   8 C :   -0.239586
   9 H :    0.129605
  10 H :    0.127063
  11 H :    0.129702
  12 H :    0.139589
  13 H :    0.129246
  14 H :    0.128288
  15 H :    0.129099
  16 H :    0.137115
  17 H :    0.145483

  Mayer bond orders larger than 0.1
B(  0-C ,  1-C ) :   0.9232 B(  0-C ,  9-H ) :   0.9299 B(  0-C , 10-H ) :   0.9326
B(  0-C , 11-H ) :   0.9281 B(  1-C ,  2-C ) :   0.9367 B(  1-C ,  3-O ) :   0.8314
B(  1-C , 12-H ) :   0.9322 B(  2-C , 13-H ) :   0.9340 B(  2-C , 14-H ) :   0.9362
B(  2-C , 15-H ) :   0.9312 B(  3-O ,  4-C ) :   1.0853 B(  4-C ,  5-C ) :   1.4386
B(  4-C ,  8-C ) :   1.2086 B(  5-C ,  6-O ) :   1.0777 B(  5-C ,  7-N ) :   0.1112
B(  5-C , 16-H ) :   0.9201 B(  6-O ,  7-N ) :   0.9052 B(  7-N ,  8-C ) :   1.5738
B(  8-C , 17-H ) :   0.9240

MP2 TOTAL ENERGY:     -438.340354393 Eh
FINAL SINGLE POINT ENERGY      -438.340354392783

DIPOLE MOMENT
-------------
                                X             Y             Z
Electronic contribution:     -9.15242      -4.79898      -8.60683
Nuclear contribution   :     10.40844       5.30798       9.47403
                        -----------------------------------------
Total Dipole Moment    :      1.25602       0.50901       0.86720
                        -----------------------------------------
Magnitude (a.u.)       :      1.60895
Magnitude (Debye)      :      4.08963

                             ****ORCA TERMINATED NORMALLY****
TOTAL RUN TIME: 0 days 0 hours 16 minutes 50 seconds 777 msec
