                         Program Version 3.0.3 - RELEASE   -
|  1> ! RI-MP2 RIJK def2-TZVP def2-TZVP/C def2-TZVP/JK TIGHTSCF
|  2> % maxcore 2000
|  3> % mp2 density relaxed end
|  4> *xyz 0 1
|  5>  O        0.1216287829    -0.1146415152    -0.5068787405
|  6>  C        0.0582748510     1.0442577980    -0.1740693894
|  7>  C        1.2670337965     1.9282908592    -0.0956948404
|  8>  C        1.2176175148     3.3920954348    -0.6783486591
|  9>  C        0.3634591340     3.8187120645     0.5599541211
| 10>  C        1.4715986199     2.8819417568     1.1427735001
| 11>  C        2.4374602864     3.6457449907     0.2222829085
| 12>  C        3.8763889813     3.7352236265     0.0468186863
| 13>  O        3.0677482679     4.8666427999     0.4764609098
| 14>  H       -0.9199024605     1.4974777602     0.0893125396
| 15>  H        2.1429353989     1.3407543753    -0.3823151889
| 16>  H        1.0765610302     3.6703344331    -1.7221040633
| 17>  H        0.4337343545     4.8695702402     0.8445001953
| 18>  H       -0.6667502490     3.4695558888     0.6058193310
| 19>  H        1.6204656818     2.5776304064     2.1781245670
| 20>  H        4.5489750972     3.3408478538     0.8063836919
| 21>  H        4.3043611823     3.8327586771    -0.9492598690
| 22> *
| 23>
| 24>                          ****END OF INPUT****

CARTESIAN COORDINATES (ANGSTROEM)
---------------------------------
  O      0.121629   -0.114642   -0.506879
  C      0.058275    1.044258   -0.174069
  C      1.267034    1.928291   -0.095695
  C      1.217618    3.392095   -0.678349
  C      0.363459    3.818712    0.559954
  C      1.471599    2.881942    1.142774
  C      2.437460    3.645745    0.222283
  C      3.876389    3.735224    0.046819
  O      3.067748    4.866643    0.476461
  H     -0.919902    1.497478    0.089313
  H      2.142935    1.340754   -0.382315
  H      1.076561    3.670334   -1.722104
  H      0.433734    4.869570    0.844500
  H     -0.666750    3.469556    0.605819
  H      1.620466    2.577630    2.178125
  H      4.548975    3.340848    0.806384
  H      4.304361    3.832759   -0.949260

 Total Charge           Charge          ....    0
 Multiplicity           Mult            ....    1
 Number of Electrons    NEL             ....   66
 Basis Dimension        Dim             ....  327

ORBITAL ENERGIES
----------------

  NO   OCC          E(Eh)            E(eV)
   0   2.0000     -20.578241      -559.9624
   1   2.0000     -20.559122      -559.4421
   2   2.0000     -11.334389      -308.4244
   3   2.0000     -11.315423      -307.9083
   4   2.0000     -11.294314      -307.3339
   5   2.0000     -11.273440      -306.7659
   6   2.0000     -11.273396      -306.7647
   7   2.0000     -11.262624      -306.4716
   8   2.0000     -11.253983      -306.2365
   9   2.0000      -1.427316       -38.8392
  10   2.0000      -1.396938       -38.0126
  11   2.0000      -1.230756       -33.4906
  12   2.0000      -0.970585       -26.4110
  13   2.0000      -0.944920       -25.7126
  14   2.0000      -0.891019       -24.2459
  15   2.0000      -0.888434       -24.1755
  16   2.0000      -0.796137       -21.6640
  17   2.0000      -0.748720       -20.3737
  18   2.0000      -0.705679       -19.2025
  19   2.0000      -0.685163       -18.6442
  20   2.0000      -0.679623       -18.4935
  21   2.0000      -0.644221       -17.5301
  22   2.0000      -0.629236       -17.1224
  23   2.0000      -0.566976       -15.4282
  24   2.0000      -0.553339       -15.0571
  25   2.0000      -0.540078       -14.6963
  26   2.0000      -0.510439       -13.8897
  27   2.0000      -0.495873       -13.4934
  28   2.0000      -0.481258       -13.0957
  29   2.0000      -0.462078       -12.5738
  30   2.0000      -0.438869       -11.9422
  31   2.0000      -0.431920       -11.7532
  32   2.0000      -0.419754       -11.4221
  33   0.0000       0.117885         3.2078
  34   0.0000       0.141058         3.8384
  35   0.0000       0.152257         4.1431
  36   0.0000       0.170946         4.6517
  37   0.0000       0.172240         4.6869

MULLIKEN ATOMIC CHARGES
-----------------------
   0 O :   -0.259290
   1 C :    0.036672
   2 C :   -0.048184
   3 C :   -0.071402
   4 C :   -0.236382
   5 C :   -0.071598
   6 C :    0.076727
   7 C :   -0.112606
   8 O :   -0.342766
   9 H :    0.079510
  10 H :    0.123280
  11 H :    0.152649
  12 H :    0.137642
  13 H :    0.124609
  14 H :    0.152657
  15 H :    0.129239
  16 H :    0.129244
Sum of atomic charges:    0.0000000

LOEWDIN ATOMIC CHARGES
----------------------
   0 O :    0.131987
   1 C :   -0.279010
   2 C :   -0.166223
   3 C :   -0.110009
   4 C :   -0.177390
   5 C :   -0.109913
   6 C :   -0.302723
   7 C :   -0.213714
   8 O :    0.174557
   9 H :    0.114451
  10 H :    0.157414
  11 H :    0.133205
  12 H :    0.137685
  13 H :    0.125731
  14 H :    0.133198
  15 H :    0.125377
  16 H :    0.125375

  Mayer bond orders larger than 0.1
B(  0-O ,  1-C ) :   2.0041 B(  1-C ,  2-C ) :   0.8324 B(  1-C ,  9-H ) :   0.9703
B(  2-C ,  3-C ) :   0.8362 B(  2-C ,  5-C ) :   0.8361 B(  2-C ,  9-H ) :  -0.1132
B(  2-C , 10-H ) :   0.9194 B(  3-C ,  4-C ) :   0.9076 B(  3-C ,  6-C ) :   0.8326
B(  3-C , 11-H ) :   0.8809 B(  4-C ,  5-C ) :   0.9076 B(  4-C , 12-H ) :   0.9163
B(  4-C , 13-H ) :   0.9284 B(  5-C ,  6-C ) :   0.8326 B(  5-C , 14-H ) :   0.8809
B(  6-C ,  7-C ) :   1.0280 B(  6-C ,  8-O ) :   0.9301 B(  7-C ,  8-O ) :   0.8804
B(  7-C , 15-H ) :   0.9149 B(  7-C , 16-H ) :   0.9149

MP2 TOTAL ENERGY:     -421.039002739 Eh
FINAL SINGLE POINT ENERGY      -421.039002739229

DIPOLE MOMENT
-------------
                                X             Y             Z
Electronic contribution:      0.03243      -1.65691      -0.46825
Nuclear contribution   :      0.15295       2.12244       0.57234
                        -----------------------------------------
Total Dipole Moment    :      0.18538       0.46552       0.10409
                        -----------------------------------------
Magnitude (a.u.)       :      0.51178
Magnitude (Debye)      :      1.30083

                             ****ORCA TERMINATED NORMALLY****
TOTAL RUN TIME: 0 days 0 hours 15 minutes 38 seconds 203 msec
