                         Program Version 3.0.3 - RELEASE   -
|  1> ! RI-MP2 RIJK def2-TZVP def2-TZVP/C def2-TZVP/JK TIGHTSCF
|  2> % maxcore 2000
|  3> % mp2 density relaxed end
|  4> *xyz 0 1
|  5>  C       -0.2164881802     1.5061298140    -0.0510934146
|  6>  N        0.0303210763     0.0650929660     0.0282690848
|  7>  C        1.3566841457    -0.4491421963    -0.2990110096
|  8>  C        2.4367037767     0.4347991457    -0.6677915885
|  9>  N        3.2902986536     1.1348768682    -1.0108576432
| 10>  C        0.8394366918    -0.4593921696     1.1241857906
| 11>  C        1.4265925701     0.4147712747     2.1115458994
| 12>  N        1.8575266581     1.1064628032     2.9314764245
| 13>  H        0.6328374732     2.1254177154     0.2623571443
| 14>  H       -0.4692703229     1.7475175419    -1.0860489861
| 15>  H       -1.0762787365     1.7354451777     0.5825275059
| 16>  H        1.3599900306    -1.3933369141    -0.8374954128
| 17>  H        0.5006059036    -1.4103669967     1.5270759453
| 18> *
| 19>
| 20>                          ****END OF INPUT****

CARTESIAN COORDINATES (ANGSTROEM)
---------------------------------
  C     -0.216488    1.506130   -0.051093
  N      0.030321    0.065093    0.028269
  C      1.356684   -0.449142   -0.299011
  C      2.436704    0.434799   -0.667792
  N      3.290299    1.134877   -1.010858
  C      0.839437   -0.459392    1.124186
  C      1.426593    0.414771    2.111546
  N      1.857527    1.106463    2.931476
  H      0.632837    2.125418    0.262357
  H     -0.469270    1.747518   -1.086049
  H     -1.076279    1.735445    0.582528
  H      1.359990   -1.393337   -0.837495
  H      0.500606   -1.410367    1.527076

 Total Charge           Charge          ....    0
 Multiplicity           Mult            ....    1
 Number of Electrons    NEL             ....   56
 Basis Dimension        Dim             ....  278

ORBITAL ENERGIES
----------------

  NO   OCC          E(Eh)            E(eV)
   0   2.0000     -15.630801      -425.3357
   1   2.0000     -15.598914      -424.4680
   2   2.0000     -15.598913      -424.4680
   3   2.0000     -11.351338      -308.8856
   4   2.0000     -11.350699      -308.8682
   5   2.0000     -11.298516      -307.4483
   6   2.0000     -11.298512      -307.4482
   7   2.0000     -11.282597      -307.0151
   8   2.0000      -1.350312       -36.7439
   9   2.0000      -1.241084       -33.7716
  10   2.0000      -1.238790       -33.7092
  11   2.0000      -1.058126       -28.7931
  12   2.0000      -0.983140       -26.7526
  13   2.0000      -0.922578       -25.1046
  14   2.0000      -0.784406       -21.3448
  15   2.0000      -0.727685       -19.8013
  16   2.0000      -0.680204       -18.5093
  17   2.0000      -0.649375       -17.6704
  18   2.0000      -0.612585       -16.6693
  19   2.0000      -0.592779       -16.1303
  20   2.0000      -0.578472       -15.7410
  21   2.0000      -0.568395       -15.4668
  22   2.0000      -0.540873       -14.7179
  23   2.0000      -0.500732       -13.6256
  24   2.0000      -0.494271       -13.4498
  25   2.0000      -0.491991       -13.3878
  26   2.0000      -0.471868       -12.8402
  27   2.0000      -0.417008       -11.3474
  28   0.0000       0.111665         3.0386
  29   0.0000       0.115739         3.1494
  30   0.0000       0.132453         3.6042
  31   0.0000       0.146965         3.9991
  32   0.0000       0.163423         4.4470

MULLIKEN ATOMIC CHARGES
-----------------------
   0 C :   -0.313300
   1 N :   -0.176044
   2 C :    0.050222
   3 C :   -0.179530
   4 N :   -0.033114
   5 C :    0.050196
   6 C :   -0.179529
   7 N :   -0.033111
   8 H :    0.154814
   9 H :    0.158235
  10 H :    0.158239
  11 H :    0.171460
  12 H :    0.171460
Sum of atomic charges:   -0.0000000

LOEWDIN ATOMIC CHARGES
----------------------
   0 C :   -0.298850
   1 N :    0.147830
   2 C :   -0.205156
   3 C :   -0.173660
   4 N :    0.093698
   5 C :   -0.205156
   6 C :   -0.173664
   7 N :    0.093699
   8 H :    0.123716
   9 H :    0.128721
  10 H :    0.128719
  11 H :    0.170052
  12 H :    0.170052

  Mayer bond orders larger than 0.1
B(  0-C ,  1-N ) :   0.8690 B(  0-C ,  8-H ) :   0.9208 B(  0-C ,  9-H ) :   0.9303
B(  0-C , 10-H ) :   0.9303 B(  1-N ,  2-C ) :   0.9202 B(  1-N ,  5-C ) :   0.9202
B(  2-C ,  3-C ) :   0.9574 B(  2-C ,  5-C ) :   0.8654 B(  2-C , 11-H ) :   0.8996
B(  3-C ,  4-N ) :   2.8089 B(  5-C ,  6-C ) :   0.9574 B(  5-C , 12-H ) :   0.8996
B(  6-C ,  7-N ) :   2.8089

MP2 TOTAL ENERGY:     -357.005348472 Eh
FINAL SINGLE POINT ENERGY      -357.005348472160

DIPOLE MOMENT
-------------
                                X             Y             Z
Electronic contribution:      4.11625      -1.41747       1.48593
Nuclear contribution   :     -5.39582       0.33611      -1.95877
                        -----------------------------------------
Total Dipole Moment    :     -1.27958      -1.08136      -0.47284
                        -----------------------------------------
Magnitude (a.u.)       :      1.74076
Magnitude (Debye)      :      4.42466

                             ****ORCA TERMINATED NORMALLY****
TOTAL RUN TIME: 0 days 0 hours 10 minutes 32 seconds 348 msec
