                         Program Version 3.0.3 - RELEASE   -
|  1> ! RI-MP2 RIJK def2-TZVP def2-TZVP/C def2-TZVP/JK TIGHTSCF
|  2> % maxcore 2000
|  3> % mp2 density relaxed end
|  4> *xyz 0 1
|  5>  O       -0.1322479485     1.3223509528    -0.1075195712
|  6>  C        0.0100801188    -0.0748462498    -0.0376086434
|  7>  C        1.2182017432    -0.5998017734    -0.7779426941
|  8>  C        1.3305836475    -2.1426748528    -0.7343446409
|  9>  C        0.1817292103    -2.7875325482     0.0118668773
| 10>  C       -0.4347992944    -2.2257190679     1.2685125140
| 11>  C       -1.2419446059    -2.2883221748    -0.0226976031
| 12>  C       -1.3343698620    -0.7411132811    -0.0418619940
| 13>  C       -0.5198075420    -0.6766986672     1.2473760546
| 14>  H        0.6003807615     1.7137546147     0.3819363166
| 15>  H        1.1606774844    -0.2389908005    -1.8104799105
| 16>  H        2.1158978426    -0.1402425431    -0.3432231589
| 17>  H        1.3637126259    -2.5456246496    -1.7528458312
| 18>  H        2.2720976711    -2.4410270981    -0.2592392355
| 19>  H        0.2312292858    -3.8745461740     0.0329772154
| 20>  H       -0.5558292042    -2.8130314499     2.1702116330
| 21>  H       -2.0775108485    -2.9317161002    -0.2676016775
| 22>  H       -2.2246494784    -0.1834118073    -0.3001508576
| 23>  H       -0.7011553274    -0.0611473496     2.1191445870
| 24> *
| 25>
| 26>                          ****END OF INPUT****

CARTESIAN COORDINATES (ANGSTROEM)
---------------------------------
  O     -0.132248    1.322351   -0.107520
  C      0.010080   -0.074846   -0.037609
  C      1.218202   -0.599802   -0.777943
  C      1.330584   -2.142675   -0.734345
  C      0.181729   -2.787533    0.011867
  C     -0.434799   -2.225719    1.268513
  C     -1.241945   -2.288322   -0.022698
  C     -1.334370   -0.741113   -0.041862
  C     -0.519808   -0.676699    1.247376
  H      0.600381    1.713755    0.381936
  H      1.160677   -0.238991   -1.810480
  H      2.115898   -0.140243   -0.343223
  H      1.363713   -2.545625   -1.752846
  H      2.272098   -2.441027   -0.259239
  H      0.231229   -3.874546    0.032977
  H     -0.555829   -2.813031    2.170212
  H     -2.077511   -2.931716   -0.267602
  H     -2.224649   -0.183412   -0.300151
  H     -0.701155   -0.061147    2.119145

 Total Charge           Charge          ....    0
 Multiplicity           Mult            ....    1
 Number of Electrons    NEL             ....   66
 Basis Dimension        Dim             ....  339

ORBITAL ENERGIES
----------------

  NO   OCC          E(Eh)            E(eV)
   0   2.0000     -20.559056      -559.4403
   1   2.0000     -11.285910      -307.1052
   2   2.0000     -11.234281      -305.7003
   3   2.0000     -11.230599      -305.6001
   4   2.0000     -11.229749      -305.5770
   5   2.0000     -11.226127      -305.4784
   6   2.0000     -11.225339      -305.4570
   7   2.0000     -11.223475      -305.4063
   8   2.0000     -11.221553      -305.3540
   9   2.0000      -1.371263       -37.3140
  10   2.0000      -1.215611       -33.0785
  11   2.0000      -1.063777       -28.9468
  12   2.0000      -1.039584       -28.2885
  13   2.0000      -0.884866       -24.0784
  14   2.0000      -0.868440       -23.6315
  15   2.0000      -0.821013       -22.3409
  16   2.0000      -0.734618       -19.9900
  17   2.0000      -0.714090       -19.4314
  18   2.0000      -0.692578       -18.8460
  19   2.0000      -0.645837       -17.5741
  20   2.0000      -0.629762       -17.1367
  21   2.0000      -0.618229       -16.8229
  22   2.0000      -0.592428       -16.1208
  23   2.0000      -0.584009       -15.8917
  24   2.0000      -0.532729       -14.4963
  25   2.0000      -0.507151       -13.8003
  26   2.0000      -0.488346       -13.2886
  27   2.0000      -0.481793       -13.1102
  28   2.0000      -0.475892       -12.9497
  29   2.0000      -0.449582       -12.2337
  30   2.0000      -0.419710       -11.4209
  31   2.0000      -0.370012       -10.0685
  32   2.0000      -0.317462        -8.6386
  33   0.0000       0.135492         3.6869
  34   0.0000       0.147638         4.0174
  35   0.0000       0.166336         4.5262
  36   0.0000       0.173726         4.7273
  37   0.0000       0.190762         5.1909

MULLIKEN ATOMIC CHARGES
-----------------------
   0 O :   -0.461532
   1 C :    0.217039
   2 C :   -0.212976
   3 C :   -0.161957
   4 C :   -0.154472
   5 C :   -0.120018
   6 C :   -0.132823
   7 C :   -0.156492
   8 C :   -0.225942
   9 H :    0.318855
  10 H :    0.120767
  11 H :    0.095734
  12 H :    0.111160
  13 H :    0.108317
  14 H :    0.109898
  15 H :    0.133869
  16 H :    0.133802
  17 H :    0.139197
  18 H :    0.137575
Sum of atomic charges:   -0.0000000

LOEWDIN ATOMIC CHARGES
----------------------
   0 O :    0.031165
   1 C :   -0.326509
   2 C :   -0.217141
   3 C :   -0.227944
   4 C :   -0.187717
   5 C :   -0.139922
   6 C :   -0.137212
   7 C :   -0.119828
   8 C :   -0.133259
   9 H :    0.180139
  10 H :    0.144575
  11 H :    0.137845
  12 H :    0.140702
  13 H :    0.139926
  14 H :    0.158206
  15 H :    0.136383
  16 H :    0.136997
  17 H :    0.144289
  18 H :    0.139303

  Mayer bond orders larger than 0.1
B(  0-O ,  1-C ) :   0.9363 B(  0-O ,  9-H ) :   0.8401 B(  1-C ,  2-C ) :   0.9602
B(  1-C ,  7-C ) :   0.8929 B(  1-C ,  8-C ) :   0.8650 B(  2-C ,  3-C ) :   0.9614
B(  2-C , 10-H ) :   0.9286 B(  2-C , 11-H ) :   0.9127 B(  3-C ,  4-C ) :   0.9407
B(  3-C , 12-H ) :   0.9251 B(  3-C , 13-H ) :   0.9223 B(  4-C ,  5-C ) :   0.8736
B(  4-C ,  6-C ) :   0.8727 B(  4-C , 14-H ) :   0.9434 B(  5-C ,  6-C ) :   0.8595
B(  5-C ,  8-C ) :   0.8449 B(  5-C , 15-H ) :   0.9187 B(  6-C ,  7-C ) :   0.8867
B(  6-C , 16-H ) :   0.9272 B(  7-C ,  8-C ) :   0.8915 B(  7-C , 17-H ) :   0.9254
B(  8-C , 18-H ) :   0.9235

MP2 TOTAL ENERGY:     -385.155936676 Eh
FINAL SINGLE POINT ENERGY      -385.155936675688

DIPOLE MOMENT
-------------
                                X             Y             Z
Electronic contribution:     -2.34365       2.24745       1.02598
Nuclear contribution   :      2.77130      -2.58216      -0.73821
                        -----------------------------------------
Total Dipole Moment    :      0.42765      -0.33472       0.28777
                        -----------------------------------------
Magnitude (a.u.)       :      0.61460
Magnitude (Debye)      :      1.56218

                             ****ORCA TERMINATED NORMALLY****
TOTAL RUN TIME: 0 days 0 hours 18 minutes 25 seconds 420 msec
