                         Program Version 3.0.3 - RELEASE   -
|  1> ! RI-MP2 RIJK def2-TZVP def2-TZVP/C def2-TZVP/JK TIGHTSCF
|  2> % maxcore 2000
|  3> % mp2 density relaxed end
|  4> *xyz 0 1
|  5>  N        0.0762842978    -1.1416749564     0.1393531296
|  6>  C        0.0812361238     0.0099259190     0.0355851422
|  7>  C        0.0583523837     1.4276195971    -0.1376586031
|  8>  C       -0.7180580559     2.2492095829    -1.1872248833
|  9>  C        0.4825177710     3.2302212515    -1.1710301239
| 10>  C        1.0815093715     3.9644485895    -2.2840570000
| 11>  O        0.4159185120     4.6319187447    -1.1984499315
| 12>  C        1.1741801281     2.4121727394    -0.0959399429
| 13>  O        0.2578407986     2.2765776164     0.9943377979
| 14>  H       -0.8512967956     1.7420568942    -2.1444286020
| 15>  H       -1.6680637338     2.6422385619    -0.8227267424
| 16>  H        2.1600021945     4.1083227159    -2.3269871982
| 17>  H        0.5649403975     3.9972752450    -3.2417240184
| 18>  H        2.2277578669     2.2710840789     0.1142106960
| 19> *
| 20>
| 21>                          ****END OF INPUT****

CARTESIAN COORDINATES (ANGSTROEM)
---------------------------------
  N      0.076284   -1.141675    0.139353
  C      0.081236    0.009926    0.035585
  C      0.058352    1.427620   -0.137659
  C     -0.718058    2.249210   -1.187225
  C      0.482518    3.230221   -1.171030
  C      1.081509    3.964449   -2.284057
  O      0.415919    4.631919   -1.198450
  C      1.174180    2.412173   -0.095940
  O      0.257841    2.276578    0.994338
  H     -0.851297    1.742057   -2.144429
  H     -1.668064    2.642239   -0.822727
  H      2.160002    4.108323   -2.326987
  H      0.564940    3.997275   -3.241724
  H      2.227758    2.271084    0.114211

 Total Charge           Charge          ....    0
 Multiplicity           Mult            ....    1
 Number of Electrons    NEL             ....   64
 Basis Dimension        Dim             ....  309

ORBITAL ENERGIES
----------------

  NO   OCC          E(Eh)            E(eV)
   0   2.0000     -20.618246      -561.0510
   1   2.0000     -20.597926      -560.4981
   2   2.0000     -15.595234      -424.3679
   3   2.0000     -11.358195      -309.0722
   4   2.0000     -11.335657      -308.4589
   5   2.0000     -11.332826      -308.3819
   6   2.0000     -11.313091      -307.8449
   7   2.0000     -11.294983      -307.3521
   8   2.0000     -11.277445      -306.8749
   9   2.0000      -1.474321       -40.1183
  10   2.0000      -1.442463       -39.2514
  11   2.0000      -1.237474       -33.6734
  12   2.0000      -1.118246       -30.4290
  13   2.0000      -0.977622       -26.6024
  14   2.0000      -0.937466       -25.5098
  15   2.0000      -0.934220       -25.4214
  16   2.0000      -0.798965       -21.7410
  17   2.0000      -0.778049       -21.1718
  18   2.0000      -0.721584       -19.6353
  19   2.0000      -0.679490       -18.4899
  20   2.0000      -0.646335       -17.5877
  21   2.0000      -0.629087       -17.1183
  22   2.0000      -0.622302       -16.9337
  23   2.0000      -0.583495       -15.8777
  24   2.0000      -0.563033       -15.3209
  25   2.0000      -0.549899       -14.9635
  26   2.0000      -0.522705       -14.2235
  27   2.0000      -0.509769       -13.8715
  28   2.0000      -0.487211       -13.2577
  29   2.0000      -0.463776       -12.6200
  30   2.0000      -0.462930       -12.5970
  31   2.0000      -0.425217       -11.5707
  32   0.0000       0.128440         3.4950
  33   0.0000       0.130721         3.5571
  34   0.0000       0.143166         3.8957
  35   0.0000       0.152201         4.1416
  36   0.0000       0.163065         4.4372

MULLIKEN ATOMIC CHARGES
-----------------------
   0 N :   -0.035873
   1 C :   -0.232438
   2 C :    0.283679
   3 C :   -0.189372
   4 C :    0.154737
   5 C :   -0.103571
   6 O :   -0.317179
   7 C :    0.002880
   8 O :   -0.281399
   9 H :    0.149966
  10 H :    0.143034
  11 H :    0.129461
  12 H :    0.130882
  13 H :    0.165193
Sum of atomic charges:   -0.0000000

LOEWDIN ATOMIC CHARGES
----------------------
   0 N :    0.092666
   1 C :   -0.144349
   2 C :   -0.267294
   3 C :   -0.126223
   4 C :   -0.302570
   5 C :   -0.220587
   6 O :    0.189675
   7 C :   -0.152744
   8 O :    0.236848
   9 H :    0.149367
  10 H :    0.149204
  11 H :    0.125745
  12 H :    0.126175
  13 H :    0.144086

  Mayer bond orders larger than 0.1
B(  0-N ,  1-C ) :   2.8450 B(  1-C ,  2-C ) :   0.9147 B(  2-C ,  3-C ) :   0.9218
B(  2-C ,  7-C ) :   0.8678 B(  2-C ,  8-O ) :   0.9065 B(  3-C ,  4-C ) :   0.9435
B(  3-C ,  9-H ) :   0.9124 B(  3-C , 10-H ) :   0.8863 B(  4-C ,  5-C ) :   0.9696
B(  4-C ,  6-O ) :   0.9061 B(  4-C ,  7-C ) :   0.9128 B(  5-C ,  6-O ) :   0.8894
B(  5-C , 11-H ) :   0.9144 B(  5-C , 12-H ) :   0.9127 B(  7-C ,  8-O ) :   0.8986
B(  7-C , 13-H ) :   0.9108

MP2 TOTAL ENERGY:     -435.896087249 Eh
FINAL SINGLE POINT ENERGY      -435.896087248809

DIPOLE MOMENT
-------------
                                X             Y             Z
Electronic contribution:     -0.29175      -2.89334       4.07199
Nuclear contribution   :      0.74851       3.61465      -5.29519
                        -----------------------------------------
Total Dipole Moment    :      0.45676       0.72131      -1.22319
                        -----------------------------------------
Magnitude (a.u.)       :      1.49168
Magnitude (Debye)      :      3.79156

                             ****ORCA TERMINATED NORMALLY****
TOTAL RUN TIME: 0 days 0 hours 14 minutes 44 seconds 465 msec
