                         Program Version 3.0.3 - RELEASE   -
|  1> ! RI-MP2 RIJK def2-TZVP def2-TZVP/C def2-TZVP/JK TIGHTSCF
|  2> % maxcore 2000
|  3> % mp2 density relaxed end
|  4> *xyz 0 1
|  5>  N        0.1550427793    -1.0861180901     0.2971997414
|  6>  C        0.1068748564     0.0593626742     0.1567363163
|  7>  C        0.0323325743     1.5045095829    -0.0414364994
|  8>  O       -0.3610153652     2.2378179552     1.1452154934
|  9>  C        0.8287539274     3.0531196615     1.1051120224
| 10>  C        2.0149953044     2.4335236720     1.8604687112
| 11>  O        2.4217774483     1.7011382134     0.6671629250
| 12>  C        1.3789582784     2.2816329427    -0.1094463699
| 13>  H       -0.6465969579     1.7254610853    -0.8747029696
| 14>  H        0.6157125421     4.1185724909     1.1865445348
| 15>  H        2.7941969566     3.1398408214     2.1684986271
| 16>  H        1.7446609342     1.7742945249     2.6902322743
| 17>  H        1.7054505117     2.6647830056    -1.0765985071
| 18> *
| 19>
| 20>                          ****END OF INPUT****

CARTESIAN COORDINATES (ANGSTROEM)
---------------------------------
  N      0.155043   -1.086118    0.297200
  C      0.106875    0.059363    0.156736
  C      0.032333    1.504510   -0.041436
  O     -0.361015    2.237818    1.145215
  C      0.828754    3.053120    1.105112
  C      2.014995    2.433524    1.860469
  O      2.421777    1.701138    0.667163
  C      1.378958    2.281633   -0.109446
  H     -0.646597    1.725461   -0.874703
  H      0.615713    4.118572    1.186545
  H      2.794197    3.139841    2.168499
  H      1.744661    1.774295    2.690232
  H      1.705451    2.664783   -1.076599

 Total Charge           Charge          ....    0
 Multiplicity           Mult            ....    1
 Number of Electrons    NEL             ....   58
 Basis Dimension        Dim             ....  278

ORBITAL ENERGIES
----------------

  NO   OCC          E(Eh)            E(eV)
   0   2.0000     -20.595465      -560.4311
   1   2.0000     -20.583269      -560.0992
   2   2.0000     -15.581161      -423.9849
   3   2.0000     -11.351170      -308.8810
   4   2.0000     -11.327846      -308.2464
   5   2.0000     -11.321252      -308.0669
   6   2.0000     -11.306364      -307.6618
   7   2.0000     -11.278465      -306.9026
   8   2.0000      -1.451186       -39.4888
   9   2.0000      -1.386690       -37.7337
  10   2.0000      -1.224326       -33.3156
  11   2.0000      -1.044336       -28.4178
  12   2.0000      -1.018186       -27.7062
  13   2.0000      -0.939737       -25.5715
  14   2.0000      -0.786430       -21.3999
  15   2.0000      -0.762171       -20.7397
  16   2.0000      -0.736565       -20.0430
  17   2.0000      -0.706540       -19.2259
  18   2.0000      -0.647123       -17.6091
  19   2.0000      -0.620303       -16.8793
  20   2.0000      -0.599809       -16.3216
  21   2.0000      -0.576099       -15.6765
  22   2.0000      -0.570943       -15.5361
  23   2.0000      -0.542914       -14.7735
  24   2.0000      -0.481643       -13.1062
  25   2.0000      -0.479784       -13.0556
  26   2.0000      -0.469339       -12.7714
  27   2.0000      -0.462144       -12.5756
  28   2.0000      -0.431261       -11.7352
  29   0.0000       0.124695         3.3931
  30   0.0000       0.132752         3.6124
  31   0.0000       0.147480         4.0131
  32   0.0000       0.163728         4.4553
  33   0.0000       0.176533         4.8037

MULLIKEN ATOMIC CHARGES
-----------------------
   0 N :   -0.043313
   1 C :   -0.189353
   2 C :    0.176783
   3 O :   -0.305771
   4 C :   -0.014297
   5 C :   -0.026445
   6 O :   -0.322542
   7 C :    0.075768
   8 H :    0.138426
   9 H :    0.130810
  10 H :    0.115581
  11 H :    0.126891
  12 H :    0.137462
Sum of atomic charges:   -0.0000000

LOEWDIN ATOMIC CHARGES
----------------------
   0 N :    0.085941
   1 C :   -0.160313
   2 C :   -0.247592
   3 O :    0.176409
   4 C :   -0.240520
   5 C :   -0.229110
   6 O :    0.157143
   7 C :   -0.225396
   8 H :    0.161446
   9 H :    0.132815
  10 H :    0.124765
  11 H :    0.129866
  12 H :    0.134547

  Mayer bond orders larger than 0.1
B(  0-N ,  1-C ) :   2.8297 B(  1-C ,  2-C ) :   0.9365 B(  2-C ,  3-O ) :   0.9357
B(  2-C ,  7-C ) :   0.8868 B(  2-C ,  8-H ) :   0.8934 B(  3-O ,  4-C ) :   0.9578
B(  4-C ,  5-C ) :   0.9474 B(  4-C ,  7-C ) :   0.9626 B(  4-C ,  9-H ) :   0.9206
B(  5-C ,  6-O ) :   0.9057 B(  5-C , 10-H ) :   0.9136 B(  5-C , 11-H ) :   0.9036
B(  6-O ,  7-C ) :   1.0018 B(  7-C , 12-H ) :   0.9131

MP2 TOTAL ENERGY:     -397.899304008 Eh
FINAL SINGLE POINT ENERGY      -397.899304007721

DIPOLE MOMENT
-------------
                                X             Y             Z
Electronic contribution:     -1.70227      -3.35651      -1.05093
Nuclear contribution   :      1.87073       5.26823       0.76507
                        -----------------------------------------
Total Dipole Moment    :      0.16847       1.91172      -0.28586
                        -----------------------------------------
Magnitude (a.u.)       :      1.94030
Magnitude (Debye)      :      4.93186

                             ****ORCA TERMINATED NORMALLY****
TOTAL RUN TIME: 0 days 0 hours 10 minutes 22 seconds 105 msec
