                         Program Version 3.0.3 - RELEASE   -
|  1> ! RI-MP2 RIJK def2-TZVP def2-TZVP/C def2-TZVP/JK TIGHTSCF
|  2> % maxcore 2000
|  3> % mp2 density relaxed end
|  4> *xyz 0 1
|  5>  C        0.0616047210     1.5004413390    -0.2035746197
|  6>  N        0.0369124228     0.0578499624     0.0181744005
|  7>  C       -1.0553682121    -0.4983982858     0.8817071415
|  8>  C       -0.1446384821    -1.7574315633     1.1331864513
|  9>  C       -0.4113572967    -2.2702630519     2.5363814289
| 10>  O        0.5764158518    -1.8601716053     3.5024069228
| 11>  C       -0.5823837409    -1.0296360491     3.2924892686
| 12>  C       -0.3899210110     0.0296105516     2.2186120926
| 13>  C        0.7324094886    -0.4759039132     1.2466810944
| 14>  H        1.0395327520     1.7733317652    -0.6137362943
| 15>  H       -0.6929704677     1.7504836238    -0.9569203127
| 16>  H       -0.1221375669     2.1296470488     0.6812929808
| 17>  H       -2.1061483984    -0.4680590236     0.5824792558
| 18>  H        0.0372780384    -2.4368151306     0.3036010178
| 19>  H       -0.9259152135    -3.2026031442     2.7417485679
| 20>  H       -1.2429639817    -0.9049244188     4.1442071812
| 21>  H       -0.4540183755     1.0795262111     2.4922276396
| 22>  H        1.8122232519    -0.4192984462     1.3813435631
| 23> *
| 24>
| 25>                          ****END OF INPUT****

CARTESIAN COORDINATES (ANGSTROEM)
---------------------------------
  C      0.061605    1.500441   -0.203575
  N      0.036912    0.057850    0.018174
  C     -1.055368   -0.498398    0.881707
  C     -0.144638   -1.757432    1.133186
  C     -0.411357   -2.270263    2.536381
  O      0.576416   -1.860172    3.502407
  C     -0.582384   -1.029636    3.292489
  C     -0.389921    0.029611    2.218612
  C      0.732409   -0.475904    1.246681
  H      1.039533    1.773332   -0.613736
  H     -0.692970    1.750484   -0.956920
  H     -0.122138    2.129647    0.681293
  H     -2.106148   -0.468059    0.582479
  H      0.037278   -2.436815    0.303601
  H     -0.925915   -3.202603    2.741749
  H     -1.242964   -0.904924    4.144207
  H     -0.454018    1.079526    2.492228
  H      1.812223   -0.419298    1.381344

 Total Charge           Charge          ....    0
 Multiplicity           Mult            ....    1
 Number of Electrons    NEL             ....   66
 Basis Dimension        Dim             ....  333

ORBITAL ENERGIES
----------------

  NO   OCC          E(Eh)            E(eV)
   0   2.0000     -20.566455      -559.6417
   1   2.0000     -15.553725      -423.2384
   2   2.0000     -11.284380      -307.0636
   3   2.0000     -11.283205      -307.0316
   4   2.0000     -11.281206      -306.9772
   5   2.0000     -11.276662      -306.8536
   6   2.0000     -11.246483      -306.0324
   7   2.0000     -11.244941      -305.9904
   8   2.0000     -11.240786      -305.8773
   9   2.0000      -1.411045       -38.3965
  10   2.0000      -1.290940       -35.1283
  11   2.0000      -1.089892       -29.6575
  12   2.0000      -0.963843       -26.2275
  13   2.0000      -0.946636       -25.7593
  14   2.0000      -0.879059       -23.9204
  15   2.0000      -0.850723       -23.1493
  16   2.0000      -0.790802       -21.5188
  17   2.0000      -0.724974       -19.7275
  18   2.0000      -0.715277       -19.4637
  19   2.0000      -0.690152       -18.7800
  20   2.0000      -0.627488       -17.0748
  21   2.0000      -0.594681       -16.1821
  22   2.0000      -0.591550       -16.0969
  23   2.0000      -0.563432       -15.3318
  24   2.0000      -0.555605       -15.1188
  25   2.0000      -0.517572       -14.0838
  26   2.0000      -0.510930       -13.9031
  27   2.0000      -0.482962       -13.1421
  28   2.0000      -0.458316       -12.4714
  29   2.0000      -0.440544       -11.9878
  30   2.0000      -0.434735       -11.8297
  31   2.0000      -0.401891       -10.9360
  32   2.0000      -0.362037        -9.8515
  33   0.0000       0.145497         3.9592
  34   0.0000       0.156251         4.2518
  35   0.0000       0.169254         4.6056
  36   0.0000       0.171192         4.6584
  37   0.0000       0.190658         5.1881

MULLIKEN ATOMIC CHARGES
-----------------------
   0 C :   -0.320534
   1 N :   -0.201899
   2 C :   -0.079194
   3 C :   -0.029175
   4 C :   -0.045643
   5 O :   -0.324206
   6 C :   -0.023495
   7 C :   -0.099874
   8 C :   -0.038623
   9 H :    0.139914
  10 H :    0.137992
  11 H :    0.097382
  12 H :    0.128623
  13 H :    0.135409
  14 H :    0.125852
  15 H :    0.124587
  16 H :    0.136124
  17 H :    0.136761
Sum of atomic charges:   -0.0000000

LOEWDIN ATOMIC CHARGES
----------------------
   0 C :   -0.338744
   1 N :    0.096037
   2 C :   -0.151041
   3 C :   -0.143881
   4 C :   -0.232365
   5 O :    0.163844
   6 C :   -0.234426
   7 C :   -0.154493
   8 C :   -0.150328
   9 H :    0.119179
  10 H :    0.118549
  11 H :    0.101599
  12 H :    0.124028
  13 H :    0.144140
  14 H :    0.135848
  15 H :    0.134813
  16 H :    0.137136
  17 H :    0.130104

  Mayer bond orders larger than 0.1
B(  0-C ,  1-N ) :   0.9023 B(  0-C ,  9-H ) :   0.9397 B(  0-C , 10-H ) :   0.9395
B(  0-C , 11-H ) :   0.9191 B(  1-N ,  2-C ) :   0.8892 B(  1-N ,  8-C ) :   0.8914
B(  2-C ,  3-C ) :   0.8742 B(  2-C ,  7-C ) :   0.8637 B(  2-C , 12-H ) :   0.8900
B(  3-C ,  4-C ) :   0.8740 B(  3-C ,  8-C ) :   0.9111 B(  3-C , 13-H ) :   0.9034
B(  4-C ,  5-O ) :   0.9570 B(  4-C ,  6-C ) :   0.9764 B(  4-C , 14-H ) :   0.9341
B(  5-O ,  6-C ) :   0.9528 B(  6-C ,  7-C ) :   0.8809 B(  6-C , 15-H ) :   0.9294
B(  7-C ,  8-C ) :   0.9094 B(  7-C , 16-H ) :   0.9141 B(  8-C , 17-H ) :   0.8814

MP2 TOTAL ENERGY:     -401.155039515 Eh
FINAL SINGLE POINT ENERGY      -401.155039514789

DIPOLE MOMENT
-------------
                                X             Y             Z
Electronic contribution:      0.79294      -4.70354       3.62824
Nuclear contribution   :     -1.49034       5.07122      -3.63766
                        -----------------------------------------
Total Dipole Moment    :     -0.69740       0.36768      -0.00943
                        -----------------------------------------
Magnitude (a.u.)       :      0.78845
Magnitude (Debye)      :      2.00407

                             ****ORCA TERMINATED NORMALLY****
TOTAL RUN TIME: 0 days 0 hours 18 minutes 29 seconds 326 msec
