                         Program Version 3.0.3 - RELEASE   -
|  1> ! RI-MP2 RIJK def2-TZVP def2-TZVP/C def2-TZVP/JK TIGHTSCF
|  2> % maxcore 2000
|  3> % mp2 density relaxed end
|  4> *xyz 0 1
|  5>  C        0.0261202517     1.3729465373    -0.4454865341
|  6>  C        0.0162701096     0.0196212089     0.2661352815
|  7>  O        0.5525797013     0.1062965670     1.5848686721
|  8>  C       -1.3677524411    -0.6326535486     0.2811839756
|  9>  C       -2.4414406038     0.1336672729     1.0314246101
| 10>  N       -1.7322374473    -1.2786321377    -0.9961628222
| 11>  C       -1.5224388630    -2.1138164174     0.2102435422
| 12>  C       -0.4189688204    -3.1412320649     0.0988405166
| 13>  O       -0.7706183107    -4.1446988325    -0.8414783955
| 14>  H        1.0469937980     1.7614649140    -0.4931178964
| 15>  H       -0.3593535276     1.2719359034    -1.4640272351
| 16>  H       -0.5918003690     2.1111803000     0.0797628377
| 17>  H        0.6936159643    -0.6457009587    -0.2742589658
| 18>  H        0.1825620033     0.8887802699     2.0060124761
| 19>  H       -2.6447002841     1.1061323297     0.5699075050
| 20>  H       -3.3799981758    -0.4282981701     1.0527262559
| 21>  H       -2.1400968127     0.3071106028     2.0699737000
| 22>  H       -2.7258127302    -1.1638254608    -1.1806647740
| 23>  H       -2.4227990207    -2.5086983895     0.6798443103
| 24>  H        0.5363373752    -2.6707002389    -0.1664252605
| 25>  H       -0.2809900369    -3.6489637776     1.0588543098
| 26>  H       -0.9701796900    -3.6748920692    -1.6601368393
| 27> *
| 28>
| 29>                          ****END OF INPUT****

CARTESIAN COORDINATES (ANGSTROEM)
---------------------------------
  C      0.026120    1.372947   -0.445487
  C      0.016270    0.019621    0.266135
  O      0.552580    0.106297    1.584869
  C     -1.367752   -0.632654    0.281184
  C     -2.441441    0.133667    1.031425
  N     -1.732237   -1.278632   -0.996163
  C     -1.522439   -2.113816    0.210244
  C     -0.418969   -3.141232    0.098841
  O     -0.770618   -4.144699   -0.841478
  H      1.046994    1.761465   -0.493118
  H     -0.359354    1.271936   -1.464027
  H     -0.591800    2.111180    0.079763
  H      0.693616   -0.645701   -0.274259
  H      0.182562    0.888780    2.006012
  H     -2.644700    1.106132    0.569908
  H     -3.379998   -0.428298    1.052726
  H     -2.140097    0.307111    2.069974
  H     -2.725813   -1.163825   -1.180665
  H     -2.422799   -2.508698    0.679844
  H      0.536337   -2.670700   -0.166425
  H     -0.280990   -3.648964    1.058854
  H     -0.970180   -3.674892   -1.660137

 Total Charge           Charge          ....    0
 Multiplicity           Mult            ....    1
 Number of Electrons    NEL             ....   72
 Basis Dimension        Dim             ....  357

ORBITAL ENERGIES
----------------

  NO   OCC          E(Eh)            E(eV)
   0   2.0000     -20.559081      -559.4410
   1   2.0000     -20.547143      -559.1162
   2   2.0000     -15.563383      -423.5012
   3   2.0000     -11.285532      -307.0949
   4   2.0000     -11.273789      -306.7754
   5   2.0000     -11.271457      -306.7119
   6   2.0000     -11.260896      -306.4245
   7   2.0000     -11.234685      -305.7113
   8   2.0000     -11.223219      -305.3993
   9   2.0000      -1.366164       -37.1752
  10   2.0000      -1.353690       -36.8358
  11   2.0000      -1.268836       -34.5268
  12   2.0000      -1.036461       -28.2035
  13   2.0000      -0.988404       -26.8958
  14   2.0000      -0.968793       -26.3622
  15   2.0000      -0.887822       -24.1589
  16   2.0000      -0.828685       -22.5497
  17   2.0000      -0.767249       -20.8779
  18   2.0000      -0.706422       -19.2227
  19   2.0000      -0.688478       -18.7344
  20   2.0000      -0.653337       -17.7782
  21   2.0000      -0.634965       -17.2783
  22   2.0000      -0.626559       -17.0495
  23   2.0000      -0.599280       -16.3073
  24   2.0000      -0.592744       -16.1294
  25   2.0000      -0.572181       -15.5698
  26   2.0000      -0.556875       -15.1533
  27   2.0000      -0.538096       -14.6423
  28   2.0000      -0.531153       -14.4534
  29   2.0000      -0.507414       -13.8074
  30   2.0000      -0.493436       -13.4271
  31   2.0000      -0.480832       -13.0841
  32   2.0000      -0.458827       -12.4853
  33   2.0000      -0.450404       -12.2561
  34   2.0000      -0.432706       -11.7745
  35   2.0000      -0.391209       -10.6453
  36   0.0000       0.121692         3.3114
  37   0.0000       0.145938         3.9712
  38   0.0000       0.162740         4.4284
  39   0.0000       0.172796         4.7020
  40   0.0000       0.177939         4.8420

MULLIKEN ATOMIC CHARGES
-----------------------
   0 C :   -0.455113
   1 C :    0.121340
   2 O :   -0.474007
   3 C :    0.194877
   4 C :   -0.453020
   5 N :   -0.430407
   6 C :   -0.164542
   7 C :    0.008745
   8 O :   -0.478107
   9 H :    0.152591
  10 H :    0.149593
  11 H :    0.120948
  12 H :    0.092937
  13 H :    0.314889
  14 H :    0.148015
  15 H :    0.135242
  16 H :    0.137342
  17 H :    0.221517
  18 H :    0.119863
  19 H :    0.103080
  20 H :    0.111636
  21 H :    0.322581
Sum of atomic charges:    0.0000000

LOEWDIN ATOMIC CHARGES
----------------------
   0 C :   -0.298057
   1 C :   -0.334010
   2 O :   -0.015776
   3 C :   -0.296144
   4 C :   -0.276403
   5 N :    0.017166
   6 C :   -0.247828
   7 C :   -0.326564
   8 O :   -0.049490
   9 H :    0.127765
  10 H :    0.133864
  11 H :    0.119474
  12 H :    0.149062
  13 H :    0.171552
  14 H :    0.127129
  15 H :    0.130149
  16 H :    0.130628
  17 H :    0.166105
  18 H :    0.141893
  19 H :    0.120038
  20 H :    0.132889
  21 H :    0.176557

  Mayer bond orders larger than 0.1
B(  0-C ,  1-C ) :   0.9352 B(  0-C ,  9-H ) :   0.9431 B(  0-C , 10-H ) :   0.9343
B(  0-C , 11-H ) :   0.9233 B(  1-C ,  2-O ) :   0.9357 B(  1-C ,  3-C ) :   0.8590
B(  1-C , 12-H ) :   0.9351 B(  2-O , 13-H ) :   0.8426 B(  3-C ,  4-C ) :   0.8908
B(  3-C ,  5-N ) :   0.8620 B(  3-C ,  6-C ) :   0.8561 B(  4-C , 14-H ) :   0.9383
B(  4-C , 15-H ) :   0.9270 B(  4-C , 16-H ) :   0.9370 B(  5-N ,  6-C ) :   0.9175
B(  5-N , 17-H ) :   0.8663 B(  6-C ,  7-C ) :   0.9449 B(  6-C , 18-H ) :   0.9248
B(  7-C ,  8-O ) :   0.8963 B(  7-C , 19-H ) :   0.9203 B(  7-C , 20-H ) :   0.9306
B(  8-O , 21-H ) :   0.8377

MP2 TOTAL ENERGY:     -440.749611008 Eh
FINAL SINGLE POINT ENERGY      -440.749611007588

DIPOLE MOMENT
-------------
                                X             Y             Z
Electronic contribution:      1.25827      -5.16507      -0.35254
Nuclear contribution   :     -2.05394       6.35460       0.50564
                        -----------------------------------------
Total Dipole Moment    :     -0.79567       1.18952       0.15310
                        -----------------------------------------
Magnitude (a.u.)       :      1.43927
Magnitude (Debye)      :      3.65834

                             ****ORCA TERMINATED NORMALLY****
TOTAL RUN TIME: 0 days 0 hours 18 minutes 6 seconds 98 msec
