                         Program Version 3.0.3 - RELEASE   -
|  1> ! RI-MP2 RIJK def2-TZVP def2-TZVP/C def2-TZVP/JK TIGHTSCF
|  2> % maxcore 2000
|  3> % mp2 density relaxed end
|  4> *xyz 0 1
|  5>  C       -0.0095172347     1.5463276232    -0.2479054610
|  6>  C        0.0126457232     0.0507818659     0.0984051958
|  7>  C       -1.3592280260    -0.5642062917     0.1264861278
|  8>  C       -2.4192559442    -0.3513585910     1.2209701823
|  9>  N       -2.9660480916    -1.7354179545     0.9929481076
| 10>  C       -1.8795090191    -1.9846084631     0.0355880407
| 11>  C       -2.0523682306    -1.0542923418    -1.1483202049
| 12>  C       -3.3356594373    -0.5759607970    -1.5864123997
| 13>  N       -4.3549629586    -0.1677061298    -1.9504192932
| 14>  H        1.0026183501     1.9612101782    -0.2552730855
| 15>  H       -0.4531656514     1.7151227316    -1.2340983499
| 16>  H       -0.5974520692     2.1130204646     0.4814220876
| 17>  H        0.6339462087    -0.4883730085    -0.6275632481
| 18>  H        0.4897490325    -0.0949236949     1.0765417275
| 19>  H       -1.9519237690    -0.2366543017     2.2041416627
| 20>  H       -3.1565487805     0.4428198649     1.0706589946
| 21>  H       -2.8588930306    -2.3063670099     1.8240198625
| 22>  H       -1.3811020512    -2.9425531011    -0.0623584728
| 23>  H       -1.3514939404    -1.2400662236    -1.9576572540
| 24> *
| 25>
| 26>                          ****END OF INPUT****

CARTESIAN COORDINATES (ANGSTROEM)
---------------------------------
  C     -0.009517    1.546328   -0.247905
  C      0.012646    0.050782    0.098405
  C     -1.359228   -0.564206    0.126486
  C     -2.419256   -0.351359    1.220970
  N     -2.966048   -1.735418    0.992948
  C     -1.879509   -1.984608    0.035588
  C     -2.052368   -1.054292   -1.148320
  C     -3.335659   -0.575961   -1.586412
  N     -4.354963   -0.167706   -1.950419
  H      1.002618    1.961210   -0.255273
  H     -0.453166    1.715123   -1.234098
  H     -0.597452    2.113020    0.481422
  H      0.633946   -0.488373   -0.627563
  H      0.489749   -0.094924    1.076542
  H     -1.951924   -0.236654    2.204142
  H     -3.156549    0.442820    1.070659
  H     -2.858893   -2.306367    1.824020
  H     -1.381102   -2.942553   -0.062358
  H     -1.351494   -1.240066   -1.957657

 Total Charge           Charge          ....    0
 Multiplicity           Mult            ....    1
 Number of Electrons    NEL             ....   66
 Basis Dimension        Dim             ....  339

ORBITAL ENERGIES
----------------

  NO   OCC          E(Eh)            E(eV)
   0   2.0000     -15.563867      -423.5144
   1   2.0000     -15.556310      -423.3087
   2   2.0000     -11.292811      -307.2930
   3   2.0000     -11.279421      -306.9286
   4   2.0000     -11.272798      -306.7484
   5   2.0000     -11.268716      -306.6374
   6   2.0000     -11.262757      -306.4752
   7   2.0000     -11.247496      -306.0599
   8   2.0000     -11.229319      -305.5653
   9   2.0000      -1.287205       -35.0266
  10   2.0000      -1.202881       -32.7320
  11   2.0000      -1.110823       -30.2270
  12   2.0000      -1.046573       -28.4787
  13   2.0000      -0.949325       -25.8325
  14   2.0000      -0.900964       -24.5165
  15   2.0000      -0.862919       -23.4812
  16   2.0000      -0.754392       -20.5281
  17   2.0000      -0.729179       -19.8420
  18   2.0000      -0.687278       -18.7018
  19   2.0000      -0.641081       -17.4447
  20   2.0000      -0.617791       -16.8109
  21   2.0000      -0.609020       -16.5723
  22   2.0000      -0.567540       -15.4435
  23   2.0000      -0.557954       -15.1827
  24   2.0000      -0.540627       -14.7112
  25   2.0000      -0.536491       -14.5986
  26   2.0000      -0.519726       -14.1425
  27   2.0000      -0.512615       -13.9490
  28   2.0000      -0.489767       -13.3272
  29   2.0000      -0.460601       -12.5336
  30   2.0000      -0.440641       -11.9904
  31   2.0000      -0.403830       -10.9888
  32   2.0000      -0.370723       -10.0879
  33   0.0000       0.116724         3.1762
  34   0.0000       0.132694         3.6108
  35   0.0000       0.147616         4.0168
  36   0.0000       0.157620         4.2891
  37   0.0000       0.177287         4.8242

MULLIKEN ATOMIC CHARGES
-----------------------
   0 C :   -0.401045
   1 C :   -0.207577
   2 C :   -0.000757
   3 C :   -0.135124
   4 N :   -0.337898
   5 C :   -0.005355
   6 C :   -0.093193
   7 C :   -0.178561
   8 N :   -0.054556
   9 H :    0.139158
  10 H :    0.138590
  11 H :    0.131446
  12 H :    0.114218
  13 H :    0.116948
  14 H :    0.130680
  15 H :    0.134556
  16 H :    0.211519
  17 H :    0.141865
  18 H :    0.155086
Sum of atomic charges:    0.0000000

LOEWDIN ATOMIC CHARGES
----------------------
   0 C :   -0.304843
   1 C :   -0.256687
   2 C :   -0.184595
   3 C :   -0.202342
   4 N :    0.001329
   5 C :   -0.177868
   6 C :   -0.165204
   7 C :   -0.172602
   8 N :    0.061896
   9 H :    0.122834
  10 H :    0.125916
  11 H :    0.124093
  12 H :    0.144125
  13 H :    0.142984
  14 H :    0.130642
  15 H :    0.130654
  16 H :    0.165868
  17 H :    0.136553
  18 H :    0.177245

  Mayer bond orders larger than 0.1
B(  0-C ,  1-C ) :   0.9279 B(  0-C ,  9-H ) :   0.9379 B(  0-C , 10-H ) :   0.9365
B(  0-C , 11-H ) :   0.9362 B(  1-C ,  2-C ) :   0.8985 B(  1-C , 12-H ) :   0.9262
B(  1-C , 13-H ) :   0.9276 B(  2-C ,  3-C ) :   0.9506 B(  2-C ,  5-C ) :   0.8540
B(  2-C ,  6-C ) :   0.8289 B(  3-C ,  4-N ) :   0.9241 B(  3-C , 14-H ) :   0.9238
B(  3-C , 15-H ) :   0.9102 B(  4-N ,  5-C ) :   1.0102 B(  4-N , 16-H ) :   0.8745
B(  5-C ,  6-C ) :   0.8446 B(  5-C , 17-H ) :   0.9089 B(  6-C ,  7-C ) :   0.9897
B(  6-C , 18-H ) :   0.9146 B(  7-C ,  8-N ) :   2.8486

MP2 TOTAL ENERGY:     -381.361768248 Eh
FINAL SINGLE POINT ENERGY      -381.361768247987

DIPOLE MOMENT
-------------
                                X             Y             Z
Electronic contribution:     -7.74978      -4.23396      -3.54858
Nuclear contribution   :      9.75756       3.82095       4.58083
                        -----------------------------------------
Total Dipole Moment    :      2.00778      -0.41301       1.03225
                        -----------------------------------------
Magnitude (a.u.)       :      2.29506
Magnitude (Debye)      :      5.83358

                             ****ORCA TERMINATED NORMALLY****
TOTAL RUN TIME: 0 days 0 hours 18 minutes 56 seconds 540 msec
