                         Program Version 3.0.3 - RELEASE   -
|  1> ! RI-MP2 RIJK def2-TZVP def2-TZVP/C def2-TZVP/JK TIGHTSCF
|  2> % maxcore 2000
|  3> % mp2 density relaxed end
|  4> *xyz 0 1
|  5>  N       -0.0290014257    -1.1070005839     0.1050808828
|  6>  C       -0.0195796785     0.0481040300     0.0736871182
|  7>  C        0.0188020272     1.4906527914    -0.0055520543
|  8>  C       -0.8595762210     2.2424855949    -1.0348367095
|  9>  C       -0.1180760184     3.5767698465    -0.8212451948
| 10>  C        1.3020369316     3.2314217760    -1.3450269879
| 11>  C        1.3737140540     2.3232574831    -0.1099164787
| 12>  C        0.4275562952     3.2672404598     0.6583967497
| 13>  O       -0.3319254549     2.1908207038     1.2253779605
| 14>  H       -0.7800912418     1.8673231412    -2.0574013667
| 15>  H       -1.9003519872     2.2322877407    -0.7085556685
| 16>  H       -0.6279974504     4.5010646486    -1.0822414736
| 17>  H        1.3862986866     2.7957172496    -2.3438861582
| 18>  H        2.0059576598     4.0621788076    -1.2438947341
| 19>  H        2.2710290044     1.8732237630     0.3080431963
| 20>  H        0.7001797290     4.0660001077     1.3434986887
| 21> *
| 22>
| 23>                          ****END OF INPUT****

CARTESIAN COORDINATES (ANGSTROEM)
---------------------------------
  N     -0.029001   -1.107001    0.105081
  C     -0.019580    0.048104    0.073687
  C      0.018802    1.490653   -0.005552
  C     -0.859576    2.242486   -1.034837
  C     -0.118076    3.576770   -0.821245
  C      1.302037    3.231422   -1.345027
  C      1.373714    2.323257   -0.109916
  C      0.427556    3.267240    0.658397
  O     -0.331925    2.190821    1.225378
  H     -0.780091    1.867323   -2.057401
  H     -1.900352    2.232288   -0.708556
  H     -0.627997    4.501065   -1.082241
  H      1.386299    2.795717   -2.343886
  H      2.005958    4.062179   -1.243895
  H      2.271029    1.873224    0.308043
  H      0.700180    4.066000    1.343499

 Total Charge           Charge          ....    0
 Multiplicity           Mult            ....    1
 Number of Electrons    NEL             ....   64
 Basis Dimension        Dim             ....  321

ORBITAL ENERGIES
----------------

  NO   OCC          E(Eh)            E(eV)
   0   2.0000     -20.581142      -560.0414
   1   2.0000     -15.581732      -424.0005
   2   2.0000     -11.347830      -308.7902
   3   2.0000     -11.312148      -307.8192
   4   2.0000     -11.279053      -306.9186
   5   2.0000     -11.268744      -306.6381
   6   2.0000     -11.262881      -306.4786
   7   2.0000     -11.255467      -306.2768
   8   2.0000     -11.252315      -306.1910
   9   2.0000      -1.428094       -38.8604
  10   2.0000      -1.225141       -33.3378
  11   2.0000      -1.177780       -32.0490
  12   2.0000      -1.030823       -28.0501
  13   2.0000      -0.979018       -26.6404
  14   2.0000      -0.909579       -24.7509
  15   2.0000      -0.832825       -22.6623
  16   2.0000      -0.782718       -21.2988
  17   2.0000      -0.742017       -20.1913
  18   2.0000      -0.683379       -18.5957
  19   2.0000      -0.656984       -17.8774
  20   2.0000      -0.639664       -17.4061
  21   2.0000      -0.595694       -16.2097
  22   2.0000      -0.577097       -15.7036
  23   2.0000      -0.554720       -15.0947
  24   2.0000      -0.528350       -14.3771
  25   2.0000      -0.524311       -14.2672
  26   2.0000      -0.514344       -13.9960
  27   2.0000      -0.485617       -13.2143
  28   2.0000      -0.471738       -12.8367
  29   2.0000      -0.462604       -12.5881
  30   2.0000      -0.434618       -11.8266
  31   2.0000      -0.426577       -11.6078
  32   0.0000       0.128941         3.5087
  33   0.0000       0.139621         3.7993
  34   0.0000       0.151652         4.1267
  35   0.0000       0.158006         4.2996
  36   0.0000       0.170993         4.6530

MULLIKEN ATOMIC CHARGES
-----------------------
   0 N :   -0.027595
   1 C :   -0.237677
   2 C :    0.276436
   3 C :   -0.249986
   4 C :   -0.062059
   5 C :   -0.271658
   6 C :   -0.077955
   7 C :   -0.040132
   8 O :   -0.291346
   9 H :    0.137203
  10 H :    0.142127
  11 H :    0.146140
  12 H :    0.129943
  13 H :    0.131842
  14 H :    0.151045
  15 H :    0.143672
Sum of atomic charges:   -0.0000000

LOEWDIN ATOMIC CHARGES
----------------------
   0 N :    0.087419
   1 C :   -0.137063
   2 C :   -0.264284
   3 C :   -0.165812
   4 C :   -0.176583
   5 C :   -0.202486
   6 C :   -0.123558
   7 C :   -0.202897
   8 O :    0.202865
   9 H :    0.145460
  10 H :    0.147934
  11 H :    0.135636
  12 H :    0.130717
  13 H :    0.145016
  14 H :    0.142865
  15 H :    0.134773

  Mayer bond orders larger than 0.1
B(  0-N ,  1-C ) :   2.8828 B(  1-C ,  2-C ) :   0.8340 B(  2-C ,  3-C ) :   0.9430
B(  2-C ,  6-C ) :   0.8313 B(  2-C ,  8-O ) :   0.9166 B(  3-C ,  4-C ) :   0.9001
B(  3-C ,  9-H ) :   0.9232 B(  3-C , 10-H ) :   0.9216 B(  4-C ,  5-C ) :   0.9179
B(  4-C ,  7-C ) :   0.8460 B(  4-C , 11-H ) :   0.9109 B(  5-C ,  6-C ) :   0.9235
B(  5-C , 12-H ) :   0.9183 B(  5-C , 13-H ) :   0.9267 B(  6-C ,  7-C ) :   0.9346
B(  6-C , 14-H ) :   0.9122 B(  7-C ,  8-O ) :   0.9436 B(  7-C , 15-H ) :   0.9126

MP2 TOTAL ENERGY:     -400.029190048 Eh
FINAL SINGLE POINT ENERGY      -400.029190047653

DIPOLE MOMENT
-------------
                                X             Y             Z
Electronic contribution:     -1.18439      -5.57787       3.83429
Nuclear contribution   :      1.61662       7.29738      -4.54912
                        -----------------------------------------
Total Dipole Moment    :      0.43223       1.71952      -0.71482
                        -----------------------------------------
Magnitude (a.u.)       :      1.91168
Magnitude (Debye)      :      4.85911

                             ****ORCA TERMINATED NORMALLY****
TOTAL RUN TIME: 0 days 0 hours 17 minutes 41 seconds 919 msec
