                         Program Version 3.0.3 - RELEASE   -
|  1> ! RI-MP2 RIJK def2-TZVP def2-TZVP/C def2-TZVP/JK TIGHTSCF
|  2> % maxcore 2000
|  3> % mp2 density relaxed end
|  4> *xyz 0 1
|  5>  C       -0.4273170226     1.4443990615     0.0065802633
|  6>  C       -0.0085276367    -0.0390081116     0.0324729671
|  7>  C       -1.2024438824    -0.9420933233     0.3636792774
|  8>  C        0.5659235814    -0.4274052503    -1.3393442176
|  9>  O       -0.1601378634    -0.9180288409    -2.1911278796
| 10>  N        1.8966402044    -0.1823613591    -1.5894580045
| 11>  C        2.4414536857    -0.5420391479    -2.8890021659
| 12>  C        2.8492266232     0.4254155043    -0.6822055156
| 13>  H        0.4187300719     2.1116659868    -0.1854532275
| 14>  H       -1.1699272947     1.6107794204    -0.7801476964
| 15>  H       -0.8743969870     1.7327640867     0.9630689357
| 16>  H        0.7478423003    -0.1780386478     0.8115143261
| 17>  H       -1.9638951704    -0.8664583302    -0.4149583906
| 18>  H       -0.9008273680    -1.9913401355     0.4289510800
| 19>  H       -1.6411289365    -0.6501962015     1.3231857478
| 20>  H        2.8131689472     0.3478295626    -3.4135301044
| 21>  H        3.2784153286    -1.2426347184    -2.7734807919
| 22>  H        1.6517031139    -1.0065106743    -3.4758645521
| 23>  H        2.3757426784     0.7575275034     0.2380023318
| 24>  H        3.6516799525    -0.2793856813    -0.4231557142
| 25>  H        3.3174659341     1.2997042065    -1.1539197189
| 26> *
| 27>
| 28>                          ****END OF INPUT****

CARTESIAN COORDINATES (ANGSTROEM)
---------------------------------
  C     -0.427317    1.444399    0.006580
  C     -0.008528   -0.039008    0.032473
  C     -1.202444   -0.942093    0.363679
  C      0.565924   -0.427405   -1.339344
  O     -0.160138   -0.918029   -2.191128
  N      1.896640   -0.182361   -1.589458
  C      2.441454   -0.542039   -2.889002
  C      2.849227    0.425416   -0.682206
  H      0.418730    2.111666   -0.185453
  H     -1.169927    1.610779   -0.780148
  H     -0.874397    1.732764    0.963069
  H      0.747842   -0.178039    0.811514
  H     -1.963895   -0.866458   -0.414958
  H     -0.900827   -1.991340    0.428951
  H     -1.641129   -0.650196    1.323186
  H      2.813169    0.347830   -3.413530
  H      3.278415   -1.242635   -2.773481
  H      1.651703   -1.006511   -3.475865
  H      2.375743    0.757528    0.238002
  H      3.651680   -0.279386   -0.423156
  H      3.317466    1.299704   -1.153920

 Total Charge           Charge          ....    0
 Multiplicity           Mult            ....    1
 Number of Electrons    NEL             ....   64
 Basis Dimension        Dim             ....  326

ORBITAL ENERGIES
----------------

  NO   OCC          E(Eh)            E(eV)
   0   2.0000     -20.504057      -557.9438
   1   2.0000     -15.582489      -424.0211
   2   2.0000     -11.339402      -308.5608
   3   2.0000     -11.268744      -306.6381
   4   2.0000     -11.249113      -306.1039
   5   2.0000     -11.242184      -305.9154
   6   2.0000     -11.225146      -305.4518
   7   2.0000     -11.209538      -305.0270
   8   2.0000      -1.372609       -37.3506
   9   2.0000      -1.238750       -33.7081
  10   2.0000      -1.077355       -29.3163
  11   2.0000      -0.971769       -26.4432
  12   2.0000      -0.939507       -25.5653
  13   2.0000      -0.932072       -25.3630
  14   2.0000      -0.830822       -22.6078
  15   2.0000      -0.725274       -19.7357
  16   2.0000      -0.694433       -18.8965
  17   2.0000      -0.652504       -17.7556
  18   2.0000      -0.647999       -17.6329
  19   2.0000      -0.609923       -16.5968
  20   2.0000      -0.591105       -16.0848
  21   2.0000      -0.568500       -15.4697
  22   2.0000      -0.564669       -15.3654
  23   2.0000      -0.556287       -15.1373
  24   2.0000      -0.542298       -14.7567
  25   2.0000      -0.530280       -14.4297
  26   2.0000      -0.513079       -13.9616
  27   2.0000      -0.508245       -13.8301
  28   2.0000      -0.481994       -13.1157
  29   2.0000      -0.475894       -12.9497
  30   2.0000      -0.408199       -11.1077
  31   2.0000      -0.368831       -10.0364
  32   0.0000       0.123945         3.3727
  33   0.0000       0.154114         4.1936
  34   0.0000       0.165190         4.4951
  35   0.0000       0.172662         4.6984
  36   0.0000       0.184496         5.0204

MULLIKEN ATOMIC CHARGES
-----------------------
   0 C :   -0.415124
   1 C :   -0.051808
   2 C :   -0.388060
   3 C :    0.221210
   4 O :   -0.390950
   5 N :   -0.107574
   6 C :   -0.322466
   7 C :   -0.323788
   8 H :    0.128310
   9 H :    0.146856
  10 H :    0.134544
  11 H :    0.091677
  12 H :    0.147866
  13 H :    0.128940
  14 H :    0.124628
  15 H :    0.129347
  16 H :    0.128917
  17 H :    0.185483
  18 H :    0.151187
  19 H :    0.140193
  20 H :    0.140610
Sum of atomic charges:    0.0000000

LOEWDIN ATOMIC CHARGES
----------------------
   0 C :   -0.286066
   1 C :   -0.278354
   2 C :   -0.286951
   3 C :   -0.410235
   4 O :    0.076083
   5 N :    0.143748
   6 C :   -0.290947
   7 C :   -0.299025
   8 H :    0.120819
   9 H :    0.131682
  10 H :    0.124440
  11 H :    0.148397
  12 H :    0.131436
  13 H :    0.125465
  14 H :    0.120914
  15 H :    0.115752
  16 H :    0.116302
  17 H :    0.135357
  18 H :    0.123910
  19 H :    0.117937
  20 H :    0.119336

  Mayer bond orders larger than 0.1
B(  0-C ,  1-C ) :   0.8901 B(  0-C ,  8-H ) :   0.9339 B(  0-C ,  9-H ) :   0.9340
B(  0-C , 10-H ) :   0.9367 B(  1-C ,  2-C ) :   0.9249 B(  1-C ,  3-C ) :   0.8943
B(  1-C , 11-H ) :   0.9243 B(  2-C , 12-H ) :   0.9317 B(  2-C , 13-H ) :   0.9374
B(  2-C , 14-H ) :   0.9389 B(  3-C ,  4-O ) :   1.8728 B(  3-C ,  5-N ) :   1.1922
B(  5-N ,  6-C ) :   0.8699 B(  5-N ,  7-C ) :   0.8907 B(  6-C , 15-H ) :   0.9339
B(  6-C , 16-H ) :   0.9318 B(  6-C , 17-H ) :   0.9212 B(  7-C , 18-H ) :   0.9310
B(  7-C , 19-H ) :   0.9311 B(  7-C , 20-H ) :   0.9326

MP2 TOTAL ENERGY:     -365.674074417 Eh
FINAL SINGLE POINT ENERGY      -365.674074416576

DIPOLE MOMENT
-------------
                                X             Y             Z
Electronic contribution:     -0.73358      -2.72393      -3.73579
Nuclear contribution   :      1.81740       3.28510       4.42012
                        -----------------------------------------
Total Dipole Moment    :      1.08383       0.56118       0.68433
                        -----------------------------------------
Magnitude (a.u.)       :      1.39925
Magnitude (Debye)      :      3.55662

                             ****ORCA TERMINATED NORMALLY****
TOTAL RUN TIME: 0 days 0 hours 14 minutes 27 seconds 305 msec
