                         Program Version 3.0.3 - RELEASE   -
|  1> ! RI-MP2 RIJK def2-TZVP def2-TZVP/C def2-TZVP/JK TIGHTSCF
|  2> % maxcore 2000
|  3> % mp2 density relaxed end
|  4> *xyz 0 1
|  5>  O        0.0102962571    -0.0974933733     0.0954954240
|  6>  C       -0.0164351811     1.1139853344     0.0290038677
|  7>  C       -1.3106406589     1.9276583221    -0.0198368104
|  8>  C       -1.0976531683     3.4343994080    -0.1015311538
|  9>  C        0.0220738051     3.9901731999    -1.0300254579
| 10>  O        0.0977498631     5.1998255292    -0.1940987650
| 11>  C        0.0160648978     4.0885321875     0.7682494441
| 12>  C        1.0670701220     3.3229726497    -0.0882020836
| 13>  N        1.1119286284     1.8890137146    -0.0096275195
| 14>  H       -1.8895461551     1.5675606684    -0.8775825516
| 15>  H       -1.8954253530     1.6630338211     0.8681545517
| 16>  H       -2.0221426273     4.0144474937    -0.1363408233
| 17>  H        0.0356306042     4.1141378242    -2.1133042388
| 18>  H        0.0224498021     4.3299093648     1.8316121068
| 19>  H        2.0636176112     3.7616273534    -0.1088603154
| 20>  H        1.9957233628     1.4041171923     0.0199214150
| 21> *
| 22>
| 23>                          ****END OF INPUT****

CARTESIAN COORDINATES (ANGSTROEM)
---------------------------------
  O      0.010296   -0.097493    0.095495
  C     -0.016435    1.113985    0.029004
  C     -1.310641    1.927658   -0.019837
  C     -1.097653    3.434399   -0.101531
  C      0.022074    3.990173   -1.030025
  O      0.097750    5.199826   -0.194099
  C      0.016065    4.088532    0.768249
  C      1.067070    3.322973   -0.088202
  N      1.111929    1.889014   -0.009628
  H     -1.889546    1.567561   -0.877583
  H     -1.895425    1.663034    0.868155
  H     -2.022143    4.014447   -0.136341
  H      0.035631    4.114138   -2.113304
  H      0.022450    4.329909    1.831612
  H      2.063618    3.761627   -0.108860
  H      1.995723    1.404117    0.019921

 Total Charge           Charge          ....    0
 Multiplicity           Mult            ....    1
 Number of Electrons    NEL             ....   66
 Basis Dimension        Dim             ....  321

ORBITAL ENERGIES
----------------

  NO   OCC          E(Eh)            E(eV)
   0   2.0000     -20.567345      -559.6659
   1   2.0000     -20.522348      -558.4415
   2   2.0000     -15.594844      -424.3573
   3   2.0000     -11.357497      -309.0532
   4   2.0000     -11.313025      -307.8431
   5   2.0000     -11.312947      -307.8410
   6   2.0000     -11.300136      -307.4923
   7   2.0000     -11.263753      -306.5023
   8   2.0000     -11.253100      -306.2124
   9   2.0000      -1.419072       -38.6149
  10   2.0000      -1.387796       -37.7639
  11   2.0000      -1.251273       -34.0489
  12   2.0000      -1.096483       -29.8368
  13   2.0000      -1.023780       -27.8585
  14   2.0000      -0.906652       -24.6713
  15   2.0000      -0.905272       -24.6337
  16   2.0000      -0.838125       -22.8065
  17   2.0000      -0.739726       -20.1290
  18   2.0000      -0.716511       -19.4973
  19   2.0000      -0.688517       -18.7355
  20   2.0000      -0.671570       -18.2744
  21   2.0000      -0.643296       -17.5050
  22   2.0000      -0.607519       -16.5314
  23   2.0000      -0.591081       -16.0841
  24   2.0000      -0.576299       -15.6819
  25   2.0000      -0.560549       -15.2533
  26   2.0000      -0.548371       -14.9219
  27   2.0000      -0.501656       -13.6508
  28   2.0000      -0.497504       -13.5378
  29   2.0000      -0.462054       -12.5731
  30   2.0000      -0.427980       -11.6459
  31   2.0000      -0.420193       -11.4340
  32   2.0000      -0.390295       -10.6205
  33   0.0000       0.125959         3.4275
  34   0.0000       0.145195         3.9510
  35   0.0000       0.148206         4.0329
  36   0.0000       0.166123         4.5204
  37   0.0000       0.177010         4.8167

MULLIKEN ATOMIC CHARGES
-----------------------
   0 O :   -0.336448
   1 C :    0.199697
   2 C :   -0.238400
   3 C :   -0.038057
   4 C :   -0.053776
   5 O :   -0.307627
   6 C :   -0.053776
   7 C :    0.064893
   8 N :   -0.324239
   9 H :    0.144681
  10 H :    0.144687
  11 H :    0.126392
  12 H :    0.145027
  13 H :    0.145028
  14 H :    0.142718
  15 H :    0.239201
Sum of atomic charges:    0.0000000

LOEWDIN ATOMIC CHARGES
----------------------
   0 O :    0.086624
   1 C :   -0.440983
   2 C :   -0.203723
   3 C :   -0.182005
   4 C :   -0.192126
   5 O :    0.144657
   6 C :   -0.192127
   7 C :   -0.220570
   8 N :    0.135263
   9 H :    0.159890
  10 H :    0.159890
  11 H :    0.151014
  12 H :    0.126818
  13 H :    0.126818
  14 H :    0.148803
  15 H :    0.191757

  Mayer bond orders larger than 0.1
B(  0-O ,  1-C ) :   2.0137 B(  1-C ,  2-C ) :   0.9305 B(  1-C ,  8-N ) :   1.1626
B(  2-C ,  3-C ) :   0.8799 B(  2-C ,  9-H ) :   0.9062 B(  2-C , 10-H ) :   0.9062
B(  3-C ,  4-C ) :   0.9237 B(  3-C ,  6-C ) :   0.9237 B(  3-C , 11-H ) :   0.9177
B(  4-C ,  5-O ) :   0.9232 B(  4-C ,  7-C ) :   0.9128 B(  4-C , 12-H ) :   0.8876
B(  5-O ,  6-C ) :   0.9232 B(  6-C ,  7-C ) :   0.9128 B(  6-C , 13-H ) :   0.8876
B(  7-C ,  8-N ) :   0.8792 B(  7-C , 14-H ) :   0.8989 B(  8-N , 15-H ) :   0.8611

MP2 TOTAL ENERGY:     -437.140953184 Eh
FINAL SINGLE POINT ENERGY      -437.140953184355

DIPOLE MOMENT
-------------
                                X             Y             Z
Electronic contribution:      1.74394      -0.90970       0.05562
Nuclear contribution   :     -1.56439       1.50854      -0.08783
                        -----------------------------------------
Total Dipole Moment    :      0.17955       0.59883      -0.03221
                        -----------------------------------------
Magnitude (a.u.)       :      0.62600
Magnitude (Debye)      :      1.59117

                             ****ORCA TERMINATED NORMALLY****
TOTAL RUN TIME: 0 days 0 hours 15 minutes 52 seconds 43 msec
