                         Program Version 3.0.3 - RELEASE   -
|  1> ! RI-MP2 RIJK def2-TZVP def2-TZVP/C def2-TZVP/JK TIGHTSCF
|  2> % maxcore 2000
|  3> % mp2 density relaxed end
|  4> *xyz 0 1
|  5>  C        0.0833753257     1.4886051012    -0.0139862994
|  6>  C        0.0190567170    -0.0070158931    -0.0359644058
|  7>  C       -0.1028014493    -0.7928406374    -1.1113859565
|  8>  C       -0.0750077776    -2.2417874992    -0.7688768550
|  9>  C        1.2247510677    -2.7254893017    -0.1513892384
| 10>  C        0.0919496867    -2.2789445968     0.7340732974
| 11>  C        0.0622022444    -0.8398476541     1.2519379347
| 12>  C        1.2276491221    -0.4900545924     2.1843333810
| 13>  O       -1.1752468666    -0.7186406899     1.9748266048
| 14>  H        1.0459712383     1.8553077882     0.3647360958
| 15>  H       -0.0616725696     1.9060245492    -1.0140196983
| 16>  H       -0.6929308790     1.9123653380     0.6368856841
| 17>  H       -0.1766878185    -0.4327312213    -2.1327402900
| 18>  H       -0.7007591092    -2.9460165745    -1.3054149282
| 19>  H        1.4310515178    -3.7911631953    -0.1747122081
| 20>  H        2.1002996276    -2.0943839898    -0.2643033488
| 21>  H       -0.4172176020    -3.0137919397     1.3454136205
| 22>  H        2.1938506077    -0.6091884286     1.6866401945
| 23>  H        1.1574370337     0.5495670954     2.5271016120
| 24>  H        1.2052109316    -1.1384303162     3.0648647664
| 25>  H       -1.1885285683     0.1481997882     2.3938108173
| 26> *
| 27>
| 28>                          ****END OF INPUT****

CARTESIAN COORDINATES (ANGSTROEM)
---------------------------------
  C      0.083375    1.488605   -0.013986
  C      0.019057   -0.007016   -0.035964
  C     -0.102801   -0.792841   -1.111386
  C     -0.075008   -2.241787   -0.768877
  C      1.224751   -2.725489   -0.151389
  C      0.091950   -2.278945    0.734073
  C      0.062202   -0.839848    1.251938
  C      1.227649   -0.490055    2.184333
  O     -1.175247   -0.718641    1.974827
  H      1.045971    1.855308    0.364736
  H     -0.061673    1.906025   -1.014020
  H     -0.692931    1.912365    0.636886
  H     -0.176688   -0.432731   -2.132740
  H     -0.700759   -2.946017   -1.305415
  H      1.431052   -3.791163   -0.174712
  H      2.100300   -2.094384   -0.264303
  H     -0.417218   -3.013792    1.345414
  H      2.193851   -0.609188    1.686640
  H      1.157437    0.549567    2.527102
  H      1.205211   -1.138430    3.064865
  H     -1.188529    0.148200    2.393811

 Total Charge           Charge          ....    0
 Multiplicity           Mult            ....    1
 Number of Electrons    NEL             ....   68
 Basis Dimension        Dim             ....  351

ORBITAL ENERGIES
----------------

  NO   OCC          E(Eh)            E(eV)
   0   2.0000     -20.548832      -559.1621
   1   2.0000     -11.288086      -307.1644
   2   2.0000     -11.227473      -305.5151
   3   2.0000     -11.225589      -305.4638
   4   2.0000     -11.225488      -305.4610
   5   2.0000     -11.224354      -305.4302
   6   2.0000     -11.222680      -305.3846
   7   2.0000     -11.220928      -305.3370
   8   2.0000     -11.217846      -305.2531
   9   2.0000      -1.355702       -36.8905
  10   2.0000      -1.175818       -31.9956
  11   2.0000      -1.059530       -28.8313
  12   2.0000      -1.001519       -27.2527
  13   2.0000      -0.944575       -25.7032
  14   2.0000      -0.886257       -24.1163
  15   2.0000      -0.814645       -22.1676
  16   2.0000      -0.757135       -20.6027
  17   2.0000      -0.726555       -19.7706
  18   2.0000      -0.682326       -18.5670
  19   2.0000      -0.647097       -17.6084
  20   2.0000      -0.613966       -16.7069
  21   2.0000      -0.598520       -16.2866
  22   2.0000      -0.589036       -16.0285
  23   2.0000      -0.574178       -15.6242
  24   2.0000      -0.561665       -15.2837
  25   2.0000      -0.545525       -14.8445
  26   2.0000      -0.530414       -14.4333
  27   2.0000      -0.511143       -13.9089
  28   2.0000      -0.496384       -13.5073
  29   2.0000      -0.471517       -12.8306
  30   2.0000      -0.438408       -11.9297
  31   2.0000      -0.428470       -11.6593
  32   2.0000      -0.405096       -11.0232
  33   2.0000      -0.328380        -8.9357
  34   0.0000       0.128528         3.4974
  35   0.0000       0.155311         4.2262
  36   0.0000       0.163182         4.4404
  37   0.0000       0.168055         4.5730
  38   0.0000       0.172713         4.6998

MULLIKEN ATOMIC CHARGES
-----------------------
   0 C :   -0.460193
   1 C :   -0.072396
   2 C :   -0.204829
   3 C :   -0.044522
   4 C :   -0.298096
   5 C :   -0.110075
   6 C :    0.311775
   7 C :   -0.438866
   8 O :   -0.460722
   9 H :    0.148328
  10 H :    0.143564
  11 H :    0.127515
  12 H :    0.123189
  13 H :    0.130077
  14 H :    0.128499
  15 H :    0.135946
  16 H :    0.130847
  17 H :    0.127475
  18 H :    0.126023
  19 H :    0.146736
  20 H :    0.309725
Sum of atomic charges:   -0.0000000

LOEWDIN ATOMIC CHARGES
----------------------
   0 C :   -0.277859
   1 C :   -0.149335
   2 C :   -0.108706
   3 C :   -0.181048
   4 C :   -0.190508
   5 C :   -0.145489
   6 C :   -0.329096
   7 C :   -0.271553
   8 O :    0.007370
   9 H :    0.130067
  10 H :    0.132946
  11 H :    0.127422
  12 H :    0.140041
  13 H :    0.144444
  14 H :    0.134063
  15 H :    0.134167
  16 H :    0.151632
  17 H :    0.128664
  18 H :    0.121588
  19 H :    0.130578
  20 H :    0.170613

  Mayer bond orders larger than 0.1
B(  0-C ,  1-C ) :   0.8753 B(  0-C ,  9-H ) :   0.9351 B(  0-C , 10-H ) :   0.9468
B(  0-C , 11-H ) :   0.9328 B(  1-C ,  2-C ) :   1.7420 B(  1-C ,  6-C ) :   0.9397
B(  2-C ,  3-C ) :   0.9388 B(  2-C , 12-H ) :   0.9264 B(  3-C ,  4-C ) :   0.8581
B(  3-C ,  5-C ) :   0.8922 B(  3-C , 13-H ) :   0.9224 B(  4-C ,  5-C ) :   0.8645
B(  4-C , 14-H ) :   0.9280 B(  4-C , 15-H ) :   0.9242 B(  5-C ,  6-C ) :   0.8806
B(  5-C , 16-H ) :   0.9288 B(  6-C ,  7-C ) :   0.9181 B(  6-C ,  8-O ) :   0.8903
B(  7-C , 17-H ) :   0.9307 B(  7-C , 18-H ) :   0.9217 B(  7-C , 19-H ) :   0.9415
B(  8-O , 20-H ) :   0.8429

MP2 TOTAL ENERGY:     -386.418508178 Eh
FINAL SINGLE POINT ENERGY      -386.418508178180

DIPOLE MOMENT
-------------
                                X             Y             Z
Electronic contribution:     -3.48218      -2.75448      -0.94520
Nuclear contribution   :      3.92169       3.15218       0.91902
                        -----------------------------------------
Total Dipole Moment    :      0.43952       0.39769      -0.02618
                        -----------------------------------------
Magnitude (a.u.)       :      0.59331
Magnitude (Debye)      :      1.50808

                             ****ORCA TERMINATED NORMALLY****
TOTAL RUN TIME: 0 days 0 hours 21 minutes 34 seconds 144 msec
