                         Program Version 3.0.3 - RELEASE   -
|  1> ! RI-MP2 RIJK def2-TZVP def2-TZVP/C def2-TZVP/JK TIGHTSCF
|  2> % maxcore 2000
|  3> % mp2 density relaxed end
|  4> *xyz 0 1
|  5>  C       -0.0835125277     1.5644615333     0.0004170567
|  6>  C        0.0806468830     0.0611480712    -0.0624445943
|  7>  C        0.5947096086    -0.7206321910    -1.2299079699
|  8>  N        1.3306875227    -0.6832620314     0.1257763770
|  9>  C        2.4354881814     0.1498567769    -0.4881936933
| 10>  C        3.7281495117    -0.5089026826    -0.4140744802
| 11>  N        4.7635901004    -1.0202054621    -0.3785255249
| 12>  C        1.7349805193    -0.0130890645    -1.8866822253
| 13>  O        2.0903813750     0.1614027784    -3.0093627120
| 14>  H        0.6015176201     2.1141252848    -0.6473597628
| 15>  H       -1.0998489080     1.8223266709    -0.3116320733
| 16>  H        0.0480413651     1.9180833224     1.0282712692
| 17>  H       -0.7189367844    -0.4697800807     0.4516384644
| 18>  H        0.0946727871    -1.6010581161    -1.6171648545
| 19>  H        2.5142291955     1.1620206907    -0.0846143467
| 20> *
| 21>
| 22>                          ****END OF INPUT****

CARTESIAN COORDINATES (ANGSTROEM)
---------------------------------
  C     -0.083513    1.564462    0.000417
  C      0.080647    0.061148   -0.062445
  C      0.594710   -0.720632   -1.229908
  N      1.330688   -0.683262    0.125776
  C      2.435488    0.149857   -0.488194
  C      3.728150   -0.508903   -0.414074
  N      4.763590   -1.020205   -0.378526
  C      1.734981   -0.013089   -1.886682
  O      2.090381    0.161403   -3.009363
  H      0.601518    2.114125   -0.647360
  H     -1.099849    1.822327   -0.311632
  H      0.048041    1.918083    1.028271
  H     -0.718937   -0.469780    0.451638
  H      0.094673   -1.601058   -1.617165
  H      2.514229    1.162021   -0.084614

 Total Charge           Charge          ....    0
 Multiplicity           Mult            ....    1
 Number of Electrons    NEL             ....   64
 Basis Dimension        Dim             ....  315

ORBITAL ENERGIES
----------------

  NO   OCC          E(Eh)            E(eV)
   0   2.0000     -20.591498      -560.3231
   1   2.0000     -15.621620      -425.0859
   2   2.0000     -15.585181      -424.0943
   3   2.0000     -11.378015      -309.6115
   4   2.0000     -11.338672      -308.5410
   5   2.0000     -11.317570      -307.9667
   6   2.0000     -11.307836      -307.7019
   7   2.0000     -11.285714      -307.0999
   8   2.0000     -11.262990      -306.4815
   9   2.0000      -1.438606       -39.1465
  10   2.0000      -1.342934       -36.5431
  11   2.0000      -1.229121       -33.4461
  12   2.0000      -1.077703       -29.3258
  13   2.0000      -1.018352       -27.7108
  14   2.0000      -0.963775       -26.2257
  15   2.0000      -0.852777       -23.2053
  16   2.0000      -0.790080       -21.4992
  17   2.0000      -0.733699       -19.9650
  18   2.0000      -0.700722       -19.0676
  19   2.0000      -0.687999       -18.7214
  20   2.0000      -0.667220       -18.1560
  21   2.0000      -0.621301       -16.9065
  22   2.0000      -0.606537       -16.5047
  23   2.0000      -0.572882       -15.5889
  24   2.0000      -0.570215       -15.5163
  25   2.0000      -0.563937       -15.3455
  26   2.0000      -0.528839       -14.3904
  27   2.0000      -0.498990       -13.5782
  28   2.0000      -0.485145       -13.2015
  29   2.0000      -0.468809       -12.7569
  30   2.0000      -0.446364       -12.1462
  31   2.0000      -0.413235       -11.2447
  32   0.0000       0.095940         2.6107
  33   0.0000       0.113583         3.0908
  34   0.0000       0.135817         3.6958
  35   0.0000       0.149975         4.0810
  36   0.0000       0.162201         4.4137

MULLIKEN ATOMIC CHARGES
-----------------------
   0 C :   -0.407097
   1 C :    0.009144
   2 C :   -0.102515
   3 N :   -0.211810
   4 C :    0.099258
   5 C :   -0.207456
   6 N :   -0.037917
   7 C :    0.136907
   8 O :   -0.214361
   9 H :    0.153660
  10 H :    0.154107
  11 H :    0.154015
  12 H :    0.140676
  13 H :    0.168751
  14 H :    0.164638
Sum of atomic charges:   -0.0000000

LOEWDIN ATOMIC CHARGES
----------------------
   0 C :   -0.287261
   1 C :   -0.255428
   2 C :   -0.140288
   3 N :    0.169908
   4 C :   -0.206377
   5 C :   -0.159519
   6 N :    0.087055
   7 C :   -0.292818
   8 O :    0.202395
   9 H :    0.130758
  10 H :    0.139104
  11 H :    0.135064
  12 H :    0.161282
  13 H :    0.147854
  14 H :    0.168271

  Mayer bond orders larger than 0.1
B(  0-C ,  1-C ) :   0.8862 B(  0-C ,  9-H ) :   0.9350 B(  0-C , 10-H ) :   0.9229
B(  0-C , 11-H ) :   0.9312 B(  1-C ,  2-C ) :   0.8824 B(  1-C ,  3-N ) :   0.9020
B(  1-C , 12-H ) :   0.9224 B(  2-C ,  3-N ) :   0.8511 B(  2-C ,  7-C ) :   0.9608
B(  2-C , 13-H ) :   0.8908 B(  3-N ,  4-C ) :   0.9354 B(  4-C ,  5-C ) :   0.9585
B(  4-C ,  7-C ) :   0.7973 B(  4-C , 14-H ) :   0.8821 B(  5-C ,  6-N ) :   2.8451
B(  7-C ,  8-O ) :   2.0641

MP2 TOTAL ENERGY:     -416.070812990 Eh
FINAL SINGLE POINT ENERGY      -416.070812989793

DIPOLE MOMENT
-------------
                                X             Y             Z
Electronic contribution:      6.83697      -4.14618      -3.04899
Nuclear contribution   :     -8.87511       5.09104       3.56420
                        -----------------------------------------
Total Dipole Moment    :     -2.03814       0.94485       0.51522
                        -----------------------------------------
Magnitude (a.u.)       :      2.30482
Magnitude (Debye)      :      5.85840

                             ****ORCA TERMINATED NORMALLY****
TOTAL RUN TIME: 0 days 0 hours 15 minutes 56 seconds 557 msec
