                         Program Version 3.0.3 - RELEASE   -
|  1> ! RI-MP2 RIJK def2-TZVP def2-TZVP/C def2-TZVP/JK TIGHTSCF
|  2> % maxcore 2000
|  3> % mp2 density relaxed end
|  4> *xyz 0 1
|  5>  O        0.3729892281     1.1883711445    -0.4313523653
|  6>  C        0.1679436398    -0.0488854808     0.1985876488
|  7>  C       -0.1750764030    -0.1072302193     1.7170282251
|  8>  C       -1.2373475956    -1.1917070897     1.3775640277
|  9>  C       -1.1978154332    -0.6923335760    -0.0775134797
| 10>  C       -2.3392739314     0.1494360962    -0.6827115499
| 11>  C       -2.3559785199    -0.9316566083    -1.7404007321
| 12>  N       -3.0316065470    -1.1578652947    -2.7711124959
| 13>  O       -1.3190396096    -1.6489376960    -1.1705657126
| 14>  H        1.2895883823     1.4535046623    -0.3110229858
| 15>  H        0.9584154475    -0.7715604235    -0.0481950530
| 16>  H        0.6241258595    -0.3748349217     2.4100797262
| 17>  H       -0.6363903262     0.8306053084     2.0364822108
| 18>  H       -0.8328665502    -2.2044750510     1.4512435657
| 19>  H       -2.1983286932    -1.1516753093     1.8932138480
| 20>  H       -3.2491052308     0.2248544865    -0.0847883519
| 21>  H       -2.0414727319     1.1340045863    -1.0441454201
| 22>  H       -2.7273001752    -2.0185428437    -3.2296639059
| 23> *
| 24>
| 25>                          ****END OF INPUT****

CARTESIAN COORDINATES (ANGSTROEM)
---------------------------------
  O      0.372989    1.188371   -0.431352
  C      0.167944   -0.048885    0.198588
  C     -0.175076   -0.107230    1.717028
  C     -1.237348   -1.191707    1.377564
  C     -1.197815   -0.692334   -0.077513
  C     -2.339274    0.149436   -0.682712
  C     -2.355979   -0.931657   -1.740401
  N     -3.031607   -1.157865   -2.771112
  O     -1.319040   -1.648938   -1.170566
  H      1.289588    1.453505   -0.311023
  H      0.958415   -0.771560   -0.048195
  H      0.624126   -0.374835    2.410080
  H     -0.636390    0.830605    2.036482
  H     -0.832867   -2.204475    1.451244
  H     -2.198329   -1.151675    1.893214
  H     -3.249105    0.224854   -0.084788
  H     -2.041473    1.134005   -1.044145
  H     -2.727300   -2.018543   -3.229664

 Total Charge           Charge          ....    0
 Multiplicity           Mult            ....    1
 Number of Electrons    NEL             ....   68
 Basis Dimension        Dim             ....  333

ORBITAL ENERGIES
----------------

  NO   OCC          E(Eh)            E(eV)
   0   2.0000     -20.586611      -560.1902
   1   2.0000     -20.574579      -559.8628
   2   2.0000     -15.530812      -422.6149
   3   2.0000     -11.335044      -308.4422
   4   2.0000     -11.305865      -307.6482
   5   2.0000     -11.296451      -307.3921
   6   2.0000     -11.243739      -305.9577
   7   2.0000     -11.240425      -305.8675
   8   2.0000     -11.239237      -305.8352
   9   2.0000      -1.431527       -38.9538
  10   2.0000      -1.382471       -37.6190
  11   2.0000      -1.192926       -32.4612
  12   2.0000      -1.138941       -30.9922
  13   2.0000      -1.018286       -27.7090
  14   2.0000      -0.910522       -24.7766
  15   2.0000      -0.889018       -24.1914
  16   2.0000      -0.771232       -20.9863
  17   2.0000      -0.735674       -20.0187
  18   2.0000      -0.730142       -19.8682
  19   2.0000      -0.695316       -18.9205
  20   2.0000      -0.689000       -18.7486
  21   2.0000      -0.664226       -18.0745
  22   2.0000      -0.620773       -16.8921
  23   2.0000      -0.596895       -16.2424
  24   2.0000      -0.562112       -15.2958
  25   2.0000      -0.546483       -14.8706
  26   2.0000      -0.535989       -14.5850
  27   2.0000      -0.520907       -14.1746
  28   2.0000      -0.491603       -13.3772
  29   2.0000      -0.484255       -13.1772
  30   2.0000      -0.456324       -12.4172
  31   2.0000      -0.442370       -12.0375
  32   2.0000      -0.429389       -11.6843
  33   2.0000      -0.393525       -10.7084
  34   0.0000       0.123338         3.3562
  35   0.0000       0.139768         3.8033
  36   0.0000       0.157568         4.2876
  37   0.0000       0.167724         4.5640
  38   0.0000       0.179024         4.8715

MULLIKEN ATOMIC CHARGES
-----------------------
   0 O :   -0.458603
   1 C :    0.017771
   2 C :   -0.233314
   3 C :   -0.269085
   4 C :    0.279740
   5 C :   -0.239018
   6 C :    0.083314
   7 N :   -0.358861
   8 O :   -0.280192
   9 H :    0.323786
  10 H :    0.097508
  11 H :    0.129261
  12 H :    0.121013
  13 H :    0.131514
  14 H :    0.131379
  15 H :    0.135276
  16 H :    0.161046
  17 H :    0.227464
Sum of atomic charges:    0.0000000

LOEWDIN ATOMIC CHARGES
----------------------
   0 O :   -0.006044
   1 C :   -0.301405
   2 C :   -0.221050
   3 C :   -0.197582
   4 C :   -0.257924
   5 C :   -0.152093
   6 C :   -0.389824
   7 N :   -0.057546
   8 O :    0.245288
   9 H :    0.180153
  10 H :    0.142252
  11 H :    0.125197
  12 H :    0.139665
  13 H :    0.144576
  14 H :    0.131638
  15 H :    0.146983
  16 H :    0.155107
  17 H :    0.172611

  Mayer bond orders larger than 0.1
B(  0-O ,  1-C ) :   1.0876 B(  0-O ,  9-H ) :   0.8411 B(  1-C ,  2-C ) :   0.9093
B(  1-C ,  4-C ) :   0.8918 B(  1-C , 10-H ) :   0.9410 B(  2-C ,  3-C ) :   0.9229
B(  2-C , 11-H ) :   0.9275 B(  2-C , 12-H ) :   0.9118 B(  3-C ,  4-C ) :   0.8864
B(  3-C , 13-H ) :   0.9173 B(  3-C , 14-H ) :   0.9248 B(  4-C ,  5-C ) :   0.9251
B(  4-C ,  8-O ) :   0.9147 B(  5-C ,  6-C ) :   0.9705 B(  5-C , 15-H ) :   0.9051
B(  5-C , 16-H ) :   0.8872 B(  6-C ,  7-N ) :   2.1130 B(  6-C ,  8-O ) :   1.0573
B(  7-N , 17-H ) :   0.8468

MP2 TOTAL ENERGY:     -438.353994058 Eh
FINAL SINGLE POINT ENERGY      -438.353994058328

DIPOLE MOMENT
-------------
                                X             Y             Z
Electronic contribution:     -0.80768      -1.20915      -5.07516
Nuclear contribution   :      1.85131       1.31364       6.30039
                        -----------------------------------------
Total Dipole Moment    :      1.04363       0.10449       1.22524
                        -----------------------------------------
Magnitude (a.u.)       :      1.61285
Magnitude (Debye)      :      4.09954

                             ****ORCA TERMINATED NORMALLY****
TOTAL RUN TIME: 0 days 0 hours 16 minutes 24 seconds 906 msec
