                         Program Version 3.0.3 - RELEASE   -
|  1> ! RI-MP2 RIJK def2-TZVP def2-TZVP/C def2-TZVP/JK TIGHTSCF
|  2> % maxcore 2000
|  3> % mp2 density relaxed end
|  4> *xyz 0 1
|  5>  O        0.2332386666     0.8306782488    -1.4492980448
|  6>  C        0.0596944067     1.4033015187    -0.3945800054
|  7>  N        1.0350713053     1.5969479365     0.5334865696
|  8>  C        2.3422101404     1.0155653637     0.3802097440
|  9>  C        3.3381090412     1.6646287422    -0.6297636719
| 10>  N        4.2221810004     1.9079544033     0.5203331525
| 11>  C        3.3454834534     1.4701541674     1.4747139874
| 12>  O        3.3379582515     1.4855477273     2.6767710947
| 13>  H       -0.9096061941     1.8401846030    -0.0854461956
| 14>  H        0.8034854327     2.0012525637     1.4286166566
| 15>  H        2.2846621454    -0.0702158361     0.2598703065
| 16>  H        3.7486520134     0.9904127915    -1.3846185456
| 17>  H        2.9551783355     2.5737273526    -1.1001306888
| 18>  H        5.1011829916     2.3963575175     0.6066179508
| 19> *
| 20>
| 21>                          ****END OF INPUT****

CARTESIAN COORDINATES (ANGSTROEM)
---------------------------------
  O      0.233239    0.830678   -1.449298
  C      0.059694    1.403302   -0.394580
  N      1.035071    1.596948    0.533487
  C      2.342210    1.015565    0.380210
  C      3.338109    1.664629   -0.629764
  N      4.222181    1.907954    0.520333
  C      3.345483    1.470154    1.474714
  O      3.337958    1.485548    2.676771
  H     -0.909606    1.840185   -0.085446
  H      0.803485    2.001253    1.428617
  H      2.284662   -0.070216    0.259870
  H      3.748652    0.990413   -1.384619
  H      2.955178    2.573727   -1.100131
  H      5.101183    2.396358    0.606618

 Total Charge           Charge          ....    0
 Multiplicity           Mult            ....    1
 Number of Electrons    NEL             ....   60
 Basis Dimension        Dim             ....  284

ORBITAL ENERGIES
----------------

  NO   OCC          E(Eh)            E(eV)
   0   2.0000     -20.542679      -558.9947
   1   2.0000     -20.538121      -558.8707
   2   2.0000     -15.606520      -424.6750
   3   2.0000     -15.600044      -424.4988
   4   2.0000     -11.367059      -309.3134
   5   2.0000     -11.362295      -309.1838
   6   2.0000     -11.300612      -307.5053
   7   2.0000     -11.289195      -307.1946
   8   2.0000      -1.406260       -38.2663
   9   2.0000      -1.397652       -38.0320
  10   2.0000      -1.290922       -35.1278
  11   2.0000      -1.242889       -33.8207
  12   2.0000      -1.014707       -27.6116
  13   2.0000      -0.918605       -24.9965
  14   2.0000      -0.851774       -23.1779
  15   2.0000      -0.798867       -21.7383
  16   2.0000      -0.743609       -20.2346
  17   2.0000      -0.698322       -19.0023
  18   2.0000      -0.689659       -18.7666
  19   2.0000      -0.656269       -17.8580
  20   2.0000      -0.635415       -17.2905
  21   2.0000      -0.603763       -16.4292
  22   2.0000      -0.589452       -16.0398
  23   2.0000      -0.562526       -15.3071
  24   2.0000      -0.557370       -15.1668
  25   2.0000      -0.529186       -14.3999
  26   2.0000      -0.448531       -12.2051
  27   2.0000      -0.434019       -11.8103
  28   2.0000      -0.414623       -11.2825
  29   2.0000      -0.412462       -11.2237
  30   0.0000       0.129676         3.5287
  31   0.0000       0.142170         3.8686
  32   0.0000       0.145237         3.9521
  33   0.0000       0.165126         4.4933
  34   0.0000       0.174246         4.7415

MULLIKEN ATOMIC CHARGES
-----------------------
   0 O :   -0.359386
   1 C :    0.195763
   2 N :   -0.372061
   3 C :    0.088968
   4 C :   -0.119817
   5 N :   -0.305663
   6 C :    0.176689
   7 O :   -0.313200
   8 H :    0.092149
   9 H :    0.259096
  10 H :    0.145188
  11 H :    0.131561
  12 H :    0.136278
  13 H :    0.244435
Sum of atomic charges:   -0.0000000

LOEWDIN ATOMIC CHARGES
----------------------
   0 O :    0.066454
   1 C :   -0.426117
   2 N :    0.100690
   3 C :   -0.214603
   4 C :   -0.214669
   5 N :    0.128312
   6 C :   -0.437890
   7 O :    0.104348
   8 H :    0.112842
   9 H :    0.194941
  10 H :    0.155520
  11 H :    0.127025
  12 H :    0.130166
  13 H :    0.172980

  Mayer bond orders larger than 0.1
B(  0-O ,  1-C ) :   1.8886 B(  1-C ,  2-N ) :   1.1380 B(  1-C ,  8-H ) :   0.9302
B(  2-N ,  3-C ) :   0.7982 B(  2-N ,  9-H ) :   0.8602 B(  3-C ,  4-C ) :   0.9203
B(  3-C ,  6-C ) :   0.8278 B(  3-C , 10-H ) :   0.9016 B(  4-C ,  5-N ) :   0.9027
B(  4-C , 11-H ) :   0.9252 B(  4-C , 12-H ) :   0.9310 B(  5-N ,  6-C ) :   1.1895
B(  5-N , 13-H ) :   0.8587 B(  6-C ,  7-O ) :   2.0119

MP2 TOTAL ENERGY:     -415.232253292 Eh
FINAL SINGLE POINT ENERGY      -415.232253291747

DIPOLE MOMENT
-------------
                                X             Y             Z
Electronic contribution:     -0.10308      -0.39105       2.26223
Nuclear contribution   :      0.58018       1.10106      -2.42529
                        -----------------------------------------
Total Dipole Moment    :      0.47710       0.71001      -0.16306
                        -----------------------------------------
Magnitude (a.u.)       :      0.87082
Magnitude (Debye)      :      2.21344

                             ****ORCA TERMINATED NORMALLY****
TOTAL RUN TIME: 0 days 0 hours 9 minutes 31 seconds 816 msec
