                         Program Version 3.0.3 - RELEASE   -
|  1> ! RI-MP2 RIJK def2-TZVP def2-TZVP/C def2-TZVP/JK TIGHTSCF
|  2> % maxcore 2000
|  3> % mp2 density relaxed end
|  4> *xyz 0 1
|  5>  C       -0.3335487373     1.5766665833    -0.0265688272
|  6>  O       -0.0290827587     0.1884877344     0.0165183965
|  7>  C       -1.0925626073    -0.6397262706     0.0260095304
|  8>  N       -0.9361519476    -1.8873465415     0.0636857228
|  9>  C       -2.1227160735    -2.7165718235     0.0713006018
| 10>  C       -2.1652164383    -3.7005043329    -1.1311481895
| 11>  C       -2.8016362315    -4.9358630221    -0.5415964605
| 12>  C       -2.8193041793    -4.8983604322     0.7898841977
| 13>  C       -2.1978481008    -3.6312789437     1.3256437984
| 14>  H        0.6226753127     2.1011025339    -0.0290438669
| 15>  H       -0.8883120018     1.8395798464    -0.9356970150
| 16>  H       -0.9113412812     1.8900018033     0.8517083124
| 17>  H       -2.0691389708    -0.1295447549    -0.0015844158
| 18>  H       -3.0425413158    -2.1070565443     0.0418999002
| 19>  H       -2.7146443248    -3.2853082337    -1.9836601180
| 20>  H       -1.1447902997    -3.9050458817    -1.4818895829
| 21>  H       -3.1576291106    -5.7591314121    -1.1513085762
| 22>  H       -3.1919604113    -5.6862654546     1.4353142946
| 23>  H       -1.1872386415    -3.8149926597     1.7142915652
| 24>  H       -2.7693848708    -3.1691995739     2.1385811020
| 25> *
| 26>
| 27>                          ****END OF INPUT****

CARTESIAN COORDINATES (ANGSTROEM)
---------------------------------
  C     -0.333549    1.576667   -0.026569
  O     -0.029083    0.188488    0.016518
  C     -1.092563   -0.639726    0.026010
  N     -0.936152   -1.887347    0.063686
  C     -2.122716   -2.716572    0.071301
  C     -2.165216   -3.700504   -1.131148
  C     -2.801636   -4.935863   -0.541596
  C     -2.819304   -4.898360    0.789884
  C     -2.197848   -3.631279    1.325644
  H      0.622675    2.101103   -0.029044
  H     -0.888312    1.839580   -0.935697
  H     -0.911341    1.890002    0.851708
  H     -2.069139   -0.129545   -0.001584
  H     -3.042541   -2.107057    0.041900
  H     -2.714644   -3.285308   -1.983660
  H     -1.144790   -3.905046   -1.481890
  H     -3.157629   -5.759131   -1.151309
  H     -3.191960   -5.686265    1.435314
  H     -1.187239   -3.814993    1.714292
  H     -2.769385   -3.169200    2.138581

 Total Charge           Charge          ....    0
 Multiplicity           Mult            ....    1
 Number of Electrons    NEL             ....   68
 Basis Dimension        Dim             ....  345

ORBITAL ENERGIES
----------------

  NO   OCC          E(Eh)            E(eV)
   0   2.0000     -20.590391      -560.2930
   1   2.0000     -15.540160      -422.8693
   2   2.0000     -11.329484      -308.2909
   3   2.0000     -11.293588      -307.3142
   4   2.0000     -11.255395      -306.2749
   5   2.0000     -11.218696      -305.2762
   6   2.0000     -11.217080      -305.2323
   7   2.0000     -11.216311      -305.2113
   8   2.0000     -11.216209      -305.2086
   9   2.0000      -1.424673       -38.7673
  10   2.0000      -1.224783       -33.3280
  11   2.0000      -1.116978       -30.3945
  12   2.0000      -0.982186       -26.7266
  13   2.0000      -0.952534       -25.9198
  14   2.0000      -0.935939       -25.4682
  15   2.0000      -0.822661       -22.3857
  16   2.0000      -0.779310       -21.2061
  17   2.0000      -0.725022       -19.7289
  18   2.0000      -0.697813       -18.9885
  19   2.0000      -0.687325       -18.7031
  20   2.0000      -0.662212       -18.0197
  21   2.0000      -0.660505       -17.9733
  22   2.0000      -0.599677       -16.3180
  23   2.0000      -0.546049       -14.8587
  24   2.0000      -0.539238       -14.6734
  25   2.0000      -0.537120       -14.6158
  26   2.0000      -0.531289       -14.4571
  27   2.0000      -0.520457       -14.1624
  28   2.0000      -0.489896       -13.3307
  29   2.0000      -0.489594       -13.3225
  30   2.0000      -0.487548       -13.2669
  31   2.0000      -0.408383       -11.1127
  32   2.0000      -0.372861       -10.1461
  33   2.0000      -0.339265        -9.2319
  34   0.0000       0.137414         3.7392
  35   0.0000       0.153828         4.1859
  36   0.0000       0.154330         4.1995
  37   0.0000       0.167648         4.5619
  38   0.0000       0.170273         4.6334

MULLIKEN ATOMIC CHARGES
-----------------------
   0 C :   -0.238897
   1 O :   -0.229670
   2 C :    0.078436
   3 N :   -0.206501
   4 C :    0.040212
   5 C :   -0.158224
   6 C :   -0.186609
   7 C :   -0.186643
   8 C :   -0.158178
   9 H :    0.150780
  10 H :    0.132144
  11 H :    0.132156
  12 H :    0.059658
  13 H :    0.054582
  14 H :    0.112294
  15 H :    0.121112
  16 H :    0.124970
  17 H :    0.124970
  18 H :    0.121108
  19 H :    0.112301
Sum of atomic charges:    0.0000000

LOEWDIN ATOMIC CHARGES
----------------------
   0 C :   -0.335314
   1 O :    0.215483
   2 C :   -0.359366
   3 N :    0.111521
   4 C :   -0.268058
   5 C :   -0.220283
   6 C :   -0.165572
   7 C :   -0.165564
   8 C :   -0.220290
   9 H :    0.119130
  10 H :    0.107504
  11 H :    0.107506
  12 H :    0.108887
  13 H :    0.134737
  14 H :    0.133901
  15 H :    0.146189
  16 H :    0.134748
  17 H :    0.134747
  18 H :    0.146192
  19 H :    0.133902

  Mayer bond orders larger than 0.1
B(  0-C ,  1-O ) :   0.8730 B(  0-C ,  9-H ) :   0.9387 B(  0-C , 10-H ) :   0.9357
B(  0-C , 11-H ) :   0.9357 B(  1-O ,  2-C ) :   1.0757 B(  2-C ,  3-N ) :   1.8525
B(  2-C , 12-H ) :   0.9202 B(  3-N ,  4-C ) :   0.9212 B(  4-C ,  5-C ) :   0.9256
B(  4-C ,  8-C ) :   0.9256 B(  4-C , 13-H ) :   0.9246 B(  5-C ,  6-C ) :   0.9379
B(  5-C , 14-H ) :   0.9214 B(  5-C , 15-H ) :   0.9037 B(  6-C ,  7-C ) :   1.7898
B(  6-C , 16-H ) :   0.9265 B(  7-C ,  8-C ) :   0.9379 B(  7-C , 17-H ) :   0.9265
B(  8-C , 18-H ) :   0.9037 B(  8-C , 19-H ) :   0.9214

MP2 TOTAL ENERGY:     -402.447072395 Eh
FINAL SINGLE POINT ENERGY      -402.447072395262

DIPOLE MOMENT
-------------
                                X             Y             Z
Electronic contribution:      2.23960      -0.93710       0.05618
Nuclear contribution   :     -2.94296       1.89523      -0.09270
                        -----------------------------------------
Total Dipole Moment    :     -0.70336       0.95813      -0.03652
                        -----------------------------------------
Magnitude (a.u.)       :      1.18915
Magnitude (Debye)      :      3.02257

                             ****ORCA TERMINATED NORMALLY****
TOTAL RUN TIME: 0 days 0 hours 15 minutes 16 seconds 717 msec
