                         Program Version 3.0.3 - RELEASE   -
|  1> ! RI-MP2 RIJK def2-TZVP def2-TZVP/C def2-TZVP/JK TIGHTSCF
|  2> % maxcore 2000
|  3> % mp2 density relaxed end
|  4> *xyz 0 1
|  5>  C       -0.0959574417     1.4829355494     0.0490474488
|  6>  C        1.2594477153     0.7934137286    -0.0340755717
|  7>  C       -0.0194607269    -0.0033032596    -0.0505661426
|  8>  O       -0.3851438681    -0.7249034013     1.1077167149
|  9>  C       -0.2928865507    -2.1178977750     0.8017730595
| 10>  C       -0.6166563468    -2.2304825641    -0.6777201473
| 11>  C       -1.8088040412    -1.4434954175    -1.1581737140
| 12>  C       -0.4288100453    -0.8353168885    -1.2312353183
| 13>  H       -0.3848833603     1.8967135320     1.0087023462
| 14>  H       -0.4503693953     2.0393446249    -0.8118701508
| 15>  H        1.8344797178     0.8863625137    -0.9499166741
| 16>  H        1.8486302039     0.7534663915     0.8752225997
| 17>  H        0.7214130151    -2.5003153588     0.9972846129
| 18>  H       -0.9941774139    -2.6385148069     1.4621379121
| 19>  H       -0.2925702387    -3.1113145437    -1.2189466366
| 20>  H       -2.2636722023    -1.7540519315    -2.0921273711
| 21>  H       -2.5017498930    -1.0513454764    -0.4204201386
| 22>  H        0.0392421222    -0.6519463766    -2.1906101291
| 23> *
| 24>
| 25>                          ****END OF INPUT****

CARTESIAN COORDINATES (ANGSTROEM)
---------------------------------
  C     -0.095957    1.482936    0.049047
  C      1.259448    0.793414   -0.034076
  C     -0.019461   -0.003303   -0.050566
  O     -0.385144   -0.724903    1.107717
  C     -0.292887   -2.117898    0.801773
  C     -0.616656   -2.230483   -0.677720
  C     -1.808804   -1.443495   -1.158174
  C     -0.428810   -0.835317   -1.231235
  H     -0.384883    1.896714    1.008702
  H     -0.450369    2.039345   -0.811870
  H      1.834480    0.886363   -0.949917
  H      1.848630    0.753466    0.875223
  H      0.721413   -2.500315    0.997285
  H     -0.994177   -2.638515    1.462138
  H     -0.292570   -3.111315   -1.218947
  H     -2.263672   -1.754052   -2.092127
  H     -2.501750   -1.051345   -0.420420
  H      0.039242   -0.651946   -2.190610

 Total Charge           Charge          ....    0
 Multiplicity           Mult            ....    1
 Number of Electrons    NEL             ....   60
 Basis Dimension        Dim             ....  308

ORBITAL ENERGIES
----------------

  NO   OCC          E(Eh)            E(eV)
   0   2.0000     -20.553729      -559.2954
   1   2.0000     -11.284016      -307.0537
   2   2.0000     -11.275117      -306.8115
   3   2.0000     -11.234783      -305.7140
   4   2.0000     -11.233380      -305.6758
   5   2.0000     -11.226445      -305.4871
   6   2.0000     -11.219755      -305.3051
   7   2.0000     -11.219076      -305.2866
   8   2.0000      -1.383841       -37.6562
   9   2.0000      -1.148346       -31.2481
  10   2.0000      -1.125599       -30.6291
  11   2.0000      -0.946713       -25.7614
  12   2.0000      -0.865172       -23.5425
  13   2.0000      -0.823765       -22.4158
  14   2.0000      -0.788557       -21.4577
  15   2.0000      -0.749490       -20.3947
  16   2.0000      -0.699622       -19.0377
  17   2.0000      -0.653749       -17.7894
  18   2.0000      -0.638834       -17.3835
  19   2.0000      -0.622724       -16.9452
  20   2.0000      -0.582305       -15.8453
  21   2.0000      -0.556130       -15.1331
  22   2.0000      -0.530500       -14.4356
  23   2.0000      -0.514756       -14.0072
  24   2.0000      -0.510117       -13.8810
  25   2.0000      -0.477117       -12.9830
  26   2.0000      -0.438239       -11.9251
  27   2.0000      -0.421190       -11.4612
  28   2.0000      -0.402406       -10.9500
  29   2.0000      -0.360589        -9.8121
  30   0.0000       0.147131         4.0037
  31   0.0000       0.160902         4.3784
  32   0.0000       0.170717         4.6454
  33   0.0000       0.175380         4.7723
  34   0.0000       0.196764         5.3542

MULLIKEN ATOMIC CHARGES
-----------------------
   0 C :   -0.276898
   1 C :   -0.306317
   2 C :    0.177967
   3 O :   -0.312026
   4 C :   -0.028941
   5 C :   -0.132802
   6 C :   -0.287947
   7 C :   -0.095831
   8 H :    0.132191
   9 H :    0.129540
  10 H :    0.122062
  11 H :    0.130708
  12 H :    0.087963
  13 H :    0.116374
  14 H :    0.132777
  15 H :    0.133253
  16 H :    0.144234
  17 H :    0.133695
Sum of atomic charges:    0.0000000

LOEWDIN ATOMIC CHARGES
----------------------
   0 C :   -0.201735
   1 C :   -0.207029
   2 C :   -0.317338
   3 O :    0.204716
   4 C :   -0.272837
   5 C :   -0.205218
   6 C :   -0.196756
   7 C :   -0.165822
   8 H :    0.139219
   9 H :    0.134420
  10 H :    0.130207
  11 H :    0.136628
  12 H :    0.123822
  13 H :    0.128421
  14 H :    0.144089
  15 H :    0.134983
  16 H :    0.141210
  17 H :    0.149020

  Mayer bond orders larger than 0.1
B(  0-C ,  1-C ) :   0.9397 B(  0-C ,  2-C ) :   0.8740 B(  0-C ,  8-H ) :   0.9178
B(  0-C ,  9-H ) :   0.9206 B(  1-C ,  2-C ) :   0.8685 B(  1-C , 10-H ) :   0.9162
B(  1-C , 11-H ) :   0.9189 B(  2-C ,  3-O ) :   0.9779 B(  2-C ,  7-C ) :   0.9265
B(  3-O ,  4-C ) :   0.9289 B(  4-C ,  5-C ) :   0.9686 B(  4-C , 12-H ) :   0.9216
B(  4-C , 13-H ) :   0.9222 B(  5-C ,  6-C ) :   0.8900 B(  5-C ,  7-C ) :   0.8739
B(  5-C , 14-H ) :   0.9215 B(  6-C ,  7-C ) :   0.8726 B(  6-C , 15-H ) :   0.9310
B(  6-C , 16-H ) :   0.9154 B(  7-C , 17-H ) :   0.9114

MP2 TOTAL ENERGY:     -347.170933316 Eh
FINAL SINGLE POINT ENERGY      -347.170933315921

DIPOLE MOMENT
-------------
                                X             Y             Z
Electronic contribution:     -0.36540      -0.51220       1.45143
Nuclear contribution   :      0.48980       0.21440      -1.98468
                        -----------------------------------------
Total Dipole Moment    :      0.12440      -0.29781      -0.53325
                        -----------------------------------------
Magnitude (a.u.)       :      0.62331
Magnitude (Debye)      :      1.58434

                             ****ORCA TERMINATED NORMALLY****
TOTAL RUN TIME: 0 days 0 hours 13 minutes 1 seconds 569 msec
