                         Program Version 3.0.3 - RELEASE   -
|  1> ! RI-MP2 RIJK def2-TZVP def2-TZVP/C def2-TZVP/JK TIGHTSCF
|  2> % maxcore 2000
|  3> % mp2 density relaxed end
|  4> *xyz 0 1
|  5>  O       -0.0747909174     1.3591863013     0.0546225269
|  6>  C        0.0532930412    -0.0254304532     0.0577477673
|  7>  C        0.8885404410    -0.7730770894     1.0902654796
|  8>  C        0.4451356443    -2.1206447316     0.5113959815
|  9>  O       -0.9737136462    -2.0694769775     0.5983288600
| 10>  C       -1.3136162283    -0.7997159510     0.0140697086
| 11>  C       -1.1927476614    -0.8893019496    -1.5247355351
| 12>  C        0.3336468699    -0.7847540177    -1.3039219856
| 13>  O        0.8472302965    -2.0498482971    -0.8539304441
| 14>  H        0.7931447606     1.7466851740    -0.1025862088
| 15>  H        1.9651438315    -0.6092994347     0.9989228515
| 16>  H        0.5528390505    -0.6183857217     2.1171265720
| 17>  H        0.8036942860    -3.0511499694     0.9461023662
| 18>  H       -2.2051069368    -0.3954525002     0.4941609905
| 19>  H       -1.5668918620    -1.7954531045    -2.0029863157
| 20>  H       -1.5912019438     0.0057661149    -2.0100327246
| 21>  H        0.9919729145    -0.3721495525    -2.0709785201
| 22> *
| 23>
| 24>                          ****END OF INPUT****

CARTESIAN COORDINATES (ANGSTROEM)
---------------------------------
  O     -0.074791    1.359186    0.054623
  C      0.053293   -0.025430    0.057748
  C      0.888540   -0.773077    1.090265
  C      0.445136   -2.120645    0.511396
  O     -0.973714   -2.069477    0.598329
  C     -1.313616   -0.799716    0.014070
  C     -1.192748   -0.889302   -1.524736
  C      0.333647   -0.784754   -1.303922
  O      0.847230   -2.049848   -0.853930
  H      0.793145    1.746685   -0.102586
  H      1.965144   -0.609299    0.998923
  H      0.552839   -0.618386    2.117127
  H      0.803694   -3.051150    0.946102
  H     -2.205107   -0.395453    0.494161
  H     -1.566892   -1.795453   -2.002986
  H     -1.591202    0.005766   -2.010033
  H      0.991973   -0.372150   -2.070979

 Total Charge           Charge          ....    0
 Multiplicity           Mult            ....    1
 Number of Electrons    NEL             ....   68
 Basis Dimension        Dim             ....  327

ORBITAL ENERGIES
----------------

  NO   OCC          E(Eh)            E(eV)
   0   2.0000     -20.582212      -560.0705
   1   2.0000     -20.564123      -559.5782
   2   2.0000     -20.562718      -559.5400
   3   2.0000     -11.337539      -308.5101
   4   2.0000     -11.299916      -307.4864
   5   2.0000     -11.288719      -307.1817
   6   2.0000     -11.286917      -307.1326
   7   2.0000     -11.231664      -305.6291
   8   2.0000     -11.225185      -305.4528
   9   2.0000      -1.441776       -39.2327
  10   2.0000      -1.388994       -37.7965
  11   2.0000      -1.341368       -36.5005
  12   2.0000      -1.112964       -30.2853
  13   2.0000      -1.045132       -28.4395
  14   2.0000      -0.895390       -24.3648
  15   2.0000      -0.883675       -24.0460
  16   2.0000      -0.831657       -22.6305
  17   2.0000      -0.759432       -20.6652
  18   2.0000      -0.732620       -19.9356
  19   2.0000      -0.692341       -18.8396
  20   2.0000      -0.655254       -17.8304
  21   2.0000      -0.640170       -17.4199
  22   2.0000      -0.613806       -16.7025
  23   2.0000      -0.602146       -16.3852
  24   2.0000      -0.586331       -15.9549
  25   2.0000      -0.570935       -15.5359
  26   2.0000      -0.554196       -15.0804
  27   2.0000      -0.534644       -14.5484
  28   2.0000      -0.530345       -14.4314
  29   2.0000      -0.492338       -13.3972
  30   2.0000      -0.477608       -12.9964
  31   2.0000      -0.428527       -11.6608
  32   2.0000      -0.411761       -11.2046
  33   2.0000      -0.398173       -10.8348
  34   0.0000       0.126130         3.4322
  35   0.0000       0.159365         4.3365
  36   0.0000       0.168044         4.5727
  37   0.0000       0.186236         5.0678
  38   0.0000       0.193569         5.2673

MULLIKEN ATOMIC CHARGES
-----------------------
   0 O :   -0.452986
   1 C :    0.087424
   2 C :   -0.234619
   3 C :    0.133882
   4 O :   -0.314593
   5 C :    0.088438
   6 C :   -0.245892
   7 C :    0.058189
   8 O :   -0.315815
   9 H :    0.328745
  10 H :    0.120329
  11 H :    0.130879
  12 H :    0.130516
  13 H :    0.125613
  14 H :    0.121557
  15 H :    0.117854
  16 H :    0.120480
Sum of atomic charges:   -0.0000000

LOEWDIN ATOMIC CHARGES
----------------------
   0 O :    0.034985
   1 C :   -0.337947
   2 C :   -0.207801
   3 C :   -0.362876
   4 O :    0.191348
   5 C :   -0.216528
   6 C :   -0.208319
   7 C :   -0.231424
   8 O :    0.187761
   9 H :    0.186144
  10 H :    0.142370
  11 H :    0.146470
  12 H :    0.137003
  13 H :    0.133387
  14 H :    0.132857
  15 H :    0.144585
  16 H :    0.127985

  Mayer bond orders larger than 0.1
B(  0-O ,  1-C ) :   1.0603 B(  0-O ,  9-H ) :   0.8340 B(  1-C ,  2-C ) :   0.9569
B(  1-C ,  5-C ) :   0.9048 B(  1-C ,  7-C ) :   0.8902 B(  2-C ,  3-C ) :   0.9583
B(  2-C , 10-H ) :   0.9110 B(  2-C , 11-H ) :   0.9158 B(  3-C ,  4-O ) :   0.9776
B(  3-C ,  8-O ) :   0.9703 B(  3-C , 12-H ) :   0.9254 B(  4-O ,  5-C ) :   0.9071
B(  5-C ,  6-C ) :   0.9699 B(  5-C , 13-H ) :   0.9077 B(  6-C ,  7-C ) :   0.9521
B(  6-C , 14-H ) :   0.9005 B(  6-C , 15-H ) :   0.9111 B(  7-C ,  8-O ) :   0.9029
B(  7-C , 16-H ) :   0.9067

MP2 TOTAL ENERGY:     -458.226552296 Eh
FINAL SINGLE POINT ENERGY      -458.226552296465

DIPOLE MOMENT
-------------
                                X             Y             Z
Electronic contribution:      0.07832      -1.23155       0.45366
Nuclear contribution   :      0.51755       1.90552      -0.42859
                        -----------------------------------------
Total Dipole Moment    :      0.59587       0.67397       0.02507
                        -----------------------------------------
Magnitude (a.u.)       :      0.89996
Magnitude (Debye)      :      2.28751

                             ****ORCA TERMINATED NORMALLY****
TOTAL RUN TIME: 0 days 0 hours 16 minutes 44 seconds 805 msec
