                         Program Version 3.0.3 - RELEASE   -
|  1> ! RI-MP2 RIJK def2-TZVP def2-TZVP/C def2-TZVP/JK TIGHTSCF
|  2> % maxcore 2000
|  3> % mp2 density relaxed end
|  4> *xyz 0 1
|  5>  C        0.1656399377     1.3607380168    -0.2725488829
|  6>  C        1.3848274417     2.1457265305     0.2145215022
|  7>  O        2.6499413890     1.5998980010    -0.1249931473
|  8>  C        2.8947671721     1.4404118248    -1.5058702956
|  9>  C        2.4241882831     0.1226999627    -2.1113725993
| 10>  N        3.0276523535    -1.1265767909    -1.6352093066
| 11>  C        1.5844908432    -0.9098018257    -1.4318792434
| 12>  C        1.1424311900    -0.8230988256     0.0149714410
| 13>  O        0.0392550610     0.0506369542     0.2407398471
| 14>  H       -0.7284578177     1.8960369943     0.0676946381
| 15>  H        0.1373621851     1.3600258583    -1.3725684277
| 16>  H        1.2986818534     3.1753463182    -0.1758721837
| 17>  H        1.3792632976     2.1944800216     1.3079795838
| 18>  H        2.4391478496     2.2674394673    -2.0747604853
| 19>  H        3.9811147774     1.5128272227    -1.6332766840
| 20>  H        2.2653309470     0.2061644737    -3.1878876705
| 21>  H        3.1930503810    -1.7635165963    -2.4093067590
| 22>  H        0.8972503431    -1.4479446503    -2.0841581212
| 23>  H        0.7877177484    -1.8065324885     0.3417785467
| 24>  H        2.0052458939    -0.5479270689     0.6263483375
| 25> *
| 26>
| 27>                          ****END OF INPUT****

CARTESIAN COORDINATES (ANGSTROEM)
---------------------------------
  C      0.165640    1.360738   -0.272549
  C      1.384827    2.145727    0.214522
  O      2.649941    1.599898   -0.124993
  C      2.894767    1.440412   -1.505870
  C      2.424188    0.122700   -2.111373
  N      3.027652   -1.126577   -1.635209
  C      1.584491   -0.909802   -1.431879
  C      1.142431   -0.823099    0.014971
  O      0.039255    0.050637    0.240740
  H     -0.728458    1.896037    0.067695
  H      0.137362    1.360026   -1.372568
  H      1.298682    3.175346   -0.175872
  H      1.379263    2.194480    1.307980
  H      2.439148    2.267439   -2.074760
  H      3.981115    1.512827   -1.633277
  H      2.265331    0.206164   -3.187888
  H      3.193050   -1.763517   -2.409307
  H      0.897250   -1.447945   -2.084158
  H      0.787718   -1.806532    0.341779
  H      2.005246   -0.547927    0.626348

 Total Charge           Charge          ....    0
 Multiplicity           Mult            ....    1
 Number of Electrons    NEL             ....   70
 Basis Dimension        Dim             ....  345

ORBITAL ENERGIES
----------------

  NO   OCC          E(Eh)            E(eV)
   0   2.0000     -20.556480      -559.3703
   1   2.0000     -20.550709      -559.2132
   2   2.0000     -15.561246      -423.4430
   3   2.0000     -11.282569      -307.0143
   4   2.0000     -11.278070      -306.8919
   5   2.0000     -11.275009      -306.8086
   6   2.0000     -11.266531      -306.5779
   7   2.0000     -11.266276      -306.5710
   8   2.0000     -11.262881      -306.4786
   9   2.0000      -1.384471       -37.6734
  10   2.0000      -1.361702       -37.0538
  11   2.0000      -1.265804       -34.4443
  12   2.0000      -1.025545       -27.9065
  13   2.0000      -0.988468       -26.8976
  14   2.0000      -0.948113       -25.7995
  15   2.0000      -0.845636       -23.0109
  16   2.0000      -0.837343       -22.7853
  17   2.0000      -0.758071       -20.6282
  18   2.0000      -0.717784       -19.5319
  19   2.0000      -0.683369       -18.5954
  20   2.0000      -0.673684       -18.3319
  21   2.0000      -0.648672       -17.6513
  22   2.0000      -0.636454       -17.3188
  23   2.0000      -0.615010       -16.7353
  24   2.0000      -0.591581       -16.0977
  25   2.0000      -0.553754       -15.0684
  26   2.0000      -0.536315       -14.5939
  27   2.0000      -0.525491       -14.2993
  28   2.0000      -0.503442       -13.6994
  29   2.0000      -0.484639       -13.1877
  30   2.0000      -0.458615       -12.4796
  31   2.0000      -0.453831       -12.3494
  32   2.0000      -0.451378       -12.2826
  33   2.0000      -0.398250       -10.8369
  34   2.0000      -0.387817       -10.5530
  35   0.0000       0.127504         3.4696
  36   0.0000       0.152241         4.1427
  37   0.0000       0.166232         4.5234
  38   0.0000       0.174625         4.7518
  39   0.0000       0.193679         5.2703

MULLIKEN ATOMIC CHARGES
-----------------------
   0 C :   -0.064528
   1 C :   -0.075799
   2 O :   -0.311123
   3 C :   -0.036233
   4 C :   -0.064715
   5 N :   -0.395626
   6 C :   -0.083223
   7 C :   -0.038802
   8 O :   -0.320379
   9 H :    0.130362
  10 H :    0.094799
  11 H :    0.103751
  12 H :    0.122542
  13 H :    0.097895
  14 H :    0.126841
  15 H :    0.123991
  16 H :    0.220342
  17 H :    0.119598
  18 H :    0.115946
  19 H :    0.134361
Sum of atomic charges:    0.0000000

LOEWDIN ATOMIC CHARGES
----------------------
   0 C :   -0.339050
   1 C :   -0.329454
   2 O :    0.160118
   3 C :   -0.309491
   4 C :   -0.275952
   5 N :    0.012541
   6 C :   -0.259622
   7 C :   -0.301233
   8 O :    0.149367
   9 H :    0.136537
  10 H :    0.123230
  11 H :    0.125446
  12 H :    0.134690
  13 H :    0.125479
  14 H :    0.137243
  15 H :    0.140159
  16 H :    0.166171
  17 H :    0.137349
  18 H :    0.132409
  19 H :    0.134061

  Mayer bond orders larger than 0.1
B(  0-C ,  1-C ) :   0.9075 B(  0-C ,  8-O ) :   0.9452 B(  0-C ,  9-H ) :   0.9217
B(  0-C , 10-H ) :   0.9311 B(  1-C ,  2-O ) :   0.9054 B(  1-C , 11-H ) :   0.9306
B(  1-C , 12-H ) :   0.9282 B(  2-O ,  3-C ) :   0.9572 B(  3-C ,  4-C ) :   0.9239
B(  3-C , 13-H ) :   0.9453 B(  3-C , 14-H ) :   0.9182 B(  4-C ,  5-N ) :   0.8801
B(  4-C ,  6-C ) :   0.9167 B(  4-C , 15-H ) :   0.9135 B(  5-N ,  6-C ) :   0.9739
B(  5-N , 16-H ) :   0.8676 B(  6-C ,  7-C ) :   0.8603 B(  6-C , 17-H ) :   0.9296
B(  7-C ,  8-O ) :   0.9337 B(  7-C , 18-H ) :   0.9222 B(  7-C , 19-H ) :   0.9484

MP2 TOTAL ENERGY:     -439.520672535 Eh
FINAL SINGLE POINT ENERGY      -439.520672534799

DIPOLE MOMENT
-------------
                                X             Y             Z
Electronic contribution:      0.65725      -1.72813       1.43857
Nuclear contribution   :     -0.89644       1.99447      -2.49884
                        -----------------------------------------
Total Dipole Moment    :     -0.23919       0.26634      -1.06027
                        -----------------------------------------
Magnitude (a.u.)       :      1.11907
Magnitude (Debye)      :      2.84445

                             ****ORCA TERMINATED NORMALLY****
TOTAL RUN TIME: 0 days 0 hours 17 minutes 23 seconds 388 msec
