                         Program Version 3.0.3 - RELEASE   -
|  1> ! RI-MP2 RIJK def2-TZVP def2-TZVP/C def2-TZVP/JK TIGHTSCF
|  2> % maxcore 2000
|  3> % mp2 density relaxed end
|  4> *xyz 0 1
|  5>  C        0.0310208035     1.5348718721    -0.1120219460
|  6>  C        0.0156533676     0.0105710735     0.0503752233
|  7>  C        0.8112470830    -0.4339662770     1.2814849094
|  8>  C       -1.4466802327    -0.5379828739     0.0670972342
|  9>  O       -2.0364531562    -0.0971928237    -1.1605612119
| 10>  C       -1.4502686787    -2.0123515395     0.1148624272
| 11>  C       -1.4724720597    -3.2138381325     0.1116713461
| 12>  C       -2.2111608538    -0.0171803442     1.2164945704
| 13>  C       -2.8579393025     0.4137912543     2.1331315892
| 14>  H        1.0634965383     1.8866566539    -0.2012486781
| 15>  H       -0.5190932286     1.8444788689    -1.0019393858
| 16>  H       -0.4177467729     2.0251841439     0.7579426941
| 17>  H        0.4593046207    -0.4428716338    -0.8439287414
| 18>  H        0.3816466983    -0.0144839205     2.1970444224
| 19>  H        0.8294073485    -1.5223523111     1.3803985920
| 20>  H        1.8441758819    -0.0818086628     1.2033087823
| 21>  H       -2.9415784507    -0.4277768104    -1.1824989168
| 22>  H       -1.4919120572    -4.2759185112     0.1152344420
| 23>  H       -3.4281670388     0.7914526740     2.9459998173
| 24> *
| 25>
| 26>                          ****END OF INPUT****

CARTESIAN COORDINATES (ANGSTROEM)
---------------------------------
  C      0.031021    1.534872   -0.112022
  C      0.015653    0.010571    0.050375
  C      0.811247   -0.433966    1.281485
  C     -1.446680   -0.537983    0.067097
  O     -2.036453   -0.097193   -1.160561
  C     -1.450269   -2.012352    0.114862
  C     -1.472472   -3.213838    0.111671
  C     -2.211161   -0.017180    1.216495
  C     -2.857939    0.413791    2.133132
  H      1.063497    1.886657   -0.201249
  H     -0.519093    1.844479   -1.001939
  H     -0.417747    2.025184    0.757943
  H      0.459305   -0.442872   -0.843929
  H      0.381647   -0.014484    2.197044
  H      0.829407   -1.522352    1.380399
  H      1.844176   -0.081809    1.203309
  H     -2.941578   -0.427777   -1.182499
  H     -1.491912   -4.275919    0.115234
  H     -3.428167    0.791453    2.946000

 Total Charge           Charge          ....    0
 Multiplicity           Mult            ....    1
 Number of Electrons    NEL             ....   66
 Basis Dimension        Dim             ....  339

ORBITAL ENERGIES
----------------

  NO   OCC          E(Eh)            E(eV)
   0   2.0000     -20.573789      -559.8413
   1   2.0000     -11.345986      -308.7400
   2   2.0000     -11.243275      -305.9451
   3   2.0000     -11.242885      -305.9344
   4   2.0000     -11.242205      -305.9159
   5   2.0000     -11.236674      -305.7654
   6   2.0000     -11.236124      -305.7505
   7   2.0000     -11.212975      -305.1206
   8   2.0000     -11.208477      -304.9982
   9   2.0000      -1.384643       -37.6781
  10   2.0000      -1.113619       -30.3031
  11   2.0000      -1.043628       -28.3986
  12   2.0000      -1.030283       -28.0354
  13   2.0000      -0.945744       -25.7350
  14   2.0000      -0.929732       -25.2993
  15   2.0000      -0.809049       -22.0153
  16   2.0000      -0.763424       -20.7738
  17   2.0000      -0.729047       -19.8384
  18   2.0000      -0.705222       -19.1901
  19   2.0000      -0.687035       -18.6952
  20   2.0000      -0.637506       -17.3474
  21   2.0000      -0.604505       -16.4494
  22   2.0000      -0.569007       -15.4835
  23   2.0000      -0.549039       -14.9401
  24   2.0000      -0.533571       -14.5192
  25   2.0000      -0.503199       -13.6927
  26   2.0000      -0.498609       -13.5678
  27   2.0000      -0.477852       -13.0030
  28   2.0000      -0.477107       -12.9827
  29   2.0000      -0.418986       -11.4012
  30   2.0000      -0.403669       -10.9844
  31   2.0000      -0.399471       -10.8702
  32   2.0000      -0.390565       -10.6278
  33   0.0000       0.125227         3.4076
  34   0.0000       0.145605         3.9621
  35   0.0000       0.153138         4.1671
  36   0.0000       0.157517         4.2863
  37   0.0000       0.161038         4.3821

MULLIKEN ATOMIC CHARGES
-----------------------
   0 C :   -0.424163
   1 C :   -0.042370
   2 C :   -0.433511
   3 C :    0.219979
   4 O :   -0.459343
   5 C :   -0.098545
   6 C :   -0.122540
   7 C :   -0.142348
   8 C :   -0.153803
   9 H :    0.130905
  10 H :    0.156392
  11 H :    0.132414
  12 H :    0.102658
  13 H :    0.137618
  14 H :    0.148248
  15 H :    0.133711
  16 H :    0.324845
  17 H :    0.195574
  18 H :    0.194277
Sum of atomic charges:    0.0000000

LOEWDIN ATOMIC CHARGES
----------------------
   0 C :   -0.284213
   1 C :   -0.243859
   2 C :   -0.281182
   3 C :   -0.341470
   4 O :    0.040087
   5 C :   -0.056045
   6 C :   -0.075833
   7 C :   -0.055660
   8 C :   -0.075430
   9 H :    0.124939
  10 H :    0.129649
  11 H :    0.128063
  12 H :    0.163060
  13 H :    0.129385
  14 H :    0.129600
  15 H :    0.126455
  16 H :    0.183787
  17 H :    0.129284
  18 H :    0.129385

  Mayer bond orders larger than 0.1
B(  0-C ,  1-C ) :   0.9218 B(  0-C ,  9-H ) :   0.9380 B(  0-C , 10-H ) :   0.9366
B(  0-C , 11-H ) :   0.9249 B(  1-C ,  2-C ) :   0.9232 B(  1-C ,  3-C ) :   0.7757
B(  1-C , 12-H ) :   0.9256 B(  2-C , 13-H ) :   0.9269 B(  2-C , 14-H ) :   0.9352
B(  2-C , 15-H ) :   0.9362 B(  3-C ,  4-O ) :   0.7806 B(  3-C ,  5-C ) :   1.2215
B(  3-C ,  6-C ) :  -0.1057 B(  3-C ,  7-C ) :   1.2032 B(  4-O ,  5-C ) :   0.1035
B(  4-O , 16-H ) :   0.8372 B(  5-C ,  6-C ) :   2.5600 B(  6-C , 17-H ) :   0.8816
B(  7-C ,  8-C ) :   2.5540 B(  8-C , 18-H ) :   0.8885

MP2 TOTAL ENERGY:     -385.133415993 Eh
FINAL SINGLE POINT ENERGY      -385.133415993104

DIPOLE MOMENT
-------------
                                X             Y             Z
Electronic contribution:     -6.94757      -4.10653      -1.20449
Nuclear contribution   :      6.77061       3.86294       1.54024
                        -----------------------------------------
Total Dipole Moment    :     -0.17696      -0.24359       0.33574
                        -----------------------------------------
Magnitude (a.u.)       :      0.45097
Magnitude (Debye)      :      1.14628

                             ****ORCA TERMINATED NORMALLY****
TOTAL RUN TIME: 0 days 0 hours 20 minutes 27 seconds 666 msec
