                         Program Version 3.0.3 - RELEASE   -
|  1> ! RI-MP2 RIJK def2-TZVP def2-TZVP/C def2-TZVP/JK TIGHTSCF
|  2> % maxcore 2000
|  3> % mp2 density relaxed end
|  4> *xyz 0 1
|  5>  C       -0.1027861074     1.4213294320    -0.0075057177
|  6>  O       -0.0208794599    -0.0075446349     0.0250534106
|  7>  C       -1.1690587406    -0.6805744112     0.0211034626
|  8>  C       -1.3707467537    -2.0289757919     0.0061732311
|  9>  C       -0.3650650594    -3.1330361293    -0.0327669031
| 10>  C       -2.7962574570    -2.1069940378     0.0039243638
| 11>  N       -3.5420515861    -3.2708538407    -0.0862777131
| 12>  N       -3.3900418699    -0.9302573908     0.0272968780
| 13>  O       -2.3164651912     0.0033351471     0.0274149755
| 14>  H        0.9288481105     1.7729216776    -0.0072797104
| 15>  H       -0.6167855910     1.7628027050    -0.9106713499
| 16>  H       -0.6305148730     1.8025012112     0.8714265053
| 17>  H       -0.3677903625    -3.7348499880     0.8854317137
| 18>  H       -0.5500042704    -3.8161182970    -0.8699166488
| 19>  H        0.6421204861    -2.7251857741    -0.1498272508
| 20>  H       -3.1672729180    -4.0422233668     0.4479350486
| 21>  H       -4.5226834565    -3.1218860204     0.1132890947
| 22> *
| 23>
| 24>                          ****END OF INPUT****

CARTESIAN COORDINATES (ANGSTROEM)
---------------------------------
  C     -0.102786    1.421329   -0.007506
  O     -0.020879   -0.007545    0.025053
  C     -1.169059   -0.680574    0.021103
  C     -1.370747   -2.028976    0.006173
  C     -0.365065   -3.133036   -0.032767
  C     -2.796257   -2.106994    0.003924
  N     -3.542052   -3.270854   -0.086278
  N     -3.390042   -0.930257    0.027297
  O     -2.316465    0.003335    0.027415
  H      0.928848    1.772922   -0.007280
  H     -0.616786    1.762803   -0.910671
  H     -0.630515    1.802501    0.871427
  H     -0.367790   -3.734850    0.885432
  H     -0.550004   -3.816118   -0.869917
  H      0.642120   -2.725186   -0.149827
  H     -3.167273   -4.042223    0.447935
  H     -4.522683   -3.121886    0.113289

 Total Charge           Charge          ....    0
 Multiplicity           Mult            ....    1
 Number of Electrons    NEL             ....   68
 Basis Dimension        Dim             ....  327

ORBITAL ENERGIES
----------------

  NO   OCC          E(Eh)            E(eV)
   0   2.0000     -20.625729      -561.2546
   1   2.0000     -20.612219      -560.8870
   2   2.0000     -15.584100      -424.0649
   3   2.0000     -15.577936      -423.8972
   4   2.0000     -11.367378      -309.3221
   5   2.0000     -11.309596      -307.7498
   6   2.0000     -11.295343      -307.3619
   7   2.0000     -11.232585      -305.6542
   8   2.0000     -11.221708      -305.3582
   9   2.0000      -1.494489       -40.6671
  10   2.0000      -1.419510       -38.6268
  11   2.0000      -1.245701       -33.8972
  12   2.0000      -1.108976       -30.1768
  13   2.0000      -1.080688       -29.4070
  14   2.0000      -0.978970       -26.6391
  15   2.0000      -0.935826       -25.4651
  16   2.0000      -0.803330       -21.8597
  17   2.0000      -0.798779       -21.7359
  18   2.0000      -0.732768       -19.9396
  19   2.0000      -0.696983       -18.9659
  20   2.0000      -0.689894       -18.7730
  21   2.0000      -0.651515       -17.7286
  22   2.0000      -0.626749       -17.0547
  23   2.0000      -0.604647       -16.4533
  24   2.0000      -0.591165       -16.0864
  25   2.0000      -0.572560       -15.5801
  26   2.0000      -0.568451       -15.4683
  27   2.0000      -0.535563       -14.5734
  28   2.0000      -0.531385       -14.4597
  29   2.0000      -0.519963       -14.1489
  30   2.0000      -0.502515       -13.6741
  31   2.0000      -0.457122       -12.4389
  32   2.0000      -0.366033        -9.9603
  33   2.0000      -0.327069        -8.9000
  34   0.0000       0.123781         3.3682
  35   0.0000       0.149897         4.0789
  36   0.0000       0.163984         4.4622
  37   0.0000       0.169812         4.6208
  38   0.0000       0.194964         5.3053

MULLIKEN ATOMIC CHARGES
-----------------------
   0 C :   -0.222234
   1 O :   -0.277164
   2 C :    0.308286
   3 C :   -0.110492
   4 C :   -0.443217
   5 C :    0.207659
   6 N :   -0.521182
   7 N :   -0.194313
   8 O :   -0.143101
   9 H :    0.148899
  10 H :    0.142911
  11 H :    0.142730
  12 H :    0.139450
  13 H :    0.155228
  14 H :    0.155875
  15 H :    0.255056
  16 H :    0.255609
Sum of atomic charges:    0.0000000

LOEWDIN ATOMIC CHARGES
----------------------
   0 C :   -0.304635
   1 O :    0.243593
   2 C :   -0.392474
   3 C :   -0.196125
   4 C :   -0.273842
   5 C :   -0.376478
   6 N :   -0.064475
   7 N :    0.007173
   8 O :    0.265052
   9 H :    0.117067
  10 H :    0.114263
  11 H :    0.114041
  12 H :    0.128335
  13 H :    0.133738
  14 H :    0.138195
  15 H :    0.171649
  16 H :    0.174922

  Mayer bond orders larger than 0.1
B(  0-C ,  1-O ) :   0.8420 B(  0-C ,  9-H ) :   0.9353 B(  0-C , 10-H ) :   0.9360
B(  0-C , 11-H ) :   0.9363 B(  1-O ,  2-C ) :   1.1321 B(  2-C ,  3-C ) :   1.4903
B(  2-C ,  7-N ) :   0.1047 B(  2-C ,  8-O ) :   1.1418 B(  3-C ,  4-C ) :   0.8485
B(  3-C ,  5-C ) :   1.1951 B(  4-C , 12-H ) :   0.9343 B(  4-C , 13-H ) :   0.9398
B(  4-C , 14-H ) :   0.9404 B(  5-C ,  6-N ) :   1.0482 B(  5-C ,  7-N ) :   1.6324
B(  6-N , 15-H ) :   0.8679 B(  6-N , 16-H ) :   0.8741 B(  7-N ,  8-O ) :   0.8208

MP2 TOTAL ENERGY:     -454.393499444 Eh
FINAL SINGLE POINT ENERGY      -454.393499443798

DIPOLE MOMENT
-------------
                                X             Y             Z
Electronic contribution:     -3.96996       2.25506       0.02782
Nuclear contribution   :      4.67326      -2.57126       0.34037
                        -----------------------------------------
Total Dipole Moment    :      0.70329      -0.31620       0.36819
                        -----------------------------------------
Magnitude (a.u.)       :      0.85450
Magnitude (Debye)      :      2.17196

                             ****ORCA TERMINATED NORMALLY****
TOTAL RUN TIME: 0 days 0 hours 17 minutes 35 seconds 203 msec
