                         Program Version 3.0.3 - RELEASE   -
|  1> ! RI-MP2 RIJK def2-TZVP def2-TZVP/C def2-TZVP/JK TIGHTSCF
|  2> % maxcore 2000
|  3> % mp2 density relaxed end
|  4> *xyz 0 1
|  5>  O        0.7243857961    -0.1627976058     0.7801971073
|  6>  C       -0.0694791421     0.2553888685    -0.3231801210
|  7>  C       -1.4851119841    -0.1289090577    -0.0309588538
|  8>  C       -2.6980622311     0.2911973015    -0.5306383421
|  9>  C       -3.6623143930    -0.5116641892     0.1346695389
| 10>  N       -3.0791477082    -1.3633091104     0.9917485484
| 11>  N       -1.7698378493    -1.1126343388     0.8578350244
| 12>  C       -5.0702194251    -0.4699268500    -0.0294207472
| 13>  C       -6.2602777156    -0.4060344618    -0.1961483454
| 14>  H        1.6500658983    -0.1022372338     0.5284799396
| 15>  H       -0.0078400712     1.3418495332    -0.4829383909
| 16>  H        0.2674869237    -0.2293506164    -1.2531335913
| 17>  H       -2.8807035028     1.0589833311    -1.2640389252
| 18>  H       -1.0980047856    -1.5898170334     1.4362523423
| 19>  H       -7.3118178700    -0.3588497371    -0.3337927139
| 20> *
| 21>
| 22>                          ****END OF INPUT****

CARTESIAN COORDINATES (ANGSTROEM)
---------------------------------
  O      0.724386   -0.162798    0.780197
  C     -0.069479    0.255389   -0.323180
  C     -1.485112   -0.128909   -0.030959
  C     -2.698062    0.291197   -0.530638
  C     -3.662314   -0.511664    0.134670
  N     -3.079148   -1.363309    0.991749
  N     -1.769838   -1.112634    0.857835
  C     -5.070219   -0.469927   -0.029421
  C     -6.260278   -0.406034   -0.196148
  H      1.650066   -0.102237    0.528480
  H     -0.007840    1.341850   -0.482938
  H      0.267487   -0.229351   -1.253134
  H     -2.880704    1.058983   -1.264039
  H     -1.098005   -1.589817    1.436252
  H     -7.311818   -0.358850   -0.333793

 Total Charge           Charge          ....    0
 Multiplicity           Mult            ....    1
 Number of Electrons    NEL             ....   64
 Basis Dimension        Dim             ....  315

ORBITAL ENERGIES
----------------

  NO   OCC          E(Eh)            E(eV)
   0   2.0000     -20.588303      -560.2362
   1   2.0000     -15.639083      -425.5611
   2   2.0000     -15.592383      -424.2903
   3   2.0000     -11.314913      -307.8944
   4   2.0000     -11.285330      -307.0894
   5   2.0000     -11.276689      -306.8543
   6   2.0000     -11.234012      -305.6930
   7   2.0000     -11.226270      -305.4823
   8   2.0000     -11.225292      -305.4557
   9   2.0000      -1.397930       -38.0396
  10   2.0000      -1.375754       -37.4362
  11   2.0000      -1.121736       -30.5240
  12   2.0000      -1.077855       -29.3299
  13   2.0000      -1.015993       -27.6466
  14   2.0000      -0.957342       -26.0506
  15   2.0000      -0.857883       -23.3442
  16   2.0000      -0.810937       -22.0667
  17   2.0000      -0.730543       -19.8791
  18   2.0000      -0.717796       -19.5322
  19   2.0000      -0.706075       -19.2133
  20   2.0000      -0.666885       -18.1469
  21   2.0000      -0.639255       -17.3950
  22   2.0000      -0.607283       -16.5250
  23   2.0000      -0.603338       -16.4176
  24   2.0000      -0.585698       -15.9376
  25   2.0000      -0.544099       -14.8057
  26   2.0000      -0.489311       -13.3148
  27   2.0000      -0.465115       -12.6564
  28   2.0000      -0.444271       -12.0892
  29   2.0000      -0.393991       -10.7211
  30   2.0000      -0.347153        -9.4465
  31   2.0000      -0.329768        -8.9734
  32   0.0000       0.112204         3.0532
  33   0.0000       0.128821         3.5054
  34   0.0000       0.156009         4.2452
  35   0.0000       0.164317         4.4713
  36   0.0000       0.165946         4.5156

MULLIKEN ATOMIC CHARGES
-----------------------
   0 O :   -0.484161
   1 C :   -0.122319
   2 C :    0.115590
   3 C :   -0.233652
   4 C :   -0.062233
   5 N :   -0.219529
   6 N :   -0.102679
   7 C :    0.037027
   8 C :   -0.121489
   9 H :    0.327698
  10 H :    0.126105
  11 H :    0.127075
  12 H :    0.148672
  13 H :    0.273001
  14 H :    0.190894
Sum of atomic charges:   -0.0000000

LOEWDIN ATOMIC CHARGES
----------------------
   0 O :   -0.046593
   1 C :   -0.304430
   2 C :   -0.241311
   3 C :   -0.131452
   4 C :   -0.271114
   5 N :    0.066760
   6 N :    0.168120
   7 C :   -0.069518
   8 C :   -0.079249
   9 H :    0.178094
  10 H :    0.130939
  11 H :    0.128935
  12 H :    0.147549
  13 H :    0.196456
  14 H :    0.126814

  Mayer bond orders larger than 0.1
B(  0-O ,  1-C ) :   1.0506 B(  0-O ,  2-C ) :  -0.1209 B(  0-O ,  9-H ) :   0.8422
B(  1-C ,  2-C ) :   0.8745 B(  1-C , 10-H ) :   0.9495 B(  1-C , 11-H ) :   0.9268
B(  2-C ,  3-C ) :   1.4044 B(  2-C ,  5-N ) :   0.1159 B(  2-C ,  6-N ) :   1.2218
B(  3-C ,  4-C ) :   1.2559 B(  3-C , 12-H ) :   0.9174 B(  4-C ,  5-N ) :   1.4821
B(  4-C ,  7-C ) :   1.2010 B(  4-C ,  8-C ) :  -0.1640 B(  5-N ,  6-N ) :   1.0861
B(  6-N , 13-H ) :   0.8594 B(  7-C ,  8-C ) :   2.6169 B(  8-C , 14-H ) :   0.8707

MP2 TOTAL ENERGY:     -416.078553341 Eh
FINAL SINGLE POINT ENERGY      -416.078553341106

DIPOLE MOMENT
-------------
                                X             Y             Z
Electronic contribution:     -3.36343      -1.86489       1.73053
Nuclear contribution   :      4.93256       2.35731      -2.43383
                        -----------------------------------------
Total Dipole Moment    :      1.56913       0.49242      -0.70330
                        -----------------------------------------
Magnitude (a.u.)       :      1.78865
Magnitude (Debye)      :      4.54638

                             ****ORCA TERMINATED NORMALLY****
TOTAL RUN TIME: 0 days 0 hours 16 minutes 9 seconds 793 msec
