                         Program Version 3.0.3 - RELEASE   -
|  1> ! RI-MP2 RIJK def2-TZVP def2-TZVP/C def2-TZVP/JK TIGHTSCF
|  2> % maxcore 2000
|  3> % mp2 density relaxed end
|  4> *xyz 0 1
|  5>  C       -0.1066484187     1.4058171710    -0.3412088612
|  6>  O        1.0620723585     2.0319550122     0.1969325460
|  7>  C        2.0586280173     1.0653227432     0.4729621946
|  8>  C        1.5626123394    -0.2388427066    -0.1651198162
|  9>  C        0.0375617238    -0.0971244641    -0.0151016715
| 10>  C       -0.4545923079    -0.4218351097     1.3762716013
| 11>  C        0.0470822340     0.0384513691     2.5232843243
| 12>  C        1.2031715319     0.9866232972     2.7449720202
| 13>  O        2.3069089618     0.9389025135     1.8547757268
| 14>  H       -0.9887439453     1.8640882720     0.1137967160
| 15>  H       -0.1441093043     1.5688955551    -1.4282130025
| 16>  H        3.0109320765     1.4126416297     0.0593840095
| 17>  H        1.8406917674    -0.2610272046    -1.2246614798
| 18>  H        1.9812579959    -1.1131723494     0.3328059017
| 19>  H       -0.5017636086    -0.7022514560    -0.7472898668
| 20>  H       -1.3293130583    -1.0654650038     1.4298409409
| 21>  H       -0.4578089425    -0.2422819570     3.4463981479
| 22>  H        0.8041733381     2.0121172309     2.7885533672
| 23>  H        1.6457669709     0.7796179175     3.7244352416
| 24> *
| 25>
| 26>                          ****END OF INPUT****

CARTESIAN COORDINATES (ANGSTROEM)
---------------------------------
  C     -0.106648    1.405817   -0.341209
  O      1.062072    2.031955    0.196933
  C      2.058628    1.065323    0.472962
  C      1.562612   -0.238843   -0.165120
  C      0.037562   -0.097124   -0.015102
  C     -0.454592   -0.421835    1.376272
  C      0.047082    0.038451    2.523284
  C      1.203172    0.986623    2.744972
  O      2.306909    0.938903    1.854776
  H     -0.988744    1.864088    0.113797
  H     -0.144109    1.568896   -1.428213
  H      3.010932    1.412642    0.059384
  H      1.840692   -0.261027   -1.224661
  H      1.981258   -1.113172    0.332806
  H     -0.501764   -0.702251   -0.747290
  H     -1.329313   -1.065465    1.429841
  H     -0.457809   -0.242282    3.446398
  H      0.804173    2.012117    2.788553
  H      1.645767    0.779618    3.724435

 Total Charge           Charge          ....    0
 Multiplicity           Mult            ....    1
 Number of Electrons    NEL             ....   68
 Basis Dimension        Dim             ....  339

ORBITAL ENERGIES
----------------

  NO   OCC          E(Eh)            E(eV)
   0   2.0000     -20.557455      -559.3968
   1   2.0000     -20.551662      -559.2392
   2   2.0000     -11.327641      -308.2408
   3   2.0000     -11.279511      -306.9311
   4   2.0000     -11.277777      -306.8839
   5   2.0000     -11.242129      -305.9139
   6   2.0000     -11.232698      -305.6573
   7   2.0000     -11.230974      -305.6103
   8   2.0000     -11.227199      -305.5076
   9   2.0000      -1.413682       -38.4682
  10   2.0000      -1.342996       -36.5448
  11   2.0000      -1.105031       -30.0694
  12   2.0000      -1.046723       -28.4828
  13   2.0000      -0.980377       -26.6774
  14   2.0000      -0.928401       -25.2631
  15   2.0000      -0.841142       -22.8886
  16   2.0000      -0.795418       -21.6444
  17   2.0000      -0.722000       -19.6466
  18   2.0000      -0.706570       -19.2268
  19   2.0000      -0.691293       -18.8110
  20   2.0000      -0.653176       -17.7738
  21   2.0000      -0.631436       -17.1822
  22   2.0000      -0.614354       -16.7174
  23   2.0000      -0.609010       -16.5720
  24   2.0000      -0.574324       -15.6281
  25   2.0000      -0.535955       -14.5841
  26   2.0000      -0.522365       -14.2143
  27   2.0000      -0.509257       -13.8576
  28   2.0000      -0.501502       -13.6466
  29   2.0000      -0.481258       -13.0957
  30   2.0000      -0.470111       -12.7924
  31   2.0000      -0.438700       -11.9376
  32   2.0000      -0.411621       -11.2008
  33   2.0000      -0.353676        -9.6240
  34   0.0000       0.133024         3.6198
  35   0.0000       0.145036         3.9466
  36   0.0000       0.162042         4.4094
  37   0.0000       0.169178         4.6036
  38   0.0000       0.186481         5.0744

MULLIKEN ATOMIC CHARGES
-----------------------
   0 C :   -0.057356
   1 O :   -0.331012
   2 C :    0.228043
   3 C :   -0.267589
   4 C :    0.028240
   5 C :   -0.288617
   6 C :   -0.160021
   7 C :   -0.027886
   8 O :   -0.312360
   9 H :    0.118215
  10 H :    0.103604
  11 H :    0.102617
  12 H :    0.121697
  13 H :    0.130844
  14 H :    0.121363
  15 H :    0.119554
  16 H :    0.121173
  17 H :    0.117714
  18 H :    0.131777
Sum of atomic charges:   -0.0000000

LOEWDIN ATOMIC CHARGES
----------------------
   0 C :   -0.265116
   1 O :    0.176298
   2 C :   -0.390541
   3 C :   -0.212826
   4 C :   -0.243653
   5 C :   -0.158430
   6 C :   -0.173521
   7 C :   -0.308230
   8 O :    0.175976
   9 H :    0.129466
  10 H :    0.121924
  11 H :    0.134992
  12 H :    0.143462
  13 H :    0.146413
  14 H :    0.155286
  15 H :    0.145940
  16 H :    0.148239
  17 H :    0.136359
  18 H :    0.137962

  Mayer bond orders larger than 0.1
B(  0-C ,  1-O ) :   0.9180 B(  0-C ,  4-C ) :   0.9120 B(  0-C ,  9-H ) :   0.9271
B(  0-C , 10-H ) :   0.9232 B(  1-O ,  2-C ) :   0.9500 B(  2-C ,  3-C ) :   0.9395
B(  2-C ,  8-O ) :   0.9742 B(  2-C , 11-H ) :   0.9319 B(  3-C ,  4-C ) :   0.8989
B(  3-C , 12-H ) :   0.9163 B(  3-C , 13-H ) :   0.9241 B(  4-C ,  5-C ) :   0.9206
B(  4-C , 14-H ) :   0.9220 B(  5-C ,  6-C ) :   1.8319 B(  5-C , 15-H ) :   0.9323
B(  6-C ,  7-C ) :   0.9144 B(  6-C , 16-H ) :   0.9140 B(  7-C ,  8-O ) :   0.9417
B(  7-C , 17-H ) :   0.9258 B(  7-C , 18-H ) :   0.9285

MP2 TOTAL ENERGY:     -422.325782195 Eh
FINAL SINGLE POINT ENERGY      -422.325782194706

DIPOLE MOMENT
-------------
                                X             Y             Z
Electronic contribution:      2.20991       1.77372       0.69339
Nuclear contribution   :     -2.80904      -2.28526      -0.99774
                        -----------------------------------------
Total Dipole Moment    :     -0.59912      -0.51154      -0.30435
                        -----------------------------------------
Magnitude (a.u.)       :      0.84454
Magnitude (Debye)      :      2.14665

                             ****ORCA TERMINATED NORMALLY****
TOTAL RUN TIME: 0 days 0 hours 18 minutes 22 seconds 591 msec
