                         Program Version 3.0.3 - RELEASE   -
|  1> ! RI-MP2 RIJK def2-TZVP def2-TZVP/C def2-TZVP/JK TIGHTSCF
|  2> % maxcore 2000
|  3> % mp2 density relaxed end
|  4> *xyz 0 1
|  5>  C        0.0039415993     1.4972477905    -0.0194477737
|  6>  C        0.0189783266    -0.0062037159    -0.0363666564
|  7>  C        0.5606201874    -0.9469979597    -1.1390744029
|  8>  C        0.0328055877    -1.9079834131    -0.0471253154
|  9>  C        0.0396334360    -3.4115898224    -0.0472196361
| 10>  C        0.6333705036    -0.9589474726     1.0660045281
| 11>  C       -0.3378018714    -0.9726992092     2.2310500082
| 12>  C       -1.5399791728    -0.9779183817     1.6451831168
| 13>  C       -1.2208528413    -0.9673092754     0.1623655921
| 14>  H        1.0196596669     1.9024920631    -0.0874257275
| 15>  H       -0.5711258752     1.8953095877    -0.8628760501
| 16>  H       -0.4492782544     1.8669340028     0.9068838430
| 17>  H        0.0236384881    -0.9455021012    -2.0938245555
| 18>  H        1.6434316550    -0.9381887700    -1.3044269312
| 19>  H        1.0610864308    -3.8012316943    -0.1202904045
| 20>  H       -0.4075612985    -3.7982828933     0.8750881663
| 21>  H       -0.5301507446    -3.8083997755    -0.8948137042
| 22>  H        1.7111593979    -0.9521093306     1.2421705805
| 23>  H       -0.0844998231    -0.9768897626     3.2821032692
| 24>  H       -2.5238351257    -0.9875206450     2.0933214210
| 25>  H       -2.0237149424    -0.9689569016    -0.5779859379
| 26> *
| 27>
| 28>                          ****END OF INPUT****

CARTESIAN COORDINATES (ANGSTROEM)
---------------------------------
  C      0.003942    1.497248   -0.019448
  C      0.018978   -0.006204   -0.036367
  C      0.560620   -0.946998   -1.139074
  C      0.032806   -1.907983   -0.047125
  C      0.039633   -3.411590   -0.047220
  C      0.633371   -0.958947    1.066005
  C     -0.337802   -0.972699    2.231050
  C     -1.539979   -0.977918    1.645183
  C     -1.220853   -0.967309    0.162366
  H      1.019660    1.902492   -0.087426
  H     -0.571126    1.895310   -0.862876
  H     -0.449278    1.866934    0.906884
  H      0.023638   -0.945502   -2.093825
  H      1.643432   -0.938189   -1.304427
  H      1.061086   -3.801232   -0.120290
  H     -0.407561   -3.798283    0.875088
  H     -0.530151   -3.808400   -0.894814
  H      1.711159   -0.952109    1.242171
  H     -0.084500   -0.976890    3.282103
  H     -2.523835   -0.987521    2.093321
  H     -2.023715   -0.968957   -0.577986

 Total Charge           Charge          ....    0
 Multiplicity           Mult            ....    1
 Number of Electrons    NEL             ....   66
 Basis Dimension        Dim             ....  351

ORBITAL ENERGIES
----------------

  NO   OCC          E(Eh)            E(eV)
   0   2.0000     -11.242864      -305.9339
   1   2.0000     -11.242798      -305.9321
   2   2.0000     -11.228855      -305.5527
   3   2.0000     -11.228836      -305.5522
   4   2.0000     -11.217592      -305.2462
   5   2.0000     -11.217100      -305.2328
   6   2.0000     -11.215896      -305.2000
   7   2.0000     -11.210434      -305.0514
   8   2.0000     -11.210432      -305.0514
   9   2.0000      -1.225018       -33.3344
  10   2.0000      -1.048659       -28.5355
  11   2.0000      -0.998511       -27.1709
  12   2.0000      -0.950370       -25.8609
  13   2.0000      -0.916200       -24.9311
  14   2.0000      -0.865832       -23.5605
  15   2.0000      -0.754514       -20.5314
  16   2.0000      -0.731324       -19.9003
  17   2.0000      -0.707784       -19.2598
  18   2.0000      -0.667254       -18.1569
  19   2.0000      -0.596983       -16.2447
  20   2.0000      -0.585114       -15.9218
  21   2.0000      -0.577412       -15.7122
  22   2.0000      -0.570698       -15.5295
  23   2.0000      -0.560132       -15.2420
  24   2.0000      -0.542791       -14.7701
  25   2.0000      -0.529080       -14.3970
  26   2.0000      -0.482924       -13.1410
  27   2.0000      -0.467512       -12.7217
  28   2.0000      -0.444431       -12.0936
  29   2.0000      -0.423925       -11.5356
  30   2.0000      -0.418163       -11.3788
  31   2.0000      -0.412292       -11.2190
  32   2.0000      -0.318424        -8.6647
  33   0.0000       0.138190         3.7603
  34   0.0000       0.139315         3.7909
  35   0.0000       0.159139         4.3304
  36   0.0000       0.180029         4.8988
  37   0.0000       0.181123         4.9286

MULLIKEN ATOMIC CHARGES
-----------------------
   0 C :   -0.441201
   1 C :    0.008583
   2 C :   -0.191352
   3 C :    0.008583
   4 C :   -0.441200
   5 C :    0.021223
   6 C :   -0.254473
   7 C :   -0.254451
   8 C :    0.021227
   9 H :    0.133094
  10 H :    0.133096
  11 H :    0.146710
  12 H :    0.106084
  13 H :    0.106083
  14 H :    0.133097
  15 H :    0.146710
  16 H :    0.133092
  17 H :    0.115473
  18 H :    0.127074
  19 H :    0.127075
  20 H :    0.115473
Sum of atomic charges:    0.0000000

LOEWDIN ATOMIC CHARGES
----------------------
   0 C :   -0.278480
   1 C :   -0.179179
   2 C :   -0.164200
   3 C :   -0.179179
   4 C :   -0.278480
   5 C :   -0.112102
   6 C :   -0.138047
   7 C :   -0.138043
   8 C :   -0.112102
   9 H :    0.128990
  10 H :    0.128990
  11 H :    0.133052
  12 H :    0.128012
  13 H :    0.128012
  14 H :    0.128990
  15 H :    0.133052
  16 H :    0.128990
  17 H :    0.138307
  18 H :    0.132554
  19 H :    0.132554
  20 H :    0.138307

  Mayer bond orders larger than 0.1
B(  0-C ,  1-C ) :   0.8182 B(  0-C ,  9-H ) :   0.9412 B(  0-C , 10-H ) :   0.9412
B(  0-C , 11-H ) :   0.9464 B(  1-C ,  2-C ) :   0.8906 B(  1-C ,  5-C ) :   0.8750
B(  1-C ,  8-C ) :   0.8749 B(  2-C ,  3-C ) :   0.8906 B(  2-C , 12-H ) :   0.9253
B(  2-C , 13-H ) :   0.9253 B(  3-C ,  4-C ) :   0.8182 B(  3-C ,  5-C ) :   0.8749
B(  3-C ,  8-C ) :   0.8750 B(  4-C , 14-H ) :   0.9412 B(  4-C , 15-H ) :   0.9464
B(  4-C , 16-H ) :   0.9412 B(  5-C ,  6-C ) :   0.9319 B(  5-C , 17-H ) :   0.9086
B(  6-C ,  7-C ) :   1.7427 B(  6-C , 18-H ) :   0.9355 B(  7-C ,  8-C ) :   0.9319
B(  7-C , 19-H ) :   0.9355 B(  8-C , 20-H ) :   0.9086

MP2 TOTAL ENERGY:     -349.269439969 Eh
FINAL SINGLE POINT ENERGY      -349.269439968868

DIPOLE MOMENT
-------------
                                X             Y             Z
Electronic contribution:     -1.03107      -0.01947       2.11593
Nuclear contribution   :      1.08102       0.02041      -2.21845
                        -----------------------------------------
Total Dipole Moment    :      0.04995       0.00094      -0.10251
                        -----------------------------------------
Magnitude (a.u.)       :      0.11404
Magnitude (Debye)      :      0.28986

                             ****ORCA TERMINATED NORMALLY****
TOTAL RUN TIME: 0 days 0 hours 20 minutes 29 seconds 698 msec
