                         Program Version 3.0.3 - RELEASE   -
|  1> ! RI-MP2 RIJK def2-TZVP def2-TZVP/C def2-TZVP/JK TIGHTSCF
|  2> % maxcore 2000
|  3> % mp2 density relaxed end
|  4> *xyz 0 1
|  5>  C       -0.0088720097     1.5270896070     0.0049498471
|  6>  C       -0.0264200303     0.0231099559    -0.0135422487
|  7>  C       -1.1830316186    -0.6920983444    -0.0184665987
|  8>  N       -2.4677724247    -0.1658176738    -0.0891740885
|  9>  N       -1.1234931438    -2.0728563961    -0.0089007814
| 10>  C        0.0933281000    -2.7003002030    -0.0160053807
| 11>  N        1.2279414765    -2.1093643075    -0.0118599933
| 12>  C        1.2603313571    -0.6886557103    -0.0238300799
| 13>  O        2.3298229123    -0.1050405107    -0.0279278617
| 14>  H        1.0090585842     1.8524883203     0.2254922265
| 15>  H       -0.2936057988     1.9616200452    -0.9617923513
| 16>  H       -0.6804669366     1.9433763951     0.7673222060
| 17>  H       -2.4900749834     0.8379622407     0.0198972103
| 18>  H       -3.1418874212    -0.6089684329     0.5228773886
| 19>  H       -1.9661172793    -2.6080184182    -0.1492075780
| 20>  H        0.0376221663    -3.7884336371    -0.0209232664
| 21> *
| 22>
| 23>                          ****END OF INPUT****

CARTESIAN COORDINATES (ANGSTROEM)
---------------------------------
  C     -0.008872    1.527090    0.004950
  C     -0.026420    0.023110   -0.013542
  C     -1.183032   -0.692098   -0.018467
  N     -2.467772   -0.165818   -0.089174
  N     -1.123493   -2.072856   -0.008901
  C      0.093328   -2.700300   -0.016005
  N      1.227941   -2.109364   -0.011860
  C      1.260331   -0.688656   -0.023830
  O      2.329823   -0.105041   -0.027928
  H      1.009059    1.852488    0.225492
  H     -0.293606    1.961620   -0.961792
  H     -0.680467    1.943376    0.767322
  H     -2.490075    0.837962    0.019897
  H     -3.141887   -0.608968    0.522877
  H     -1.966117   -2.608018   -0.149208
  H      0.037622   -3.788434   -0.020923

 Total Charge           Charge          ....    0
 Multiplicity           Mult            ....    1
 Number of Electrons    NEL             ....   66
 Basis Dimension        Dim             ....  321

ORBITAL ENERGIES
----------------

  NO   OCC          E(Eh)            E(eV)
   0   2.0000     -20.497073      -557.7537
   1   2.0000     -15.639137      -425.5626
   2   2.0000     -15.605705      -424.6528
   3   2.0000     -15.554073      -423.2479
   4   2.0000     -11.349076      -308.8241
   5   2.0000     -11.345523      -308.7274
   6   2.0000     -11.331362      -308.3420
   7   2.0000     -11.229822      -305.5790
   8   2.0000     -11.221763      -305.3597
   9   2.0000      -1.366833       -37.1934
  10   2.0000      -1.338940       -36.4344
  11   2.0000      -1.250841       -34.0371
  12   2.0000      -1.186107       -32.2756
  13   2.0000      -1.073328       -29.2067
  14   2.0000      -0.960303       -26.1312
  15   2.0000      -0.880409       -23.9571
  16   2.0000      -0.856110       -23.2959
  17   2.0000      -0.774287       -21.0694
  18   2.0000      -0.755298       -20.5527
  19   2.0000      -0.703260       -19.1367
  20   2.0000      -0.677838       -18.4449
  21   2.0000      -0.646104       -17.5814
  22   2.0000      -0.632544       -17.2124
  23   2.0000      -0.591727       -16.1017
  24   2.0000      -0.566600       -15.4180
  25   2.0000      -0.559272       -15.2186
  26   2.0000      -0.531954       -14.4752
  27   2.0000      -0.531444       -14.4613
  28   2.0000      -0.495125       -13.4730
  29   2.0000      -0.448679       -12.2092
  30   2.0000      -0.401049       -10.9131
  31   2.0000      -0.397001       -10.8030
  32   2.0000      -0.324086        -8.8188
  33   0.0000       0.097297         2.6476
  34   0.0000       0.121916         3.3175
  35   0.0000       0.124784         3.3955
  36   0.0000       0.137423         3.7395
  37   0.0000       0.161540         4.3957

MULLIKEN ATOMIC CHARGES
-----------------------
   0 C :   -0.473706
   1 C :   -0.097500
   2 C :    0.273010
   3 N :   -0.513714
   4 N :   -0.302463
   5 C :    0.087725
   6 N :   -0.225974
   7 C :    0.212113
   8 O :   -0.337351
   9 H :    0.188800
  10 H :    0.152114
  11 H :    0.120524
  12 H :    0.265524
  13 H :    0.253295
  14 H :    0.251364
  15 H :    0.146238
Sum of atomic charges:    0.0000000

LOEWDIN ATOMIC CHARGES
----------------------
   0 C :   -0.273738
   1 C :   -0.169193
   2 C :   -0.283675
   3 N :   -0.057852
   4 N :    0.167163
   5 C :   -0.285131
   6 N :    0.129256
   7 C :   -0.411433
   8 O :    0.095377
   9 H :    0.147323
  10 H :    0.131182
  11 H :    0.122632
  12 H :    0.178035
  13 H :    0.171131
  14 H :    0.200141
  15 H :    0.138782

  Mayer bond orders larger than 0.1
B(  0-C ,  1-C ) :   0.8665 B(  0-C ,  9-H ) :   0.9215 B(  0-C , 10-H ) :   0.9355
B(  0-C , 11-H ) :   0.9371 B(  1-C ,  2-C ) :   1.4776 B(  1-C ,  7-C ) :   1.0483
B(  2-C ,  3-N ) :   1.0701 B(  2-C ,  4-N ) :   1.0571 B(  3-N , 12-H ) :   0.8743
B(  3-N , 13-H ) :   0.8666 B(  4-N ,  5-C ) :   1.0937 B(  4-N , 14-H ) :   0.8628
B(  5-C ,  6-N ) :   1.7090 B(  5-C , 15-H ) :   0.9221 B(  6-N ,  7-C ) :   1.0954
B(  7-C ,  8-O ) :   1.9462

MP2 TOTAL ENERGY:     -433.403366643 Eh
FINAL SINGLE POINT ENERGY      -433.403366643093

DIPOLE MOMENT
-------------
                                X             Y             Z
Electronic contribution:      3.78079      -4.93197      -0.17680
Nuclear contribution   :     -6.94447       4.51488       0.50337
                        -----------------------------------------
Total Dipole Moment    :     -3.16368      -0.41709       0.32657
                        -----------------------------------------
Magnitude (a.u.)       :      3.20772
Magnitude (Debye)      :      8.15339

                             ****ORCA TERMINATED NORMALLY****
TOTAL RUN TIME: 0 days 0 hours 21 minutes 52 seconds 310 msec
