                         Program Version 3.0.3 - RELEASE   -
|  1> ! RI-MP2 RIJK def2-TZVP def2-TZVP/C def2-TZVP/JK TIGHTSCF
|  2> % maxcore 2000
|  3> % mp2 density relaxed end
|  4> *xyz 0 1
|  5>  O       -0.0397489392     1.4238050546     0.0487226672
|  6>  C        0.0112112390     0.0131380790     0.0375357932
|  7>  C        0.7769503150    -0.5603125193     1.2378308547
|  8>  O        0.7763868904    -1.9756147795     1.2147265789
|  9>  C       -0.5359383233    -2.5105023692     1.3051389794
| 10>  C       -1.4096264414    -2.0574162632     0.1328846239
| 11>  C       -1.4388586046    -0.5112678827     0.0399910686
| 12>  C       -2.2150469247     0.0637539524     1.1456792872
| 13>  N       -2.8468752641     0.4741478554     2.0220462491
| 14>  H        0.8604348366     1.7655326055     0.0446552743
| 15>  H        0.4820999218    -0.3663113912    -0.8828753095
| 16>  H        1.8263794336    -0.2482404963     1.2027103005
| 17>  H        0.3331587553    -0.1720094583     2.1684385260
| 18>  H       -0.4228105923    -3.5976791397     1.3041598135
| 19>  H       -1.0024006297    -2.2158891328     2.2587197294
| 20>  H       -0.9934213573    -2.4486684423    -0.8013012275
| 21>  H       -2.4245903185    -2.4512655826     0.2398430333
| 22>  H       -1.9235902565    -0.1976298098    -0.8908468521
| 23> *
| 24>
| 25>                          ****END OF INPUT****

CARTESIAN COORDINATES (ANGSTROEM)
---------------------------------
  O     -0.039749    1.423805    0.048723
  C      0.011211    0.013138    0.037536
  C      0.776950   -0.560313    1.237831
  O      0.776387   -1.975615    1.214727
  C     -0.535938   -2.510502    1.305139
  C     -1.409626   -2.057416    0.132885
  C     -1.438859   -0.511268    0.039991
  C     -2.215047    0.063754    1.145679
  N     -2.846875    0.474148    2.022046
  H      0.860435    1.765533    0.044655
  H      0.482100   -0.366311   -0.882875
  H      1.826379   -0.248240    1.202710
  H      0.333159   -0.172009    2.168439
  H     -0.422811   -3.597679    1.304160
  H     -1.002401   -2.215889    2.258720
  H     -0.993421   -2.448668   -0.801301
  H     -2.424590   -2.451266    0.239843
  H     -1.923590   -0.197630   -0.890847

 Total Charge           Charge          ....    0
 Multiplicity           Mult            ....    1
 Number of Electrons    NEL             ....   68
 Basis Dimension        Dim             ....  333

ORBITAL ENERGIES
----------------

  NO   OCC          E(Eh)            E(eV)
   0   2.0000     -20.581689      -560.0562
   1   2.0000     -20.573029      -559.8206
   2   2.0000     -15.566003      -423.5725
   3   2.0000     -11.310986      -307.7876
   4   2.0000     -11.291640      -307.2612
   5   2.0000     -11.291423      -307.2553
   6   2.0000     -11.289054      -307.1908
   7   2.0000     -11.269328      -306.6540
   8   2.0000     -11.256067      -306.2931
   9   2.0000      -1.400519       -38.1101
  10   2.0000      -1.385723       -37.7074
  11   2.0000      -1.216820       -33.1114
  12   2.0000      -1.115217       -30.3466
  13   2.0000      -1.041101       -28.3298
  14   2.0000      -0.933942       -25.4139
  15   2.0000      -0.884351       -24.0644
  16   2.0000      -0.828675       -22.5494
  17   2.0000      -0.726710       -19.7748
  18   2.0000      -0.708366       -19.2756
  19   2.0000      -0.690041       -18.7770
  20   2.0000      -0.673870       -18.3369
  21   2.0000      -0.645558       -17.5665
  22   2.0000      -0.598329       -16.2814
  23   2.0000      -0.594157       -16.1678
  24   2.0000      -0.586373       -15.9560
  25   2.0000      -0.561080       -15.2678
  26   2.0000      -0.555737       -15.1224
  27   2.0000      -0.531588       -14.4652
  28   2.0000      -0.520207       -14.1556
  29   2.0000      -0.484233       -13.1767
  30   2.0000      -0.474712       -12.9176
  31   2.0000      -0.462601       -12.5880
  32   2.0000      -0.450626       -12.2621
  33   2.0000      -0.420989       -11.4557
  34   0.0000       0.116418         3.1679
  35   0.0000       0.131083         3.5670
  36   0.0000       0.150708         4.1010
  37   0.0000       0.171609         4.6697
  38   0.0000       0.180215         4.9039

MULLIKEN ATOMIC CHARGES
-----------------------
   0 O :   -0.449285
   1 C :    0.044398
   2 C :   -0.143732
   3 O :   -0.308103
   4 C :   -0.101556
   5 C :   -0.266118
   6 C :    0.159411
   7 C :   -0.257456
   8 N :   -0.041846
   9 H :    0.320890
  10 H :    0.095767
  11 H :    0.122514
  12 H :    0.143217
  13 H :    0.137277
  14 H :    0.130827
  15 H :    0.129803
  16 H :    0.144205
  17 H :    0.139787
Sum of atomic charges:   -0.0000000

LOEWDIN ATOMIC CHARGES
----------------------
   0 O :    0.008279
   1 C :   -0.331207
   2 C :   -0.303702
   3 O :    0.158152
   4 C :   -0.308846
   5 C :   -0.223765
   6 C :   -0.220182
   7 C :   -0.170816
   8 N :    0.063765
   9 H :    0.180786
  10 H :    0.142367
  11 H :    0.130633
  12 H :    0.133736
  13 H :    0.133858
  14 H :    0.130897
  15 H :    0.146191
  16 H :    0.150245
  17 H :    0.179610

  Mayer bond orders larger than 0.1
B(  0-O ,  1-C ) :   1.0154 B(  0-O ,  9-H ) :   0.8397 B(  1-C ,  2-C ) :   0.9099
B(  1-C ,  6-C ) :   0.8562 B(  1-C , 10-H ) :   0.9300 B(  2-C ,  3-O ) :   0.9370
B(  2-C , 11-H ) :   0.9243 B(  2-C , 12-H ) :   0.9333 B(  3-O ,  4-C ) :   0.9214
B(  4-C ,  5-C ) :   0.9469 B(  4-C , 13-H ) :   0.9272 B(  4-C , 14-H ) :   0.9355
B(  5-C ,  6-C ) :   0.8608 B(  5-C , 15-H ) :   0.9221 B(  5-C , 16-H ) :   0.9187
B(  6-C ,  7-C ) :   0.9486 B(  6-C , 17-H ) :   0.8962 B(  7-C ,  8-N ) :   2.8616

MP2 TOTAL ENERGY:     -438.391101055 Eh
FINAL SINGLE POINT ENERGY      -438.391101055053

DIPOLE MOMENT
-------------
                                X             Y             Z
Electronic contribution:     -1.91928       3.42054       1.22513
Nuclear contribution   :      2.87873      -4.05473      -2.28563
                        -----------------------------------------
Total Dipole Moment    :      0.95945      -0.63419      -1.06050
                        -----------------------------------------
Magnitude (a.u.)       :      1.56442
Magnitude (Debye)      :      3.97643

                             ****ORCA TERMINATED NORMALLY****
TOTAL RUN TIME: 0 days 0 hours 18 minutes 12 seconds 381 msec
