                         Program Version 3.0.3 - RELEASE   -
|  1> ! RI-MP2 RIJK def2-TZVP def2-TZVP/C def2-TZVP/JK TIGHTSCF
|  2> % maxcore 2000
|  3> % mp2 density relaxed end
|  4> *xyz 0 1
|  5>  C       -0.2981731249     1.5740041028     0.0090639508
|  6>  C       -0.0280530088     0.0572336551     0.0186373491
|  7>  C        0.7556940432    -0.4324422018    -1.1540249537
|  8>  C        2.1057853361    -0.6822199077    -1.3425741186
|  9>  N        3.1397365737    -0.5862782479    -0.4169148866
| 10>  C        4.4969493558    -0.7977296790    -0.9068516964
| 11>  N        2.3046729670    -1.1256751642    -2.6147871696
| 12>  N        1.1537006472    -1.1711980290    -3.2383839208
| 13>  N        0.2285923777    -0.7456985121    -2.3710543394
| 14>  H        0.6376598599     2.1409352825    -0.0111837417
| 15>  H       -0.8780455370     1.8666624953    -0.8719005259
| 16>  H       -0.8596055971     1.8741537969     0.8991844311
| 17>  H        0.5235940686    -0.2120672951     0.9267242702
| 18>  H       -0.9824551198    -0.4812176224     0.0774411849
| 19>  H        3.0618326820     0.2302209643     0.1722732290
| 20>  H        4.5758801551    -1.8007143299    -1.3315538807
| 21>  H        4.7998184132    -0.0848972335    -1.6871937343
| 22>  H        5.1867354087    -0.7197081159    -0.0627474513
| 23>  H       -0.7357347807    -0.7113505083    -2.6615992963
| 24> *
| 25>
| 26>                          ****END OF INPUT****

CARTESIAN COORDINATES (ANGSTROEM)
---------------------------------
  C     -0.298173    1.574004    0.009064
  C     -0.028053    0.057234    0.018637
  C      0.755694   -0.432442   -1.154025
  C      2.105785   -0.682220   -1.342574
  N      3.139737   -0.586278   -0.416915
  C      4.496949   -0.797730   -0.906852
  N      2.304673   -1.125675   -2.614787
  N      1.153701   -1.171198   -3.238384
  N      0.228592   -0.745699   -2.371054
  H      0.637660    2.140935   -0.011184
  H     -0.878046    1.866662   -0.871901
  H     -0.859606    1.874154    0.899184
  H      0.523594   -0.212067    0.926724
  H     -0.982455   -0.481218    0.077441
  H      3.061833    0.230221    0.172273
  H      4.575880   -1.800714   -1.331554
  H      4.799818   -0.084897   -1.687194
  H      5.186735   -0.719708   -0.062747
  H     -0.735735   -0.711351   -2.661599

 Total Charge           Charge          ....    0
 Multiplicity           Mult            ....    1
 Number of Electrons    NEL             ....   68
 Basis Dimension        Dim             ....  339

ORBITAL ENERGIES
----------------

  NO   OCC          E(Eh)            E(eV)
   0   2.0000     -15.647931      -425.8018
   1   2.0000     -15.628383      -425.2699
   2   2.0000     -15.578805      -423.9208
   3   2.0000     -15.560632      -423.4263
   4   2.0000     -11.279092      -306.9197
   5   2.0000     -11.268515      -306.6319
   6   2.0000     -11.254608      -306.2535
   7   2.0000     -11.244578      -305.9805
   8   2.0000     -11.235151      -305.7240
   9   2.0000      -1.425717       -38.7957
  10   2.0000      -1.235588       -33.6221
  11   2.0000      -1.182996       -32.1910
  12   2.0000      -1.087368       -29.5888
  13   2.0000      -1.020800       -27.7774
  14   2.0000      -0.919067       -25.0091
  15   2.0000      -0.892219       -24.2785
  16   2.0000      -0.848996       -23.1024
  17   2.0000      -0.793696       -21.5976
  18   2.0000      -0.716888       -19.5075
  19   2.0000      -0.681393       -18.5416
  20   2.0000      -0.647337       -17.6149
  21   2.0000      -0.623420       -16.9641
  22   2.0000      -0.617447       -16.8016
  23   2.0000      -0.598689       -16.2912
  24   2.0000      -0.569468       -15.4960
  25   2.0000      -0.546695       -14.8763
  26   2.0000      -0.534387       -14.5414
  27   2.0000      -0.531154       -14.4534
  28   2.0000      -0.512844       -13.9552
  29   2.0000      -0.497548       -13.5390
  30   2.0000      -0.451264       -12.2795
  31   2.0000      -0.427079       -11.6214
  32   2.0000      -0.393531       -10.7085
  33   2.0000      -0.298724        -8.1287
  34   0.0000       0.110581         3.0091
  35   0.0000       0.135960         3.6997
  36   0.0000       0.146737         3.9929
  37   0.0000       0.165168         4.4945
  38   0.0000       0.170770         4.6469

MULLIKEN ATOMIC CHARGES
-----------------------
   0 C :   -0.360382
   1 C :   -0.281852
   2 C :   -0.013897
   3 C :    0.175349
   4 N :   -0.369982
   5 C :   -0.275170
   6 N :   -0.175288
   7 N :   -0.190162
   8 N :   -0.062372
   9 H :    0.128042
  10 H :    0.124557
  11 H :    0.136787
  12 H :    0.143733
  13 H :    0.130696
  14 H :    0.226807
  15 H :    0.149882
  16 H :    0.125990
  17 H :    0.130681
  18 H :    0.256579
Sum of atomic charges:   -0.0000000

LOEWDIN ATOMIC CHARGES
----------------------
   0 C :   -0.308159
   1 C :   -0.263738
   2 C :   -0.239597
   3 C :   -0.337807
   4 N :    0.022937
   5 C :   -0.327707
   6 N :    0.007318
   7 N :   -0.068638
   8 N :    0.136544
   9 H :    0.122302
  10 H :    0.120980
  11 H :    0.122376
  12 H :    0.151616
  13 H :    0.146285
  14 H :    0.178871
  15 H :    0.124175
  16 H :    0.107756
  17 H :    0.114094
  18 H :    0.190390

  Mayer bond orders larger than 0.1
B(  0-C ,  1-C ) :   0.9128 B(  0-C ,  9-H ) :   0.9356 B(  0-C , 10-H ) :   0.9371
B(  0-C , 11-H ) :   0.9362 B(  1-C ,  2-C ) :   0.8896 B(  1-C , 12-H ) :   0.9485
B(  1-C , 13-H ) :   0.9335 B(  2-C ,  3-C ) :   1.3588 B(  2-C ,  7-N ) :   0.1630
B(  2-C ,  8-N ) :   1.1718 B(  3-C ,  4-N ) :   1.0306 B(  3-C ,  6-N ) :   1.3810
B(  4-N ,  5-C ) :   0.9101 B(  4-N , 14-H ) :   0.8766 B(  5-C , 15-H ) :   0.9368
B(  5-C , 16-H ) :   0.9344 B(  5-C , 17-H ) :   0.9322 B(  6-N ,  7-N ) :   1.2435
B(  7-N ,  8-N ) :   1.0573 B(  8-N , 18-H ) :   0.8618

MP2 TOTAL ENERGY:     -414.682800256 Eh
FINAL SINGLE POINT ENERGY      -414.682800256417

DIPOLE MOMENT
-------------
                                X             Y             Z
Electronic contribution:     -0.77547      -4.90571      -6.77432
Nuclear contribution   :     -0.15523       5.83451       8.06894
                        -----------------------------------------
Total Dipole Moment    :     -0.93070       0.92880       1.29462
                        -----------------------------------------
Magnitude (a.u.)       :      1.84525
Magnitude (Debye)      :      4.69024

                             ****ORCA TERMINATED NORMALLY****
TOTAL RUN TIME: 0 days 0 hours 17 minutes 24 seconds 553 msec
