                         Program Version 3.0.3 - RELEASE   -
|  1> ! RI-MP2 RIJK def2-TZVP def2-TZVP/C def2-TZVP/JK TIGHTSCF
|  2> % maxcore 2000
|  3> % mp2 density relaxed end
|  4> *xyz 0 1
|  5>  C        0.0046891339     1.4765858491     0.0598688483
|  6>  C        0.0008625167    -0.0204338079    -0.0090122724
|  7>  C       -0.9444537811    -0.8991034727     0.8130132751
|  8>  C        0.5510568075    -1.0440645897     0.9524222136
|  9>  C        0.4475584467    -2.0685356740    -0.2327065201
| 10>  C       -1.0949212728    -2.2119758470    -0.0214421333
| 11>  C       -1.7116123593    -1.9973854570    -1.3806206185
| 12>  C       -0.8836377796    -1.2337380884    -2.1066540472
| 13>  C        0.3227721233    -0.9052885853    -1.2650145821
| 14>  H        0.9674931423     1.8896740894    -0.2628665714
| 15>  H       -0.7741578263     1.9045580262    -0.5828610508
| 16>  H       -0.1796734702     1.8284064995     1.0808111911
| 17>  H       -1.6551900899    -0.4667388042     1.5062018954
| 18>  H        1.2108202144    -0.9620906208     1.8039863046
| 19>  H        1.0808823274    -2.9342911225    -0.4223820727
| 20>  H       -1.4340970308    -3.0682311934     0.5624842322
| 21>  H       -2.7001201031    -2.3342787297    -1.6704407892
| 22>  H       -1.0746108061    -0.8366249429    -3.0968045915
| 23>  H        1.2361911067    -0.6035994387    -1.7803329611
| 24> *
| 25>
| 26>                          ****END OF INPUT****

CARTESIAN COORDINATES (ANGSTROEM)
---------------------------------
  C      0.004689    1.476586    0.059869
  C      0.000863   -0.020434   -0.009012
  C     -0.944454   -0.899103    0.813013
  C      0.551057   -1.044065    0.952422
  C      0.447558   -2.068536   -0.232707
  C     -1.094921   -2.211976   -0.021442
  C     -1.711612   -1.997385   -1.380621
  C     -0.883638   -1.233738   -2.106654
  C      0.322772   -0.905289   -1.265015
  H      0.967493    1.889674   -0.262867
  H     -0.774158    1.904558   -0.582861
  H     -0.179673    1.828406    1.080811
  H     -1.655190   -0.466739    1.506202
  H      1.210820   -0.962091    1.803986
  H      1.080882   -2.934291   -0.422382
  H     -1.434097   -3.068231    0.562484
  H     -2.700120   -2.334279   -1.670441
  H     -1.074611   -0.836625   -3.096805
  H      1.236191   -0.603599   -1.780333

 Total Charge           Charge          ....    0
 Multiplicity           Mult            ....    1
 Number of Electrons    NEL             ....   64
 Basis Dimension        Dim             ....  339

ORBITAL ENERGIES
----------------

  NO   OCC          E(Eh)            E(eV)
   0   2.0000     -11.233587      -305.6815
   1   2.0000     -11.231345      -305.6204
   2   2.0000     -11.229002      -305.5567
   3   2.0000     -11.227188      -305.5073
   4   2.0000     -11.225734      -305.4677
   5   2.0000     -11.223326      -305.4022
   6   2.0000     -11.217171      -305.2347
   7   2.0000     -11.217074      -305.2321
   8   2.0000     -11.215483      -305.1888
   9   2.0000      -1.238041       -33.6888
  10   2.0000      -1.072697       -29.1896
  11   2.0000      -0.996688       -27.1213
  12   2.0000      -0.955382       -25.9973
  13   2.0000      -0.903506       -24.5857
  14   2.0000      -0.826345       -22.4860
  15   2.0000      -0.771275       -20.9875
  16   2.0000      -0.718943       -19.5634
  17   2.0000      -0.695101       -18.9147
  18   2.0000      -0.664573       -18.0840
  19   2.0000      -0.651514       -17.7286
  20   2.0000      -0.594658       -16.1815
  21   2.0000      -0.567766       -15.4497
  22   2.0000      -0.540266       -14.7014
  23   2.0000      -0.532499       -14.4900
  24   2.0000      -0.528329       -14.3766
  25   2.0000      -0.509311       -13.8591
  26   2.0000      -0.497232       -13.5304
  27   2.0000      -0.446126       -12.1397
  28   2.0000      -0.433092       -11.7850
  29   2.0000      -0.373128       -10.1533
  30   2.0000      -0.354325        -9.6417
  31   2.0000      -0.332874        -9.0579
  32   0.0000       0.140807         3.8316
  33   0.0000       0.147192         4.0053
  34   0.0000       0.164942         4.4883
  35   0.0000       0.178845         4.8666
  36   0.0000       0.181451         4.9375

MULLIKEN ATOMIC CHARGES
-----------------------
   0 C :   -0.435131
   1 C :    0.040542
   2 C :   -0.165663
   3 C :   -0.239788
   4 C :    0.007129
   5 C :   -0.058718
   6 C :   -0.208436
   7 C :   -0.217176
   8 C :   -0.023027
   9 H :    0.132350
  10 H :    0.137850
  11 H :    0.133650
  12 H :    0.131622
  13 H :    0.140909
  14 H :    0.137347
  15 H :    0.122548
  16 H :    0.122857
  17 H :    0.124197
  18 H :    0.116936
Sum of atomic charges:   -0.0000000

LOEWDIN ATOMIC CHARGES
----------------------
   0 C :   -0.274585
   1 C :   -0.179486
   2 C :   -0.118900
   3 C :   -0.118102
   4 C :   -0.094395
   5 C :   -0.159041
   6 C :   -0.132577
   7 C :   -0.133205
   8 C :   -0.138679
   9 H :    0.126975
  10 H :    0.130077
  11 H :    0.131298
  12 H :    0.137714
  13 H :    0.131882
  14 H :    0.132015
  15 H :    0.144901
  16 H :    0.133889
  17 H :    0.133878
  18 H :    0.146340

  Mayer bond orders larger than 0.1
B(  0-C ,  1-C ) :   0.8708 B(  0-C ,  9-H ) :   0.9443 B(  0-C , 10-H ) :   0.9405
B(  0-C , 11-H ) :   0.9367 B(  1-C ,  2-C ) :   0.8649 B(  1-C ,  3-C ) :   0.8458
B(  1-C ,  8-C ) :   0.8633 B(  2-C ,  3-C ) :   0.8524 B(  2-C ,  5-C ) :   0.8543
B(  2-C , 12-H ) :   0.9266 B(  3-C ,  4-C ) :   0.9279 B(  3-C , 13-H ) :   0.9138
B(  4-C ,  5-C ) :   0.9336 B(  4-C ,  8-C ) :   0.9364 B(  4-C , 14-H ) :   0.9040
B(  5-C ,  6-C ) :   0.9806 B(  5-C , 15-H ) :   0.9159 B(  6-C ,  7-C ) :   1.7627
B(  6-C , 16-H ) :   0.9290 B(  7-C ,  8-C ) :   0.9835 B(  7-C , 17-H ) :   0.9278
B(  8-C , 18-H ) :   0.9137

MP2 TOTAL ENERGY:     -348.059797238 Eh
FINAL SINGLE POINT ENERGY      -348.059797238497

DIPOLE MOMENT
-------------
                                X             Y             Z
Electronic contribution:     -0.26135      -3.56364      -0.47308
Nuclear contribution   :      0.30271       3.69869       0.58561
                        -----------------------------------------
Total Dipole Moment    :      0.04136       0.13505       0.11253
                        -----------------------------------------
Magnitude (a.u.)       :      0.18059
Magnitude (Debye)      :      0.45901

                             ****ORCA TERMINATED NORMALLY****
TOTAL RUN TIME: 0 days 0 hours 19 minutes 2 seconds 309 msec
