                         Program Version 3.0.3 - RELEASE   -
|  1> ! RI-MP2 RIJK def2-TZVP def2-TZVP/C def2-TZVP/JK TIGHTSCF
|  2> % maxcore 2000
|  3> % mp2 density relaxed end
|  4> *xyz 0 1
|  5>  O       -0.3676954469     0.3469428934    -0.8906123719
|  6>  C       -0.2342923237     1.3951544668    -0.3322492751
|  7>  C       -1.1900867493     2.0879646965     0.6347209708
|  8>  C       -0.6797592161     3.5364182284     0.6940920570
|  9>  C        0.8134075970     3.3371063198     0.3452462932
| 10>  O        0.8754435692     2.1712158293    -0.4897639020
| 11>  C       -1.3788284491     4.4332417356    -0.3063655120
| 12>  C       -2.5658083536     5.2277752238     0.0896897928
| 13>  N       -1.2806630169     5.8963277780    -0.1948084136
| 14>  H       -2.2203990781     1.9834479080     0.2915036761
| 15>  H       -1.1104512446     1.5857214068     1.6049892533
| 16>  H       -0.7849300842     3.9702749293     1.6940329140
| 17>  H        1.2392211913     4.1729796955    -0.2142061323
| 18>  H        1.4221423575     3.1612662814     1.2400366345
| 19>  H       -1.3219964582     4.0831544701    -1.3368232944
| 20>  H       -3.3559801754     5.4294719275    -0.6273906624
| 21>  H       -2.8997144409     5.1616835739     1.1226256497
| 22>  H       -0.8283156780     6.1477513259     0.6821815222
| 23> *
| 24>
| 25>                          ****END OF INPUT****

CARTESIAN COORDINATES (ANGSTROEM)
---------------------------------
  O     -0.367695    0.346943   -0.890612
  C     -0.234292    1.395154   -0.332249
  C     -1.190087    2.087965    0.634721
  C     -0.679759    3.536418    0.694092
  C      0.813408    3.337106    0.345246
  O      0.875444    2.171216   -0.489764
  C     -1.378828    4.433242   -0.306366
  C     -2.565808    5.227775    0.089690
  N     -1.280663    5.896328   -0.194808
  H     -2.220399    1.983448    0.291504
  H     -1.110451    1.585721    1.604989
  H     -0.784930    3.970275    1.694033
  H      1.239221    4.172980   -0.214206
  H      1.422142    3.161266    1.240037
  H     -1.321996    4.083154   -1.336823
  H     -3.355980    5.429472   -0.627391
  H     -2.899714    5.161684    1.122626
  H     -0.828316    6.147751    0.682182

 Total Charge           Charge          ....    0
 Multiplicity           Mult            ....    1
 Number of Electrons    NEL             ....   68
 Basis Dimension        Dim             ....  333

ORBITAL ENERGIES
----------------

  NO   OCC          E(Eh)            E(eV)
   0   2.0000     -20.604501      -560.6770
   1   2.0000     -20.543223      -559.0095
   2   2.0000     -15.573304      -423.7711
   3   2.0000     -11.381722      -309.7124
   4   2.0000     -11.306912      -307.6767
   5   2.0000     -11.278314      -306.8985
   6   2.0000     -11.270307      -306.6806
   7   2.0000     -11.269488      -306.6583
   8   2.0000     -11.262195      -306.4599
   9   2.0000      -1.461326       -39.7647
  10   2.0000      -1.370495       -37.2931
  11   2.0000      -1.278012       -34.7765
  12   2.0000      -1.106232       -30.1021
  13   2.0000      -0.997243       -27.1363
  14   2.0000      -0.921360       -25.0715
  15   2.0000      -0.883312       -24.0361
  16   2.0000      -0.817018       -22.2322
  17   2.0000      -0.783255       -21.3134
  18   2.0000      -0.717396       -19.5213
  19   2.0000      -0.704657       -19.1747
  20   2.0000      -0.674842       -18.3634
  21   2.0000      -0.654692       -17.8151
  22   2.0000      -0.642458       -17.4822
  23   2.0000      -0.615869       -16.7587
  24   2.0000      -0.586307       -15.9542
  25   2.0000      -0.566759       -15.4223
  26   2.0000      -0.548087       -14.9142
  27   2.0000      -0.532351       -14.4860
  28   2.0000      -0.510575       -13.8935
  29   2.0000      -0.489095       -13.3089
  30   2.0000      -0.480774       -13.0825
  31   2.0000      -0.455068       -12.3830
  32   2.0000      -0.442587       -12.0434
  33   2.0000      -0.402694       -10.9579
  34   0.0000       0.115704         3.1485
  35   0.0000       0.132126         3.5953
  36   0.0000       0.152619         4.1530
  37   0.0000       0.157575         4.2878
  38   0.0000       0.168062         4.5732

MULLIKEN ATOMIC CHARGES
-----------------------
   0 O :   -0.278718
   1 C :    0.228313
   2 C :   -0.250187
   3 C :   -0.080559
   4 C :   -0.050450
   5 O :   -0.223918
   6 C :   -0.115865
   7 C :   -0.183846
   8 N :   -0.355253
   9 H :    0.154627
  10 H :    0.150435
  11 H :    0.116092
  12 H :    0.145198
  13 H :    0.120145
  14 H :    0.146935
  15 H :    0.131829
  16 H :    0.127698
  17 H :    0.217523
Sum of atomic charges:    0.0000000

LOEWDIN ATOMIC CHARGES
----------------------
   0 O :    0.141418
   1 C :   -0.466443
   2 C :   -0.199697
   3 C :   -0.247060
   4 C :   -0.241183
   5 O :    0.253590
   6 C :   -0.264768
   7 C :   -0.261196
   8 N :   -0.016236
   9 H :    0.157348
  10 H :    0.159054
  11 H :    0.155525
  12 H :    0.136674
  13 H :    0.127454
  14 H :    0.152355
  15 H :    0.126846
  16 H :    0.122388
  17 H :    0.163930

  Mayer bond orders larger than 0.1
B(  0-O ,  1-C ) :   2.0478 B(  1-C ,  2-C ) :   0.9368 B(  1-C ,  5-O ) :   1.0973
B(  2-C ,  3-C ) :   0.8891 B(  2-C ,  9-H ) :   0.9132 B(  2-C , 10-H ) :   0.9025
B(  3-C ,  4-C ) :   0.9040 B(  3-C ,  6-C ) :   0.9312 B(  3-C , 11-H ) :   0.9104
B(  4-C ,  5-O ) :   0.8741 B(  4-C , 12-H ) :   0.9300 B(  4-C , 13-H ) :   0.9224
B(  6-C ,  7-C ) :   0.9443 B(  6-C ,  8-N ) :   0.9261 B(  6-C , 14-H ) :   0.9003
B(  7-C ,  8-N ) :   0.9328 B(  7-C , 15-H ) :   0.9193 B(  7-C , 16-H ) :   0.9180
B(  8-N , 17-H ) :   0.8726

MP2 TOTAL ENERGY:     -438.380071338 Eh
FINAL SINGLE POINT ENERGY      -438.380071337632

DIPOLE MOMENT
-------------
                                X             Y             Z
Electronic contribution:      3.31247      -5.95812      -3.10523
Nuclear contribution   :     -3.73968       6.93144       4.61383
                        -----------------------------------------
Total Dipole Moment    :     -0.42721       0.97332       1.50860
                        -----------------------------------------
Magnitude (a.u.)       :      1.84546
Magnitude (Debye)      :      4.69079

                             ****ORCA TERMINATED NORMALLY****
TOTAL RUN TIME: 0 days 0 hours 15 minutes 43 seconds 788 msec
