                         Program Version 3.0.3 - RELEASE   -
|  1> ! RI-MP2 RIJK def2-TZVP def2-TZVP/C def2-TZVP/JK TIGHTSCF
|  2> % maxcore 2000
|  3> % mp2 density relaxed end
|  4> *xyz 0 1
|  5>  C        0.0613600544     1.4800464367     0.0025266512
|  6>  C       -0.0723722741    -0.0061510512     0.0109799663
|  7>  C       -1.2285803967    -0.6988666852    -0.1216972948
|  8>  C       -1.1055977841    -2.1180439206    -0.0826059922
|  9>  O       -2.2299708649    -2.8235994463    -0.2111916925
| 10>  N        0.0141761230    -2.7668111316     0.0680759689
| 11>  C        1.1825678267    -2.0739768053     0.2023856354
| 12>  O        2.2797875306    -2.5199280889     0.3469194911
| 13>  O        1.0949371761    -0.6348351818     0.1672689069
| 14>  H        0.7298159326     1.7905131109    -0.8069763940
| 15>  H       -0.9096048585     1.9600390239    -0.1269758008
| 16>  H        0.5114862855     1.8200925762     0.9407413822
| 17>  H       -2.1850456430    -0.2155130717    -0.2491397381
| 18>  H       -1.9725519576    -3.7579194851    -0.1634095395
| 19> *
| 20>
| 21>                          ****END OF INPUT****

CARTESIAN COORDINATES (ANGSTROEM)
---------------------------------
  C      0.061360    1.480046    0.002527
  C     -0.072372   -0.006151    0.010980
  C     -1.228580   -0.698867   -0.121697
  C     -1.105598   -2.118044   -0.082606
  O     -2.229971   -2.823599   -0.211192
  N      0.014176   -2.766811    0.068076
  C      1.182568   -2.073977    0.202386
  O      2.279788   -2.519928    0.346919
  O      1.094937   -0.634835    0.167269
  H      0.729816    1.790513   -0.806976
  H     -0.909605    1.960039   -0.126976
  H      0.511486    1.820093    0.940741
  H     -2.185046   -0.215513   -0.249140
  H     -1.972552   -3.757919   -0.163410

 Total Charge           Charge          ....    0
 Multiplicity           Mult            ....    1
 Number of Electrons    NEL             ....   66
 Basis Dimension        Dim             ....  309

ORBITAL ENERGIES
----------------

  NO   OCC          E(Eh)            E(eV)
   0   2.0000     -20.638969      -561.6149
   1   2.0000     -20.633941      -561.4781
   2   2.0000     -20.536419      -558.8244
   3   2.0000     -15.569752      -423.6745
   4   2.0000     -11.413599      -310.5798
   5   2.0000     -11.395390      -310.0843
   6   2.0000     -11.367552      -309.3268
   7   2.0000     -11.264637      -306.5264
   8   2.0000     -11.253333      -306.2188
   9   2.0000      -1.490679       -40.5634
  10   2.0000      -1.466621       -39.9088
  11   2.0000      -1.386658       -37.7329
  12   2.0000      -1.250225       -34.0204
  13   2.0000      -1.115664       -30.3588
  14   2.0000      -1.021936       -27.8083
  15   2.0000      -0.906557       -24.6687
  16   2.0000      -0.890357       -24.2278
  17   2.0000      -0.810841       -22.0641
  18   2.0000      -0.731124       -19.8949
  19   2.0000      -0.713064       -19.4035
  20   2.0000      -0.688665       -18.7395
  21   2.0000      -0.658516       -17.9191
  22   2.0000      -0.643398       -17.5078
  23   2.0000      -0.632899       -17.2220
  24   2.0000      -0.601794       -16.3756
  25   2.0000      -0.600024       -16.3275
  26   2.0000      -0.589335       -16.0366
  27   2.0000      -0.575858       -15.6699
  28   2.0000      -0.529631       -14.4120
  29   2.0000      -0.475654       -12.9432
  30   2.0000      -0.455734       -12.4012
  31   2.0000      -0.454404       -12.3650
  32   2.0000      -0.372570       -10.1381
  33   0.0000       0.079279         2.1573
  34   0.0000       0.125170         3.4061
  35   0.0000       0.144948         3.9442
  36   0.0000       0.159230         4.3329
  37   0.0000       0.163484         4.4486

MULLIKEN ATOMIC CHARGES
-----------------------
   0 C :   -0.400304
   1 C :    0.277474
   2 C :   -0.321017
   3 C :    0.336129
   4 O :   -0.382238
   5 N :   -0.306640
   6 C :    0.273144
   7 O :   -0.265297
   8 O :   -0.192592
   9 H :    0.162231
  10 H :    0.147837
  11 H :    0.162228
  12 H :    0.158925
  13 H :    0.350120
Sum of atomic charges:    0.0000000

LOEWDIN ATOMIC CHARGES
----------------------
   0 C :   -0.249552
   1 C :   -0.256411
   2 C :   -0.143789
   3 C :   -0.362970
   4 O :    0.128460
   5 N :    0.119324
   6 C :   -0.506260
   7 O :    0.144281
   8 O :    0.329674
   9 H :    0.144580
  10 H :    0.137263
  11 H :    0.144574
  12 H :    0.161470
  13 H :    0.209356

  Mayer bond orders larger than 0.1
B(  0-C ,  1-C ) :   0.9045 B(  0-C ,  9-H ) :   0.9172 B(  0-C , 10-H ) :   0.9481
B(  0-C , 11-H ) :   0.9172 B(  1-C ,  2-C ) :   1.5451 B(  1-C ,  8-O ) :   1.1217
B(  2-C ,  3-C ) :   1.1298 B(  2-C , 12-H ) :   0.9074 B(  3-C ,  4-O ) :   1.1791
B(  3-C ,  5-N ) :   1.5128 B(  4-O , 13-H ) :   0.8016 B(  5-N ,  6-C ) :   1.1949
B(  6-C ,  7-O ) :   2.0659 B(  6-C ,  8-O ) :   0.9172

MP2 TOTAL ENERGY:     -473.145887352 Eh
FINAL SINGLE POINT ENERGY      -473.145887352411

DIPOLE MOMENT
-------------
                                X             Y             Z
Electronic contribution:      2.09748      -6.72272       0.37526
Nuclear contribution   :     -3.59820       7.87878      -0.58214
                        -----------------------------------------
Total Dipole Moment    :     -1.50072       1.15606      -0.20688
                        -----------------------------------------
Magnitude (a.u.)       :      1.90563
Magnitude (Debye)      :      4.84373

                             ****ORCA TERMINATED NORMALLY****
TOTAL RUN TIME: 0 days 0 hours 12 minutes 59 seconds 194 msec
