                         Program Version 3.0.3 - RELEASE   -
|  1> ! RI-MP2 RIJK def2-TZVP def2-TZVP/C def2-TZVP/JK TIGHTSCF
|  2> % maxcore 2000
|  3> % mp2 density relaxed end
|  4> *xyz 0 1
|  5>  C       -0.3013684675     1.4004099860    -0.5500141731
|  6>  C       -1.0906665869     0.1025599920    -0.6974807296
|  7>  C       -1.2446273386    -0.6505112107     0.6083602169
|  8>  O       -0.8100861456    -0.2450111332     1.6609111277
|  9>  C       -1.9634643091    -2.0145319903     0.5814070781
| 10>  C       -2.9028490547    -2.1908484259     1.7686682488
| 11>  O       -2.6861821687    -2.1576620418    -0.6512407141
| 12>  C       -2.5433578148    -3.3013625029    -1.3512242203
| 13>  O       -3.1284863649    -3.5129754151    -2.3686693607
| 14>  H       -0.2199494392     1.9095922389    -1.5138893128
| 15>  H       -0.7883137108     2.0750751599     0.1585216503
| 16>  H        0.7063431672     1.2071506222    -0.1732976309
| 17>  H       -2.0962239845     0.2781828830    -1.1001667160
| 18>  H       -0.6250574069    -0.5740998940    -1.4272935641
| 19>  H       -1.1680009937    -2.7749103405     0.6179068249
| 20>  H       -3.7515121348    -1.5066198825     1.6833109514
| 21>  H       -3.2846643899    -3.2142832210     1.8088909355
| 22>  H       -2.3630080770    -1.9671437314     2.6902281340
| 23>  H       -1.8269193597    -4.0035601626    -0.8801018859
| 24> *
| 25>
| 26>                          ****END OF INPUT****

CARTESIAN COORDINATES (ANGSTROEM)
---------------------------------
  C     -0.301368    1.400410   -0.550014
  C     -1.090667    0.102560   -0.697481
  C     -1.244627   -0.650511    0.608360
  O     -0.810086   -0.245011    1.660911
  C     -1.963464   -2.014532    0.581407
  C     -2.902849   -2.190848    1.768668
  O     -2.686182   -2.157662   -0.651241
  C     -2.543358   -3.301363   -1.351224
  O     -3.128486   -3.512975   -2.368669
  H     -0.219949    1.909592   -1.513889
  H     -0.788314    2.075075    0.158522
  H      0.706343    1.207151   -0.173298
  H     -2.096224    0.278183   -1.100167
  H     -0.625057   -0.574100   -1.427294
  H     -1.168001   -2.774910    0.617907
  H     -3.751512   -1.506620    1.683311
  H     -3.284664   -3.214283    1.808891
  H     -2.363008   -1.967144    2.690228
  H     -1.826919   -4.003560   -0.880102

 Total Charge           Charge          ....    0
 Multiplicity           Mult            ....    1
 Number of Electrons    NEL             ....   70
 Basis Dimension        Dim             ....  339

ORBITAL ENERGIES
----------------

  NO   OCC          E(Eh)            E(eV)
   0   2.0000     -20.622811      -561.1752
   1   2.0000     -20.563478      -559.5607
   2   2.0000     -20.562575      -559.5361
   3   2.0000     -11.396777      -310.1221
   4   2.0000     -11.347373      -308.7777
   5   2.0000     -11.329504      -308.2915
   6   2.0000     -11.248271      -306.0810
   7   2.0000     -11.241696      -305.9021
   8   2.0000     -11.224176      -305.4254
   9   2.0000      -1.477723       -40.2109
  10   2.0000      -1.409541       -38.3556
  11   2.0000      -1.386876       -37.7388
  12   2.0000      -1.080275       -29.3958
  13   2.0000      -1.054046       -28.6821
  14   2.0000      -0.938140       -25.5281
  15   2.0000      -0.878053       -23.8930
  16   2.0000      -0.861280       -23.4366
  17   2.0000      -0.775140       -21.0926
  18   2.0000      -0.730125       -19.8677
  19   2.0000      -0.702405       -19.1134
  20   2.0000      -0.674801       -18.3623
  21   2.0000      -0.658805       -17.9270
  22   2.0000      -0.635752       -17.2997
  23   2.0000      -0.625270       -17.0144
  24   2.0000      -0.588533       -16.0148
  25   2.0000      -0.581232       -15.8161
  26   2.0000      -0.562388       -15.3033
  27   2.0000      -0.549198       -14.9444
  28   2.0000      -0.536054       -14.5868
  29   2.0000      -0.522421       -14.2158
  30   2.0000      -0.519939       -14.1483
  31   2.0000      -0.496189       -13.5020
  32   2.0000      -0.481942       -13.1143
  33   2.0000      -0.471300       -12.8247
  34   2.0000      -0.421174       -11.4607
  35   0.0000       0.111674         3.0388
  36   0.0000       0.124641         3.3917
  37   0.0000       0.139577         3.7981
  38   0.0000       0.150654         4.0995
  39   0.0000       0.166142         4.5210

MULLIKEN ATOMIC CHARGES
-----------------------
   0 C :   -0.357652
   1 C :   -0.228593
   2 C :    0.162195
   3 O :   -0.288773
   4 C :    0.055252
   5 C :   -0.385106
   6 O :   -0.214020
   7 C :    0.197308
   8 O :   -0.261596
   9 H :    0.138022
  10 H :    0.135153
  11 H :    0.131332
  12 H :    0.153892
  13 H :    0.131596
  14 H :    0.110914
  15 H :    0.142424
  16 H :    0.139405
  17 H :    0.161506
  18 H :    0.076743
Sum of atomic charges:    0.0000000

LOEWDIN ATOMIC CHARGES
----------------------
   0 C :   -0.307781
   1 C :   -0.268682
   2 C :   -0.303764
   3 O :    0.167184
   4 C :   -0.294662
   5 C :   -0.281222
   6 O :    0.267957
   7 C :   -0.451531
   8 O :    0.127110
   9 H :    0.123526
  10 H :    0.127858
  11 H :    0.126644
  12 H :    0.159126
  13 H :    0.154328
  14 H :    0.151770
  15 H :    0.133101
  16 H :    0.126692
  17 H :    0.138955
  18 H :    0.103391

  Mayer bond orders larger than 0.1
B(  0-C ,  1-C ) :   0.9280 B(  0-C ,  9-H ) :   0.9403 B(  0-C , 10-H ) :   0.9346
B(  0-C , 11-H ) :   0.9341 B(  1-C ,  2-C ) :   0.9299 B(  1-C , 12-H ) :   0.9029
B(  1-C , 13-H ) :   0.9035 B(  2-C ,  3-O ) :   1.9612 B(  2-C ,  4-C ) :   0.8911
B(  4-C ,  5-C ) :   0.9496 B(  4-C ,  6-O ) :   0.8564 B(  4-C , 14-H ) :   0.9179
B(  5-C , 15-H ) :   0.9285 B(  5-C , 16-H ) :   0.9295 B(  5-C , 17-H ) :   0.9222
B(  6-O ,  7-C ) :   1.0566 B(  7-C ,  8-O ) :   2.0348 B(  7-C , 18-H ) :   0.9150

MP2 TOTAL ENERGY:     -459.465896092 Eh
FINAL SINGLE POINT ENERGY      -459.465896091851

DIPOLE MOMENT
-------------
                                X             Y             Z
Electronic contribution:     -2.52687      -5.28600      -2.41247
Nuclear contribution   :      2.97994       5.14136       2.85453
                        -----------------------------------------
Total Dipole Moment    :      0.45307      -0.14465       0.44206
                        -----------------------------------------
Magnitude (a.u.)       :      0.64932
Magnitude (Debye)      :      1.65043

                             ****ORCA TERMINATED NORMALLY****
TOTAL RUN TIME: 0 days 0 hours 15 minutes 55 seconds 590 msec
