                         Program Version 3.0.3 - RELEASE   -
|  1> ! RI-MP2 RIJK def2-TZVP def2-TZVP/C def2-TZVP/JK TIGHTSCF
|  2> % maxcore 2000
|  3> % mp2 density relaxed end
|  4> *xyz 0 1
|  5>  C        0.0365247426     1.4900246414     0.0210590103
|  6>  C       -0.0151040874    -0.0110450325    -0.0066416623
|  7>  C       -1.1933235456    -0.6912958073    -0.1359245150
|  8>  C       -1.2156636039    -2.1307250860    -0.1510776066
|  9>  O       -2.1682610153    -2.8814922991    -0.2491949619
| 10>  N        0.0903509193    -2.6787468225    -0.0229511148
| 11>  C        1.2169900101    -1.9276478720     0.0950130286
| 12>  N        2.4043256916    -2.5949435106     0.2649907626
| 13>  N        1.2099737863    -0.6219944084     0.0996114163
| 14>  H        0.6728112193     1.8578779859    -0.7908134546
| 15>  H       -0.9565108944     1.9329350381    -0.0752476884
| 16>  H        0.4912795561     1.8311324156     0.9571576991
| 17>  H       -2.1425303926    -0.1802837692    -0.2247844277
| 18>  H        0.1217965359    -3.6885024992     0.0211653589
| 19>  H        2.5004150085    -3.5064706905    -0.1548826471
| 20>  H        3.2100158294    -1.9961965537     0.1627355726
| 21> *
| 22>
| 23>                          ****END OF INPUT****

CARTESIAN COORDINATES (ANGSTROEM)
---------------------------------
  C      0.036525    1.490025    0.021059
  C     -0.015104   -0.011045   -0.006642
  C     -1.193324   -0.691296   -0.135925
  C     -1.215664   -2.130725   -0.151078
  O     -2.168261   -2.881492   -0.249195
  N      0.090351   -2.678747   -0.022951
  C      1.216990   -1.927648    0.095013
  N      2.404326   -2.594944    0.264991
  N      1.209974   -0.621994    0.099611
  H      0.672811    1.857878   -0.790813
  H     -0.956511    1.932935   -0.075248
  H      0.491280    1.831132    0.957158
  H     -2.142530   -0.180284   -0.224784
  H      0.121797   -3.688502    0.021165
  H      2.500415   -3.506471   -0.154883
  H      3.210016   -1.996197    0.162736

 Total Charge           Charge          ....    0
 Multiplicity           Mult            ....    1
 Number of Electrons    NEL             ....   66
 Basis Dimension        Dim             ....  321

ORBITAL ENERGIES
----------------

  NO   OCC          E(Eh)            E(eV)
   0   2.0000     -20.515337      -558.2507
   1   2.0000     -15.624544      -425.1655
   2   2.0000     -15.605963      -424.6599
   3   2.0000     -15.548604      -423.0990
   4   2.0000     -11.387712      -309.8754
   5   2.0000     -11.356114      -309.0156
   6   2.0000     -11.300909      -307.5134
   7   2.0000     -11.230007      -305.5840
   8   2.0000     -11.215691      -305.1945
   9   2.0000      -1.390434       -37.8356
  10   2.0000      -1.339195       -36.4414
  11   2.0000      -1.221766       -33.2459
  12   2.0000      -1.211322       -32.9617
  13   2.0000      -1.061405       -28.8823
  14   2.0000      -0.981826       -26.7168
  15   2.0000      -0.884258       -24.0619
  16   2.0000      -0.848566       -23.0906
  17   2.0000      -0.776325       -21.1249
  18   2.0000      -0.729843       -19.8600
  19   2.0000      -0.709959       -19.3190
  20   2.0000      -0.684892       -18.6369
  21   2.0000      -0.641684       -17.4611
  22   2.0000      -0.623016       -16.9531
  23   2.0000      -0.601657       -16.3719
  24   2.0000      -0.577556       -15.7161
  25   2.0000      -0.551685       -15.0121
  26   2.0000      -0.551444       -15.0056
  27   2.0000      -0.540603       -14.7105
  28   2.0000      -0.452618       -12.3164
  29   2.0000      -0.445480       -12.1221
  30   2.0000      -0.433911       -11.8073
  31   2.0000      -0.430628       -11.7180
  32   2.0000      -0.326294        -8.8789
  33   0.0000       0.106566         2.8998
  34   0.0000       0.115283         3.1370
  35   0.0000       0.150859         4.1051
  36   0.0000       0.157192         4.2774
  37   0.0000       0.165392         4.5005

MULLIKEN ATOMIC CHARGES
-----------------------
   0 C :   -0.416817
   1 C :    0.204937
   2 C :   -0.280094
   3 C :    0.254567
   4 O :   -0.356776
   5 N :   -0.273504
   6 C :    0.374376
   7 N :   -0.496085
   8 N :   -0.346252
   9 H :    0.144015
  10 H :    0.135609
  11 H :    0.145677
  12 H :    0.135510
  13 H :    0.242818
  14 H :    0.255696
  15 H :    0.276323
Sum of atomic charges:   -0.0000000

LOEWDIN ATOMIC CHARGES
----------------------
   0 C :   -0.260786
   1 C :   -0.239145
   2 C :   -0.135264
   3 C :   -0.426625
   4 O :    0.076514
   5 N :    0.195314
   6 C :   -0.401682
   7 N :   -0.034759
   8 N :    0.114480
   9 H :    0.135823
  10 H :    0.128424
  11 H :    0.136360
  12 H :    0.156531
  13 H :    0.200991
  14 H :    0.170418
  15 H :    0.183406

  Mayer bond orders larger than 0.1
B(  0-C ,  1-C ) :   0.8871 B(  0-C ,  9-H ) :   0.9278 B(  0-C , 10-H ) :   0.9524
B(  0-C , 11-H ) :   0.9274 B(  1-C ,  2-C ) :   1.4878 B(  1-C ,  8-N ) :   1.1688
B(  2-C ,  3-C ) :   1.1099 B(  2-C , 12-H ) :   0.9319 B(  3-C ,  4-O ) :   1.9682
B(  3-C ,  5-N ) :   0.9851 B(  5-N ,  6-C ) :   1.1598 B(  5-N , 13-H ) :   0.8509
B(  6-C ,  7-N ) :   1.1182 B(  6-C ,  8-N ) :   1.5842 B(  7-N , 14-H ) :   0.8697
B(  7-N , 15-H ) :   0.8596

MP2 TOTAL ENERGY:     -433.430174667 Eh
FINAL SINGLE POINT ENERGY      -433.430174666581

DIPOLE MOMENT
-------------
                                X             Y             Z
Electronic contribution:     -1.72566      -5.64378      -0.14505
Nuclear contribution   :      3.27186       5.46390      -0.02408
                        -----------------------------------------
Total Dipole Moment    :      1.54620      -0.17988      -0.16913
                        -----------------------------------------
Magnitude (a.u.)       :      1.56579
Magnitude (Debye)      :      3.97992

                             ****ORCA TERMINATED NORMALLY****
TOTAL RUN TIME: 0 days 0 hours 14 minutes 58 seconds 374 msec
