                         Program Version 3.0.3 - RELEASE   -
|  1> ! RI-MP2 RIJK def2-TZVP def2-TZVP/C def2-TZVP/JK TIGHTSCF
|  2> % maxcore 2000
|  3> % mp2 density relaxed end
|  4> *xyz 0 1
|  5>  O        0.0551688828     1.4175912960    -0.0121774042
|  6>  C        0.0295073163    -0.0019142852    -0.0294264880
|  7>  C       -1.4431923351    -0.5362669952    -0.0590245658
|  8>  C       -1.6793525123    -0.6889621424    -1.5328397738
|  9>  C       -2.6419303549    -0.8427755149    -2.5033659686
| 10>  N       -1.9583527403    -0.9366504429    -3.6812743786
| 11>  N       -0.6124122363    -0.8511029874    -3.5456780570
| 12>  C       -0.4577638899    -0.7044636072    -2.2380707678
| 13>  C        0.7173112906    -0.5624314945    -1.3156740329
| 14>  H       -0.3876259219     1.7240325112    -0.8125698511
| 15>  H        0.5532268420    -0.3042457246     0.8805237709
| 16>  H       -1.5192537816    -1.4975241595     0.4659030003
| 17>  H       -2.1010178726     0.1700389252     0.4550406038
| 18>  H       -3.7192446770    -0.8917207964    -2.4783673766
| 19>  H       -2.3455113681    -1.0311723986    -4.6047908452
| 20>  H        1.4983698259     0.1203014982    -1.6592998105
| 21>  H        1.1880323724    -1.5340418618    -1.1190141151
| 22> *
| 23>
| 24>                          ****END OF INPUT****

CARTESIAN COORDINATES (ANGSTROEM)
---------------------------------
  O      0.055169    1.417591   -0.012177
  C      0.029507   -0.001914   -0.029426
  C     -1.443192   -0.536267   -0.059025
  C     -1.679353   -0.688962   -1.532840
  C     -2.641930   -0.842776   -2.503366
  N     -1.958353   -0.936650   -3.681274
  N     -0.612412   -0.851103   -3.545678
  C     -0.457764   -0.704464   -2.238071
  C      0.717311   -0.562431   -1.315674
  H     -0.387626    1.724033   -0.812570
  H      0.553227   -0.304246    0.880524
  H     -1.519254   -1.497524    0.465903
  H     -2.101018    0.170039    0.455041
  H     -3.719245   -0.891721   -2.478367
  H     -2.345511   -1.031172   -4.604791
  H      1.498370    0.120301   -1.659300
  H      1.188032   -1.534042   -1.119014

 Total Charge           Charge          ....    0
 Multiplicity           Mult            ....    1
 Number of Electrons    NEL             ....   66
 Basis Dimension        Dim             ....  327

ORBITAL ENERGIES
----------------

  NO   OCC          E(Eh)            E(eV)
   0   2.0000     -20.553255      -559.2825
   1   2.0000     -15.635470      -425.4628
   2   2.0000     -15.585212      -424.0952
   3   2.0000     -11.287199      -307.1403
   4   2.0000     -11.280000      -306.9444
   5   2.0000     -11.249126      -306.1043
   6   2.0000     -11.235454      -305.7323
   7   2.0000     -11.231928      -305.6363
   8   2.0000     -11.219542      -305.2993
   9   2.0000      -1.370301       -37.2878
  10   2.0000      -1.361027       -37.0354
  11   2.0000      -1.130279       -30.7565
  12   2.0000      -1.085850       -29.5475
  13   2.0000      -1.001939       -27.2641
  14   2.0000      -0.957568       -26.0567
  15   2.0000      -0.848283       -23.0830
  16   2.0000      -0.787407       -21.4264
  17   2.0000      -0.750328       -20.4175
  18   2.0000      -0.723282       -19.6815
  19   2.0000      -0.675742       -18.3879
  20   2.0000      -0.648749       -17.6534
  21   2.0000      -0.618622       -16.8336
  22   2.0000      -0.601245       -16.3607
  23   2.0000      -0.597266       -16.2524
  24   2.0000      -0.560219       -15.2443
  25   2.0000      -0.536912       -14.6101
  26   2.0000      -0.527767       -14.3613
  27   2.0000      -0.526301       -14.3214
  28   2.0000      -0.479373       -13.0444
  29   2.0000      -0.447451       -12.1758
  30   2.0000      -0.433794       -11.8041
  31   2.0000      -0.353703        -9.6247
  32   2.0000      -0.339444        -9.2367
  33   0.0000       0.133096         3.6217
  34   0.0000       0.136076         3.7028
  35   0.0000       0.144872         3.9422
  36   0.0000       0.169738         4.6188
  37   0.0000       0.171987         4.6800

MULLIKEN ATOMIC CHARGES
-----------------------
   0 O :   -0.466391
   1 C :    0.092688
   2 C :   -0.201844
   3 C :   -0.095668
   4 C :   -0.145874
   5 N :   -0.082059
   6 N :   -0.210930
   7 C :   -0.029366
   8 C :   -0.223968
   9 H :    0.321164
  10 H :    0.108213
  11 H :    0.121515
  12 H :    0.138981
  13 H :    0.152849
  14 H :    0.254581
  15 H :    0.143488
  16 H :    0.122623
Sum of atomic charges:   -0.0000000

LOEWDIN ATOMIC CHARGES
----------------------
   0 O :   -0.020085
   1 C :   -0.300740
   2 C :   -0.200789
   3 C :   -0.182250
   4 C :   -0.221272
   5 N :    0.131486
   6 N :    0.041384
   7 C :   -0.269173
   8 C :   -0.199288
   9 H :    0.179129
  10 H :    0.137484
  11 H :    0.145144
  12 H :    0.143247
  13 H :    0.136636
  14 H :    0.185802
  15 H :    0.146176
  16 H :    0.147108

  Mayer bond orders larger than 0.1
B(  0-O ,  1-C ) :   0.9416 B(  0-O ,  9-H ) :   0.8381 B(  1-C ,  2-C ) :   0.9290
B(  1-C ,  8-C ) :   0.9243 B(  1-C , 10-H ) :   0.9365 B(  2-C ,  3-C ) :   0.8880
B(  2-C , 11-H ) :   0.8965 B(  2-C , 12-H ) :   0.9210 B(  3-C ,  4-C ) :   1.4136
B(  3-C ,  7-C ) :   1.2403 B(  4-C ,  5-N ) :   1.2175 B(  4-C ,  6-N ) :   0.1274
B(  4-C , 13-H ) :   0.8978 B(  5-N ,  6-N ) :   1.0764 B(  5-N , 14-H ) :   0.8731
B(  6-N ,  7-C ) :   1.5954 B(  7-C ,  8-C ) :   0.9305 B(  8-C , 15-H ) :   0.9199
B(  8-C , 16-H ) :   0.9075

MP2 TOTAL ENERGY:     -417.331498691 Eh
FINAL SINGLE POINT ENERGY      -417.331498691490

DIPOLE MOMENT
-------------
                                X             Y             Z
Electronic contribution:     -1.15566      -0.15690      -4.20923
Nuclear contribution   :      0.11456      -0.25962       3.92633
                        -----------------------------------------
Total Dipole Moment    :     -1.04110      -0.41653      -0.28290
                        -----------------------------------------
Magnitude (a.u.)       :      1.15647
Magnitude (Debye)      :      2.93952

                             ****ORCA TERMINATED NORMALLY****
TOTAL RUN TIME: 0 days 0 hours 18 minutes 54 seconds 933 msec
