                         Program Version 3.0.3 - RELEASE   -
|  1> ! RI-MP2 RIJK def2-TZVP def2-TZVP/C def2-TZVP/JK TIGHTSCF
|  2> % maxcore 2000
|  3> % mp2 density relaxed end
|  4> *xyz 0 1
|  5>  C        0.6229471181     1.3282558676    -0.1839722772
|  6>  C        0.1385833142    -0.0865363620    -0.0192148185
|  7>  O        0.0427027379    -0.6798237118     1.0271228374
|  8>  C       -0.3669906624    -0.7978864120    -1.2883183077
|  9>  O       -1.0187790524    -0.2272306640    -2.1295277466
| 10>  C       -0.0553641445    -2.2912151053    -1.4602157677
| 11>  O        0.9001620272    -2.8215007246    -0.9645019024
| 12>  H        1.5573286311     1.3294571934    -0.7585369396
| 13>  H       -0.1052093998     1.9039261519    -0.7630735269
| 14>  H        0.7924150301     1.7820067667     0.7927772283
| 15>  H       -0.7474900094    -2.7969141600    -2.1664280991
| 16> *
| 17>
| 18>                          ****END OF INPUT****

CARTESIAN COORDINATES (ANGSTROEM)
---------------------------------
  C      0.622947    1.328256   -0.183972
  C      0.138583   -0.086536   -0.019215
  O      0.042703   -0.679824    1.027123
  C     -0.366991   -0.797886   -1.288318
  O     -1.018779   -0.227231   -2.129528
  C     -0.055364   -2.291215   -1.460216
  O      0.900162   -2.821501   -0.964502
  H      1.557329    1.329457   -0.758537
  H     -0.105209    1.903926   -0.763074
  H      0.792415    1.782007    0.792777
  H     -0.747490   -2.796914   -2.166428

 Total Charge           Charge          ....    0
 Multiplicity           Mult            ....    1
 Number of Electrons    NEL             ....   52
 Basis Dimension        Dim             ....  241

ORBITAL ENERGIES
----------------

  NO   OCC          E(Eh)            E(eV)
   0   2.0000     -20.615917      -560.9876
   1   2.0000     -20.603718      -560.6557
   2   2.0000     -20.588067      -560.2298
   3   2.0000     -11.378446      -309.6233
   4   2.0000     -11.368662      -309.3570
   5   2.0000     -11.368490      -309.3524
   6   2.0000     -11.257355      -306.3282
   7   2.0000      -1.459002       -39.7015
   8   2.0000      -1.434012       -39.0215
   9   2.0000      -1.424823       -38.7714
  10   2.0000      -1.047738       -28.5104
  11   2.0000      -0.977466       -26.5982
  12   2.0000      -0.874540       -23.7974
  13   2.0000      -0.754662       -20.5354
  14   2.0000      -0.719135       -19.5687
  15   2.0000      -0.710726       -19.3398
  16   2.0000      -0.679814       -18.4987
  17   2.0000      -0.653823       -17.7914
  18   2.0000      -0.626307       -17.0427
  19   2.0000      -0.597095       -16.2478
  20   2.0000      -0.581247       -15.8165
  21   2.0000      -0.552098       -15.0233
  22   2.0000      -0.544653       -14.8208
  23   2.0000      -0.520658       -14.1678
  24   2.0000      -0.490872       -13.3573
  25   2.0000      -0.416948       -11.3457
  26   0.0000       0.034188         0.9303
  27   0.0000       0.104685         2.8486
  28   0.0000       0.134342         3.6556
  29   0.0000       0.168359         4.5813
  30   0.0000       0.190567         5.1856

MULLIKEN ATOMIC CHARGES
-----------------------
   0 C :   -0.401206
   1 C :    0.199986
   2 O :   -0.245109
   3 C :    0.219067
   4 O :   -0.244847
   5 C :    0.092468
   6 O :   -0.217548
   7 H :    0.153307
   8 H :    0.169265
   9 H :    0.160145
  10 H :    0.114473
Sum of atomic charges:   -0.0000000

LOEWDIN ATOMIC CHARGES
----------------------
   0 C :   -0.269770
   1 C :   -0.322043
   2 O :    0.192926
   3 C :   -0.280433
   4 O :    0.200367
   5 C :   -0.253974
   6 O :    0.179934
   7 H :    0.145735
   8 H :    0.146809
   9 H :    0.138245
  10 H :    0.122205

  Mayer bond orders larger than 0.1
B(  0-C ,  1-C ) :   0.9201 B(  0-C ,  7-H ) :   0.9033 B(  0-C ,  8-H ) :   0.9065
B(  0-C ,  9-H ) :   0.9329 B(  1-C ,  2-O ) :   1.9654 B(  1-C ,  3-C ) :   0.8376
B(  3-C ,  4-O ) :   1.9099 B(  3-C ,  5-C ) :   0.8390 B(  5-C ,  6-O ) :   1.9760
B(  5-C , 10-H ) :   0.9188

MP2 TOTAL ENERGY:     -379.805959781 Eh
FINAL SINGLE POINT ENERGY      -379.805959780745

DIPOLE MOMENT
-------------
                                X             Y             Z
Electronic contribution:     -1.26233      -4.39418      -0.43086
Nuclear contribution   :      1.23762       5.04667      -0.03618
                        -----------------------------------------
Total Dipole Moment    :     -0.02471       0.65249      -0.46704
                        -----------------------------------------
Magnitude (a.u.)       :      0.80280
Magnitude (Debye)      :      2.04055

                             ****ORCA TERMINATED NORMALLY****
TOTAL RUN TIME: 0 days 0 hours 6 minutes 11 seconds 307 msec
