                         Program Version 3.0.3 - RELEASE   -
|  1> ! RI-MP2 RIJK def2-TZVP def2-TZVP/C def2-TZVP/JK TIGHTSCF
|  2> % maxcore 2000
|  3> % mp2 density relaxed end
|  4> *xyz 0 1
|  5>  C       -0.0285016073     1.4800056546     0.0288284687
|  6>  O        1.4253434328     1.4807948071     0.0833658235
|  7>  C        1.4811921248     0.0793224937    -0.3147012195
|  8>  C        2.2275177232    -0.9003722260     0.5916769804
|  9>  C        1.5808425280    -2.2806412347     0.4106016795
| 10>  N        0.7027865367    -2.7583339889     1.4987014331
| 11>  C        0.1054305669    -2.3841088174     0.1935076010
| 12>  C       -0.6817589554    -1.1158476150     0.1835531487
| 13>  C       -0.0065837432    -0.0189676600    -0.1230039127
| 14>  H       -0.4847688269     1.8829725188     0.9407075488
| 15>  H       -0.3989351789     2.0449401620    -0.8383641707
| 16>  H        1.8266629059     0.0000824066    -1.3559460230
| 17>  H        3.2987140530    -0.9385090487     0.3709068623
| 18>  H        2.1018682870    -0.5772465130     1.6280507771
| 19>  H        2.1941465091    -3.0266333939    -0.0886038376
| 20>  H        0.7608053511    -3.7722060233     1.5699470514
| 21>  H       -0.2541411791    -3.1976906830    -0.4339728683
| 22>  H       -1.7211428481    -1.1200536791     0.4990602272
| 23> *
| 24>
| 25>                          ****END OF INPUT****

CARTESIAN COORDINATES (ANGSTROEM)
---------------------------------
  C     -0.028502    1.480006    0.028828
  O      1.425343    1.480795    0.083366
  C      1.481192    0.079322   -0.314701
  C      2.227518   -0.900372    0.591677
  C      1.580843   -2.280641    0.410602
  N      0.702787   -2.758334    1.498701
  C      0.105431   -2.384109    0.193508
  C     -0.681759   -1.115848    0.183553
  C     -0.006584   -0.018968   -0.123004
  H     -0.484769    1.882973    0.940708
  H     -0.398935    2.044940   -0.838364
  H      1.826663    0.000082   -1.355946
  H      3.298714   -0.938509    0.370907
  H      2.101868   -0.577247    1.628051
  H      2.194147   -3.026633   -0.088604
  H      0.760805   -3.772206    1.569947
  H     -0.254141   -3.197691   -0.433973
  H     -1.721143   -1.120054    0.499060

 Total Charge           Charge          ....    0
 Multiplicity           Mult            ....    1
 Number of Electrons    NEL             ....   66
 Basis Dimension        Dim             ....  333

ORBITAL ENERGIES
----------------

  NO   OCC          E(Eh)            E(eV)
   0   2.0000     -20.550607      -559.2104
   1   2.0000     -15.562246      -423.4702
   2   2.0000     -11.286466      -307.1204
   3   2.0000     -11.282512      -307.0127
   4   2.0000     -11.268206      -306.6235
   5   2.0000     -11.266772      -306.5845
   6   2.0000     -11.238696      -305.8205
   7   2.0000     -11.232595      -305.6545
   8   2.0000     -11.226839      -305.4978
   9   2.0000      -1.377858       -37.4934
  10   2.0000      -1.266536       -34.4642
  11   2.0000      -1.081966       -29.4418
  12   2.0000      -1.024434       -27.8763
  13   2.0000      -0.942353       -25.6427
  14   2.0000      -0.900396       -24.5010
  15   2.0000      -0.835803       -22.7434
  16   2.0000      -0.799384       -21.7523
  17   2.0000      -0.725453       -19.7406
  18   2.0000      -0.702250       -19.1092
  19   2.0000      -0.663195       -18.0464
  20   2.0000      -0.647056       -17.6073
  21   2.0000      -0.632363       -17.2075
  22   2.0000      -0.586722       -15.9655
  23   2.0000      -0.566488       -15.4149
  24   2.0000      -0.546054       -14.8589
  25   2.0000      -0.533252       -14.5105
  26   2.0000      -0.488690       -13.2979
  27   2.0000      -0.478937       -13.0325
  28   2.0000      -0.467847       -12.7308
  29   2.0000      -0.451830       -12.2949
  30   2.0000      -0.426600       -11.6084
  31   2.0000      -0.392255       -10.6738
  32   2.0000      -0.352803        -9.6003
  33   0.0000       0.130559         3.5527
  34   0.0000       0.138343         3.7645
  35   0.0000       0.159621         4.3435
  36   0.0000       0.175829         4.7846
  37   0.0000       0.183271         4.9871

MULLIKEN ATOMIC CHARGES
-----------------------
   0 C :   -0.004449
   1 O :   -0.329827
   2 C :    0.118764
   3 C :   -0.208591
   4 C :   -0.070473
   5 N :   -0.387394
   6 C :    0.003492
   7 C :   -0.179825
   8 C :   -0.107302
   9 H :    0.115266
  10 H :    0.103562
  11 H :    0.089752
  12 H :    0.122565
  13 H :    0.127789
  14 H :    0.127943
  15 H :    0.215878
  16 H :    0.129834
  17 H :    0.133016
Sum of atomic charges:   -0.0000000

LOEWDIN ATOMIC CHARGES
----------------------
   0 C :   -0.226310
   1 O :    0.130043
   2 C :   -0.232930
   3 C :   -0.211895
   4 C :   -0.233878
   5 N :    0.005422
   6 C :   -0.237087
   7 C :   -0.123849
   8 C :   -0.138879
   9 H :    0.126073
  10 H :    0.125013
  11 H :    0.141554
  12 H :    0.137949
  13 H :    0.154325
  14 H :    0.135399
  15 H :    0.165259
  16 H :    0.139039
  17 H :    0.144751

  Mayer bond orders larger than 0.1
B(  0-C ,  1-O ) :   0.9452 B(  0-C ,  8-C ) :   1.0096 B(  0-C ,  9-H ) :   0.9161
B(  0-C , 10-H ) :   0.8910 B(  1-O ,  2-C ) :   0.9877 B(  2-C ,  3-C ) :   0.9215
B(  2-C ,  8-C ) :   0.9835 B(  2-C , 11-H ) :   0.9116 B(  3-C ,  4-C ) :   0.8887
B(  3-C , 12-H ) :   0.9274 B(  3-C , 13-H ) :   0.9072 B(  4-C ,  5-N ) :   0.9422
B(  4-C ,  6-C ) :   0.9130 B(  4-C , 14-H ) :   0.9233 B(  5-N ,  6-C ) :   0.9078
B(  5-N , 15-H ) :   0.8667 B(  6-C ,  7-C ) :   0.9365 B(  6-C , 16-H ) :   0.9154
B(  7-C ,  8-C ) :   1.7379 B(  7-C , 17-H ) :   0.9176

MP2 TOTAL ENERGY:     -401.204185139 Eh
FINAL SINGLE POINT ENERGY      -401.204185138502

DIPOLE MOMENT
-------------
                                X             Y             Z
Electronic contribution:     -0.57164       1.45310      -0.20026
Nuclear contribution   :      0.28272      -2.28604      -0.33463
                        -----------------------------------------
Total Dipole Moment    :     -0.28891      -0.83295      -0.53489
                        -----------------------------------------
Magnitude (a.u.)       :      1.03120
Magnitude (Debye)      :      2.62110

                             ****ORCA TERMINATED NORMALLY****
TOTAL RUN TIME: 0 days 0 hours 17 minutes 51 seconds 117 msec
