                         Program Version 3.0.3 - RELEASE   -
|  1> ! RI-MP2 RIJK def2-TZVP def2-TZVP/C def2-TZVP/JK TIGHTSCF
|  2> % maxcore 2000
|  3> % mp2 density relaxed end
|  4> *xyz 0 1
|  5>  O       -0.0780698554     1.4339218904    -0.3105406710
|  6>  C       -0.0419259555     0.0612941673     0.0260393288
|  7>  C       -1.4453146157    -0.5233161095     0.0843445260
|  8>  O       -2.0056734492    -0.3416293405    -1.2038636764
|  9>  C       -3.3980319058    -0.6242263331    -1.3021744700
| 10>  C       -4.2619801244     0.5652128937    -0.7948809351
| 11>  C       -4.6764099664     1.2689834841    -2.0641053964
| 12>  C       -4.3900238168     0.5546615036    -3.1504118643
| 13>  C       -3.7304356843    -0.7577169551    -2.8075153505
| 14>  H       -0.6509973289     1.4913069522    -1.0849089397
| 15>  H        0.5570126371    -0.5159300479    -0.6964631273
| 16>  H        0.4386169890    -0.0230487742     1.0063077643
| 17>  H       -1.4196383778    -1.5928530269     0.3510699916
| 18>  H       -2.0309410883     0.0072874561     0.8496744059
| 19>  H       -3.6102555193    -1.5497347848    -0.7506815346
| 20>  H       -5.1365208391     0.2169000851    -0.2285444318
| 21>  H       -3.6878888578     1.2070480299    -0.1170278985
| 22>  H       -5.1659909586     2.2364576445    -2.0596500692
| 23>  H       -4.6127456733     0.8459909970    -4.1706849065
| 24>  H       -2.8117437107    -0.9496101311    -3.3715495366
| 25>  H       -4.4030925789    -1.6048540807    -2.9962257086
| 26> *
| 27>
| 28>                          ****END OF INPUT****

CARTESIAN COORDINATES (ANGSTROEM)
---------------------------------
  O     -0.078070    1.433922   -0.310541
  C     -0.041926    0.061294    0.026039
  C     -1.445315   -0.523316    0.084345
  O     -2.005673   -0.341629   -1.203864
  C     -3.398032   -0.624226   -1.302174
  C     -4.261980    0.565213   -0.794881
  C     -4.676410    1.268983   -2.064105
  C     -4.390024    0.554662   -3.150412
  C     -3.730436   -0.757717   -2.807515
  H     -0.650997    1.491307   -1.084909
  H      0.557013   -0.515930   -0.696463
  H      0.438617   -0.023049    1.006308
  H     -1.419638   -1.592853    0.351070
  H     -2.030941    0.007287    0.849674
  H     -3.610256   -1.549735   -0.750682
  H     -5.136521    0.216900   -0.228544
  H     -3.687889    1.207048   -0.117028
  H     -5.165991    2.236458   -2.059650
  H     -4.612746    0.845991   -4.170685
  H     -2.811744   -0.949610   -3.371550
  H     -4.403093   -1.604854   -2.996226

 Total Charge           Charge          ....    0
 Multiplicity           Mult            ....    1
 Number of Electrons    NEL             ....   70
 Basis Dimension        Dim             ....  351

ORBITAL ENERGIES
----------------

  NO   OCC          E(Eh)            E(eV)
   0   2.0000     -20.559884      -559.4629
   1   2.0000     -20.545256      -559.0648
   2   2.0000     -11.286474      -307.1206
   3   2.0000     -11.277327      -306.8717
   4   2.0000     -11.270975      -306.6988
   5   2.0000     -11.228390      -305.5400
   6   2.0000     -11.226934      -305.5004
   7   2.0000     -11.226343      -305.4843
   8   2.0000     -11.225035      -305.4487
   9   2.0000      -1.386316       -37.7236
  10   2.0000      -1.347674       -36.6721
  11   2.0000      -1.130734       -30.7688
  12   2.0000      -1.009483       -27.4694
  13   2.0000      -0.966509       -26.3000
  14   2.0000      -0.945775       -25.7358
  15   2.0000      -0.838960       -22.8293
  16   2.0000      -0.789579       -21.4855
  17   2.0000      -0.737526       -20.0691
  18   2.0000      -0.696794       -18.9607
  19   2.0000      -0.692281       -18.8379
  20   2.0000      -0.666792       -18.1443
  21   2.0000      -0.651255       -17.7216
  22   2.0000      -0.609406       -16.5828
  23   2.0000      -0.584823       -15.9139
  24   2.0000      -0.559524       -15.2254
  25   2.0000      -0.547268       -14.8919
  26   2.0000      -0.544988       -14.8299
  27   2.0000      -0.537405       -14.6235
  28   2.0000      -0.508838       -13.8462
  29   2.0000      -0.496336       -13.5060
  30   2.0000      -0.484185       -13.1754
  31   2.0000      -0.469770       -12.7831
  32   2.0000      -0.436141       -11.8680
  33   2.0000      -0.422085       -11.4855
  34   2.0000      -0.349928        -9.5220
  35   0.0000       0.138203         3.7607
  36   0.0000       0.157994         4.2992
  37   0.0000       0.160254         4.3607
  38   0.0000       0.166149         4.5211
  39   0.0000       0.169350         4.6082

MULLIKEN ATOMIC CHARGES
-----------------------
   0 O :   -0.489340
   1 C :    0.009617
   2 C :   -0.112476
   3 O :   -0.340191
   4 C :    0.078527
   5 C :   -0.193859
   6 C :   -0.182486
   7 C :   -0.198529
   8 C :   -0.143827
   9 H :    0.327373
  10 H :    0.097464
  11 H :    0.107275
  12 H :    0.100974
  13 H :    0.107951
  14 H :    0.088651
  15 H :    0.117316
  16 H :    0.124267
  17 H :    0.129618
  18 H :    0.127532
  19 H :    0.128410
  20 H :    0.115733
Sum of atomic charges:   -0.0000000

LOEWDIN ATOMIC CHARGES
----------------------
   0 O :   -0.050792
   1 C :   -0.354134
   2 C :   -0.341220
   3 O :    0.168014
   4 C :   -0.283539
   5 C :   -0.228788
   6 C :   -0.166435
   7 C :   -0.165139
   8 C :   -0.220729
   9 H :    0.176651
  10 H :    0.118581
  11 H :    0.128715
  12 H :    0.121209
  13 H :    0.121484
  14 H :    0.131943
  15 H :    0.141474
  16 H :    0.142309
  17 H :    0.136460
  18 H :    0.136451
  19 H :    0.145267
  20 H :    0.142220

  Mayer bond orders larger than 0.1
B(  0-O ,  1-C ) :   0.9357 B(  0-O ,  9-H ) :   0.8287 B(  1-C ,  2-C ) :   0.9586
B(  1-C , 10-H ) :   0.9320 B(  1-C , 11-H ) :   0.9250 B(  2-C ,  3-O ) :   0.9042
B(  2-C , 12-H ) :   0.9165 B(  2-C , 13-H ) :   0.9215 B(  3-O ,  4-C ) :   0.9149
B(  4-C ,  5-C ) :   0.9269 B(  4-C ,  8-C ) :   0.9134 B(  4-C , 14-H ) :   0.9447
B(  5-C ,  6-C ) :   0.9378 B(  5-C , 15-H ) :   0.9028 B(  5-C , 16-H ) :   0.9179
B(  6-C ,  7-C ) :   1.7921 B(  6-C , 17-H ) :   0.9277 B(  7-C ,  8-C ) :   0.9570
B(  7-C , 18-H ) :   0.9273 B(  8-C , 19-H ) :   0.9157 B(  8-C , 20-H ) :   0.9076

MP2 TOTAL ENERGY:     -423.516793604 Eh
FINAL SINGLE POINT ENERGY      -423.516793604348

DIPOLE MOMENT
-------------
                                X             Y             Z
Electronic contribution:      0.83224       1.60985      -1.38546
Nuclear contribution   :     -1.51750      -2.29550       1.42790
                        -----------------------------------------
Total Dipole Moment    :     -0.68527      -0.68565       0.04243
                        -----------------------------------------
Magnitude (a.u.)       :      0.97031
Magnitude (Debye)      :      2.46634

                             ****ORCA TERMINATED NORMALLY****
TOTAL RUN TIME: 0 days 0 hours 16 minutes 3 seconds 647 msec
