                         Program Version 3.0.3 - RELEASE   -
|  1> ! RI-MP2 RIJK def2-TZVP def2-TZVP/C def2-TZVP/JK TIGHTSCF
|  2> % maxcore 2000
|  3> % mp2 density relaxed end
|  4> *xyz 0 1
|  5>  C        0.3437457833     1.3176259630     0.0582494449
|  6>  O       -0.3115357165     0.2050742312    -0.5224413064
|  7>  C        0.5226879991    -0.5342628237    -1.3598176230
|  8>  C        1.3851019967    -1.6560421933    -0.7900540983
|  9>  C        1.3401773763    -1.9857275231     0.6878235838
| 10>  C        0.2021118540    -1.9816399118    -1.6794706046
| 11>  N       -0.8938243281    -2.7982688793    -1.2293273027
| 12>  C       -1.9374282698    -2.3016022313    -0.3314544694
| 13>  C       -2.2203274570    -2.5169884209    -1.7761648781
| 14>  H        1.1903079338     1.0094297637     0.6862437262
| 15>  H        0.7157163715     2.0072859033    -0.7141962300
| 16>  H       -0.3918345430     1.8393236675     0.6749156387
| 17>  H        0.9463072216     0.0624052699    -2.1715473286
| 18>  H        2.3644036378    -1.7830030287    -1.2454036867
| 19>  H        0.4143318739    -1.6376766907     1.1500455887
| 20>  H        1.4066830607    -3.0666395907     0.8474444004
| 21>  H        2.1766761517    -1.5163933696     1.2165438442
| 22>  H        0.4602898285    -2.2590440868    -2.6991242903
| 23>  H       -2.2797731360    -3.0286578372     0.4007999940
| 24>  H       -1.8810329149    -1.2775829175     0.0138328223
| 25>  H       -2.3378439241    -1.6262099898    -2.3900575143
| 26>  H       -2.7838463396    -3.3839430241    -2.1109140108
| 27> *
| 28>
| 29>                          ****END OF INPUT****

CARTESIAN COORDINATES (ANGSTROEM)
---------------------------------
  C      0.343746    1.317626    0.058249
  O     -0.311536    0.205074   -0.522441
  C      0.522688   -0.534263   -1.359818
  C      1.385102   -1.656042   -0.790054
  C      1.340177   -1.985728    0.687824
  C      0.202112   -1.981640   -1.679471
  N     -0.893824   -2.798269   -1.229327
  C     -1.937428   -2.301602   -0.331454
  C     -2.220327   -2.516988   -1.776165
  H      1.190308    1.009430    0.686244
  H      0.715716    2.007286   -0.714196
  H     -0.391835    1.839324    0.674916
  H      0.946307    0.062405   -2.171547
  H      2.364404   -1.783003   -1.245404
  H      0.414332   -1.637677    1.150046
  H      1.406683   -3.066640    0.847444
  H      2.176676   -1.516393    1.216544
  H      0.460290   -2.259044   -2.699124
  H     -2.279773   -3.028658    0.400800
  H     -1.881033   -1.277583    0.013833
  H     -2.337844   -1.626210   -2.390058
  H     -2.783846   -3.383943   -2.110914

 Total Charge           Charge          ....    0
 Multiplicity           Mult            ....    1
 Number of Electrons    NEL             ....   70
 Basis Dimension        Dim             ....  357

ORBITAL ENERGIES
----------------

  NO   OCC          E(Eh)            E(eV)
   0   2.0000     -20.563735      -559.5677
   1   2.0000     -15.553378      -423.2289
   2   2.0000     -11.278001      -306.8900
   3   2.0000     -11.274838      -306.8039
   4   2.0000     -11.254545      -306.2517
   5   2.0000     -11.244007      -305.9650
   6   2.0000     -11.241301      -305.8913
   7   2.0000     -11.223935      -305.4188
   8   2.0000     -11.211919      -305.0918
   9   2.0000      -1.386166       -37.7195
  10   2.0000      -1.263647       -34.3856
  11   2.0000      -1.127511       -30.6811
  12   2.0000      -0.968060       -26.3423
  13   2.0000      -0.942288       -25.6410
  14   2.0000      -0.902765       -24.5655
  15   2.0000      -0.832536       -22.6544
  16   2.0000      -0.781576       -21.2678
  17   2.0000      -0.754535       -20.5319
  18   2.0000      -0.699318       -19.0294
  19   2.0000      -0.667100       -18.1527
  20   2.0000      -0.655494       -17.8369
  21   2.0000      -0.631546       -17.1852
  22   2.0000      -0.616168       -16.7668
  23   2.0000      -0.595938       -16.2163
  24   2.0000      -0.559177       -15.2160
  25   2.0000      -0.539483       -14.6801
  26   2.0000      -0.527978       -14.3670
  27   2.0000      -0.512093       -13.9348
  28   2.0000      -0.501657       -13.6508
  29   2.0000      -0.487834       -13.2746
  30   2.0000      -0.458920       -12.4878
  31   2.0000      -0.448003       -12.1908
  32   2.0000      -0.443333       -12.0637
  33   2.0000      -0.374069       -10.1789
  34   2.0000      -0.341330        -9.2881
  35   0.0000       0.136641         3.7182
  36   0.0000       0.157808         4.2942
  37   0.0000       0.169823         4.6211
  38   0.0000       0.174573         4.7504
  39   0.0000       0.195114         5.3093

MULLIKEN ATOMIC CHARGES
-----------------------
   0 C :   -0.216969
   1 O :   -0.321155
   2 C :    0.022858
   3 C :   -0.072702
   4 C :   -0.424922
   5 C :   -0.057907
   6 N :   -0.229950
   7 C :   -0.198634
   8 C :   -0.157029
   9 H :    0.120079
  10 H :    0.117173
  11 H :    0.139510
  12 H :    0.099386
  13 H :    0.115750
  14 H :    0.145270
  15 H :    0.144099
  16 H :    0.131812
  17 H :    0.116214
  18 H :    0.121646
  19 H :    0.156784
  20 H :    0.122819
  21 H :    0.125867
Sum of atomic charges:    0.0000000

LOEWDIN ATOMIC CHARGES
----------------------
   0 C :   -0.344639
   1 O :    0.161074
   2 C :   -0.287193
   3 C :   -0.218154
   4 C :   -0.292786
   5 C :   -0.242390
   6 N :    0.119249
   7 C :   -0.263840
   8 C :   -0.260330
   9 H :    0.105298
  10 H :    0.104546
  11 H :    0.113422
  12 H :    0.131948
  13 H :    0.144644
  14 H :    0.129621
  15 H :    0.130219
  16 H :    0.123172
  17 H :    0.150315
  18 H :    0.121994
  19 H :    0.127384
  20 H :    0.124848
  21 H :    0.121596

  Mayer bond orders larger than 0.1
B(  0-C ,  1-O ) :   0.8983 B(  0-C ,  9-H ) :   0.9360 B(  0-C , 10-H ) :   0.9367
B(  0-C , 11-H ) :   0.9388 B(  1-O ,  2-C ) :   0.9303 B(  2-C ,  3-C ) :   0.8624
B(  2-C ,  5-C ) :   0.8799 B(  2-C , 12-H ) :   0.9230 B(  3-C ,  4-C ) :   0.9048
B(  3-C ,  5-C ) :   0.8515 B(  3-C , 13-H ) :   0.9197 B(  4-C , 14-H ) :   0.9337
B(  4-C , 15-H ) :   0.9361 B(  4-C , 16-H ) :   0.9387 B(  5-C ,  6-N ) :   0.9787
B(  5-C , 17-H ) :   0.9322 B(  6-N ,  7-C ) :   0.8659 B(  6-N ,  8-C ) :   0.8725
B(  7-C ,  8-C ) :   0.9405 B(  7-C , 18-H ) :   0.9292 B(  7-C , 19-H ) :   0.9176
B(  8-C , 20-H ) :   0.9206 B(  8-C , 21-H ) :   0.9251

MP2 TOTAL ENERGY:     -403.578967940 Eh
FINAL SINGLE POINT ENERGY      -403.578967939629

DIPOLE MOMENT
-------------
                                X             Y             Z
Electronic contribution:     -1.81200      -1.60351      -3.08425
Nuclear contribution   :      2.09196       2.24541       3.09555
                        -----------------------------------------
Total Dipole Moment    :      0.27996       0.64190       0.01130
                        -----------------------------------------
Magnitude (a.u.)       :      0.70039
Magnitude (Debye)      :      1.78025

                             ****ORCA TERMINATED NORMALLY****
TOTAL RUN TIME: 0 days 0 hours 18 minutes 29 seconds 407 msec
