                         Program Version 3.0.3 - RELEASE   -
|  1> ! RI-MP2 RIJK def2-TZVP def2-TZVP/C def2-TZVP/JK TIGHTSCF
|  2> % maxcore 2000
|  3> % mp2 density relaxed end
|  4> *xyz 0 1
|  5>  C       -0.0628167515     1.5754668709    -0.0922755815
|  6>  C       -0.0026886740     0.0584318589     0.1061752733
|  7>  C       -1.3805950250    -0.5955601339     0.0804956210
|  8>  O       -2.0393406496    -0.3667711083    -1.1890177548
|  9>  C       -2.3113738833    -1.6785695215    -1.6349054304
| 10>  C       -2.7864657388    -2.5743668692    -0.4522170625
| 11>  C       -2.1045562233    -3.7879803753    -1.1213928854
| 12>  C       -1.1109631969    -2.6254734456    -1.3404612261
| 13>  C       -1.3992165602    -2.1218647157     0.1184868582
| 14>  H        0.9389018757     2.0156200800    -0.0891377687
| 15>  H       -0.5417088401     1.8155491137    -1.0452076749
| 16>  H       -0.6418398412     2.0559599162     0.7044236272
| 17>  H        0.6195292288    -0.3961944122    -0.6740653396
| 18>  H        0.4717873625    -0.1782107509     1.0677622187
| 19>  H       -2.0072964061    -0.1653298949     0.8761483377
| 20>  H       -2.8204021534    -1.6691316063    -2.5983871180
| 21>  H       -3.7473642530    -2.5321673556     0.0623776087
| 22>  H       -1.7750759008    -4.5873302598    -0.4531272883
| 23>  H       -2.5886180104    -4.1994718597    -2.0122124253
| 24>  H       -0.1467286395    -2.6477826321    -1.8492381683
| 25>  H       -0.9628925599    -2.6376450587     0.9746976590
| 26> *
| 27>
| 28>                          ****END OF INPUT****

CARTESIAN COORDINATES (ANGSTROEM)
---------------------------------
  C     -0.062817    1.575467   -0.092276
  C     -0.002689    0.058432    0.106175
  C     -1.380595   -0.595560    0.080496
  O     -2.039341   -0.366771   -1.189018
  C     -2.311374   -1.678570   -1.634905
  C     -2.786466   -2.574367   -0.452217
  C     -2.104556   -3.787980   -1.121393
  C     -1.110963   -2.625473   -1.340461
  C     -1.399217   -2.121865    0.118487
  H      0.938902    2.015620   -0.089138
  H     -0.541709    1.815549   -1.045208
  H     -0.641840    2.055960    0.704424
  H      0.619529   -0.396194   -0.674065
  H      0.471787   -0.178211    1.067762
  H     -2.007296   -0.165330    0.876148
  H     -2.820402   -1.669132   -2.598387
  H     -3.747364   -2.532167    0.062378
  H     -1.775076   -4.587330   -0.453127
  H     -2.588618   -4.199472   -2.012212
  H     -0.146729   -2.647783   -1.849238
  H     -0.962893   -2.637645    0.974698

 Total Charge           Charge          ....    0
 Multiplicity           Mult            ....    1
 Number of Electrons    NEL             ....   68
 Basis Dimension        Dim             ....  351

ORBITAL ENERGIES
----------------

  NO   OCC          E(Eh)            E(eV)
   0   2.0000     -20.545653      -559.0756
   1   2.0000     -11.283230      -307.0323
   2   2.0000     -11.272028      -306.7275
   3   2.0000     -11.240284      -305.8637
   4   2.0000     -11.239912      -305.8536
   5   2.0000     -11.239118      -305.8319
   6   2.0000     -11.230605      -305.6003
   7   2.0000     -11.218142      -305.2612
   8   2.0000     -11.206691      -304.9496
   9   2.0000      -1.382943       -37.6318
  10   2.0000      -1.193807       -32.4851
  11   2.0000      -1.054653       -28.6986
  12   2.0000      -0.962901       -26.2019
  13   2.0000      -0.896110       -24.3844
  14   2.0000      -0.867737       -23.6123
  15   2.0000      -0.845367       -23.0036
  16   2.0000      -0.772695       -21.0261
  17   2.0000      -0.741841       -20.1865
  18   2.0000      -0.686539       -18.6817
  19   2.0000      -0.664125       -18.0717
  20   2.0000      -0.636815       -17.3286
  21   2.0000      -0.596718       -16.2375
  22   2.0000      -0.580318       -15.7912
  23   2.0000      -0.549486       -14.9523
  24   2.0000      -0.538115       -14.6429
  25   2.0000      -0.524299       -14.2669
  26   2.0000      -0.495852       -13.4928
  27   2.0000      -0.483171       -13.1477
  28   2.0000      -0.480698       -13.0805
  29   2.0000      -0.460796       -12.5389
  30   2.0000      -0.454796       -12.3756
  31   2.0000      -0.436504       -11.8779
  32   2.0000      -0.429905       -11.6983
  33   2.0000      -0.383926       -10.4472
  34   0.0000       0.145393         3.9563
  35   0.0000       0.154184         4.1956
  36   0.0000       0.161750         4.4014
  37   0.0000       0.169130         4.6023
  38   0.0000       0.184268         5.0142

MULLIKEN ATOMIC CHARGES
-----------------------
   0 C :   -0.390781
   1 C :   -0.211422
   2 C :    0.054959
   3 O :   -0.333394
   4 C :    0.072295
   5 C :   -0.148711
   6 C :   -0.216234
   7 C :   -0.170307
   8 C :   -0.088157
   9 H :    0.129986
  10 H :    0.145052
  11 H :    0.117540
  12 H :    0.112154
  13 H :    0.102116
  14 H :    0.091038
  15 H :    0.119449
  16 H :    0.130407
  17 H :    0.114437
  18 H :    0.115160
  19 H :    0.131524
  20 H :    0.122888
Sum of atomic charges:   -0.0000000

LOEWDIN ATOMIC CHARGES
----------------------
   0 C :   -0.317472
   1 C :   -0.272492
   2 C :   -0.270422
   3 O :    0.185112
   4 C :   -0.245560
   5 C :   -0.148141
   6 C :   -0.201624
   7 C :   -0.150900
   8 C :   -0.154381
   9 H :    0.119449
  10 H :    0.126485
  11 H :    0.120193
  12 H :    0.139595
  13 H :    0.139090
  14 H :    0.142202
  15 H :    0.136744
  16 H :    0.126273
  17 H :    0.129580
  18 H :    0.127896
  19 H :    0.125223
  20 H :    0.143151

  Mayer bond orders larger than 0.1
B(  0-C ,  1-C ) :   0.9228 B(  0-C ,  9-H ) :   0.9408 B(  0-C , 10-H ) :   0.9374
B(  0-C , 11-H ) :   0.9365 B(  1-C ,  2-C ) :   0.9202 B(  1-C , 12-H ) :   0.9331
B(  1-C , 13-H ) :   0.9304 B(  2-C ,  3-O ) :   0.8850 B(  2-C ,  8-C ) :   0.9314
B(  2-C , 14-H ) :   0.9112 B(  3-O ,  4-C ) :   0.9692 B(  4-C ,  5-C ) :   0.8703
B(  4-C ,  7-C ) :   0.8585 B(  4-C , 15-H ) :   0.9380 B(  5-C ,  6-C ) :   0.9081
B(  5-C ,  8-C ) :   0.8862 B(  5-C , 16-H ) :   0.9024 B(  6-C ,  7-C ) :   0.9045
B(  6-C , 17-H ) :   0.9247 B(  6-C , 18-H ) :   0.9308 B(  7-C ,  8-C ) :   0.8841
B(  7-C , 19-H ) :   0.8989 B(  8-C , 20-H ) :   0.9149

MP2 TOTAL ENERGY:     -386.380130105 Eh
FINAL SINGLE POINT ENERGY      -386.380130104997

DIPOLE MOMENT
-------------
                                X             Y             Z
Electronic contribution:     -3.74695      -2.71186      -1.89116
Nuclear contribution   :      3.92060       2.22484       2.17317
                        -----------------------------------------
Total Dipole Moment    :      0.17365      -0.48702       0.28200
                        -----------------------------------------
Magnitude (a.u.)       :      0.58896
Magnitude (Debye)      :      1.49701

                             ****ORCA TERMINATED NORMALLY****
TOTAL RUN TIME: 0 days 0 hours 30 minutes 35 seconds 257 msec
