                         Program Version 3.0.3 - RELEASE   -
|  1> ! RI-MP2 RIJK def2-TZVP def2-TZVP/C def2-TZVP/JK TIGHTSCF
|  2> % maxcore 2000
|  3> % mp2 density relaxed end
|  4> *xyz 0 1
|  5>  O        0.0449859857     1.3454845257     0.3104164463
|  6>  C       -0.0000462559    -0.0196581738    -0.0880704613
|  7>  C       -1.4350740254    -0.4692728709     0.0041801613
|  8>  C       -1.9903203445    -1.0861663229     1.2429002829
|  9>  N       -1.7139362149    -1.9247718368     0.0686202081
| 10>  C       -2.8904489849    -2.1686330424    -0.7991455133
| 11>  C       -3.2945092319    -0.8130299613    -1.3388823883
| 12>  C       -2.4618283423     0.1300529158    -0.9003807864
| 13>  H        0.9345435575     1.6734859594     0.1504476685
| 14>  H        0.3573611263    -0.1443405435    -1.1223587073
| 15>  H        0.6201206105    -0.6573689216     0.5584622232
| 16>  H       -1.3414382922    -1.2820220661     2.0931918337
| 17>  H       -3.0248105213    -0.8599788096     1.4916055330
| 18>  H       -2.6079913809    -2.8627111004    -1.6023128988
| 19>  H       -3.6889069929    -2.6582760158    -0.2267574848
| 20>  H       -4.1582445425    -0.6599208411    -1.9756515011
| 21>  H       -2.4894809204     1.1871765853    -1.1296328157
| 22> *
| 23>
| 24>                          ****END OF INPUT****

CARTESIAN COORDINATES (ANGSTROEM)
---------------------------------
  O      0.044986    1.345485    0.310416
  C     -0.000046   -0.019658   -0.088070
  C     -1.435074   -0.469273    0.004180
  C     -1.990320   -1.086166    1.242900
  N     -1.713936   -1.924772    0.068620
  C     -2.890449   -2.168633   -0.799146
  C     -3.294509   -0.813030   -1.338882
  C     -2.461828    0.130053   -0.900381
  H      0.934544    1.673486    0.150448
  H      0.357361   -0.144341   -1.122359
  H      0.620121   -0.657369    0.558462
  H     -1.341438   -1.282022    2.093192
  H     -3.024811   -0.859979    1.491606
  H     -2.607991   -2.862711   -1.602313
  H     -3.688907   -2.658276   -0.226757
  H     -4.158245   -0.659921   -1.975652
  H     -2.489481    1.187177   -1.129633

 Total Charge           Charge          ....    0
 Multiplicity           Mult            ....    1
 Number of Electrons    NEL             ....   60
 Basis Dimension        Dim             ....  302

ORBITAL ENERGIES
----------------

  NO   OCC          E(Eh)            E(eV)
   0   2.0000     -20.559516      -559.4529
   1   2.0000     -15.557451      -423.3398
   2   2.0000     -11.278853      -306.9132
   3   2.0000     -11.261468      -306.4401
   4   2.0000     -11.254806      -306.2588
   5   2.0000     -11.250420      -306.1395
   6   2.0000     -11.229105      -305.5595
   7   2.0000     -11.227246      -305.5089
   8   2.0000      -1.363604       -37.1056
   9   2.0000      -1.284198       -34.9448
  10   2.0000      -1.059503       -28.8305
  11   2.0000      -1.011046       -27.5120
  12   2.0000      -0.928807       -25.2741
  13   2.0000      -0.842603       -22.9284
  14   2.0000      -0.779705       -21.2168
  15   2.0000      -0.736586       -20.0435
  16   2.0000      -0.698086       -18.9959
  17   2.0000      -0.680331       -18.5127
  18   2.0000      -0.634520       -17.2662
  19   2.0000      -0.630224       -17.1493
  20   2.0000      -0.584478       -15.9044
  21   2.0000      -0.577906       -15.7256
  22   2.0000      -0.539751       -14.6874
  23   2.0000      -0.529140       -14.3986
  24   2.0000      -0.491338       -13.3700
  25   2.0000      -0.475823       -12.9478
  26   2.0000      -0.450155       -12.2493
  27   2.0000      -0.441423       -12.0117
  28   2.0000      -0.402594       -10.9551
  29   2.0000      -0.333437        -9.0733
  30   0.0000       0.134066         3.6481
  31   0.0000       0.149473         4.0674
  32   0.0000       0.159342         4.3359
  33   0.0000       0.181574         4.9409
  34   0.0000       0.190492         5.1836

MULLIKEN ATOMIC CHARGES
-----------------------
   0 O :   -0.468316
   1 C :   -0.119761
   2 C :    0.237692
   3 C :   -0.193426
   4 N :   -0.259376
   5 C :   -0.088642
   6 C :   -0.190377
   7 C :   -0.216128
   8 H :    0.316177
   9 H :    0.103582
  10 H :    0.110666
  11 H :    0.121768
  12 H :    0.125517
  13 H :    0.125879
  14 H :    0.124088
  15 H :    0.129220
  16 H :    0.141436
Sum of atomic charges:    0.0000000

LOEWDIN ATOMIC CHARGES
----------------------
   0 O :   -0.045130
   1 C :   -0.302178
   2 C :   -0.270420
   3 C :   -0.211883
   4 N :    0.134913
   5 C :   -0.257139
   6 C :   -0.159988
   7 C :   -0.120810
   8 H :    0.172773
   9 H :    0.122340
  10 H :    0.125298
  11 H :    0.128070
  12 H :    0.130909
  13 H :    0.134336
  14 H :    0.135173
  15 H :    0.136866
  16 H :    0.146871

  Mayer bond orders larger than 0.1
B(  0-O ,  1-C ) :   1.0489 B(  0-O ,  2-C ) :  -0.1176 B(  0-O ,  8-H ) :   0.8465
B(  1-C ,  2-C ) :   0.8941 B(  1-C ,  9-H ) :   0.9264 B(  1-C , 10-H ) :   0.9255
B(  2-C ,  3-C ) :   0.9016 B(  2-C ,  4-N ) :   0.8630 B(  2-C ,  7-C ) :   0.9413
B(  3-C ,  4-N ) :   0.9026 B(  3-C , 11-H ) :   0.9122 B(  3-C , 12-H ) :   0.9069
B(  4-N ,  5-C ) :   0.9233 B(  5-C ,  6-C ) :   0.9705 B(  5-C , 13-H ) :   0.9118
B(  5-C , 14-H ) :   0.9255 B(  6-C ,  7-C ) :   1.7726 B(  6-C , 15-H ) :   0.9197
B(  7-C , 16-H ) :   0.9260

MP2 TOTAL ENERGY:     -363.213738692 Eh
FINAL SINGLE POINT ENERGY      -363.213738691879

DIPOLE MOMENT
-------------
                                X             Y             Z
Electronic contribution:      0.55138       1.04565      -0.00082
Nuclear contribution   :     -0.45811      -0.92380      -0.24608
                        -----------------------------------------
Total Dipole Moment    :      0.09326       0.12185      -0.24690
                        -----------------------------------------
Magnitude (a.u.)       :      0.29070
Magnitude (Debye)      :      0.73890

                             ****ORCA TERMINATED NORMALLY****
TOTAL RUN TIME: 0 days 0 hours 12 minutes 43 seconds 762 msec
