                         Program Version 3.0.3 - RELEASE   -
|  1> ! RI-MP2 RIJK def2-TZVP def2-TZVP/C def2-TZVP/JK TIGHTSCF
|  2> % maxcore 2000
|  3> % mp2 density relaxed end
|  4> *xyz 0 1
|  5>  O       -0.4947293501     0.6398449520     0.7729996094
|  6>  C        0.1043626576     0.9426289857    -0.2267509301
|  7>  C        1.3839056973     1.7562180805    -0.2369592704
|  8>  C        1.2864521884     3.0104004384    -1.1099812961
|  9>  C        2.6123164809     3.8133022356    -1.2330745993
| 10>  N        2.9957052351     3.7065383591    -2.6508323662
| 11>  C        2.0667673698     3.0566223629    -3.2117452082
| 12>  O        1.0076016630     2.6183106175    -2.4846469870
| 13>  H       -0.2568564881     0.6375501049    -1.2321197244
| 14>  H        1.6288215487     2.0342577610     0.7925598924
| 15>  H        2.1933662377     1.1258138352    -0.6305651353
| 16>  H        0.4502733484     3.6354228560    -0.7835185087
| 17>  H        2.4889098074     4.8665563564    -0.9620502517
| 18>  H        3.4040607529     3.4016093477    -0.5981320449
| 19>  H        2.0212164109     2.8003704771    -4.2643077796
| 20> *
| 21>
| 22>                          ****END OF INPUT****

CARTESIAN COORDINATES (ANGSTROEM)
---------------------------------
  O     -0.494729    0.639845    0.773000
  C      0.104363    0.942629   -0.226751
  C      1.383906    1.756218   -0.236959
  C      1.286452    3.010400   -1.109981
  C      2.612316    3.813302   -1.233075
  N      2.995705    3.706538   -2.650832
  C      2.066767    3.056622   -3.211745
  O      1.007602    2.618311   -2.484647
  H     -0.256856    0.637550   -1.232120
  H      1.628822    2.034258    0.792560
  H      2.193366    1.125814   -0.630565
  H      0.450273    3.635423   -0.783519
  H      2.488910    4.866556   -0.962050
  H      3.404061    3.401609   -0.598132
  H      2.021216    2.800370   -4.264308

 Total Charge           Charge          ....    0
 Multiplicity           Mult            ....    1
 Number of Electrons    NEL             ....   60
 Basis Dimension        Dim             ....  290

ORBITAL ENERGIES
----------------

  NO   OCC          E(Eh)            E(eV)
   0   2.0000     -20.610026      -560.8273
   1   2.0000     -20.564598      -559.5912
   2   2.0000     -15.562409      -423.4747
   3   2.0000     -11.343534      -308.6733
   4   2.0000     -11.338425      -308.5342
   5   2.0000     -11.319511      -308.0196
   6   2.0000     -11.276249      -306.8423
   7   2.0000     -11.256741      -306.3115
   8   2.0000      -1.452202       -39.5164
   9   2.0000      -1.402754       -38.1709
  10   2.0000      -1.226631       -33.3783
  11   2.0000      -1.093264       -29.7492
  12   2.0000      -0.986417       -26.8418
  13   2.0000      -0.860888       -23.4259
  14   2.0000      -0.833055       -22.6686
  15   2.0000      -0.788831       -21.4652
  16   2.0000      -0.726939       -19.7810
  17   2.0000      -0.711055       -19.3488
  18   2.0000      -0.655937       -17.8489
  19   2.0000      -0.636335       -17.3155
  20   2.0000      -0.631844       -17.1934
  21   2.0000      -0.591665       -16.1000
  22   2.0000      -0.582456       -15.8494
  23   2.0000      -0.555635       -15.1196
  24   2.0000      -0.544495       -14.8165
  25   2.0000      -0.533717       -14.5232
  26   2.0000      -0.507825       -13.8186
  27   2.0000      -0.455394       -12.3919
  28   2.0000      -0.424855       -11.5609
  29   2.0000      -0.395728       -10.7683
  30   0.0000       0.120503         3.2791
  31   0.0000       0.137756         3.7485
  32   0.0000       0.144842         3.9414
  33   0.0000       0.171752         4.6736
  34   0.0000       0.173294         4.7156

MULLIKEN ATOMIC CHARGES
-----------------------
   0 O :   -0.259920
   1 C :    0.084176
   2 C :   -0.203767
   3 C :    0.046965
   4 C :   -0.129837
   5 N :   -0.261749
   6 C :    0.096629
   7 O :   -0.281265
   8 H :    0.098078
   9 H :    0.129897
  10 H :    0.141219
  11 H :    0.125636
  12 H :    0.128845
  13 H :    0.133038
  14 H :    0.152055
Sum of atomic charges:   -0.0000000

LOEWDIN ATOMIC CHARGES
----------------------
   0 O :    0.134324
   1 C :   -0.290446
   2 C :   -0.246256
   3 C :   -0.259833
   4 C :   -0.253637
   5 N :    0.063713
   6 C :   -0.350629
   7 O :    0.223913
   8 H :    0.115622
   9 H :    0.152718
  10 H :    0.158053
  11 H :    0.145724
  12 H :    0.134444
  13 H :    0.136501
  14 H :    0.135791

  Mayer bond orders larger than 0.1
B(  0-O ,  1-C ) :   1.9916 B(  1-C ,  2-C ) :   0.8832 B(  1-C ,  8-H ) :   0.9366
B(  2-C ,  3-C ) :   0.9063 B(  2-C ,  9-H ) :   0.9068 B(  2-C , 10-H ) :   0.9045
B(  3-C ,  4-C ) :   0.9079 B(  3-C ,  7-O ) :   0.8269 B(  3-C , 11-H ) :   0.9253
B(  4-C ,  5-N ) :   0.9335 B(  4-C , 12-H ) :   0.9227 B(  4-C , 13-H ) :   0.9276
B(  5-N ,  6-C ) :   1.8270 B(  6-C ,  7-O ) :   1.0616 B(  6-C , 14-H ) :   0.9201

MP2 TOTAL ENERGY:     -399.163191220 Eh
FINAL SINGLE POINT ENERGY      -399.163191220452

DIPOLE MOMENT
-------------
                                X             Y             Z
Electronic contribution:     -2.09660      -1.19839      -1.41540
Nuclear contribution   :      2.36083       1.44628       1.19327
                        -----------------------------------------
Total Dipole Moment    :      0.26423       0.24789      -0.22212
                        -----------------------------------------
Magnitude (a.u.)       :      0.42498
Magnitude (Debye)      :      1.08020

                             ****ORCA TERMINATED NORMALLY****
TOTAL RUN TIME: 0 days 0 hours 11 minutes 0 seconds 648 msec
