                         Program Version 3.0.3 - RELEASE   -
|  1> ! RI-MP2 RIJK def2-TZVP def2-TZVP/C def2-TZVP/JK TIGHTSCF
|  2> % maxcore 2000
|  3> % mp2 density relaxed end
|  4> *xyz 0 1
|  5>  C       -0.0879242712     1.5511737643    -0.0078453453
|  6>  C        1.4584094637     1.5181436163    -0.1237439553
|  7>  C        1.4391048913     0.0991975893     0.5344084840
|  8>  C       -0.0683321864     0.0061543430     0.1270744800
|  9>  C        2.4024782652    -0.9466162728     0.0940778945
| 10>  C        3.2361947890    -1.6635986353     0.8465674877
| 11>  C        4.0338646926    -2.6095445065    -0.0003435263
| 12>  O        3.5872691265    -2.3800191797    -1.3347807160
| 13>  C        2.5847694086    -1.3697643202    -1.3469350509
| 14>  H       -0.4128082641     2.0329630433     0.9189038971
| 15>  H       -0.6509114144     1.9818504722    -0.8385555678
| 16>  H        1.7796641143     1.4702079426    -1.1683774835
| 17>  H        2.0362109197     2.2951035426     0.3822360591
| 18>  H        1.5068862406     0.2110834933     1.6214685161
| 19>  H       -0.7497769026    -0.4639636359     0.8399272847
| 20>  H       -0.1907546237    -0.4811706309    -0.8446705413
| 21>  H        3.3457088623    -1.5957032559     1.9222742475
| 22>  H        5.1189093508    -2.4273376702     0.0670133041
| 23>  H        3.8693785030    -3.6648387924     0.2723385448
| 24>  H        1.6576492554    -1.7722743334    -1.7859712579
| 25>  H        2.9063932795    -0.5355800938    -1.9911512954
| 26> *
| 27>
| 28>                          ****END OF INPUT****

CARTESIAN COORDINATES (ANGSTROEM)
---------------------------------
  C     -0.087924    1.551174   -0.007845
  C      1.458409    1.518144   -0.123744
  C      1.439105    0.099198    0.534408
  C     -0.068332    0.006154    0.127074
  C      2.402478   -0.946616    0.094078
  C      3.236195   -1.663599    0.846567
  C      4.033865   -2.609545   -0.000344
  O      3.587269   -2.380019   -1.334781
  C      2.584769   -1.369764   -1.346935
  H     -0.412808    2.032963    0.918904
  H     -0.650911    1.981850   -0.838556
  H      1.779664    1.470208   -1.168377
  H      2.036211    2.295104    0.382236
  H      1.506886    0.211083    1.621469
  H     -0.749777   -0.463964    0.839927
  H     -0.190755   -0.481171   -0.844671
  H      3.345709   -1.595703    1.922274
  H      5.118909   -2.427338    0.067013
  H      3.869379   -3.664839    0.272339
  H      1.657649   -1.772274   -1.785971
  H      2.906393   -0.535580   -1.991151

 Total Charge           Charge          ....    0
 Multiplicity           Mult            ....    1
 Number of Electrons    NEL             ....   68
 Basis Dimension        Dim             ....  351

ORBITAL ENERGIES
----------------

  NO   OCC          E(Eh)            E(eV)
   0   2.0000     -20.545722      -559.0775
   1   2.0000     -11.274107      -306.7840
   2   2.0000     -11.273448      -306.7661
   3   2.0000     -11.237571      -305.7899
   4   2.0000     -11.232087      -305.6406
   5   2.0000     -11.226342      -305.4843
   6   2.0000     -11.226281      -305.4826
   7   2.0000     -11.224240      -305.4271
   8   2.0000     -11.222883      -305.3902
   9   2.0000      -1.370611       -37.2962
  10   2.0000      -1.141128       -31.0517
  11   2.0000      -1.067819       -29.0568
  12   2.0000      -0.988962       -26.9110
  13   2.0000      -0.904124       -24.6025
  14   2.0000      -0.900840       -24.5131
  15   2.0000      -0.825848       -22.4725
  16   2.0000      -0.768090       -20.9008
  17   2.0000      -0.735835       -20.0231
  18   2.0000      -0.683798       -18.6071
  19   2.0000      -0.661031       -17.9876
  20   2.0000      -0.652564       -17.7572
  21   2.0000      -0.601162       -16.3585
  22   2.0000      -0.573355       -15.6018
  23   2.0000      -0.567088       -15.4312
  24   2.0000      -0.563828       -15.3426
  25   2.0000      -0.542343       -14.7579
  26   2.0000      -0.508474       -13.8363
  27   2.0000      -0.507429       -13.8078
  28   2.0000      -0.485192       -13.2027
  29   2.0000      -0.456193       -12.4136
  30   2.0000      -0.450757       -12.2657
  31   2.0000      -0.438919       -11.9436
  32   2.0000      -0.423372       -11.5205
  33   2.0000      -0.336157        -9.1473
  34   0.0000       0.137960         3.7541
  35   0.0000       0.151381         4.1193
  36   0.0000       0.154837         4.2133
  37   0.0000       0.155791         4.2393
  38   0.0000       0.175199         4.7674

MULLIKEN ATOMIC CHARGES
-----------------------
   0 C :   -0.194892
   1 C :   -0.252199
   2 C :   -0.006212
   3 C :   -0.252199
   4 C :   -0.033626
   5 C :   -0.233381
   6 C :    0.026552
   7 O :   -0.341931
   8 C :   -0.044490
   9 H :    0.112007
  10 H :    0.117219
  11 H :    0.112124
  12 H :    0.119858
  13 H :    0.097889
  14 H :    0.119858
  15 H :    0.112123
  16 H :    0.130728
  17 H :    0.102656
  18 H :    0.102657
  19 H :    0.102630
  20 H :    0.102629
Sum of atomic charges:   -0.0000000

LOEWDIN ATOMIC CHARGES
----------------------
   0 C :   -0.244927
   1 C :   -0.212619
   2 C :   -0.194859
   3 C :   -0.212619
   4 C :   -0.160864
   5 C :   -0.142122
   6 C :   -0.288854
   7 O :    0.145517
   8 C :   -0.260275
   9 H :    0.133611
  10 H :    0.122063
  11 H :    0.134434
  12 H :    0.123570
  13 H :    0.159513
  14 H :    0.123570
  15 H :    0.134434
  16 H :    0.141014
  17 H :    0.124426
  18 H :    0.124426
  19 H :    0.125279
  20 H :    0.125278

  Mayer bond orders larger than 0.1
B(  0-C ,  1-C ) :   0.9424 B(  0-C ,  3-C ) :   0.9424 B(  0-C ,  9-H ) :   0.9273
B(  0-C , 10-H ) :   0.9273 B(  1-C ,  2-C ) :   0.9046 B(  1-C , 11-H ) :   0.9258
B(  1-C , 12-H ) :   0.9298 B(  2-C ,  3-C ) :   0.9046 B(  2-C ,  4-C ) :   0.8713
B(  2-C , 13-H ) :   0.9233 B(  3-C , 14-H ) :   0.9298 B(  3-C , 15-H ) :   0.9258
B(  4-C ,  5-C ) :   1.7509 B(  4-C ,  8-C ) :   0.9641 B(  5-C ,  6-C ) :   0.9842
B(  5-C , 16-H ) :   0.9138 B(  6-C ,  7-O ) :   0.9337 B(  6-C , 17-H ) :   0.9158
B(  6-C , 18-H ) :   0.9158 B(  7-O ,  8-C ) :   0.9497 B(  8-C , 19-H ) :   0.9126
B(  8-C , 20-H ) :   0.9126

MP2 TOTAL ENERGY:     -386.393716909 Eh
FINAL SINGLE POINT ENERGY      -386.393716909036

DIPOLE MOMENT
-------------
                                X             Y             Z
Electronic contribution:      4.07166      -4.23102      -0.72097
Nuclear contribution   :     -4.39324       4.64726       1.27255
                        -----------------------------------------
Total Dipole Moment    :     -0.32158       0.41624       0.55157
                        -----------------------------------------
Magnitude (a.u.)       :      0.76217
Magnitude (Debye)      :      1.93727

                             ****ORCA TERMINATED NORMALLY****
TOTAL RUN TIME: 0 days 0 hours 19 minutes 3 seconds 140 msec
