                         Program Version 3.0.3 - RELEASE   -
|  1> ! RI-MP2 RIJK def2-TZVP def2-TZVP/C def2-TZVP/JK TIGHTSCF
|  2> % maxcore 2000
|  3> % mp2 density relaxed end
|  4> *xyz 0 1
|  5>  O       -0.0555690715     1.3088069599    -0.0760840038
|  6>  N        0.0366498091    -0.0844446721    -0.0621779685
|  7>  C       -1.1100962021    -0.6271542174     0.0338185402
|  8>  C       -2.4729795408     0.0053219418     0.1905329574
|  9>  C       -3.3419377675    -1.1175054776     0.7864148337
| 10>  O       -4.3744659393    -0.9790220588     1.3848325848
| 11>  C       -2.6206362724    -2.4280892725     0.5516609438
| 12>  O       -2.2517958195    -2.5650296652    -0.8297234161
| 13>  C       -1.2505923954    -2.1072936134     0.0903109570
| 14>  H        0.8681476997     1.5791133988    -0.1251932012
| 15>  H       -2.4566380133     0.8771500307     0.8480962029
| 16>  H       -2.8856417084     0.3328929466    -0.7704790434
| 17>  H       -2.8995022707    -3.3327875091     1.0819888108
| 18>  H       -0.3962568679    -2.7561897017     0.2472822123
| 19> *
| 20>
| 21>                          ****END OF INPUT****

CARTESIAN COORDINATES (ANGSTROEM)
---------------------------------
  O     -0.055569    1.308807   -0.076084
  N      0.036650   -0.084445   -0.062178
  C     -1.110096   -0.627154    0.033819
  C     -2.472980    0.005322    0.190533
  C     -3.341938   -1.117505    0.786415
  O     -4.374466   -0.979022    1.384833
  C     -2.620636   -2.428089    0.551661
  O     -2.251796   -2.565030   -0.829723
  C     -1.250592   -2.107294    0.090311
  H      0.868148    1.579113   -0.125193
  H     -2.456638    0.877150    0.848096
  H     -2.885642    0.332893   -0.770479
  H     -2.899502   -3.332788    1.081989
  H     -0.396257   -2.756190    0.247282

 Total Charge           Charge          ....    0
 Multiplicity           Mult            ....    1
 Number of Electrons    NEL             ....   66
 Basis Dimension        Dim             ....  309

ORBITAL ENERGIES
----------------

  NO   OCC          E(Eh)            E(eV)
   0   2.0000     -20.614734      -560.9554
   1   2.0000     -20.611035      -560.8548
   2   2.0000     -20.573382      -559.8302
   3   2.0000     -15.644552      -425.7099
   4   2.0000     -11.357464      -309.0523
   5   2.0000     -11.327016      -308.2238
   6   2.0000     -11.320605      -308.0493
   7   2.0000     -11.306309      -307.6603
   8   2.0000     -11.265966      -306.5625
   9   2.0000      -1.457659       -39.6649
  10   2.0000      -1.444271       -39.3006
  11   2.0000      -1.413746       -38.4700
  12   2.0000      -1.194515       -32.5044
  13   2.0000      -1.074548       -29.2399
  14   2.0000      -0.970638       -26.4124
  15   2.0000      -0.935347       -25.4521
  16   2.0000      -0.802496       -21.8370
  17   2.0000      -0.770768       -20.9737
  18   2.0000      -0.737476       -20.0677
  19   2.0000      -0.709793       -19.3144
  20   2.0000      -0.676557       -18.4101
  21   2.0000      -0.656546       -17.8655
  22   2.0000      -0.641101       -17.4452
  23   2.0000      -0.624493       -16.9933
  24   2.0000      -0.607643       -16.5348
  25   2.0000      -0.591519       -16.0961
  26   2.0000      -0.580983       -15.8094
  27   2.0000      -0.530207       -14.4277
  28   2.0000      -0.513687       -13.9781
  29   2.0000      -0.488730       -13.2990
  30   2.0000      -0.457020       -12.4362
  31   2.0000      -0.431152       -11.7322
  32   2.0000      -0.399083       -10.8596
  33   0.0000       0.107095         2.9142
  34   0.0000       0.126582         3.4445
  35   0.0000       0.135820         3.6958
  36   0.0000       0.154281         4.1982
  37   0.0000       0.164721         4.4823

MULLIKEN ATOMIC CHARGES
-----------------------
   0 O :   -0.356219
   1 N :   -0.075385
   2 C :   -0.009669
   3 C :   -0.188667
   4 C :    0.139047
   5 O :   -0.247999
   6 C :    0.020762
   7 O :   -0.297762
   8 C :    0.042928
   9 H :    0.343073
  10 H :    0.166219
  11 H :    0.163496
  12 H :    0.152991
  13 H :    0.147184
Sum of atomic charges:   -0.0000000

LOEWDIN ATOMIC CHARGES
----------------------
   0 O :   -0.059695
   1 N :    0.038194
   2 C :   -0.268670
   3 C :   -0.179182
   4 C :   -0.293122
   5 O :    0.175720
   6 C :   -0.205787
   7 O :    0.197231
   8 C :   -0.207565
   9 H :    0.174789
  10 H :    0.164280
  11 H :    0.170668
  12 H :    0.144919
  13 H :    0.148220

  Mayer bond orders larger than 0.1
B(  0-O ,  1-N ) :   0.8207 B(  0-O ,  9-H ) :   0.8398 B(  1-N ,  2-C ) :   1.8408
B(  2-C ,  3-C ) :   0.9229 B(  2-C ,  8-C ) :   0.9416 B(  3-C ,  4-C ) :   0.8989
B(  3-C ,  6-C ) :  -0.1081 B(  3-C , 10-H ) :   0.8963 B(  3-C , 11-H ) :   0.8797
B(  4-C ,  5-O ) :   2.0263 B(  4-C ,  6-C ) :   0.8926 B(  6-C ,  7-O ) :   0.8924
B(  6-C ,  8-C ) :   0.8647 B(  6-C , 12-H ) :   0.9135 B(  7-O ,  8-C ) :   0.8979
B(  8-C , 13-H ) :   0.9161

MP2 TOTAL ENERGY:     -473.023229407 Eh
FINAL SINGLE POINT ENERGY      -473.023229406955

DIPOLE MOMENT
-------------
                                X             Y             Z
Electronic contribution:     -0.77031      -1.08383      -0.02467
Nuclear contribution   :      1.70907       1.18387       0.16719
                        -----------------------------------------
Total Dipole Moment    :      0.93876       0.10004       0.14252
                        -----------------------------------------
Magnitude (a.u.)       :      0.95477
Magnitude (Debye)      :      2.42683

                             ****ORCA TERMINATED NORMALLY****
TOTAL RUN TIME: 0 days 0 hours 13 minutes 36 seconds 99 msec
