                         Program Version 3.0.3 - RELEASE   -
|  1> ! RI-MP2 RIJK def2-TZVP def2-TZVP/C def2-TZVP/JK TIGHTSCF
|  2> % maxcore 2000
|  3> % mp2 density relaxed end
|  4> *xyz 0 1
|  5>  C       -0.0805705869     1.5508221214     0.0021879083
|  6>  C       -0.0047178882     0.0198196811     0.0087073493
|  7>  N        0.6433051990    -0.4443386281    -1.2134452721
|  8>  C        0.8895699926    -1.8810078674    -1.2472488647
|  9>  C        1.7883038271    -2.2965138545    -0.0853029410
| 10>  O        2.5327103825    -3.2521748373    -0.1578677857
| 11>  C        1.6143775701    -1.5094007743     1.1509869206
| 12>  C        0.7525351735    -0.4874811628     1.2059637140
| 13>  H        0.9234405861     1.9798757066    -0.0527045760
| 14>  H       -0.6513639908     1.9018144630    -0.8638073765
| 15>  H       -0.5785447843     1.9210620456     0.9033881179
| 16>  H       -1.0429266712    -0.3681296738     0.1054692612
| 17>  H        0.1005224557    -0.1600545687    -2.0213114596
| 18>  H       -0.0307212258    -2.4966049212    -1.1744682495
| 19>  H        1.3880345872    -2.1524190625    -2.1808898884
| 20>  H        2.1729219461    -1.8456745085     2.0188634544
| 21>  H        0.5661288073     0.0273470914     2.1457954278
| 22> *
| 23>
| 24>                          ****END OF INPUT****

CARTESIAN COORDINATES (ANGSTROEM)
---------------------------------
  C     -0.080571    1.550822    0.002188
  C     -0.004718    0.019820    0.008707
  N      0.643305   -0.444339   -1.213445
  C      0.889570   -1.881008   -1.247249
  C      1.788304   -2.296514   -0.085303
  O      2.532710   -3.252175   -0.157868
  C      1.614378   -1.509401    1.150987
  C      0.752535   -0.487481    1.205964
  H      0.923441    1.979876   -0.052705
  H     -0.651364    1.901814   -0.863807
  H     -0.578545    1.921062    0.903388
  H     -1.042927   -0.368130    0.105469
  H      0.100522   -0.160055   -2.021311
  H     -0.030721   -2.496605   -1.174468
  H      1.388035   -2.152419   -2.180890
  H      2.172922   -1.845675    2.018863
  H      0.566129    0.027347    2.145795

 Total Charge           Charge          ....    0
 Multiplicity           Mult            ....    1
 Number of Electrons    NEL             ....   60
 Basis Dimension        Dim             ....  302

ORBITAL ENERGIES
----------------

  NO   OCC          E(Eh)            E(eV)
   0   2.0000     -20.537858      -558.8635
   1   2.0000     -15.561599      -423.4526
   2   2.0000     -11.325850      -308.1920
   3   2.0000     -11.281955      -306.9976
   4   2.0000     -11.265553      -306.5513
   5   2.0000     -11.264533      -306.5235
   6   2.0000     -11.238248      -305.8083
   7   2.0000     -11.232508      -305.6521
   8   2.0000      -1.380198       -37.5571
   9   2.0000      -1.239379       -33.7252
  10   2.0000      -1.083970       -29.4963
  11   2.0000      -1.041884       -28.3511
  12   2.0000      -0.940527       -25.5930
  13   2.0000      -0.875003       -23.8100
  14   2.0000      -0.820330       -22.3223
  15   2.0000      -0.712535       -19.3891
  16   2.0000      -0.690080       -18.7780
  17   2.0000      -0.665172       -18.1003
  18   2.0000      -0.637228       -17.3399
  19   2.0000      -0.620368       -16.8811
  20   2.0000      -0.611019       -16.6267
  21   2.0000      -0.592970       -16.1355
  22   2.0000      -0.566068       -15.4035
  23   2.0000      -0.536398       -14.5961
  24   2.0000      -0.520243       -14.1565
  25   2.0000      -0.509975       -13.8771
  26   2.0000      -0.497170       -13.5287
  27   2.0000      -0.418997       -11.4015
  28   2.0000      -0.387044       -10.5320
  29   2.0000      -0.376319       -10.2401
  30   0.0000       0.091005         2.4764
  31   0.0000       0.121887         3.3167
  32   0.0000       0.150615         4.0984
  33   0.0000       0.168787         4.5929
  34   0.0000       0.173093         4.7101

MULLIKEN ATOMIC CHARGES
-----------------------
   0 C :   -0.399184
   1 C :    0.074207
   2 N :   -0.355158
   3 C :   -0.126934
   4 C :    0.216970
   5 O :   -0.289925
   6 C :   -0.237005
   7 C :   -0.102262
   8 H :    0.141170
   9 H :    0.129695
  10 H :    0.127942
  11 H :    0.088410
  12 H :    0.206293
  13 H :    0.108891
  14 H :    0.139648
  15 H :    0.139391
  16 H :    0.137850
Sum of atomic charges:   -0.0000000

LOEWDIN ATOMIC CHARGES
----------------------
   0 C :   -0.286562
   1 C :   -0.320947
   2 N :    0.009076
   3 C :   -0.265326
   4 C :   -0.323904
   5 O :    0.146088
   6 C :   -0.131859
   7 C :   -0.102297
   8 H :    0.129551
   9 H :    0.123357
  10 H :    0.125209
  11 H :    0.146097
  12 H :    0.172598
  13 H :    0.132175
  14 H :    0.143382
  15 H :    0.152830
  16 H :    0.150531

  Mayer bond orders larger than 0.1
B(  0-C ,  1-C ) :   0.8925 B(  0-C ,  8-H ) :   0.9346 B(  0-C ,  9-H ) :   0.9377
B(  0-C , 10-H ) :   0.9345 B(  1-C ,  2-N ) :   0.9775 B(  1-C ,  7-C ) :   0.9005
B(  1-C , 11-H ) :   0.9227 B(  2-N ,  3-C ) :   0.9215 B(  2-N , 12-H ) :   0.8784
B(  3-C ,  4-C ) :   0.9089 B(  3-C , 13-H ) :   0.9066 B(  3-C , 14-H ) :   0.9152
B(  4-C ,  5-O ) :   1.9792 B(  4-C ,  6-C ) :   1.0127 B(  6-C ,  7-C ) :   1.6843
B(  6-C , 15-H ) :   0.9196 B(  7-C , 16-H ) :   0.9165

MP2 TOTAL ENERGY:     -363.258634897 Eh
FINAL SINGLE POINT ENERGY      -363.258634897032

DIPOLE MOMENT
-------------
                                X             Y             Z
Electronic contribution:      4.59667      -6.57832       0.47965
Nuclear contribution   :     -5.81437       7.56917      -0.43378
                        -----------------------------------------
Total Dipole Moment    :     -1.21770       0.99085       0.04587
                        -----------------------------------------
Magnitude (a.u.)       :      1.57057
Magnitude (Debye)      :      3.99207

                             ****ORCA TERMINATED NORMALLY****
TOTAL RUN TIME: 0 days 0 hours 12 minutes 42 seconds 863 msec
