                         Program Version 3.0.3 - RELEASE   -
|  1> ! RI-MP2 RIJK def2-TZVP def2-TZVP/C def2-TZVP/JK TIGHTSCF
|  2> % maxcore 2000
|  3> % mp2 density relaxed end
|  4> *xyz 0 1
|  5>  N       -0.0305818611     1.2649606065     0.9567074886
|  6>  C        0.0160652138     0.1506499312     0.3446532957
|  7>  C       -1.3047837549    -0.3469217260    -0.1972730951
|  8>  O       -1.4319976298    -1.3452426600    -0.8552408742
|  9>  N        1.1749600179    -0.6050228196     0.0484975412
| 10>  C        1.1338403549    -2.0328348719     0.1167149657
| 11>  O        1.9983148851    -2.7506557830    -0.2847143584
| 12>  C        2.3402297996     0.1053072204    -0.3474612614
| 13>  O        3.4313585838    -0.3608524895    -0.4776217962
| 14>  H        0.8767964893     1.5606021923     1.3209583273
| 15>  H       -2.1397969440     0.3245314078     0.0746170879
| 16>  H        0.2183223010    -2.3822554363     0.6147565477
| 17>  H        2.0975868346     1.1690060181    -0.5297868589
| 18> *
| 19>
| 20>                          ****END OF INPUT****

CARTESIAN COORDINATES (ANGSTROEM)
---------------------------------
  N     -0.030582    1.264961    0.956707
  C      0.016065    0.150650    0.344653
  C     -1.304784   -0.346922   -0.197273
  O     -1.431998   -1.345243   -0.855241
  N      1.174960   -0.605023    0.048498
  C      1.133840   -2.032835    0.116715
  O      1.998315   -2.750656   -0.284714
  C      2.340230    0.105307   -0.347461
  O      3.431359   -0.360852   -0.477622
  H      0.876796    1.560602    1.320958
  H     -2.139797    0.324531    0.074617
  H      0.218322   -2.382255    0.614757
  H      2.097587    1.169006   -0.529787

 Total Charge           Charge          ....    0
 Multiplicity           Mult            ....    1
 Number of Electrons    NEL             ....   66
 Basis Dimension        Dim             ....  303

ORBITAL ENERGIES
----------------

  NO   OCC          E(Eh)            E(eV)
   0   2.0000     -20.612711      -560.9004
   1   2.0000     -20.579694      -560.0019
   2   2.0000     -20.573038      -559.8208
   3   2.0000     -15.657710      -426.0679
   4   2.0000     -15.621363      -425.0789
   5   2.0000     -11.397199      -310.1336
   6   2.0000     -11.391451      -309.9772
   7   2.0000     -11.382472      -309.7328
   8   2.0000     -11.381545      -309.7076
   9   2.0000      -1.455937       -39.6181
  10   2.0000      -1.446188       -39.3528
  11   2.0000      -1.421596       -38.6836
  12   2.0000      -1.335459       -36.3397
  13   2.0000      -1.236796       -33.6549
  14   2.0000      -0.989520       -26.9262
  15   2.0000      -0.946618       -25.7588
  16   2.0000      -0.862635       -23.4735
  17   2.0000      -0.806538       -21.9470
  18   2.0000      -0.770461       -20.9653
  19   2.0000      -0.732257       -19.9257
  20   2.0000      -0.702320       -19.1111
  21   2.0000      -0.684879       -18.6365
  22   2.0000      -0.681079       -18.5331
  23   2.0000      -0.660058       -17.9611
  24   2.0000      -0.636761       -17.3271
  25   2.0000      -0.595152       -16.1949
  26   2.0000      -0.557326       -15.1656
  27   2.0000      -0.538378       -14.6500
  28   2.0000      -0.521619       -14.1940
  29   2.0000      -0.499333       -13.5876
  30   2.0000      -0.475966       -12.9517
  31   2.0000      -0.447132       -12.1671
  32   2.0000      -0.435799       -11.8587
  33   0.0000       0.034647         0.9428
  34   0.0000       0.092835         2.5262
  35   0.0000       0.124284         3.3819
  36   0.0000       0.147915         4.0250
  37   0.0000       0.159128         4.3301

MULLIKEN ATOMIC CHARGES
-----------------------
   0 N :   -0.292103
   1 C :    0.046219
   2 C :    0.154969
   3 O :   -0.240431
   4 N :   -0.060658
   5 C :    0.144818
   6 O :   -0.227188
   7 C :    0.099160
   8 O :   -0.222468
   9 H :    0.235950
  10 H :    0.128091
  11 H :    0.119129
  12 H :    0.114513
Sum of atomic charges:   -0.0000000

LOEWDIN ATOMIC CHARGES
----------------------
   0 N :    0.021608
   1 C :   -0.333895
   2 C :   -0.253091
   3 O :    0.172707
   4 N :    0.195344
   5 C :   -0.334679
   6 O :    0.165377
   7 C :   -0.350242
   8 O :    0.164572
   9 H :    0.170222
  10 H :    0.133167
  11 H :    0.126591
  12 H :    0.122317

  Mayer bond orders larger than 0.1
B(  0-N ,  1-C ) :   1.9719 B(  0-N ,  9-H ) :   0.8605 B(  1-C ,  2-C ) :   0.8771
B(  1-C ,  4-N ) :   1.0013 B(  2-C ,  3-O ) :   1.9523 B(  2-C , 10-H ) :   0.9220
B(  4-N ,  5-C ) :   0.8978 B(  4-N ,  7-C ) :   0.9245 B(  5-C ,  6-O ) :   2.0224
B(  5-C , 11-H ) :   0.9259 B(  7-C ,  8-O ) :   2.0240 B(  7-C , 12-H ) :   0.9246

MP2 TOTAL ENERGY:     -489.135617444 Eh
FINAL SINGLE POINT ENERGY      -489.135617443584

DIPOLE MOMENT
-------------
                                X             Y             Z
Electronic contribution:      1.27322      -2.03039      -0.99100
Nuclear contribution   :     -2.13677       3.15139       1.70684
                        -----------------------------------------
Total Dipole Moment    :     -0.86355       1.12101       0.71584
                        -----------------------------------------
Magnitude (a.u.)       :      1.58581
Magnitude (Debye)      :      4.03082

                             ****ORCA TERMINATED NORMALLY****
TOTAL RUN TIME: 0 days 0 hours 11 minutes 53 seconds 442 msec
