                         Program Version 3.0.3 - RELEASE   -
|  1> ! RI-MP2 RIJK def2-TZVP def2-TZVP/C def2-TZVP/JK TIGHTSCF
|  2> % maxcore 2000
|  3> % mp2 density relaxed end
|  4> *xyz 0 1
|  5>  C        0.0860450259     1.4500399324    -0.0476495700
|  6>  N        0.1839633706    -0.0009695999    -0.0682323472
|  7>  C        0.5407657751    -0.6162638851     0.9698331429
|  8>  C        0.7026376822    -2.1148478186     1.0999479277
|  9>  C        0.6151608016    -2.3460027708     2.6167901779
| 10>  C        1.3204331817    -3.5932043499     3.1405379294
| 11>  C        1.1997655715    -1.0237061582     3.1391219389
| 12>  O        0.8395968493    -0.0254589960     2.1762923801
| 13>  H        0.8973008875     1.8771429009    -0.6502341964
| 14>  H       -0.8527589305     1.7489382580    -0.5262130626
| 15>  H        0.1314913883     1.8926530534     0.9537643257
| 16>  H       -0.0442393726    -2.6469036600     0.5102527005
| 17>  H        1.6929446392    -2.4053252944     0.7244462527
| 18>  H       -0.4439367244    -2.3823053034     2.9010744973
| 19>  H        2.3801357277    -3.5927822308     2.8609974816
| 20>  H        1.2614252882    -3.6561162618     4.2324650113
| 21>  H        0.8679572806    -4.5020388790     2.7322405763
| 22>  H        0.8022391093    -0.7171147026     4.1102217519
| 23>  H        2.2955874287    -1.0758336342     3.2116807618
| 24> *
| 25>
| 26>                          ****END OF INPUT****

CARTESIAN COORDINATES (ANGSTROEM)
---------------------------------
  C      0.086045    1.450040   -0.047650
  N      0.183963   -0.000970   -0.068232
  C      0.540766   -0.616264    0.969833
  C      0.702638   -2.114848    1.099948
  C      0.615161   -2.346003    2.616790
  C      1.320433   -3.593204    3.140538
  C      1.199766   -1.023706    3.139122
  O      0.839597   -0.025459    2.176292
  H      0.897301    1.877143   -0.650234
  H     -0.852759    1.748938   -0.526213
  H      0.131491    1.892653    0.953764
  H     -0.044239   -2.646904    0.510253
  H      1.692945   -2.405325    0.724446
  H     -0.443937   -2.382305    2.901074
  H      2.380136   -3.592782    2.860997
  H      1.261425   -3.656116    4.232465
  H      0.867957   -4.502039    2.732241
  H      0.802239   -0.717115    4.110222
  H      2.295587   -1.075834    3.211681

 Total Charge           Charge          ....    0
 Multiplicity           Mult            ....    1
 Number of Electrons    NEL             ....   62
 Basis Dimension        Dim             ....  314

ORBITAL ENERGIES
----------------

  NO   OCC          E(Eh)            E(eV)
   0   2.0000     -20.583707      -560.1111
   1   2.0000     -15.526971      -422.5104
   2   2.0000     -11.322291      -308.0952
   3   2.0000     -11.289985      -307.2161
   4   2.0000     -11.246342      -306.0285
   5   2.0000     -11.237329      -305.7833
   6   2.0000     -11.231528      -305.6254
   7   2.0000     -11.229315      -305.5652
   8   2.0000      -1.419174       -38.6177
   9   2.0000      -1.203405       -32.7463
  10   2.0000      -1.099402       -29.9163
  11   2.0000      -0.993289       -27.0288
  12   2.0000      -0.942515       -25.6471
  13   2.0000      -0.903924       -24.5970
  14   2.0000      -0.805598       -21.9214
  15   2.0000      -0.746248       -20.3064
  16   2.0000      -0.688026       -18.7221
  17   2.0000      -0.675389       -18.3783
  18   2.0000      -0.628316       -17.0974
  19   2.0000      -0.609403       -16.5827
  20   2.0000      -0.591382       -16.0923
  21   2.0000      -0.579491       -15.7688
  22   2.0000      -0.560358       -15.2481
  23   2.0000      -0.557353       -15.1664
  24   2.0000      -0.525352       -14.2956
  25   2.0000      -0.514550       -14.0016
  26   2.0000      -0.500190       -13.6109
  27   2.0000      -0.476406       -12.9637
  28   2.0000      -0.468293       -12.7429
  29   2.0000      -0.395753       -10.7690
  30   2.0000      -0.370076       -10.0703
  31   0.0000       0.126738         3.4487
  32   0.0000       0.157394         4.2829
  33   0.0000       0.162060         4.4099
  34   0.0000       0.175611         4.7786
  35   0.0000       0.179207         4.8765

MULLIKEN ATOMIC CHARGES
-----------------------
   0 C :   -0.269076
   1 N :   -0.251895
   2 C :    0.130721
   3 C :   -0.194871
   4 C :   -0.059489
   5 C :   -0.418522
   6 C :   -0.045306
   7 O :   -0.275916
   8 H :    0.130416
   9 H :    0.132487
  10 H :    0.126710
  11 H :    0.138977
  12 H :    0.124857
  13 H :    0.102969
  14 H :    0.127428
  15 H :    0.137541
  16 H :    0.141403
  17 H :    0.122729
  18 H :    0.098838
Sum of atomic charges:   -0.0000000

LOEWDIN ATOMIC CHARGES
----------------------
   0 C :   -0.334873
   1 N :    0.066249
   2 C :   -0.370597
   3 C :   -0.196367
   4 C :   -0.277133
   5 C :   -0.293613
   6 C :   -0.255029
   7 O :    0.228094
   8 H :    0.117972
   9 H :    0.115714
  10 H :    0.108545
  11 H :    0.150067
  12 H :    0.153258
  13 H :    0.155351
  14 H :    0.124639
  15 H :    0.126003
  16 H :    0.127619
  17 H :    0.127911
  18 H :    0.126188

  Mayer bond orders larger than 0.1
B(  0-C ,  1-N ) :   0.8569 B(  0-C ,  8-H ) :   0.9331 B(  0-C ,  9-H ) :   0.9397
B(  0-C , 10-H ) :   0.9297 B(  1-N ,  2-C ) :   1.9974 B(  2-C ,  3-C ) :   0.9130
B(  2-C ,  7-O ) :   1.0414 B(  3-C ,  4-C ) :   0.9352 B(  3-C , 11-H ) :   0.9133
B(  3-C , 12-H ) :   0.9119 B(  4-C ,  5-C ) :   0.9124 B(  4-C ,  6-C ) :   0.9434
B(  4-C , 13-H ) :   0.9225 B(  5-C , 14-H ) :   0.9306 B(  5-C , 15-H ) :   0.9417
B(  5-C , 16-H ) :   0.9382 B(  6-C ,  7-O ) :   0.8989 B(  6-C , 17-H ) :   0.9251
B(  6-C , 18-H ) :   0.9195

MP2 TOTAL ENERGY:     -364.461723279 Eh
FINAL SINGLE POINT ENERGY      -364.461723278910

DIPOLE MOMENT
-------------
                                X             Y             Z
Electronic contribution:     -0.99944       3.37782      -1.89931
Nuclear contribution   :      1.25485      -3.99384       2.77283
                        -----------------------------------------
Total Dipole Moment    :      0.25541      -0.61602       0.87352
                        -----------------------------------------
Magnitude (a.u.)       :      1.09898
Magnitude (Debye)      :      2.79338

                             ****ORCA TERMINATED NORMALLY****
TOTAL RUN TIME: 0 days 0 hours 13 minutes 27 seconds 546 msec
