                         Program Version 3.0.3 - RELEASE   -
|  1> ! RI-MP2 RIJK def2-TZVP def2-TZVP/C def2-TZVP/JK TIGHTSCF
|  2> % maxcore 2000
|  3> % mp2 density relaxed end
|  4> *xyz 0 1
|  5>  N       -0.1827626534    -1.1290551934    -0.3494361943
|  6>  C       -0.0488473144     0.0065314313    -0.1854105605
|  7>  C        0.0604046591     1.4473608600     0.0458967943
|  8>  C       -0.7027921267     1.8955065113     1.3677651768
|  9>  C        0.0934276265     3.1661007432     1.6934848455
| 10>  C        1.0362182103     3.5086978152     2.8879624368
| 11>  O        2.2206142442     3.3524879909     1.9965287588
| 12>  C        1.3931874271     2.7773532846     1.0835302878
| 13>  N        1.4929266715     1.8474792777     0.2341473279
| 14>  H       -0.3663998121     1.9552156735    -0.8296707674
| 15>  H       -1.7709619800     2.0459736256     1.2041608733
| 16>  H       -0.5681207723     1.1220542390     2.1287751499
| 17>  H       -0.3524328187     4.0709230907     1.2735988043
| 18>  H        0.9828321221     4.5233909229     3.2824009419
| 19>  H        1.0843450168     2.7656628375     3.6869233750
| 20> *
| 21>
| 22>                          ****END OF INPUT****

CARTESIAN COORDINATES (ANGSTROEM)
---------------------------------
  N     -0.182763   -1.129055   -0.349436
  C     -0.048847    0.006531   -0.185411
  C      0.060405    1.447361    0.045897
  C     -0.702792    1.895507    1.367765
  C      0.093428    3.166101    1.693485
  C      1.036218    3.508698    2.887962
  O      2.220614    3.352488    1.996529
  C      1.393187    2.777353    1.083530
  N      1.492927    1.847479    0.234147
  H     -0.366400    1.955216   -0.829671
  H     -1.770962    2.045974    1.204161
  H     -0.568121    1.122054    2.128775
  H     -0.352433    4.070923    1.273599
  H      0.982832    4.523391    3.282401
  H      1.084345    2.765663    3.686923

 Total Charge           Charge          ....    0
 Multiplicity           Mult            ....    1
 Number of Electrons    NEL             ....   64
 Basis Dimension        Dim             ....  315

ORBITAL ENERGIES
----------------

  NO   OCC          E(Eh)            E(eV)
   0   2.0000     -20.618735      -561.0643
   1   2.0000     -15.573614      -423.7796
   2   2.0000     -15.572183      -423.7407
   3   2.0000     -11.359288      -309.1019
   4   2.0000     -11.336635      -308.4855
   5   2.0000     -11.328022      -308.2512
   6   2.0000     -11.279883      -306.9412
   7   2.0000     -11.278853      -306.9132
   8   2.0000     -11.272986      -306.7536
   9   2.0000      -1.460787       -39.7500
  10   2.0000      -1.277334       -34.7580
  11   2.0000      -1.216050       -33.0904
  12   2.0000      -1.100206       -29.9381
  13   2.0000      -1.027516       -27.9601
  14   2.0000      -0.955307       -25.9952
  15   2.0000      -0.873761       -23.7762
  16   2.0000      -0.771726       -20.9997
  17   2.0000      -0.729389       -19.8477
  18   2.0000      -0.710119       -19.3233
  19   2.0000      -0.685519       -18.6539
  20   2.0000      -0.666038       -18.1238
  21   2.0000      -0.626779       -17.0555
  22   2.0000      -0.592101       -16.1119
  23   2.0000      -0.572755       -15.5855
  24   2.0000      -0.557813       -15.1789
  25   2.0000      -0.544680       -14.8215
  26   2.0000      -0.524763       -14.2795
  27   2.0000      -0.514381       -13.9970
  28   2.0000      -0.467877       -12.7316
  29   2.0000      -0.461636       -12.5618
  30   2.0000      -0.442830       -12.0500
  31   2.0000      -0.408505       -11.1160
  32   0.0000       0.111214         3.0263
  33   0.0000       0.126874         3.4524
  34   0.0000       0.139255         3.7893
  35   0.0000       0.145211         3.9514
  36   0.0000       0.161376         4.3913

MULLIKEN ATOMIC CHARGES
-----------------------
   0 N :   -0.050695
   1 C :   -0.160295
   2 C :    0.108070
   3 C :   -0.253449
   4 C :   -0.163784
   5 C :   -0.018646
   6 O :   -0.247260
   7 C :    0.161684
   8 N :   -0.210130
   9 H :    0.137305
  10 H :    0.150630
  11 H :    0.146657
  12 H :    0.140135
  13 H :    0.135110
  14 H :    0.124668
Sum of atomic charges:   -0.0000000

LOEWDIN ATOMIC CHARGES
----------------------
   0 N :    0.072292
   1 C :   -0.166639
   2 C :   -0.230277
   3 C :   -0.180821
   4 C :   -0.196949
   5 C :   -0.176291
   6 O :    0.231796
   7 C :   -0.370030
   8 N :    0.135221
   9 H :    0.166893
  10 H :    0.140693
  11 H :    0.151895
  12 H :    0.164139
  13 H :    0.127256
  14 H :    0.130821

  Mayer bond orders larger than 0.1
B(  0-N ,  1-C ) :   2.8630 B(  1-C ,  2-C ) :   0.9270 B(  2-C ,  3-C ) :   0.9030
B(  2-C ,  8-N ) :   0.9287 B(  2-C ,  9-H ) :   0.9035 B(  3-C ,  4-C ) :   0.9212
B(  3-C , 10-H ) :   0.9169 B(  3-C , 11-H ) :   0.9161 B(  4-C ,  5-C ) :   0.9476
B(  4-C ,  7-C ) :   0.9491 B(  4-C , 12-H ) :   0.9002 B(  5-C ,  6-O ) :   0.8736
B(  5-C , 13-H ) :   0.9169 B(  5-C , 14-H ) :   0.8977 B(  6-O ,  7-C ) :   1.1205
B(  7-C ,  8-N ) :   1.8235

MP2 TOTAL ENERGY:     -416.081282972 Eh
FINAL SINGLE POINT ENERGY      -416.081282972089

DIPOLE MOMENT
-------------
                                X             Y             Z
Electronic contribution:      3.21020      -2.76482      -3.24748
Nuclear contribution   :     -4.35660       4.67935       4.37124
                        -----------------------------------------
Total Dipole Moment    :     -1.14639       1.91454       1.12376
                        -----------------------------------------
Magnitude (a.u.)       :      2.49850
Magnitude (Debye)      :      6.35068

                             ****ORCA TERMINATED NORMALLY****
TOTAL RUN TIME: 0 days 0 hours 14 minutes 55 seconds 607 msec
