                         Program Version 3.0.3 - RELEASE   -
|  1> ! RI-MP2 RIJK def2-TZVP def2-TZVP/C def2-TZVP/JK TIGHTSCF
|  2> % maxcore 2000
|  3> % mp2 density relaxed end
|  4> *xyz 0 1
|  5>  C       -0.0138124432     1.5191860800     0.2301747300
|  6>  C        1.5186084553     1.5216121155    -0.0885876804
|  7>  C        1.3090296204     0.1870573241    -0.8356043895
|  8>  C        2.1301639155    -1.0997812629    -0.8490133975
|  9>  C        1.1696829096    -2.0362212128    -1.6736962429
| 10>  C        0.0441059532    -1.0884856054    -2.1963498067
| 11>  C       -0.9559046641    -0.7577206898    -1.0554548243
| 12>  C       -0.0269637416    -0.0121367506    -0.0672691280
| 13>  C        0.8093370905     0.2446247890    -2.2988681809
| 14>  H       -0.3133503562     1.8318739591     1.2332356684
| 15>  H       -0.5909649479     2.0976894772    -0.4964529110
| 16>  H        1.9250357328     2.3645176262    -0.6543086651
| 17>  H        2.1127654594     1.3956813812     0.8219841526
| 18>  H        3.0967901950    -0.9822939433    -1.3517744445
| 19>  H        2.3254681202    -1.4817775918     0.1579132019
| 20>  H        1.6991565181    -2.4980856363    -2.5118756166
| 21>  H        0.7632887731    -2.8496708667    -1.0645357192
| 22>  H       -0.4321412822    -1.4528223213    -3.1093602770
| 23>  H       -1.7697924313    -0.1246994389    -1.4277867483
| 24>  H       -1.4103251464    -1.6529369548    -0.6191964294
| 25>  H        0.1184138409    -0.5694184448     0.8633106298
| 26>  H        0.1626039392     1.0988266992    -2.5183824003
| 27>  H        1.6296345299     0.2311793881    -3.0243050813
| 28> *
| 29>
| 30>                          ****END OF INPUT****

CARTESIAN COORDINATES (ANGSTROEM)
---------------------------------
  C     -0.013812    1.519186    0.230175
  C      1.518608    1.521612   -0.088588
  C      1.309030    0.187057   -0.835604
  C      2.130164   -1.099781   -0.849013
  C      1.169683   -2.036221   -1.673696
  C      0.044106   -1.088486   -2.196350
  C     -0.955905   -0.757721   -1.055455
  C     -0.026964   -0.012137   -0.067269
  C      0.809337    0.244625   -2.298868
  H     -0.313350    1.831874    1.233236
  H     -0.590965    2.097689   -0.496453
  H      1.925036    2.364518   -0.654309
  H      2.112765    1.395681    0.821984
  H      3.096790   -0.982294   -1.351774
  H      2.325468   -1.481778    0.157913
  H      1.699157   -2.498086   -2.511876
  H      0.763289   -2.849671   -1.064536
  H     -0.432141   -1.452822   -3.109360
  H     -1.769792   -0.124699   -1.427787
  H     -1.410325   -1.652937   -0.619196
  H      0.118414   -0.569418    0.863311
  H      0.162604    1.098827   -2.518382
  H      1.629635    0.231179   -3.024305

 Total Charge           Charge          ....    0
 Multiplicity           Mult            ....    1
 Number of Electrons    NEL             ....   68
 Basis Dimension        Dim             ....  363

ORBITAL ENERGIES
----------------

  NO   OCC          E(Eh)            E(eV)
   0   2.0000     -11.219866      -305.3081
   1   2.0000     -11.218251      -305.2641
   2   2.0000     -11.217108      -305.2330
   3   2.0000     -11.216195      -305.2082
   4   2.0000     -11.215127      -305.1791
   5   2.0000     -11.212665      -305.1121
   6   2.0000     -11.212483      -305.1072
   7   2.0000     -11.211780      -305.0880
   8   2.0000     -11.209290      -305.0203
   9   2.0000      -1.177157       -32.0321
  10   2.0000      -1.065884       -29.0042
  11   2.0000      -0.995068       -27.0772
  12   2.0000      -0.939088       -25.5539
  13   2.0000      -0.906229       -24.6597
  14   2.0000      -0.847180       -23.0529
  15   2.0000      -0.799908       -21.7666
  16   2.0000      -0.745700       -20.2915
  17   2.0000      -0.700441       -19.0600
  18   2.0000      -0.659659       -17.9502
  19   2.0000      -0.638187       -17.3660
  20   2.0000      -0.615736       -16.7550
  21   2.0000      -0.589764       -16.0483
  22   2.0000      -0.554858       -15.0985
  23   2.0000      -0.543416       -14.7871
  24   2.0000      -0.517107       -14.0712
  25   2.0000      -0.512052       -13.9337
  26   2.0000      -0.491728       -13.3806
  27   2.0000      -0.469113       -12.7652
  28   2.0000      -0.457974       -12.4621
  29   2.0000      -0.454085       -12.3563
  30   2.0000      -0.436780       -11.8854
  31   2.0000      -0.420992       -11.4558
  32   2.0000      -0.414919       -11.2905
  33   2.0000      -0.385669       -10.4946
  34   0.0000       0.136020         3.7013
  35   0.0000       0.154272         4.1980
  36   0.0000       0.160994         4.3809
  37   0.0000       0.165441         4.5019
  38   0.0000       0.188590         5.1318

MULLIKEN ATOMIC CHARGES
-----------------------
   0 C :   -0.250964
   1 C :   -0.210389
   2 C :    0.131901
   3 C :   -0.263775
   4 C :   -0.261373
   5 C :    0.011868
   6 C :   -0.296121
   7 C :   -0.104654
   8 C :   -0.317658
   9 H :    0.115341
  10 H :    0.110377
  11 H :    0.112898
  12 H :    0.110726
  13 H :    0.110689
  14 H :    0.106610
  15 H :    0.118526
  16 H :    0.112040
  17 H :    0.113714
  18 H :    0.113564
  19 H :    0.114346
  20 H :    0.090788
  21 H :    0.115645
  22 H :    0.115901
Sum of atomic charges:   -0.0000000

LOEWDIN ATOMIC CHARGES
----------------------
   0 C :   -0.216518
   1 C :   -0.201409
   2 C :   -0.232546
   3 C :   -0.214315
   4 C :   -0.213464
   5 C :   -0.226317
   6 C :   -0.217065
   7 C :   -0.168922
   8 C :   -0.183889
   9 H :    0.121921
  10 H :    0.130485
  11 H :    0.124697
  12 H :    0.136214
  13 H :    0.132008
  14 H :    0.132410
  15 H :    0.133091
  16 H :    0.132144
  17 H :    0.138532
  18 H :    0.135500
  19 H :    0.132006
  20 H :    0.147884
  21 H :    0.138888
  22 H :    0.138665

  Mayer bond orders larger than 0.1
B(  0-C ,  1-C ) :   0.9551 B(  0-C ,  7-C ) :   0.9294 B(  0-C ,  9-H ) :   0.9237
B(  0-C , 10-H ) :   0.9161 B(  1-C ,  2-C ) :   0.8902 B(  1-C , 11-H ) :   0.9203
B(  1-C , 12-H ) :   0.9208 B(  2-C ,  3-C ) :   0.9200 B(  2-C ,  7-C ) :   0.8992
B(  2-C ,  8-C ) :   0.9235 B(  3-C ,  4-C ) :   0.9670 B(  3-C , 13-H ) :   0.9177
B(  3-C , 14-H ) :   0.9187 B(  4-C ,  5-C ) :   0.9182 B(  4-C , 15-H ) :   0.9263
B(  4-C , 16-H ) :   0.9246 B(  5-C ,  6-C ) :   0.9102 B(  5-C ,  8-C ) :   0.9434
B(  5-C , 17-H ) :   0.9221 B(  6-C ,  7-C ) :   0.9536 B(  6-C , 18-H ) :   0.9159
B(  6-C , 19-H ) :   0.9257 B(  7-C , 20-H ) :   0.9165 B(  8-C , 21-H ) :   0.9134
B(  8-C , 22-H ) :   0.9222

MP2 TOTAL ENERGY:     -350.523523529 Eh
FINAL SINGLE POINT ENERGY      -350.523523529104

DIPOLE MOMENT
-------------
                                X             Y             Z
Electronic contribution:     -0.00485       0.15647      -0.05795
Nuclear contribution   :      0.00643      -0.18638       0.03426
                        -----------------------------------------
Total Dipole Moment    :      0.00159      -0.02991      -0.02369
                        -----------------------------------------
Magnitude (a.u.)       :      0.03819
Magnitude (Debye)      :      0.09707

                             ****ORCA TERMINATED NORMALLY****
TOTAL RUN TIME: 0 days 0 hours 24 minutes 12 seconds 244 msec
