                         Program Version 3.0.3 - RELEASE   -
|  1> ! RI-MP2 RIJK def2-TZVP def2-TZVP/C def2-TZVP/JK TIGHTSCF
|  2> % maxcore 2000
|  3> % mp2 density relaxed end
|  4> *xyz 0 1
|  5>  C        0.1879230299     1.4617118841    -0.5139764658
|  6>  C        0.2400672823    -0.0275013558    -0.2628116749
|  7>  C        1.5442457307    -0.7384490046    -0.0964197896
|  8>  C        0.6388493475    -0.5534058481     1.1058817659
|  9>  C        0.8831920657     0.1937451268     2.4291788129
| 10>  C        0.2107385910    -0.9938165722     3.2050698593
| 11>  C       -1.0096501797    -0.7019075431     4.0720469029
| 12>  C       -0.0614525443    -1.6581762837     1.8360803295
| 13>  O       -0.6404633468    -2.6526547431     1.4909787280
| 14>  H        1.0058246414     1.9807374920    -0.0040796603
| 15>  H        0.2730868131     1.6779093862    -1.5844390528
| 16>  H       -0.7545579643     1.8938592433    -0.1608246802
| 17>  H       -0.5524654392    -0.6057206661    -0.7321604057
| 18>  H        1.6460303849    -1.7483194183    -0.4802124320
| 19>  H        2.4541194309    -0.1454982060    -0.1119507632
| 20>  H        1.9302633986     0.3734985916     2.6828876986
| 21>  H        0.3323369372     1.1343242433     2.5211497069
| 22>  H        0.9438804539    -1.5820745401     3.7694207187
| 23>  H       -1.7460542587    -0.1013112114     3.5271300101
| 24>  H       -1.4964040990    -1.6340909797     4.3739898145
| 25>  H       -0.7301073949    -0.1523308250     4.9766029872
| 26> *
| 27>
| 28>                          ****END OF INPUT****

CARTESIAN COORDINATES (ANGSTROEM)
---------------------------------
  C      0.187923    1.461712   -0.513976
  C      0.240067   -0.027501   -0.262812
  C      1.544246   -0.738449   -0.096420
  C      0.638849   -0.553406    1.105882
  C      0.883192    0.193745    2.429179
  C      0.210739   -0.993817    3.205070
  C     -1.009650   -0.701908    4.072047
  C     -0.061453   -1.658176    1.836080
  O     -0.640463   -2.652655    1.490979
  H      1.005825    1.980737   -0.004080
  H      0.273087    1.677909   -1.584439
  H     -0.754558    1.893859   -0.160825
  H     -0.552465   -0.605721   -0.732160
  H      1.646030   -1.748319   -0.480212
  H      2.454119   -0.145498   -0.111951
  H      1.930263    0.373499    2.682888
  H      0.332337    1.134324    2.521150
  H      0.943880   -1.582075    3.769421
  H     -1.746054   -0.101311    3.527130
  H     -1.496404   -1.634091    4.373990
  H     -0.730107   -0.152331    4.976603

 Total Charge           Charge          ....    0
 Multiplicity           Mult            ....    1
 Number of Electrons    NEL             ....   68
 Basis Dimension        Dim             ....  351

ORBITAL ENERGIES
----------------

  NO   OCC          E(Eh)            E(eV)
   0   2.0000     -20.540908      -558.9465
   1   2.0000     -11.319356      -308.0153
   2   2.0000     -11.246886      -306.0433
   3   2.0000     -11.241474      -305.8961
   4   2.0000     -11.241467      -305.8959
   5   2.0000     -11.239355      -305.8384
   6   2.0000     -11.235600      -305.7362
   7   2.0000     -11.228085      -305.5317
   8   2.0000     -11.225200      -305.4532
   9   2.0000      -1.382741       -37.6263
  10   2.0000      -1.178295       -32.0630
  11   2.0000      -1.098612       -29.8947
  12   2.0000      -0.984218       -26.7819
  13   2.0000      -0.956752       -26.0345
  14   2.0000      -0.862232       -23.4625
  15   2.0000      -0.821948       -22.3663
  16   2.0000      -0.788560       -21.4578
  17   2.0000      -0.697709       -18.9856
  18   2.0000      -0.668722       -18.1968
  19   2.0000      -0.659309       -17.9407
  20   2.0000      -0.627039       -17.0626
  21   2.0000      -0.600786       -16.3482
  22   2.0000      -0.586145       -15.9498
  23   2.0000      -0.563975       -15.3465
  24   2.0000      -0.556717       -15.1490
  25   2.0000      -0.550744       -14.9865
  26   2.0000      -0.529307       -14.4032
  27   2.0000      -0.511939       -13.9306
  28   2.0000      -0.499175       -13.5833
  29   2.0000      -0.493522       -13.4294
  30   2.0000      -0.484325       -13.1791
  31   2.0000      -0.427503       -11.6330
  32   2.0000      -0.402361       -10.9488
  33   2.0000      -0.376450       -10.2437
  34   0.0000       0.120313         3.2739
  35   0.0000       0.133480         3.6322
  36   0.0000       0.157981         4.2989
  37   0.0000       0.161831         4.4037
  38   0.0000       0.173231         4.7139

MULLIKEN ATOMIC CHARGES
-----------------------
   0 C :   -0.421047
   1 C :   -0.055019
   2 C :   -0.308581
   3 C :    0.025387
   4 C :   -0.256085
   5 C :    0.042554
   6 C :   -0.432213
   7 C :    0.069237
   8 O :   -0.269993
   9 H :    0.132132
  10 H :    0.142061
  11 H :    0.136856
  12 H :    0.137412
  13 H :    0.148978
  14 H :    0.132871
  15 H :    0.123952
  16 H :    0.123928
  17 H :    0.117400
  18 H :    0.127099
  19 H :    0.145978
  20 H :    0.137094
Sum of atomic charges:   -0.0000000

LOEWDIN ATOMIC CHARGES
----------------------
   0 C :   -0.288219
   1 C :   -0.200964
   2 C :   -0.170608
   3 C :   -0.175131
   4 C :   -0.171195
   5 C :   -0.209815
   6 C :   -0.291339
   7 C :   -0.273761
   8 O :    0.150239
   9 H :    0.128372
  10 H :    0.128904
  11 H :    0.127167
  12 H :    0.157144
  13 H :    0.142046
  14 H :    0.139640
  15 H :    0.131485
  16 H :    0.135992
  17 H :    0.157786
  18 H :    0.125961
  19 H :    0.131214
  20 H :    0.125081

  Mayer bond orders larger than 0.1
B(  0-C ,  1-C ) :   0.8950 B(  0-C ,  9-H ) :   0.9340 B(  0-C , 10-H ) :   0.9370
B(  0-C , 11-H ) :   0.9407 B(  1-C ,  2-C ) :   0.9675 B(  1-C ,  3-C ) :   0.7838
B(  1-C , 12-H ) :   0.9208 B(  2-C ,  3-C ) :   0.8125 B(  2-C , 13-H ) :   0.9205
B(  2-C , 14-H ) :   0.9238 B(  3-C ,  4-C ) :   0.9197 B(  3-C ,  5-C ) :  -0.1295
B(  3-C ,  7-C ) :   0.8817 B(  4-C ,  5-C ) :   0.9335 B(  4-C , 15-H ) :   0.9089
B(  4-C , 16-H ) :   0.9103 B(  5-C ,  6-C ) :   0.8824 B(  5-C ,  7-C ) :   0.8708
B(  5-C , 17-H ) :   0.8949 B(  6-C , 18-H ) :   0.9338 B(  6-C , 19-H ) :   0.9365
B(  6-C , 20-H ) :   0.9390 B(  7-C ,  8-O ) :   2.0652

MP2 TOTAL ENERGY:     -386.411303726 Eh
FINAL SINGLE POINT ENERGY      -386.411303726420

DIPOLE MOMENT
-------------
                                X             Y             Z
Electronic contribution:     -0.33144      -7.01237      -0.78587
Nuclear contribution   :      0.84796       8.02738       0.91654
                        -----------------------------------------
Total Dipole Moment    :      0.51652       1.01501       0.13067
                        -----------------------------------------
Magnitude (a.u.)       :      1.14635
Magnitude (Debye)      :      2.91378

                             ****ORCA TERMINATED NORMALLY****
TOTAL RUN TIME: 0 days 0 hours 19 minutes 18 seconds 838 msec
