                         Program Version 3.0.3 - RELEASE   -
|  1> ! RI-MP2 RIJK def2-TZVP def2-TZVP/C def2-TZVP/JK TIGHTSCF
|  2> % maxcore 2000
|  3> % mp2 density relaxed end
|  4> *xyz 0 1
|  5>  C        0.0804409742     1.4405850452    -0.1066042579
|  6>  N       -0.0116096671    -0.0042498411    -0.1262490995
|  7>  C       -1.1066576309    -0.6025274640     0.0550567644
|  8>  N       -1.1853092796    -1.9861903138     0.0354654377
|  9>  C       -2.3255967254    -2.7311354540     0.2217643884
| 10>  O       -2.3621396297    -3.9268649371     0.1990349082
| 11>  O       -3.4526283084    -1.9937497530     0.4422809529
| 12>  N       -3.4095331398    -0.5053541593     0.4712863263
| 13>  N       -2.3493579510     0.0616405980     0.2949302987
| 14>  H        0.8029689489     1.7318482101     0.6635988851
| 15>  H        0.4918626640     1.7750994497    -1.0652173269
| 16>  H       -0.8689962882     1.9527671706     0.0770232868
| 17>  H       -0.3306160470    -2.4991976115    -0.1305197042
| 18> *
| 19>
| 20>                          ****END OF INPUT****

CARTESIAN COORDINATES (ANGSTROEM)
---------------------------------
  C      0.080441    1.440585   -0.106604
  N     -0.011610   -0.004250   -0.126249
  C     -1.106658   -0.602527    0.055057
  N     -1.185309   -1.986190    0.035465
  C     -2.325597   -2.731135    0.221764
  O     -2.362140   -3.926865    0.199035
  O     -3.452628   -1.993750    0.442281
  N     -3.409533   -0.505354    0.471286
  N     -2.349358    0.061641    0.294930
  H      0.802969    1.731848    0.663599
  H      0.491863    1.775099   -1.065217
  H     -0.868996    1.952767    0.077023
  H     -0.330616   -2.499198   -0.130520

 Total Charge           Charge          ....    0
 Multiplicity           Mult            ....    1
 Number of Electrons    NEL             ....   66
 Basis Dimension        Dim             ....  303

ORBITAL ENERGIES
----------------

  NO   OCC          E(Eh)            E(eV)
   0   2.0000     -20.663617      -562.2856
   1   2.0000     -20.559398      -559.4497
   2   2.0000     -15.771844      -429.1737
   3   2.0000     -15.691248      -426.9806
   4   2.0000     -15.645858      -425.7454
   5   2.0000     -15.596444      -424.4008
   6   2.0000     -11.442947      -311.3784
   7   2.0000     -11.401137      -310.2407
   8   2.0000     -11.273352      -306.7635
   9   2.0000      -1.535005       -41.7696
  10   2.0000      -1.441718       -39.2311
  11   2.0000      -1.372364       -37.3439
  12   2.0000      -1.325479       -36.0681
  13   2.0000      -1.240545       -33.7569
  14   2.0000      -1.032732       -28.1021
  15   2.0000      -0.983843       -26.7717
  16   2.0000      -0.895266       -24.3614
  17   2.0000      -0.835711       -22.7409
  18   2.0000      -0.803321       -21.8595
  19   2.0000      -0.719708       -19.5843
  20   2.0000      -0.704496       -19.1703
  21   2.0000      -0.674827       -18.3630
  22   2.0000      -0.660248       -17.9663
  23   2.0000      -0.630369       -17.1532
  24   2.0000      -0.613481       -16.6937
  25   2.0000      -0.604901       -16.4602
  26   2.0000      -0.589757       -16.0481
  27   2.0000      -0.569588       -15.4993
  28   2.0000      -0.518316       -14.1041
  29   2.0000      -0.483595       -13.1593
  30   2.0000      -0.478834       -13.0297
  31   2.0000      -0.446906       -12.1609
  32   2.0000      -0.404900       -11.0179
  33   0.0000       0.038952         1.0599
  34   0.0000       0.130649         3.5551
  35   0.0000       0.149238         4.0610
  36   0.0000       0.155427         4.2294
  37   0.0000       0.176470         4.8020

MULLIKEN ATOMIC CHARGES
-----------------------
   0 C :   -0.280798
   1 N :   -0.232324
   2 C :    0.240640
   3 N :   -0.291202
   4 C :    0.338685
   5 O :   -0.291832
   6 O :   -0.164558
   7 N :    0.029823
   8 N :   -0.069946
   9 H :    0.148954
  10 H :    0.148944
  11 H :    0.145771
  12 H :    0.277844
Sum of atomic charges:   -0.0000000

LOEWDIN ATOMIC CHARGES
----------------------
   0 C :   -0.322613
   1 N :    0.107574
   2 C :   -0.399726
   3 N :    0.172589
   4 C :   -0.589777
   5 O :    0.135336
   6 O :    0.168612
   7 N :    0.058441
   8 N :    0.087012
   9 H :    0.125593
  10 H :    0.125600
  11 H :    0.113814
  12 H :    0.217544

  Mayer bond orders larger than 0.1
B(  0-C ,  1-N ) :   0.8764 B(  0-C ,  9-H ) :   0.9272 B(  0-C , 10-H ) :   0.9272
B(  0-C , 11-H ) :   0.9270 B(  1-N ,  2-C ) :   1.8706 B(  2-C ,  3-N ) :   1.0371
B(  2-C ,  8-N ) :   0.9497 B(  3-N ,  4-C ) :   1.0846 B(  3-N , 12-H ) :   0.8381
B(  4-C ,  5-O ) :   2.0083 B(  4-C ,  6-O ) :   1.0873 B(  6-O ,  7-N ) :   0.7261
B(  7-N ,  8-N ) :   1.6730

MP2 TOTAL ENERGY:     -485.264860199 Eh
FINAL SINGLE POINT ENERGY      -485.264860198775

DIPOLE MOMENT
-------------
                                X             Y             Z
Electronic contribution:     -5.78442      -5.97564       0.88898
Nuclear contribution   :      6.81456       7.08914      -1.04659
                        -----------------------------------------
Total Dipole Moment    :      1.03013       1.11350      -0.15761
                        -----------------------------------------
Magnitude (a.u.)       :      1.52509
Magnitude (Debye)      :      3.87647

                             ****ORCA TERMINATED NORMALLY****
TOTAL RUN TIME: 0 days 0 hours 13 minutes 15 seconds 175 msec
