                         Program Version 3.0.3 - RELEASE   -
|  1> ! RI-MP2 RIJK def2-TZVP def2-TZVP/C def2-TZVP/JK TIGHTSCF
|  2> % maxcore 2000
|  3> % mp2 density relaxed end
|  4> *xyz 0 1
|  5>  C        0.0200604772     1.4469662388    -0.1038293033
|  6>  C        1.3614525945     0.7662543344     0.0119356158
|  7>  C        1.9538749682     0.6316139926     1.4213243300
|  8>  C        0.8011704266     0.0654762823     2.2003464834
|  9>  C        0.2761933119     0.2322342154     3.4110791711
| 10>  C       -1.0667259610    -0.4668978101     3.5231860303
| 11>  C       -1.4599013034    -0.7048213882     2.0355776122
| 12>  C       -0.1097337540    -0.7357786688     1.2857673036
| 13>  C        0.0830025360    -0.0609845453    -0.0684946006
| 14>  H       -0.3694220915     1.9727512718     0.7632208125
| 15>  H       -0.2229295619     1.9124443646    -1.0526268916
| 16>  H        2.0429809374     0.8241775796    -0.8294238876
| 17>  H        2.7999750250    -0.0693768788     1.3943577105
| 18>  H        2.3280002394     1.5755263297     1.8318479025
| 19>  H        0.7194447408     0.7918238793     4.2279002795
| 20>  H       -0.9792969800    -1.4162427556     4.0719125323
| 21>  H       -1.8099477479     0.1298403967     4.0643396923
| 22>  H       -2.0590804812    -1.6082922760     1.8925663188
| 23>  H       -2.0522242173     0.1445295525     1.6776920585
| 24>  H        0.2531109749    -1.7727191291     1.2028897782
| 25>  H       -0.1612373038    -0.6070655257    -0.9729597583
| 26> *
| 27>
| 28>                          ****END OF INPUT****

CARTESIAN COORDINATES (ANGSTROEM)
---------------------------------
  C      0.020060    1.446966   -0.103829
  C      1.361453    0.766254    0.011936
  C      1.953875    0.631614    1.421324
  C      0.801170    0.065476    2.200346
  C      0.276193    0.232234    3.411079
  C     -1.066726   -0.466898    3.523186
  C     -1.459901   -0.704821    2.035578
  C     -0.109734   -0.735779    1.285767
  C      0.083003   -0.060985   -0.068495
  H     -0.369422    1.972751    0.763221
  H     -0.222930    1.912444   -1.052627
  H      2.042981    0.824178   -0.829424
  H      2.799975   -0.069377    1.394358
  H      2.328000    1.575526    1.831848
  H      0.719445    0.791824    4.227900
  H     -0.979297   -1.416243    4.071913
  H     -1.809948    0.129840    4.064340
  H     -2.059080   -1.608292    1.892566
  H     -2.052224    0.144530    1.677692
  H      0.253111   -1.772719    1.202890
  H     -0.161237   -0.607066   -0.972960

 Total Charge           Charge          ....    0
 Multiplicity           Mult            ....    1
 Number of Electrons    NEL             ....   66
 Basis Dimension        Dim             ....  351

ORBITAL ENERGIES
----------------

  NO   OCC          E(Eh)            E(eV)
   0   2.0000     -11.227252      -305.5091
   1   2.0000     -11.225829      -305.4703
   2   2.0000     -11.224158      -305.4249
   3   2.0000     -11.221476      -305.3519
   4   2.0000     -11.219133      -305.2881
   5   2.0000     -11.218715      -305.2768
   6   2.0000     -11.218145      -305.2612
   7   2.0000     -11.214594      -305.1646
   8   2.0000     -11.212737      -305.1141
   9   2.0000      -1.180571       -32.1250
  10   2.0000      -1.102764       -30.0077
  11   2.0000      -1.003047       -27.2943
  12   2.0000      -0.956375       -26.0243
  13   2.0000      -0.915971       -24.9248
  14   2.0000      -0.825407       -22.4605
  15   2.0000      -0.773010       -21.0347
  16   2.0000      -0.751177       -20.4406
  17   2.0000      -0.703977       -19.1562
  18   2.0000      -0.671794       -18.2805
  19   2.0000      -0.634785       -17.2734
  20   2.0000      -0.610071       -16.6009
  21   2.0000      -0.584444       -15.9035
  22   2.0000      -0.571093       -15.5402
  23   2.0000      -0.535564       -14.5734
  24   2.0000      -0.534098       -14.5335
  25   2.0000      -0.495400       -13.4805
  26   2.0000      -0.483404       -13.1541
  27   2.0000      -0.475701       -12.9445
  28   2.0000      -0.468876       -12.7588
  29   2.0000      -0.447749       -12.1839
  30   2.0000      -0.403407       -10.9773
  31   2.0000      -0.389039       -10.5863
  32   2.0000      -0.330751        -9.0002
  33   0.0000       0.141453         3.8491
  34   0.0000       0.147892         4.0243
  35   0.0000       0.161171         4.3857
  36   0.0000       0.171887         4.6773
  37   0.0000       0.176974         4.8157

MULLIKEN ATOMIC CHARGES
-----------------------
   0 C :   -0.288497
   1 C :   -0.107371
   2 C :   -0.190291
   3 C :   -0.094199
   4 C :   -0.202242
   5 C :   -0.156352
   6 C :   -0.285713
   7 C :    0.041333
   8 C :   -0.140235
   9 H :    0.137513
  10 H :    0.128387
  11 H :    0.120183
  12 H :    0.118020
  13 H :    0.121214
  14 H :    0.125099
  15 H :    0.110281
  16 H :    0.115278
  17 H :    0.118040
  18 H :    0.119367
  19 H :    0.092828
  20 H :    0.117356
Sum of atomic charges:    0.0000000

LOEWDIN ATOMIC CHARGES
----------------------
   0 C :   -0.207690
   1 C :   -0.188801
   2 C :   -0.195579
   3 C :   -0.140644
   4 C :   -0.138911
   5 C :   -0.238641
   6 C :   -0.213275
   7 C :   -0.177547
   8 C :   -0.176635
   9 H :    0.137824
  10 H :    0.133601
  11 H :    0.139577
  12 H :    0.148357
  13 H :    0.143612
  14 H :    0.135586
  15 H :    0.136703
  16 H :    0.132421
  17 H :    0.129170
  18 H :    0.140350
  19 H :    0.159708
  20 H :    0.140812

  Mayer bond orders larger than 0.1
B(  0-C ,  1-C ) :   0.8831 B(  0-C ,  8-C ) :   0.8828 B(  0-C ,  9-H ) :   0.9228
B(  0-C , 10-H ) :   0.9302 B(  1-C ,  2-C ) :   0.9412 B(  1-C ,  8-C ) :   0.8578
B(  1-C , 11-H ) :   0.9332 B(  2-C ,  3-C ) :   0.9545 B(  2-C , 12-H ) :   0.9123
B(  2-C , 13-H ) :   0.9175 B(  3-C ,  4-C ) :   1.7582 B(  3-C ,  7-C ) :   0.9098
B(  4-C ,  5-C ) :   0.9320 B(  4-C , 14-H ) :   0.9242 B(  5-C ,  6-C ) :   0.9513
B(  5-C , 15-H ) :   0.9101 B(  5-C , 16-H ) :   0.9318 B(  6-C ,  7-C ) :   0.9009
B(  6-C , 17-H ) :   0.9353 B(  6-C , 18-H ) :   0.9268 B(  7-C ,  8-C ) :   0.9380
B(  7-C , 19-H ) :   0.9015 B(  8-C , 20-H ) :   0.9340

MP2 TOTAL ENERGY:     -349.317695722 Eh
FINAL SINGLE POINT ENERGY      -349.317695721730

DIPOLE MOMENT
-------------
                                X             Y             Z
Electronic contribution:      1.71827      -0.28643      -0.06488
Nuclear contribution   :     -1.67893       0.26324      -0.01474
                        -----------------------------------------
Total Dipole Moment    :      0.03934      -0.02319      -0.07962
                        -----------------------------------------
Magnitude (a.u.)       :      0.09179
Magnitude (Debye)      :      0.23331

                             ****ORCA TERMINATED NORMALLY****
TOTAL RUN TIME: 0 days 0 hours 21 minutes 39 seconds 613 msec
