                         Program Version 3.0.3 - RELEASE   -
|  1> ! RI-MP2 RIJK def2-TZVP def2-TZVP/C def2-TZVP/JK TIGHTSCF
|  2> % maxcore 2000
|  3> % mp2 density relaxed end
|  4> *xyz 0 1
|  5>  O       -0.1176114312     1.4641971861     0.0949274653
|  6>  C        0.0332383009     0.0628107682    -0.0421169738
|  7>  C       -1.3683061185    -0.5365936605     0.0128602310
|  8>  C       -1.3824370648    -2.0780368288    -0.0345232178
|  9>  C       -2.8338644760    -2.6140456689     0.0982326824
| 10>  C       -2.9014322744    -4.0661029230     0.2403317948
| 11>  N       -2.9453376963    -5.2128544424     0.3704249964
| 12>  C       -0.7595304006    -2.5769246857    -1.2659643073
| 13>  N       -0.2713664940    -2.9435473819    -2.2469836910
| 14>  H        0.7418567118     1.8759255285    -0.0332787275
| 15>  H        0.5167643670    -0.2031810309    -0.9931801911
| 16>  H        0.6491985470    -0.3578402752     0.7702954978
| 17>  H       -1.8480969477    -0.2149759165     0.9435611278
| 18>  H       -1.9614335858    -0.1331099084    -0.8147636571
| 19>  H       -0.7980910920    -2.4677031292     0.8078396848
| 20>  H       -3.2945785924    -2.1546462946     0.9789356608
| 21>  H       -3.4236607930    -2.3090710567    -0.7722675754
| 22> *
| 23>
| 24>                          ****END OF INPUT****

CARTESIAN COORDINATES (ANGSTROEM)
---------------------------------
  O     -0.117611    1.464197    0.094927
  C      0.033238    0.062811   -0.042117
  C     -1.368306   -0.536594    0.012860
  C     -1.382437   -2.078037   -0.034523
  C     -2.833864   -2.614046    0.098233
  C     -2.901432   -4.066103    0.240332
  N     -2.945338   -5.212854    0.370425
  C     -0.759530   -2.576925   -1.265964
  N     -0.271366   -2.943547   -2.246984
  H      0.741857    1.875926   -0.033279
  H      0.516764   -0.203181   -0.993180
  H      0.649199   -0.357840    0.770295
  H     -1.848097   -0.214976    0.943561
  H     -1.961434   -0.133110   -0.814764
  H     -0.798091   -2.467703    0.807840
  H     -3.294579   -2.154646    0.978936
  H     -3.423661   -2.309071   -0.772268

 Total Charge           Charge          ....    0
 Multiplicity           Mult            ....    1
 Number of Electrons    NEL             ....   66
 Basis Dimension        Dim             ....  327

ORBITAL ENERGIES
----------------

  NO   OCC          E(Eh)            E(eV)
   0   2.0000     -20.579125      -559.9865
   1   2.0000     -15.587092      -424.1463
   2   2.0000     -15.585174      -424.0941
   3   2.0000     -11.321048      -308.0614
   4   2.0000     -11.314503      -307.8833
   5   2.0000     -11.304079      -307.5996
   6   2.0000     -11.287675      -307.1533
   7   2.0000     -11.287626      -307.1519
   8   2.0000     -11.268446      -306.6300
   9   2.0000      -1.384770       -37.6815
  10   2.0000      -1.241105       -33.7722
  11   2.0000      -1.231240       -33.5037
  12   2.0000      -1.149429       -31.2775
  13   2.0000      -1.048303       -28.5258
  14   2.0000      -0.954250       -25.9665
  15   2.0000      -0.865551       -23.5528
  16   2.0000      -0.748521       -20.3683
  17   2.0000      -0.733868       -19.9696
  18   2.0000      -0.719084       -19.5673
  19   2.0000      -0.668536       -18.1918
  20   2.0000      -0.648119       -17.6362
  21   2.0000      -0.619338       -16.8530
  22   2.0000      -0.594025       -16.1642
  23   2.0000      -0.586718       -15.9654
  24   2.0000      -0.570725       -15.5302
  25   2.0000      -0.560264       -15.2456
  26   2.0000      -0.547018       -14.8851
  27   2.0000      -0.518338       -14.1047
  28   2.0000      -0.487981       -13.2786
  29   2.0000      -0.475698       -12.9444
  30   2.0000      -0.474199       -12.9036
  31   2.0000      -0.468507       -12.7487
  32   2.0000      -0.462263       -12.5788
  33   0.0000       0.101323         2.7571
  34   0.0000       0.121324         3.3014
  35   0.0000       0.136426         3.7123
  36   0.0000       0.144996         3.9455
  37   0.0000       0.151300         4.1171

MULLIKEN ATOMIC CHARGES
-----------------------
   0 O :   -0.460773
   1 C :   -0.093205
   2 C :   -0.160032
   3 C :   -0.010895
   4 C :   -0.108713
   5 C :   -0.184190
   6 N :   -0.041753
   7 C :   -0.214492
   8 N :   -0.043479
   9 H :    0.323536
  10 H :    0.131567
  11 H :    0.099055
  12 H :    0.133764
  13 H :    0.133464
  14 H :    0.152277
  15 H :    0.169833
  16 H :    0.174036
Sum of atomic charges:    0.0000000

LOEWDIN ATOMIC CHARGES
----------------------
   0 O :   -0.042062
   1 C :   -0.345826
   2 C :   -0.225928
   3 C :   -0.226827
   4 C :   -0.203083
   5 C :   -0.187662
   6 N :    0.074446
   7 C :   -0.169579
   8 N :    0.077782
   9 H :    0.177181
  10 H :    0.125471
  11 H :    0.118642
  12 H :    0.149381
  13 H :    0.150976
  14 H :    0.183591
  15 H :    0.170578
  16 H :    0.172918

  Mayer bond orders larger than 0.1
B(  0-O ,  1-C ) :   1.0251 B(  0-O ,  9-H ) :   0.8446 B(  1-C ,  2-C ) :   0.9320
B(  1-C , 10-H ) :   0.9310 B(  1-C , 11-H ) :   0.9273 B(  2-C ,  3-C ) :   0.8926
B(  2-C , 12-H ) :   0.9241 B(  2-C , 13-H ) :   0.9070 B(  3-C ,  4-C ) :   0.8866
B(  3-C ,  7-C ) :   0.9178 B(  3-C , 14-H ) :   0.9125 B(  4-C ,  5-C ) :   0.9482
B(  4-C , 15-H ) :   0.9079 B(  4-C , 16-H ) :   0.8960 B(  5-C ,  6-N ) :   2.8645
B(  7-C ,  8-N ) :   2.8538

MP2 TOTAL ENERGY:     -417.329133839 Eh
FINAL SINGLE POINT ENERGY      -417.329133839415

DIPOLE MOMENT
-------------
                                X             Y             Z
Electronic contribution:     -1.16770      -7.03733      -2.08917
Nuclear contribution   :      1.28082       8.85996       2.99380
                        -----------------------------------------
Total Dipole Moment    :      0.11312       1.82263       0.90463
                        -----------------------------------------
Magnitude (a.u.)       :      2.03792
Magnitude (Debye)      :      5.17999

                             ****ORCA TERMINATED NORMALLY****
TOTAL RUN TIME: 0 days 0 hours 14 minutes 39 seconds 2 msec
