                         Program Version 3.0.3 - RELEASE   -
|  1> ! RI-MP2 RIJK def2-TZVP def2-TZVP/C def2-TZVP/JK TIGHTSCF
|  2> % maxcore 2000
|  3> % mp2 density relaxed end
|  4> *xyz 0 1
|  5>  C        0.1105457869     1.3319911074    -0.1174089403
|  6>  C        0.0278672987    -0.1509355308    -0.0005864032
|  7>  O        0.9307175374    -0.9614376918    -0.7654921957
|  8>  C        0.0734370265    -2.1020592485    -0.4169662562
|  9>  C        0.1414117314    -3.1868316287    -1.4505119957
| 10>  O        1.4681544606    -3.6673181213    -1.5798561201
| 11>  C        0.3715032082    -2.2970375056     1.0944227118
| 12>  C       -0.3291717841    -0.9506709551     1.2680501354
| 13>  C       -1.1025901202    -1.1231979864    -0.0416837742
| 14>  H        1.0798506272     1.6953303511     0.2403366991
| 15>  H       -0.0141801790     1.6511984145    -1.1568491775
| 16>  H       -0.6724059424     1.8021451743     0.4850215265
| 17>  H       -0.4796863952    -4.0366191638    -1.1482948125
| 18>  H       -0.2483045315    -2.8042099362    -2.4068952846
| 19>  H        2.0247017662    -2.8936979730    -1.7293675908
| 20>  H       -0.2180594131    -3.1148461214     1.5176192154
| 21>  H        1.4244459543    -2.3950010894     1.3725906284
| 22>  H       -0.6667231661    -0.4711302090     2.1784391156
| 23>  H       -2.1498303057    -1.0564578262    -0.3029552511
| 24> *
| 25>
| 26>                          ****END OF INPUT****

CARTESIAN COORDINATES (ANGSTROEM)
---------------------------------
  C      0.110546    1.331991   -0.117409
  C      0.027867   -0.150936   -0.000586
  O      0.930718   -0.961438   -0.765492
  C      0.073437   -2.102059   -0.416966
  C      0.141412   -3.186832   -1.450512
  O      1.468154   -3.667318   -1.579856
  C      0.371503   -2.297038    1.094423
  C     -0.329172   -0.950671    1.268050
  C     -1.102590   -1.123198   -0.041684
  H      1.079851    1.695330    0.240337
  H     -0.014180    1.651198   -1.156849
  H     -0.672406    1.802145    0.485022
  H     -0.479686   -4.036619   -1.148295
  H     -0.248305   -2.804210   -2.406895
  H      2.024702   -2.893698   -1.729368
  H     -0.218059   -3.114846    1.517619
  H      1.424446   -2.395001    1.372591
  H     -0.666723   -0.471130    2.178439
  H     -2.149830   -1.056458   -0.302955

 Total Charge           Charge          ....    0
 Multiplicity           Mult            ....    1
 Number of Electrons    NEL             ....   68
 Basis Dimension        Dim             ....  339

ORBITAL ENERGIES
----------------

  NO   OCC          E(Eh)            E(eV)
   0   2.0000     -20.553950      -559.3014
   1   2.0000     -20.553599      -559.2919
   2   2.0000     -11.298619      -307.4511
   3   2.0000     -11.297889      -307.4312
   4   2.0000     -11.278838      -306.9128
   5   2.0000     -11.242190      -305.9155
   6   2.0000     -11.239915      -305.8536
   7   2.0000     -11.230100      -305.5865
   8   2.0000     -11.229819      -305.5789
   9   2.0000      -1.406848       -38.2823
  10   2.0000      -1.357084       -36.9281
  11   2.0000      -1.152691       -31.3663
  12   2.0000      -1.039269       -28.2799
  13   2.0000      -0.969707       -26.3871
  14   2.0000      -0.933850       -25.4113
  15   2.0000      -0.838739       -22.8232
  16   2.0000      -0.759751       -20.6739
  17   2.0000      -0.743316       -20.2267
  18   2.0000      -0.695854       -18.9351
  19   2.0000      -0.665799       -18.1173
  20   2.0000      -0.647111       -17.6088
  21   2.0000      -0.625463       -17.0197
  22   2.0000      -0.598294       -16.2804
  23   2.0000      -0.594893       -16.1879
  24   2.0000      -0.571988       -15.5646
  25   2.0000      -0.561878       -15.2895
  26   2.0000      -0.541597       -14.7376
  27   2.0000      -0.519352       -14.1323
  28   2.0000      -0.497081       -13.5263
  29   2.0000      -0.486333       -13.2338
  30   2.0000      -0.444370       -12.0919
  31   2.0000      -0.431360       -11.7379
  32   2.0000      -0.391474       -10.6525
  33   2.0000      -0.374466       -10.1897
  34   0.0000       0.141693         3.8557
  35   0.0000       0.151902         4.1335
  36   0.0000       0.169528         4.6131
  37   0.0000       0.171262         4.6603
  38   0.0000       0.183221         4.9857

MULLIKEN ATOMIC CHARGES
-----------------------
   0 C :   -0.427814
   1 C :    0.199551
   2 O :   -0.349949
   3 C :    0.054281
   4 C :    0.018854
   5 O :   -0.473102
   6 C :   -0.142553
   7 C :   -0.181812
   8 C :   -0.192672
   9 H :    0.146034
  10 H :    0.144054
  11 H :    0.135979
  12 H :    0.105868
  13 H :    0.108862
  14 H :    0.330475
  15 H :    0.113460
  16 H :    0.112184
  17 H :    0.138676
  18 H :    0.159621
Sum of atomic charges:    0.0000000

LOEWDIN ATOMIC CHARGES
----------------------
   0 C :   -0.265039
   1 C :   -0.291502
   2 O :    0.187710
   3 C :   -0.255483
   4 C :   -0.311246
   5 O :   -0.036333
   6 C :   -0.176644
   7 C :   -0.149174
   8 C :   -0.097987
   9 H :    0.135205
  10 H :    0.132605
  11 H :    0.137080
  12 H :    0.136455
  13 H :    0.126667
  14 H :    0.182308
  15 H :    0.143051
  16 H :    0.130301
  17 H :    0.136922
  18 H :    0.135102

  Mayer bond orders larger than 0.1
B(  0-C ,  1-C ) :   0.8644 B(  0-C ,  9-H ) :   0.9400 B(  0-C , 10-H ) :   0.9431
B(  0-C , 11-H ) :   0.9345 B(  1-C ,  2-O ) :   0.9878 B(  1-C ,  7-C ) :   0.8323
B(  1-C ,  8-C ) :   0.9067 B(  2-O ,  3-C ) :   0.8575 B(  3-C ,  4-C ) :   0.9122
B(  3-C ,  6-C ) :   0.9531 B(  3-C ,  8-C ) :   0.8655 B(  4-C ,  5-O ) :   0.9225
B(  4-C , 12-H ) :   0.9140 B(  4-C , 13-H ) :   0.9373 B(  5-O , 14-H ) :   0.8338
B(  6-C ,  7-C ) :   0.9447 B(  6-C , 15-H ) :   0.9270 B(  6-C , 16-H ) :   0.9161
B(  7-C ,  8-C ) :   0.8305 B(  7-C , 17-H ) :   0.9188 B(  8-C , 18-H ) :   0.8771

MP2 TOTAL ENERGY:     -422.260299134 Eh
FINAL SINGLE POINT ENERGY      -422.260299134162

DIPOLE MOMENT
-------------
                                X             Y             Z
Electronic contribution:      1.37250      -2.38587      -1.29380
Nuclear contribution   :     -2.12532       3.02282       1.64401
                        -----------------------------------------
Total Dipole Moment    :     -0.75282       0.63694       0.35021
                        -----------------------------------------
Magnitude (a.u.)       :      1.04646
Magnitude (Debye)      :      2.65989

                             ****ORCA TERMINATED NORMALLY****
TOTAL RUN TIME: 0 days 0 hours 17 minutes 5 seconds 90 msec
