                         Program Version 3.0.3 - RELEASE   -
|  1> ! RI-MP2 RIJK def2-TZVP def2-TZVP/C def2-TZVP/JK TIGHTSCF
|  2> % maxcore 2000
|  3> % mp2 density relaxed end
|  4> *xyz 0 1
|  5>  C        0.1138907371     1.4601778588     0.0081640031
|  6>  C       -0.0004635981    -0.0478289539     0.0367542628
|  7>  O        1.0244204737    -0.7515688743     0.0688361092
|  8>  C       -1.2978093013    -0.6656691403     0.0270690207
|  9>  C       -1.3858587280    -2.0623139109     0.0549080228
| 10>  O       -0.3997243978    -2.9418348678     0.0900892301
| 11>  N       -2.6888353045    -2.4183117534     0.0404580236
| 12>  C       -3.4796203384    -1.2629846143     0.0024231640
| 13>  C       -2.6537940633    -0.1803030569    -0.0065765650
| 14>  H        1.1658654996     1.7473412813     0.0038832536
| 15>  H       -0.3821530375     1.8656360297    -0.8802143765
| 16>  H       -0.3816998230     1.8966469159     0.8822064454
| 17>  H        0.4113201444    -2.3575720859     0.0912545385
| 18>  H       -3.0197879044    -3.3680919521     0.0547145546
| 19>  H       -4.5535371569    -1.3418618810    -0.0141613009
| 20>  H       -2.9691835117     0.8511167749    -0.0336768360
| 21> *
| 22>
| 23>                          ****END OF INPUT****

CARTESIAN COORDINATES (ANGSTROEM)
---------------------------------
  C      0.113891    1.460178    0.008164
  C     -0.000464   -0.047829    0.036754
  O      1.024420   -0.751569    0.068836
  C     -1.297809   -0.665669    0.027069
  C     -1.385859   -2.062314    0.054908
  O     -0.399724   -2.941835    0.090089
  N     -2.688835   -2.418312    0.040458
  C     -3.479620   -1.262985    0.002423
  C     -2.653794   -0.180303   -0.006577
  H      1.165865    1.747341    0.003883
  H     -0.382153    1.865636   -0.880214
  H     -0.381700    1.896647    0.882206
  H      0.411320   -2.357572    0.091255
  H     -3.019788   -3.368092    0.054715
  H     -4.553537   -1.341862   -0.014161
  H     -2.969184    0.851117   -0.033677

 Total Charge           Charge          ....    0
 Multiplicity           Mult            ....    1
 Number of Electrons    NEL             ....   66
 Basis Dimension        Dim             ....  321

ORBITAL ENERGIES
----------------

  NO   OCC          E(Eh)            E(eV)
   0   2.0000     -20.594096      -560.3939
   1   2.0000     -20.533479      -558.7444
   2   2.0000     -15.621611      -425.0856
   3   2.0000     -11.351669      -308.8946
   4   2.0000     -11.335196      -308.4464
   5   2.0000     -11.266096      -306.5661
   6   2.0000     -11.236970      -305.7735
   7   2.0000     -11.232617      -305.6550
   8   2.0000     -11.215402      -305.1866
   9   2.0000      -1.435277       -39.0559
  10   2.0000      -1.369519       -37.2665
  11   2.0000      -1.301022       -35.4026
  12   2.0000      -1.082254       -29.4496
  13   2.0000      -1.012793       -27.5595
  14   2.0000      -0.982766       -26.7424
  15   2.0000      -0.861217       -23.4349
  16   2.0000      -0.813697       -22.1418
  17   2.0000      -0.779747       -21.2180
  18   2.0000      -0.728850       -19.8330
  19   2.0000      -0.658409       -17.9162
  20   2.0000      -0.651446       -17.7268
  21   2.0000      -0.639439       -17.4000
  22   2.0000      -0.619862       -16.8673
  23   2.0000      -0.610214       -16.6048
  24   2.0000      -0.594498       -16.1771
  25   2.0000      -0.594165       -16.1680
  26   2.0000      -0.549455       -14.9514
  27   2.0000      -0.530502       -14.4357
  28   2.0000      -0.526488       -14.3265
  29   2.0000      -0.506040       -13.7701
  30   2.0000      -0.422352       -11.4928
  31   2.0000      -0.376308       -10.2398
  32   2.0000      -0.298208        -8.1147
  33   0.0000       0.117172         3.1884
  34   0.0000       0.132542         3.6067
  35   0.0000       0.141481         3.8499
  36   0.0000       0.170197         4.6313
  37   0.0000       0.173545         4.7224

MULLIKEN ATOMIC CHARGES
-----------------------
   0 C :   -0.420833
   1 C :    0.283912
   2 O :   -0.423014
   3 C :   -0.061331
   4 C :    0.226737
   5 O :   -0.408290
   6 N :   -0.257998
   7 C :   -0.059433
   8 C :   -0.250092
   9 H :    0.156217
  10 H :    0.148109
  11 H :    0.148580
  12 H :    0.370695
  13 H :    0.254273
  14 H :    0.155179
  15 H :    0.137289
Sum of atomic charges:   -0.0000000

LOEWDIN ATOMIC CHARGES
----------------------
   0 C :   -0.266027
   1 C :   -0.321185
   2 O :    0.073702
   3 C :   -0.177855
   4 C :   -0.323621
   5 O :    0.101221
   6 N :    0.204105
   7 C :   -0.218922
   8 C :   -0.164820
   9 H :    0.134308
  10 H :    0.137956
  11 H :    0.138431
  12 H :    0.207279
  13 H :    0.197459
  14 H :    0.134571
  15 H :    0.143400

  Mayer bond orders larger than 0.1
B(  0-C ,  1-C ) :   0.9561 B(  0-C ,  9-H ) :   0.9404 B(  0-C , 10-H ) :   0.9195
B(  0-C , 11-H ) :   0.9183 B(  1-C ,  2-O ) :   1.7036 B(  1-C ,  3-C ) :   1.0230
B(  2-O , 12-H ) :   0.1401 B(  3-C ,  4-C ) :   1.3027 B(  3-C ,  8-C ) :   1.1074
B(  4-C ,  5-O ) :   1.2258 B(  4-C ,  6-N ) :   1.2327 B(  5-O , 12-H ) :   0.7130
B(  6-N ,  7-C ) :   1.0224 B(  6-N , 13-H ) :   0.8651 B(  7-C ,  8-C ) :   1.6038
B(  7-C , 14-H ) :   0.9154 B(  8-C , 15-H ) :   0.9298

MP2 TOTAL ENERGY:     -437.232717558 Eh
FINAL SINGLE POINT ENERGY      -437.232717558194

DIPOLE MOMENT
-------------
                                X             Y             Z
Electronic contribution:      0.38844      -5.84250       0.12458
Nuclear contribution   :     -1.63986       5.96030      -0.14724
                        -----------------------------------------
Total Dipole Moment    :     -1.25142       0.11780      -0.02266
                        -----------------------------------------
Magnitude (a.u.)       :      1.25715
Magnitude (Debye)      :      3.19543

                             ****ORCA TERMINATED NORMALLY****
TOTAL RUN TIME: 0 days 0 hours 15 minutes 11 seconds 611 msec
