                         Program Version 3.0.3 - RELEASE   -
|  1> ! RI-MP2 RIJK def2-TZVP def2-TZVP/C def2-TZVP/JK TIGHTSCF
|  2> % maxcore 2000
|  3> % mp2 density relaxed end
|  4> *xyz 0 1
|  5>  C       -0.2321253742     1.5207271091    -0.0440844280
|  6>  N        0.0391214725     0.0914589892     0.0669186066
|  7>  C        1.3761054148    -0.4264178238    -0.2815314783
|  8>  C        2.4421682581     0.4470720843    -0.6876698939
|  9>  C        3.3299346192     1.1681430735    -1.0619671428
| 10>  C        0.8778788818    -0.4112271207     1.1445134167
| 11>  C        1.5014868239     0.4591201198     2.1896104069
| 12>  C        0.8989988460     0.4869108532     3.5489164993
| 13>  N        2.1931686824    -0.1756160912     3.3254042831
| 14>  H        0.6401559249     2.1698860550     0.1017986406
| 15>  H       -0.6368295704     1.7177437908    -1.0411222420
| 16>  H       -0.9959884860     1.7852421586     0.6928932863
| 17>  H        1.3449251122    -1.3703398041    -0.8226615275
| 18>  H        4.1214544524     1.7976789019    -1.3860722886
| 19>  H        0.5289035047    -1.3662758823     1.5449176290
| 20>  H        2.0086671385     1.3469057882     1.8267625418
| 21>  H        0.9438932769     1.3932393972     4.1459547427
| 22>  H        0.0190901891    -0.1278467239     3.7237431333
| 23>  H        2.0641771733    -1.1849186749     3.2886590151
| 24> *
| 25>
| 26>                          ****END OF INPUT****

CARTESIAN COORDINATES (ANGSTROEM)
---------------------------------
  C     -0.232125    1.520727   -0.044084
  N      0.039121    0.091459    0.066919
  C      1.376105   -0.426418   -0.281531
  C      2.442168    0.447072   -0.687670
  C      3.329935    1.168143   -1.061967
  C      0.877879   -0.411227    1.144513
  C      1.501487    0.459120    2.189610
  C      0.898999    0.486911    3.548916
  N      2.193169   -0.175616    3.325404
  H      0.640156    2.169886    0.101799
  H     -0.636830    1.717744   -1.041122
  H     -0.995988    1.785242    0.692893
  H      1.344925   -1.370340   -0.822662
  H      4.121454    1.797679   -1.386072
  H      0.528904   -1.366276    1.544918
  H      2.008667    1.346906    1.826763
  H      0.943893    1.393239    4.145955
  H      0.019090   -0.127847    3.723743
  H      2.064177   -1.184919    3.288659

 Total Charge           Charge          ....    0
 Multiplicity           Mult            ....    1
 Number of Electrons    NEL             ....   66
 Basis Dimension        Dim             ....  339

ORBITAL ENERGIES
----------------

  NO   OCC          E(Eh)            E(eV)
   0   2.0000     -15.573747      -423.7832
   1   2.0000     -15.563642      -423.5082
   2   2.0000     -11.287377      -307.1451
   3   2.0000     -11.279637      -306.9345
   4   2.0000     -11.267455      -306.6030
   5   2.0000     -11.260023      -306.4008
   6   2.0000     -11.250198      -306.1334
   7   2.0000     -11.242040      -305.9114
   8   2.0000     -11.231973      -305.6375
   9   2.0000      -1.293281       -35.1920
  10   2.0000      -1.260287       -34.2941
  11   2.0000      -1.048187       -28.5226
  12   2.0000      -1.003728       -27.3128
  13   2.0000      -0.930155       -25.3108
  14   2.0000      -0.882125       -24.0038
  15   2.0000      -0.869960       -23.6728
  16   2.0000      -0.790512       -21.5109
  17   2.0000      -0.729219       -19.8431
  18   2.0000      -0.696842       -18.9620
  19   2.0000      -0.688412       -18.7326
  20   2.0000      -0.637164       -17.3381
  21   2.0000      -0.626844       -17.0573
  22   2.0000      -0.599816       -16.3218
  23   2.0000      -0.568738       -15.4761
  24   2.0000      -0.540086       -14.6965
  25   2.0000      -0.517573       -14.0839
  26   2.0000      -0.501074       -13.6349
  27   2.0000      -0.470443       -12.8014
  28   2.0000      -0.466637       -12.6978
  29   2.0000      -0.422102       -11.4860
  30   2.0000      -0.399891       -10.8816
  31   2.0000      -0.392484       -10.6800
  32   2.0000      -0.350701        -9.5431
  33   0.0000       0.137533         3.7425
  34   0.0000       0.148772         4.0483
  35   0.0000       0.155774         4.2388
  36   0.0000       0.163825         4.4579
  37   0.0000       0.167760         4.5650

MULLIKEN ATOMIC CHARGES
-----------------------
   0 C :   -0.297182
   1 N :   -0.187786
   2 C :   -0.221893
   3 C :   -0.019479
   4 C :   -0.118988
   5 C :   -0.065391
   6 C :   -0.031873
   7 C :   -0.194484
   8 N :   -0.348167
   9 H :    0.125440
  10 H :    0.145017
  11 H :    0.139472
  12 H :    0.138725
  13 H :    0.193161
  14 H :    0.119613
  15 H :    0.148846
  16 H :    0.126198
  17 H :    0.130472
  18 H :    0.218297
Sum of atomic charges:   -0.0000000

LOEWDIN ATOMIC CHARGES
----------------------
   0 C :   -0.318343
   1 N :    0.124621
   2 C :   -0.218747
   3 C :   -0.100034
   4 C :   -0.086860
   5 C :   -0.223135
   6 C :   -0.260718
   7 C :   -0.263408
   8 N :   -0.008845
   9 H :    0.112617
  10 H :    0.121913
  11 H :    0.121350
  12 H :    0.158883
  13 H :    0.128401
  14 H :    0.148125
  15 H :    0.150845
  16 H :    0.125367
  17 H :    0.123109
  18 H :    0.164860

  Mayer bond orders larger than 0.1
B(  0-C ,  1-N ) :   0.8857 B(  0-C ,  9-H ) :   0.9275 B(  0-C , 10-H ) :   0.9357
B(  0-C , 11-H ) :   0.9355 B(  1-N ,  2-C ) :   0.9146 B(  1-N ,  5-C ) :   0.9237
B(  2-C ,  3-C ) :   1.1569 B(  2-C ,  4-C ) :  -0.1222 B(  2-C ,  5-C ) :   0.9010
B(  2-C , 12-H ) :   0.9275 B(  3-C ,  4-C ) :   2.5490 B(  4-C , 13-H ) :   0.8985
B(  5-C ,  6-C ) :   0.9327 B(  5-C , 14-H ) :   0.9017 B(  6-C ,  7-C ) :   0.9407
B(  6-C ,  8-N ) :   0.9435 B(  6-C , 15-H ) :   0.8963 B(  7-C ,  8-N ) :   0.9318
B(  7-C , 16-H ) :   0.9187 B(  7-C , 17-H ) :   0.9179 B(  8-N , 18-H ) :   0.8771

MP2 TOTAL ENERGY:     -381.282041958 Eh
FINAL SINGLE POINT ENERGY      -381.282041957881

DIPOLE MOMENT
-------------
                                X             Y             Z
Electronic contribution:      2.85933      -2.29241      -2.33161
Nuclear contribution   :     -3.16564       2.39716       2.31845
                        -----------------------------------------
Total Dipole Moment    :     -0.30631       0.10476      -0.01316
                        -----------------------------------------
Magnitude (a.u.)       :      0.32400
Magnitude (Debye)      :      0.82353

                             ****ORCA TERMINATED NORMALLY****
TOTAL RUN TIME: 0 days 0 hours 19 minutes 23 seconds 923 msec
