                         Program Version 3.0.3 - RELEASE   -
|  1> ! RI-MP2 RIJK def2-TZVP def2-TZVP/C def2-TZVP/JK TIGHTSCF
|  2> % maxcore 2000
|  3> % mp2 density relaxed end
|  4> *xyz 0 1
|  5>  C       -0.0597905447     1.3520871617     0.0850363313
|  6>  O        0.1874227546    -0.0584085553     0.0854906974
|  7>  C        0.7214693633    -0.5404733845    -1.0354642314
|  8>  N        1.0201789898     0.1315329162    -2.0817959020
|  9>  C        1.5982840074    -0.8535447893    -3.0214063609
| 10>  C        1.2382023135    -2.2564624336    -2.4220972531
| 11>  N        1.0033515757    -1.8997273149    -1.0198275470
| 12>  C        1.1289455661    -0.6871878824    -4.3925446856
| 13>  C        0.7493734429    -0.5838458755    -5.5278938220
| 14>  H        0.8737900455     1.9036000907    -0.0513394665
| 15>  H       -0.7470734129     1.6208574144    -0.7212191245
| 16>  H       -0.4999830304     1.5745227031     1.0574142301
| 17>  H        2.6916418209    -0.7319243074    -3.0160717663
| 18>  H        0.3379939404    -2.6601511158    -2.9021781433
| 19>  H        2.0504500772    -2.9786550265    -2.5293625482
| 20>  H        0.3788054272    -2.4784493052    -0.4756292478
| 21>  H        0.4143155935    -0.4757782657    -6.5296246702
| 22> *
| 23>
| 24>                          ****END OF INPUT****

CARTESIAN COORDINATES (ANGSTROEM)
---------------------------------
  C     -0.059791    1.352087    0.085036
  O      0.187423   -0.058409    0.085491
  C      0.721469   -0.540473   -1.035464
  N      1.020179    0.131533   -2.081796
  C      1.598284   -0.853545   -3.021406
  C      1.238202   -2.256462   -2.422097
  N      1.003352   -1.899727   -1.019828
  C      1.128946   -0.687188   -4.392545
  C      0.749373   -0.583846   -5.527894
  H      0.873790    1.903600   -0.051339
  H     -0.747073    1.620857   -0.721219
  H     -0.499983    1.574523    1.057414
  H      2.691642   -0.731924   -3.016072
  H      0.337994   -2.660151   -2.902178
  H      2.050450   -2.978655   -2.529363
  H      0.378805   -2.478449   -0.475629
  H      0.414316   -0.475778   -6.529625

 Total Charge           Charge          ....    0
 Multiplicity           Mult            ....    1
 Number of Electrons    NEL             ....   66
 Basis Dimension        Dim             ....  327

ORBITAL ENERGIES
----------------

  NO   OCC          E(Eh)            E(eV)
   0   2.0000     -20.603987      -560.6630
   1   2.0000     -15.581068      -423.9824
   2   2.0000     -15.529001      -422.5656
   3   2.0000     -11.363609      -309.2195
   4   2.0000     -11.286919      -307.1327
   5   2.0000     -11.283682      -307.0446
   6   2.0000     -11.273778      -306.7751
   7   2.0000     -11.229471      -305.5694
   8   2.0000     -11.219807      -305.3065
   9   2.0000      -1.446891       -39.3719
  10   2.0000      -1.293071       -35.1863
  11   2.0000      -1.164878       -31.6979
  12   2.0000      -1.056271       -28.7426
  13   2.0000      -0.995360       -27.0851
  14   2.0000      -0.949543       -25.8384
  15   2.0000      -0.867704       -23.6114
  16   2.0000      -0.779178       -21.2025
  17   2.0000      -0.754292       -20.5253
  18   2.0000      -0.714009       -19.4292
  19   2.0000      -0.690388       -18.7864
  20   2.0000      -0.659246       -17.9390
  21   2.0000      -0.649252       -17.6670
  22   2.0000      -0.623728       -16.9725
  23   2.0000      -0.587828       -15.9956
  24   2.0000      -0.569031       -15.4841
  25   2.0000      -0.550042       -14.9674
  26   2.0000      -0.530788       -14.4435
  27   2.0000      -0.525503       -14.2997
  28   2.0000      -0.449669       -12.2361
  29   2.0000      -0.433469       -11.7953
  30   2.0000      -0.388220       -10.5640
  31   2.0000      -0.384705       -10.4683
  32   2.0000      -0.358433        -9.7535
  33   0.0000       0.133788         3.6406
  34   0.0000       0.158272         4.3068
  35   0.0000       0.162771         4.4292
  36   0.0000       0.171016         4.6536
  37   0.0000       0.176223         4.7953

MULLIKEN ATOMIC CHARGES
-----------------------
   0 C :   -0.199109
   1 O :   -0.278958
   2 C :    0.324775
   3 N :   -0.347996
   4 C :   -0.098047
   5 C :   -0.160393
   6 N :   -0.330687
   7 C :   -0.014133
   8 C :   -0.123510
   9 H :    0.138318
  10 H :    0.140324
  11 H :    0.142748
  12 H :    0.116386
  13 H :    0.132006
  14 H :    0.128493
  15 H :    0.239230
  16 H :    0.190552
Sum of atomic charges:    0.0000000

LOEWDIN ATOMIC CHARGES
----------------------
   0 C :   -0.303718
   1 O :    0.237121
   2 C :   -0.483882
   3 N :    0.075560
   4 C :   -0.257699
   5 C :   -0.229448
   6 N :    0.067731
   7 C :   -0.085856
   8 C :   -0.093712
   9 H :    0.114641
  10 H :    0.114723
  11 H :    0.113368
  12 H :    0.162644
  13 H :    0.130259
  14 H :    0.129566
  15 H :    0.181967
  16 H :    0.126734

  Mayer bond orders larger than 0.1
B(  0-C ,  1-O ) :   0.8393 B(  0-C ,  9-H ) :   0.9375 B(  0-C , 10-H ) :   0.9370
B(  0-C , 11-H ) :   0.9321 B(  1-O ,  2-C ) :   1.1346 B(  2-C ,  3-N ) :   1.6969
B(  2-C ,  6-N ) :   1.1051 B(  3-N ,  4-C ) :   0.9992 B(  4-C ,  5-C ) :   0.9170
B(  4-C ,  7-C ) :   1.1339 B(  4-C ,  8-C ) :  -0.1109 B(  4-C , 12-H ) :   0.9109
B(  5-C ,  6-N ) :   0.9251 B(  5-C , 13-H ) :   0.9412 B(  5-C , 14-H ) :   0.9158
B(  6-N , 15-H ) :   0.8661 B(  7-C ,  8-C ) :   2.5881 B(  8-C , 16-H ) :   0.8969

MP2 TOTAL ENERGY:     -417.268521152 Eh
FINAL SINGLE POINT ENERGY      -417.268521151893

DIPOLE MOMENT
-------------
                                X             Y             Z
Electronic contribution:      0.64862      -0.95053      -0.84659
Nuclear contribution   :     -0.98149       0.44319       1.12161
                        -----------------------------------------
Total Dipole Moment    :     -0.33287      -0.50734       0.27501
                        -----------------------------------------
Magnitude (a.u.)       :      0.66621
Magnitude (Debye)      :      1.69337

                             ****ORCA TERMINATED NORMALLY****
TOTAL RUN TIME: 0 days 0 hours 15 minutes 23 seconds 914 msec
