                         Program Version 3.0.3 - RELEASE   -
|  1> ! RI-MP2 RIJK def2-TZVP def2-TZVP/C def2-TZVP/JK TIGHTSCF
|  2> % maxcore 2000
|  3> % mp2 density relaxed end
|  4> *xyz 0 1
|  5>  C       -0.0204408350     1.3929558779     0.0197941734
|  6>  O        0.0216205315    -0.0325963164    -0.0345876531
|  7>  C        0.6237046929    -0.5923863510    -1.0882944973
|  8>  N        1.1495217157     0.1972627572    -2.0261559029
|  9>  C        1.7351196369    -0.4291083925    -3.0501745154
| 10>  C        1.7994416928    -1.8106519560    -3.1448290129
| 11>  C        1.2113939454    -2.5198780302    -2.0984194978
| 12>  N        0.6207803752    -1.9300744919    -1.0650739039
| 13>  H        0.9872202977     1.8172720520     0.0368361606
| 14>  H       -0.5566544712     1.8051591957    -0.8394324136
| 15>  H       -0.5473104202     1.6302692563     0.9448110436
| 16>  H        2.1657769574     0.2099066442    -3.8181488077
| 17>  H        2.2764396377    -2.3082757143    -3.9790827878
| 18>  H        1.2148592431    -3.6080367011    -2.0897635553
| 19> *
| 20>
| 21>                          ****END OF INPUT****

CARTESIAN COORDINATES (ANGSTROEM)
---------------------------------
  C     -0.020441    1.392956    0.019794
  O      0.021621   -0.032596   -0.034588
  C      0.623705   -0.592386   -1.088294
  N      1.149522    0.197263   -2.026156
  C      1.735120   -0.429108   -3.050175
  C      1.799442   -1.810652   -3.144829
  C      1.211394   -2.519878   -2.098419
  N      0.620780   -1.930074   -1.065074
  H      0.987220    1.817272    0.036836
  H     -0.556654    1.805159   -0.839432
  H     -0.547310    1.630269    0.944811
  H      2.165777    0.209907   -3.818149
  H      2.276440   -2.308276   -3.979083
  H      1.214859   -3.608037   -2.089764

 Total Charge           Charge          ....    0
 Multiplicity           Mult            ....    1
 Number of Electrons    NEL             ....   58
 Basis Dimension        Dim             ....  284

ORBITAL ENERGIES
----------------

  NO   OCC          E(Eh)            E(eV)
   0   2.0000     -20.592448      -560.3490
   1   2.0000     -15.567334      -423.6087
   2   2.0000     -15.564295      -423.5260
   3   2.0000     -11.371888      -309.4448
   4   2.0000     -11.301999      -307.5430
   5   2.0000     -11.300578      -307.5044
   6   2.0000     -11.279408      -306.9283
   7   2.0000     -11.237902      -305.7989
   8   2.0000      -1.439525       -39.1715
   9   2.0000      -1.296923       -35.2911
  10   2.0000      -1.201138       -32.6846
  11   2.0000      -1.066878       -29.0312
  12   2.0000      -0.965297       -26.2671
  13   2.0000      -0.900418       -24.5016
  14   2.0000      -0.856395       -23.3037
  15   2.0000      -0.744002       -20.2453
  16   2.0000      -0.720471       -19.6050
  17   2.0000      -0.669594       -18.2206
  18   2.0000      -0.667023       -18.1506
  19   2.0000      -0.617749       -16.8098
  20   2.0000      -0.609531       -16.5862
  21   2.0000      -0.577585       -15.7169
  22   2.0000      -0.573305       -15.6004
  23   2.0000      -0.518954       -14.1215
  24   2.0000      -0.491225       -13.3669
  25   2.0000      -0.487668       -13.2701
  26   2.0000      -0.429055       -11.6752
  27   2.0000      -0.412931       -11.2364
  28   2.0000      -0.353060        -9.6072
  29   0.0000       0.092310         2.5119
  30   0.0000       0.133163         3.6235
  31   0.0000       0.151034         4.1098
  32   0.0000       0.161883         4.4050
  33   0.0000       0.179365         4.8808

MULLIKEN ATOMIC CHARGES
-----------------------
   0 C :   -0.204199
   1 O :   -0.234493
   2 C :    0.350405
   3 N :   -0.292354
   4 C :   -0.051285
   5 C :   -0.124368
   6 C :   -0.036802
   7 N :   -0.233500
   8 H :    0.131703
   9 H :    0.131711
  10 H :    0.145880
  11 H :    0.135064
  12 H :    0.143690
  13 H :    0.138548
Sum of atomic charges:   -0.0000000

LOEWDIN ATOMIC CHARGES
----------------------
   0 C :   -0.317669
   1 O :    0.250266
   2 C :   -0.425286
   3 N :    0.133812
   4 C :   -0.199298
   5 C :   -0.168835
   6 C :   -0.197551
   7 N :    0.153920
   8 H :    0.111070
   9 H :    0.111072
  10 H :    0.114907
  11 H :    0.141131
  12 H :    0.150397
  13 H :    0.142066

  Mayer bond orders larger than 0.1
B(  0-C ,  1-O ) :   0.8510 B(  0-C ,  8-H ) :   0.9361 B(  0-C ,  9-H ) :   0.9361
B(  0-C , 10-H ) :   0.9333 B(  1-O ,  2-C ) :   1.1574 B(  2-C ,  3-N ) :   1.3204
B(  2-C ,  7-N ) :   1.3763 B(  3-N ,  4-C ) :   1.3986 B(  4-C ,  5-C ) :   1.3548
B(  4-C , 11-H ) :   0.9438 B(  5-C ,  6-C ) :   1.2978 B(  5-C , 12-H ) :   0.9134
B(  6-C ,  7-N ) :   1.4294 B(  6-C , 13-H ) :   0.9440

MP2 TOTAL ENERGY:     -378.127747556 Eh
FINAL SINGLE POINT ENERGY      -378.127747556156

DIPOLE MOMENT
-------------
                                X             Y             Z
Electronic contribution:      0.08266      -3.06678      -0.10286
Nuclear contribution   :      0.33048       3.30301      -0.62893
                        -----------------------------------------
Total Dipole Moment    :      0.41313       0.23623      -0.73179
                        -----------------------------------------
Magnitude (a.u.)       :      0.87293
Magnitude (Debye)      :      2.21881

                             ****ORCA TERMINATED NORMALLY****
TOTAL RUN TIME: 0 days 0 hours 10 minutes 3 seconds 904 msec
