                         Program Version 3.0.3 - RELEASE   -
|  1> ! RI-MP2 RIJK def2-TZVP def2-TZVP/C def2-TZVP/JK TIGHTSCF
|  2> % maxcore 2000
|  3> % mp2 density relaxed end
|  4> *xyz 0 1
|  5>  C       -1.1142148098     2.5766918093     0.7926185784
|  6>  C       -0.8005021162     1.1577565778     0.3084252322
|  7>  C       -2.0013741079     0.2132000405     0.4349001095
|  8>  C       -1.7715397626    -1.2100722578    -0.1115718104
|  9>  C       -0.7256768471    -2.0021850990     0.6879929116
| 10>  C       -3.0864200310    -1.9636925395    -0.1137338415
| 11>  O       -4.0911782466    -1.5487356960    -1.0466731229
| 12>  C       -3.5562463394    -2.8728061862    -1.1742156273
| 13>  C       -2.8039100817    -3.2000065817    -2.4390451613
| 14>  H       -0.2466099742     3.2359354920     0.6890886749
| 15>  H       -1.9384063950     3.0163087630     0.2201327856
| 16>  H       -1.4093975448     2.5781702547     1.8478799327
| 17>  H       -0.4783360167     1.1927545621    -0.7410385145
| 18>  H        0.0517702572     0.7646563399     0.8757068756
| 19>  H       -2.3053423365     0.1483927699     1.4899755001
| 20>  H       -2.8532869676     0.6466443070    -0.1033254408
| 21>  H       -1.4257618212    -1.1164469781    -1.1477482302
| 22>  H       -0.5896892830    -3.0069272243     0.2748464759
| 23>  H        0.2477113797    -1.5049298146     0.6791971310
| 24>  H       -1.0334902020    -2.1115153718     1.7348874364
| 25>  H       -3.4817138401    -2.1459455599     0.8907837238
| 26>  H       -4.2594558478    -3.6504788010    -0.8656407952
| 27>  H       -2.1034818273    -2.4096675128    -2.7152496865
| 28>  H       -2.2478025748    -4.1365807640    -2.3207804377
| 29>  H       -3.5061062135    -3.3327254496    -3.2689439696
| 30> *
| 31>
| 32>                          ****END OF INPUT****

CARTESIAN COORDINATES (ANGSTROEM)
---------------------------------
  C     -1.114215    2.576692    0.792619
  C     -0.800502    1.157757    0.308425
  C     -2.001374    0.213200    0.434900
  C     -1.771540   -1.210072   -0.111572
  C     -0.725677   -2.002185    0.687993
  C     -3.086420   -1.963693   -0.113734
  O     -4.091178   -1.548736   -1.046673
  C     -3.556246   -2.872806   -1.174216
  C     -2.803910   -3.200007   -2.439045
  H     -0.246610    3.235935    0.689089
  H     -1.938406    3.016309    0.220133
  H     -1.409398    2.578170    1.847880
  H     -0.478336    1.192755   -0.741039
  H      0.051770    0.764656    0.875707
  H     -2.305342    0.148393    1.489976
  H     -2.853287    0.646644   -0.103325
  H     -1.425762   -1.116447   -1.147748
  H     -0.589689   -3.006927    0.274846
  H      0.247711   -1.504930    0.679197
  H     -1.033490   -2.111515    1.734887
  H     -3.481714   -2.145946    0.890784
  H     -4.259456   -3.650479   -0.865641
  H     -2.103482   -2.409668   -2.715250
  H     -2.247803   -4.136581   -2.320780
  H     -3.506106   -3.332725   -3.268944

 Total Charge           Charge          ....    0
 Multiplicity           Mult            ....    1
 Number of Electrons    NEL             ....   72
 Basis Dimension        Dim             ....  375

ORBITAL ENERGIES
----------------

  NO   OCC          E(Eh)            E(eV)
   0   2.0000     -20.556177      -559.3620
   1   2.0000     -11.282266      -307.0061
   2   2.0000     -11.277107      -306.8657
   3   2.0000     -11.230403      -305.5948
   4   2.0000     -11.223627      -305.4104
   5   2.0000     -11.218214      -305.2631
   6   2.0000     -11.217616      -305.2468
   7   2.0000     -11.214838      -305.1712
   8   2.0000     -11.210351      -305.0492
   9   2.0000      -1.401003       -38.1232
  10   2.0000      -1.092817       -29.7371
  11   2.0000      -1.027276       -27.9536
  12   2.0000      -1.006749       -27.3950
  13   2.0000      -0.924064       -25.1451
  14   2.0000      -0.901335       -24.5266
  15   2.0000      -0.841273       -22.8922
  16   2.0000      -0.790681       -21.5155
  17   2.0000      -0.761320       -20.7166
  18   2.0000      -0.688750       -18.7418
  19   2.0000      -0.638884       -17.3849
  20   2.0000      -0.631659       -17.1883
  21   2.0000      -0.598438       -16.2843
  22   2.0000      -0.591235       -16.0883
  23   2.0000      -0.569180       -15.4882
  24   2.0000      -0.561075       -15.2676
  25   2.0000      -0.557401       -15.1676
  26   2.0000      -0.538375       -14.6499
  27   2.0000      -0.521432       -14.1889
  28   2.0000      -0.509637       -13.8679
  29   2.0000      -0.495640       -13.4871
  30   2.0000      -0.481176       -13.0935
  31   2.0000      -0.474039       -12.8993
  32   2.0000      -0.461571       -12.5600
  33   2.0000      -0.459467       -12.5027
  34   2.0000      -0.430377       -11.7112
  35   2.0000      -0.409851       -11.1526
  36   0.0000       0.133573         3.6347
  37   0.0000       0.148317         4.0359
  38   0.0000       0.155046         4.2190
  39   0.0000       0.165833         4.5125
  40   0.0000       0.184108         5.0098

MULLIKEN ATOMIC CHARGES
-----------------------
   0 C :   -0.385771
   1 C :   -0.199094
   2 C :   -0.254937
   3 C :   -0.001277
   4 C :   -0.449432
   5 C :    0.044580
   6 O :   -0.346408
   7 C :    0.050487
   8 C :   -0.387825
   9 H :    0.132158
  10 H :    0.125347
  11 H :    0.121315
  12 H :    0.106527
  13 H :    0.105386
  14 H :    0.103281
  15 H :    0.134361
  16 H :    0.076034
  17 H :    0.137235
  18 H :    0.140646
  19 H :    0.126476
  20 H :    0.113764
  21 H :    0.103134
  22 H :    0.135146
  23 H :    0.127120
  24 H :    0.141747
Sum of atomic charges:    0.0000000

LOEWDIN ATOMIC CHARGES
----------------------
   0 C :   -0.320809
   1 C :   -0.295350
   2 C :   -0.243745
   3 C :   -0.270831
   4 C :   -0.286568
   5 C :   -0.253621
   6 O :    0.156462
   7 C :   -0.291442
   8 C :   -0.296789
   9 H :    0.119712
  10 H :    0.121005
  11 H :    0.120115
  12 H :    0.134928
  13 H :    0.132304
  14 H :    0.138766
  15 H :    0.146991
  16 H :    0.154153
  17 H :    0.124796
  18 H :    0.123436
  19 H :    0.125111
  20 H :    0.140557
  21 H :    0.135238
  22 H :    0.125770
  23 H :    0.129485
  24 H :    0.130327

  Mayer bond orders larger than 0.1
B(  0-C ,  1-C ) :   0.9249 B(  0-C ,  9-H ) :   0.9432 B(  0-C , 10-H ) :   0.9409
B(  0-C , 11-H ) :   0.9390 B(  1-C ,  2-C ) :   0.9306 B(  1-C , 12-H ) :   0.9308
B(  1-C , 13-H ) :   0.9358 B(  2-C ,  3-C ) :   0.9322 B(  2-C , 14-H ) :   0.9216
B(  2-C , 15-H ) :   0.9291 B(  3-C ,  4-C ) :   0.8997 B(  3-C ,  5-C ) :   0.9102
B(  3-C , 16-H ) :   0.9279 B(  4-C , 17-H ) :   0.9393 B(  4-C , 18-H ) :   0.9387
B(  4-C , 19-H ) :   0.9320 B(  5-C ,  6-O ) :   0.8544 B(  5-C ,  7-C ) :   0.9908
B(  5-C , 20-H ) :   0.9025 B(  6-O ,  7-C ) :   0.9155 B(  7-C ,  8-C ) :   0.8839
B(  7-C , 21-H ) :   0.9189 B(  8-C , 22-H ) :   0.9434 B(  8-C , 23-H ) :   0.9256
B(  8-C , 24-H ) :   0.9346

MP2 TOTAL ENERGY:     -388.807164968 Eh
FINAL SINGLE POINT ENERGY      -388.807164968115

DIPOLE MOMENT
-------------
                                X             Y             Z
Electronic contribution:     -6.76601      -3.90670      -2.07272
Nuclear contribution   :      7.31778       3.45466       2.20218
                        -----------------------------------------
Total Dipole Moment    :      0.55176      -0.45203       0.12946
                        -----------------------------------------
Magnitude (a.u.)       :      0.72494
Magnitude (Debye)      :      1.84265

                             ****ORCA TERMINATED NORMALLY****
TOTAL RUN TIME: 0 days 0 hours 19 minutes 28 seconds 531 msec
