                         Program Version 3.0.3 - RELEASE   -
|  1> ! RI-MP2 RIJK def2-TZVP def2-TZVP/C def2-TZVP/JK TIGHTSCF
|  2> % maxcore 2000
|  3> % mp2 density relaxed end
|  4> *xyz 0 1
|  5>  C        0.0037336608     1.5627828447     0.0333917553
|  6>  C        0.1206337641     0.0523778673     0.0711187153
|  7>  C        1.3654586974    -0.7544210123    -0.2205932822
|  8>  C        1.4194630523    -1.8166263353    -1.2829036390
|  9>  C        2.6050416654    -0.0417421808     0.3415732298
| 10>  C        1.9593579541    -0.0555421618     1.7623035928
| 11>  C        0.7262638289    -0.7686560972     1.1867058070
| 12>  C       -0.0298719673    -1.8489820535     1.9084142737
| 13>  H        0.8863011490     2.0635167980     0.4394607803
| 14>  H       -0.1301486764     1.9187079516    -0.9945208826
| 15>  H       -0.8611916989     1.9023091024     0.6146248252
| 16>  H       -0.7627765745    -0.4410596857    -0.3349938513
| 17>  H        1.6410353989    -1.3857648627    -2.2677713173
| 18>  H        2.1967793281    -2.5601323022    -1.0689726030
| 19>  H        0.4649012783    -2.3471566446    -1.3675457076
| 20>  H        3.5000088811    -0.6679763357     0.2918066250
| 21>  H        2.8504648007     0.9349859528    -0.0894638062
| 22>  H        2.5151943548    -0.6888639349     2.4591150354
| 23>  H        1.7886158983     0.9122728141     2.2462901344
| 24>  H       -0.6291498256    -1.4363983484     2.7302027263
| 25>  H       -0.7174654293    -2.3738190001     1.2364184388
| 26>  H        0.6484386100    -2.5944908557     2.3407373899
| 27> *
| 28>
| 29>                          ****END OF INPUT****

CARTESIAN COORDINATES (ANGSTROEM)
---------------------------------
  C      0.003734    1.562783    0.033392
  C      0.120634    0.052378    0.071119
  C      1.365459   -0.754421   -0.220593
  C      1.419463   -1.816626   -1.282904
  C      2.605042   -0.041742    0.341573
  C      1.959358   -0.055542    1.762304
  C      0.726264   -0.768656    1.186706
  C     -0.029872   -1.848982    1.908414
  H      0.886301    2.063517    0.439461
  H     -0.130149    1.918708   -0.994521
  H     -0.861192    1.902309    0.614625
  H     -0.762777   -0.441060   -0.334994
  H      1.641035   -1.385765   -2.267771
  H      2.196779   -2.560132   -1.068973
  H      0.464901   -2.347157   -1.367546
  H      3.500009   -0.667976    0.291807
  H      2.850465    0.934986   -0.089464
  H      2.515194   -0.688864    2.459115
  H      1.788616    0.912273    2.246290
  H     -0.629150   -1.436398    2.730203
  H     -0.717465   -2.373819    1.236418
  H      0.648439   -2.594491    2.340737

 Total Charge           Charge          ....    0
 Multiplicity           Mult            ....    1
 Number of Electrons    NEL             ....   62
 Basis Dimension        Dim             ....  332

ORBITAL ENERGIES
----------------

  NO   OCC          E(Eh)            E(eV)
   0   2.0000     -11.225339      -305.4570
   1   2.0000     -11.224720      -305.4402
   2   2.0000     -11.220870      -305.3354
   3   2.0000     -11.216184      -305.2079
   4   2.0000     -11.215656      -305.1935
   5   2.0000     -11.213088      -305.1236
   6   2.0000     -11.213083      -305.1235
   7   2.0000     -11.209433      -305.0242
   8   2.0000      -1.186904       -32.2973
   9   2.0000      -1.000826       -27.2339
  10   2.0000      -0.987410       -26.8688
  11   2.0000      -0.972518       -26.4636
  12   2.0000      -0.904110       -24.6021
  13   2.0000      -0.846897       -23.0452
  14   2.0000      -0.741087       -20.1660
  15   2.0000      -0.676896       -18.4193
  16   2.0000      -0.650487       -17.7006
  17   2.0000      -0.611137       -16.6299
  18   2.0000      -0.593485       -16.1496
  19   2.0000      -0.575588       -15.6625
  20   2.0000      -0.552884       -15.0447
  21   2.0000      -0.548156       -14.9161
  22   2.0000      -0.546523       -14.8717
  23   2.0000      -0.543152       -14.7799
  24   2.0000      -0.520666       -14.1680
  25   2.0000      -0.496289       -13.5047
  26   2.0000      -0.494639       -13.4598
  27   2.0000      -0.447820       -12.1858
  28   2.0000      -0.440366       -11.9830
  29   2.0000      -0.375857       -10.2276
  30   2.0000      -0.347438        -9.4543
  31   0.0000       0.131533         3.5792
  32   0.0000       0.158670         4.3176
  33   0.0000       0.163390         4.4461
  34   0.0000       0.175449         4.7742
  35   0.0000       0.186457         5.0738

MULLIKEN ATOMIC CHARGES
-----------------------
   0 C :   -0.405565
   1 C :   -0.141836
   2 C :    0.072962
   3 C :   -0.405934
   4 C :   -0.253747
   5 C :   -0.253716
   6 C :    0.072918
   7 C :   -0.405932
   8 H :    0.130845
   9 H :    0.130909
  10 H :    0.130904
  11 H :    0.106795
  12 H :    0.134242
  13 H :    0.125466
  14 H :    0.125407
  15 H :    0.108229
  16 H :    0.117334
  17 H :    0.108189
  18 H :    0.117405
  19 H :    0.134240
  20 H :    0.125414
  21 H :    0.125470
Sum of atomic charges:    0.0000000

LOEWDIN ATOMIC CHARGES
----------------------
   0 C :   -0.292448
   1 C :   -0.182099
   2 C :   -0.197605
   3 C :   -0.278040
   4 C :   -0.194188
   5 C :   -0.194198
   6 C :   -0.197657
   7 C :   -0.278030
   8 H :    0.125972
   9 H :    0.125057
  10 H :    0.125056
  11 H :    0.157263
  12 H :    0.128305
  13 H :    0.125470
  14 H :    0.127815
  15 H :    0.134163
  16 H :    0.124700
  17 H :    0.134152
  18 H :    0.124715
  19 H :    0.128304
  20 H :    0.127818
  21 H :    0.125472

  Mayer bond orders larger than 0.1
B(  0-C ,  1-C ) :   0.9021 B(  0-C ,  8-H ) :   0.9392 B(  0-C ,  9-H ) :   0.9387
B(  0-C , 10-H ) :   0.9387 B(  1-C ,  2-C ) :   0.8769 B(  1-C ,  6-C ) :   0.8770
B(  1-C , 11-H ) :   0.9390 B(  2-C ,  3-C ) :   0.8745 B(  2-C ,  4-C ) :   0.9349
B(  2-C ,  6-C ) :   0.7963 B(  3-C , 12-H ) :   0.9403 B(  3-C , 13-H ) :   0.9400
B(  3-C , 14-H ) :   0.9381 B(  4-C ,  5-C ) :   0.9874 B(  4-C , 15-H ) :   0.9105
B(  4-C , 16-H ) :   0.9270 B(  5-C ,  6-C ) :   0.9347 B(  5-C , 17-H ) :   0.9105
B(  5-C , 18-H ) :   0.9269 B(  6-C ,  7-C ) :   0.8745 B(  7-C , 19-H ) :   0.9403
B(  7-C , 20-H ) :   0.9381 B(  7-C , 21-H ) :   0.9400

MP2 TOTAL ENERGY:     -312.476878308 Eh
FINAL SINGLE POINT ENERGY      -312.476878308387

DIPOLE MOMENT
-------------
                                X             Y             Z
Electronic contribution:      0.71170       0.18240       0.32476
Nuclear contribution   :     -0.74166      -0.27809      -0.33918
                        -----------------------------------------
Total Dipole Moment    :     -0.02995      -0.09570      -0.01442
                        -----------------------------------------
Magnitude (a.u.)       :      0.10131
Magnitude (Debye)      :      0.25750

                             ****ORCA TERMINATED NORMALLY****
TOTAL RUN TIME: 0 days 0 hours 16 minutes 1 seconds 286 msec
