                         Program Version 3.0.3 - RELEASE   -
|  1> ! RI-MP2 RIJK def2-TZVP def2-TZVP/C def2-TZVP/JK TIGHTSCF
|  2> % maxcore 2000
|  3> % mp2 density relaxed end
|  4> *xyz 0 1
|  5>  O        0.0029715539     0.0069886804    -0.1392185270
|  6>  C        0.0081683527     1.1995824796     0.0119631177
|  7>  N       -1.2264482218     1.9139273462     0.1524708188
|  8>  C       -1.2321463452     3.1955491139     0.0728070466
|  9>  N       -0.0677722593     3.8814234375    -0.1227799086
| 10>  C        0.5680726463     5.2136306592    -0.0326026812
| 11>  C        1.9460294271     4.4561361428     0.0141211874
| 12>  C        1.1134706499     3.1835119211    -0.0185324107
| 13>  N        1.2458920523     1.9236411040     0.0831047470
| 14>  H       -2.1554079225     3.7661479154     0.1647059550
| 15>  H        0.3918576839     5.8399743803    -0.9092180435
| 16>  H        0.3097634078     5.7580615573     0.8785403046
| 17>  H        2.5872340694     4.6084855811    -0.8553063338
| 18>  H        2.5265942553     4.5992067910     0.9264265576
| 19> *
| 20>
| 21>                          ****END OF INPUT****

CARTESIAN COORDINATES (ANGSTROEM)
---------------------------------
  O      0.002972    0.006989   -0.139219
  C      0.008168    1.199582    0.011963
  N     -1.226448    1.913927    0.152471
  C     -1.232146    3.195549    0.072807
  N     -0.067772    3.881423   -0.122780
  C      0.568073    5.213631   -0.032603
  C      1.946029    4.456136    0.014121
  C      1.113471    3.183512   -0.018532
  N      1.245892    1.923641    0.083105
  H     -2.155408    3.766148    0.164706
  H      0.391858    5.839974   -0.909218
  H      0.309763    5.758062    0.878540
  H      2.587234    4.608486   -0.855306
  H      2.526594    4.599207    0.926427

 Total Charge           Charge          ....    0
 Multiplicity           Mult            ....    1
 Number of Electrons    NEL             ....   64
 Basis Dimension        Dim             ....  309

ORBITAL ENERGIES
----------------

  NO   OCC          E(Eh)            E(eV)
   0   2.0000     -20.513921      -558.2122
   1   2.0000     -15.641543      -425.6280
   2   2.0000     -15.570701      -423.7003
   3   2.0000     -15.570112      -423.6843
   4   2.0000     -11.368050      -309.3404
   5   2.0000     -11.360743      -309.1415
   6   2.0000     -11.357166      -309.0442
   7   2.0000     -11.330619      -308.3218
   8   2.0000     -11.291308      -307.2521
   9   2.0000      -1.403881       -38.2015
  10   2.0000      -1.367047       -37.1993
  11   2.0000      -1.236369       -33.6433
  12   2.0000      -1.222710       -33.2716
  13   2.0000      -1.070631       -29.1333
  14   2.0000      -0.948331       -25.8054
  15   2.0000      -0.916226       -24.9318
  16   2.0000      -0.838066       -22.8049
  17   2.0000      -0.769806       -20.9475
  18   2.0000      -0.731261       -19.8986
  19   2.0000      -0.721978       -19.6460
  20   2.0000      -0.659320       -17.9410
  21   2.0000      -0.621567       -16.9137
  22   2.0000      -0.608413       -16.5558
  23   2.0000      -0.591131       -16.0855
  24   2.0000      -0.588612       -16.0170
  25   2.0000      -0.557688       -15.1755
  26   2.0000      -0.527706       -14.3596
  27   2.0000      -0.494315       -13.4510
  28   2.0000      -0.464270       -12.6334
  29   2.0000      -0.447908       -12.1882
  30   2.0000      -0.403418       -10.9776
  31   2.0000      -0.375880       -10.2282
  32   0.0000       0.093793         2.5522
  33   0.0000       0.108728         2.9586
  34   0.0000       0.125178         3.4063
  35   0.0000       0.133429         3.6308
  36   0.0000       0.154286         4.1983

MULLIKEN ATOMIC CHARGES
-----------------------
   0 O :   -0.265741
   1 C :    0.231005
   2 N :   -0.231878
   3 C :    0.062025
   4 N :   -0.093358
   5 C :   -0.157294
   6 C :   -0.193331
   7 C :    0.095662
   8 N :   -0.209124
   9 H :    0.156146
  10 H :    0.146341
  11 H :    0.145397
  12 H :    0.157854
  13 H :    0.156295
Sum of atomic charges:   -0.0000000

LOEWDIN ATOMIC CHARGES
----------------------
   0 O :    0.136983
   1 C :   -0.476207
   2 N :    0.125844
   3 C :   -0.255838
   4 N :    0.244689
   5 C :   -0.182091
   6 C :   -0.172361
   7 C :   -0.270588
   8 N :    0.145556
   9 H :    0.141146
  10 H :    0.132215
  11 H :    0.133706
  12 H :    0.148475
  13 H :    0.148471

  Mayer bond orders larger than 0.1
B(  0-O ,  1-C ) :   2.0416 B(  1-C ,  2-N ) :   1.0409 B(  1-C ,  8-N ) :   1.0186
B(  2-N ,  3-C ) :   1.6964 B(  3-C ,  4-N ) :   1.0806 B(  3-C ,  9-H ) :   0.9190
B(  4-N ,  5-C ) :   0.8639 B(  4-N ,  7-C ) :   1.0575 B(  5-C ,  6-C ) :   0.9481
B(  5-C , 10-H ) :   0.9173 B(  5-C , 11-H ) :   0.9165 B(  6-C ,  7-C ) :   0.9280
B(  6-C , 12-H ) :   0.9105 B(  6-C , 13-H ) :   0.9144 B(  7-C ,  8-N ) :   1.7664

MP2 TOTAL ENERGY:     -432.164703552 Eh
FINAL SINGLE POINT ENERGY      -432.164703552467

DIPOLE MOMENT
-------------
                                X             Y             Z
Electronic contribution:     -1.97042      -6.58785      -0.16102
Nuclear contribution   :      2.20886      10.04779       0.18593
                        -----------------------------------------
Total Dipole Moment    :      0.23844       3.45994       0.02491
                        -----------------------------------------
Magnitude (a.u.)       :      3.46824
Magnitude (Debye)      :      8.81556

                             ****ORCA TERMINATED NORMALLY****
TOTAL RUN TIME: 0 days 0 hours 14 minutes 18 seconds 283 msec
