                         Program Version 3.0.3 - RELEASE   -
|  1> ! RI-MP2 RIJK def2-TZVP def2-TZVP/C def2-TZVP/JK TIGHTSCF
|  2> % maxcore 2000
|  3> % mp2 density relaxed end
|  4> *xyz 0 1
|  5>  C       -0.2608018237     0.6315156095     0.5027748134
|  6>  O        0.7269457122    -0.3155141403     0.1304642419
|  7>  C        0.8855640308    -0.4675841729    -1.2780475280
|  8>  C        2.3493077122    -0.7888454669    -1.6290651965
|  9>  N        2.5123178450    -2.2533492085    -1.7544975967
| 10>  C        2.0064346480    -2.9867679065    -0.5839840064
| 11>  C        1.1548033607    -2.8277756851    -1.7937945543
| 12>  C        0.1021077806    -1.7256699216    -1.7796557074
| 13>  O       -1.0531028026    -2.0094920151    -1.0200092121
| 14>  H       -0.0069392732     1.6348288058     0.1303024926
| 15>  H       -1.2528625530     0.3537473838     0.1270246619
| 16>  H       -0.2819061347     0.6574650953     1.5952668354
| 17>  H        0.5432219302     0.4450112231    -1.7795937120
| 18>  H        2.6037751293    -0.3486883413    -2.5993644341
| 19>  H        3.0340615402    -0.3835371900    -0.8791277926
| 20>  H        2.4965233633    -3.9393143263    -0.4050288650
| 21>  H        1.7568176632    -2.4218741486     0.3093462676
| 22>  H        0.9997332540    -3.6713077343    -2.4600486582
| 23>  H       -0.2525022707    -1.5536507078    -2.8014634864
| 24>  H       -0.7596368319    -2.0511251821    -0.1013895231
| 25> *
| 26>
| 27>                          ****END OF INPUT****

CARTESIAN COORDINATES (ANGSTROEM)
---------------------------------
  C     -0.260802    0.631516    0.502775
  O      0.726946   -0.315514    0.130464
  C      0.885564   -0.467584   -1.278048
  C      2.349308   -0.788845   -1.629065
  N      2.512318   -2.253349   -1.754498
  C      2.006435   -2.986768   -0.583984
  C      1.154803   -2.827776   -1.793795
  C      0.102108   -1.725670   -1.779656
  O     -1.053103   -2.009492   -1.020009
  H     -0.006939    1.634829    0.130302
  H     -1.252863    0.353747    0.127025
  H     -0.281906    0.657465    1.595267
  H      0.543222    0.445011   -1.779594
  H      2.603775   -0.348688   -2.599364
  H      3.034062   -0.383537   -0.879128
  H      2.496523   -3.939314   -0.405029
  H      1.756818   -2.421874    0.309346
  H      0.999733   -3.671308   -2.460049
  H     -0.252502   -1.553651   -2.801463
  H     -0.759637   -2.051125   -0.101390

 Total Charge           Charge          ....    0
 Multiplicity           Mult            ....    1
 Number of Electrons    NEL             ....   70
 Basis Dimension        Dim             ....  345

ORBITAL ENERGIES
----------------

  NO   OCC          E(Eh)            E(eV)
   0   2.0000     -20.567335      -559.6656
   1   2.0000     -20.558699      -559.4306
   2   2.0000     -15.560029      -423.4099
   3   2.0000     -11.287913      -307.1597
   4   2.0000     -11.287013      -307.1352
   5   2.0000     -11.278464      -306.9026
   6   2.0000     -11.254617      -306.2537
   7   2.0000     -11.253318      -306.2184
   8   2.0000     -11.250001      -306.1281
   9   2.0000      -1.393826       -37.9279
  10   2.0000      -1.359639       -36.9976
  11   2.0000      -1.278617       -34.7929
  12   2.0000      -1.043500       -28.3951
  13   2.0000      -0.983176       -26.7536
  14   2.0000      -0.933820       -25.4105
  15   2.0000      -0.855885       -23.2898
  16   2.0000      -0.798463       -21.7273
  17   2.0000      -0.789005       -21.4699
  18   2.0000      -0.734883       -19.9972
  19   2.0000      -0.678146       -18.4533
  20   2.0000      -0.659935       -17.9577
  21   2.0000      -0.637297       -17.3417
  22   2.0000      -0.625799       -17.0289
  23   2.0000      -0.603807       -16.4304
  24   2.0000      -0.590615       -16.0714
  25   2.0000      -0.570513       -15.5245
  26   2.0000      -0.555730       -15.1222
  27   2.0000      -0.547652       -14.9024
  28   2.0000      -0.512544       -13.9470
  29   2.0000      -0.486580       -13.2405
  30   2.0000      -0.469141       -12.7660
  31   2.0000      -0.458416       -12.4741
  32   2.0000      -0.441798       -12.0219
  33   2.0000      -0.417706       -11.3664
  34   2.0000      -0.370571       -10.0838
  35   0.0000       0.137834         3.7507
  36   0.0000       0.150649         4.0994
  37   0.0000       0.168475         4.5844
  38   0.0000       0.179389         4.8814
  39   0.0000       0.193775         5.2729

MULLIKEN ATOMIC CHARGES
-----------------------
   0 C :   -0.257140
   1 O :   -0.351984
   2 C :    0.115708
   3 C :   -0.135980
   4 N :   -0.225940
   5 C :   -0.227842
   6 C :   -0.015579
   7 C :   -0.017911
   8 O :   -0.461540
   9 H :    0.120347
  10 H :    0.144815
  11 H :    0.141523
  12 H :    0.093671
  13 H :    0.125926
  14 H :    0.122815
  15 H :    0.128234
  16 H :    0.145307
  17 H :    0.121079
  18 H :    0.106311
  19 H :    0.328180
Sum of atomic charges:    0.0000000

LOEWDIN ATOMIC CHARGES
----------------------
   0 C :   -0.360195
   1 O :    0.135636
   2 C :   -0.293532
   3 C :   -0.252837
   4 N :    0.106138
   5 C :   -0.245861
   6 C :   -0.234624
   7 C :   -0.312492
   8 O :   -0.004805
   9 H :    0.104149
  10 H :    0.106494
  11 H :    0.113760
  12 H :    0.138389
  13 H :    0.137477
  14 H :    0.138211
  15 H :    0.126886
  16 H :    0.130033
  17 H :    0.140200
  18 H :    0.149191
  19 H :    0.177782

  Mayer bond orders larger than 0.1
B(  0-C ,  1-O ) :   0.8922 B(  0-C ,  9-H ) :   0.9355 B(  0-C , 10-H ) :   0.9310
B(  0-C , 11-H ) :   0.9391 B(  1-O ,  2-C ) :   0.8753 B(  2-C ,  3-C ) :   0.9153
B(  2-C ,  7-C ) :   0.9012 B(  2-C , 12-H ) :   0.9229 B(  3-C ,  4-N ) :   0.9390
B(  3-C , 13-H ) :   0.9237 B(  3-C , 14-H ) :   0.9302 B(  4-N ,  5-C ) :   0.8887
B(  4-N ,  6-C ) :   0.8833 B(  5-C ,  6-C ) :   0.9006 B(  5-C , 15-H ) :   0.9247
B(  5-C , 16-H ) :   0.9123 B(  6-C ,  7-C ) :   0.9355 B(  6-C , 17-H ) :   0.9272
B(  7-C ,  8-O ) :   0.9564 B(  7-C , 18-H ) :   0.9238 B(  8-O , 19-H ) :   0.8255

MP2 TOTAL ENERGY:     -439.532867614 Eh
FINAL SINGLE POINT ENERGY      -439.532867614047

DIPOLE MOMENT
-------------
                                X             Y             Z
Electronic contribution:      0.60236      -3.01087      -1.53692
Nuclear contribution   :     -0.78664       3.65885       1.80741
                        -----------------------------------------
Total Dipole Moment    :     -0.18428       0.64798       0.27050
                        -----------------------------------------
Magnitude (a.u.)       :      0.72595
Magnitude (Debye)      :      1.84522

                             ****ORCA TERMINATED NORMALLY****
TOTAL RUN TIME: 0 days 0 hours 28 minutes 15 seconds 463 msec
