                         Program Version 3.0.3 - RELEASE   -
|  1> ! RI-MP2 RIJK def2-TZVP def2-TZVP/C def2-TZVP/JK TIGHTSCF
|  2> % maxcore 2000
|  3> % mp2 density relaxed end
|  4> *xyz 0 1
|  5>  O       -0.0140985076     1.3984993151    -0.1122906871
|  6>  C       -0.0187746149     0.0044534923     0.0567854856
|  7>  C        0.5840953848    -0.5234636806     1.3843761403
|  8>  C       -0.1783345590    -1.8012785367     1.5914362711
|  9>  C       -1.2854575904    -1.8417706783     0.8345701950
| 10>  C       -2.2555616120    -2.8773959484     0.8084517595
| 11>  N       -3.0787883707    -3.6912477785     0.7505501969
| 12>  C       -1.4647282237    -0.5431637535     0.0453509078
| 13>  O       -2.3106868446     0.3622525524     0.7293796991
| 14>  H        0.8962883537     1.6815741315    -0.2409433811
| 15>  H        0.5055728653    -0.4998761522    -0.7698709967
| 16>  H        1.6682179230    -0.6725021226     1.3381967991
| 17>  H        0.3818810543     0.1869117262     2.1962829738
| 18>  H        0.1267154670    -2.5815085552     2.2791806604
| 19>  H       -1.8238643113    -0.7150993557    -0.9769486115
| 20>  H       -3.2116253437     0.0258949941     0.6799725179
| 21> *
| 22>
| 23>                          ****END OF INPUT****

CARTESIAN COORDINATES (ANGSTROEM)
---------------------------------
  O     -0.014099    1.398499   -0.112291
  C     -0.018775    0.004453    0.056785
  C      0.584095   -0.523464    1.384376
  C     -0.178335   -1.801279    1.591436
  C     -1.285458   -1.841771    0.834570
  C     -2.255562   -2.877396    0.808452
  N     -3.078788   -3.691248    0.750550
  C     -1.464728   -0.543164    0.045351
  O     -2.310687    0.362253    0.729380
  H      0.896288    1.681574   -0.240943
  H      0.505573   -0.499876   -0.769871
  H      1.668218   -0.672502    1.338197
  H      0.381881    0.186912    2.196283
  H      0.126715   -2.581509    2.279181
  H     -1.823864   -0.715099   -0.976949
  H     -3.211625    0.025895    0.679973

 Total Charge           Charge          ....    0
 Multiplicity           Mult            ....    1
 Number of Electrons    NEL             ....   66
 Basis Dimension        Dim             ....  321

ORBITAL ENERGIES
----------------

  NO   OCC          E(Eh)            E(eV)
   0   2.0000     -20.572088      -559.7950
   1   2.0000     -20.569059      -559.7126
   2   2.0000     -15.578205      -423.9045
   3   2.0000     -11.310777      -307.7819
   4   2.0000     -11.305530      -307.6391
   5   2.0000     -11.284463      -307.0658
   6   2.0000     -11.281463      -306.9842
   7   2.0000     -11.279188      -306.9223
   8   2.0000     -11.254036      -306.2379
   9   2.0000      -1.393161       -37.9099
  10   2.0000      -1.368365       -37.2351
  11   2.0000      -1.225870       -33.3576
  12   2.0000      -1.162384       -31.6301
  13   2.0000      -1.011901       -27.5352
  14   2.0000      -0.980936       -26.6926
  15   2.0000      -0.836493       -22.7621
  16   2.0000      -0.815035       -22.1782
  17   2.0000      -0.750738       -20.4286
  18   2.0000      -0.739103       -20.1120
  19   2.0000      -0.679175       -18.4813
  20   2.0000      -0.628461       -17.1013
  21   2.0000      -0.618188       -16.8218
  22   2.0000      -0.606074       -16.4921
  23   2.0000      -0.583988       -15.8911
  24   2.0000      -0.577720       -15.7206
  25   2.0000      -0.555974       -15.1288
  26   2.0000      -0.547086       -14.8870
  27   2.0000      -0.508928       -13.8486
  28   2.0000      -0.495324       -13.4784
  29   2.0000      -0.483483       -13.1562
  30   2.0000      -0.451074       -12.2744
  31   2.0000      -0.449098       -12.2206
  32   2.0000      -0.379817       -10.3353
  33   0.0000       0.082298         2.2394
  34   0.0000       0.113371         3.0850
  35   0.0000       0.137786         3.7494
  36   0.0000       0.148207         4.0329
  37   0.0000       0.164738         4.4828

MULLIKEN ATOMIC CHARGES
-----------------------
   0 O :   -0.438022
   1 C :    0.041288
   2 C :   -0.180632
   3 C :   -0.225269
   4 C :    0.069887
   5 C :   -0.180600
   6 N :   -0.045475
   7 C :    0.126037
   8 O :   -0.445721
   9 H :    0.319418
  10 H :    0.091422
  11 H :    0.132425
  12 H :    0.139227
  13 H :    0.156962
  14 H :    0.116509
  15 H :    0.322543
Sum of atomic charges:   -0.0000000

LOEWDIN ATOMIC CHARGES
----------------------
   0 O :    0.005722
   1 C :   -0.315315
   2 C :   -0.221051
   3 C :   -0.064454
   4 C :   -0.151407
   5 C :   -0.161223
   6 N :    0.075784
   7 C :   -0.268040
   8 O :    0.009651
   9 H :    0.179389
  10 H :    0.143194
  11 H :    0.139663
  12 H :    0.156969
  13 H :    0.147992
  14 H :    0.140689
  15 H :    0.182437

  Mayer bond orders larger than 0.1
B(  0-O ,  1-C ) :   1.0483 B(  0-O ,  9-H ) :   0.8425 B(  1-C ,  2-C ) :   0.9641
B(  1-C ,  7-C ) :   0.8677 B(  1-C , 10-H ) :   0.9364 B(  2-C ,  3-C ) :   0.9600
B(  2-C , 11-H ) :   0.9191 B(  2-C , 12-H ) :   0.8844 B(  3-C ,  4-C ) :   1.6564
B(  3-C , 13-H ) :   0.9184 B(  4-C ,  5-C ) :   0.9290 B(  4-C ,  7-C ) :   0.9106
B(  5-C ,  6-N ) :   2.8445 B(  7-C ,  8-O ) :   1.0228 B(  7-C , 14-H ) :   0.9502
B(  8-O , 15-H ) :   0.8391

MP2 TOTAL ENERGY:     -437.182472494 Eh
FINAL SINGLE POINT ENERGY      -437.182472493582

DIPOLE MOMENT
-------------
                                X             Y             Z
Electronic contribution:     -4.30951      -3.29797      -0.03413
Nuclear contribution   :      5.82460       3.77449      -0.06671
                        -----------------------------------------
Total Dipole Moment    :      1.51509       0.47653      -0.10084
                        -----------------------------------------
Magnitude (a.u.)       :      1.59146
Magnitude (Debye)      :      4.04518

                             ****ORCA TERMINATED NORMALLY****
TOTAL RUN TIME: 0 days 0 hours 16 minutes 31 seconds 270 msec
