                         Program Version 3.0.3 - RELEASE   -
|  1> ! RI-MP2 RIJK def2-TZVP def2-TZVP/C def2-TZVP/JK TIGHTSCF
|  2> % maxcore 2000
|  3> % mp2 density relaxed end
|  4> *xyz 0 1
|  5>  C       -0.1055310788     1.6717415655     0.0955513432
|  6>  C       -0.1220050206     0.1462139098     0.0209017882
|  7>  N        0.6655693270    -0.4363938052     1.1067192221
|  8>  C        2.1447323086    -0.5281224363     0.8873089848
|  9>  C        2.2548288095    -1.7561698867     1.8402994811
| 10>  C        3.0799357451    -2.5488831191     0.8267517099
| 11>  O        2.9221783804    -3.9455404981     0.9400590346
| 12>  C        2.0950844143    -1.7760003899    -0.0728411973
| 13>  C        0.9454722515    -1.8996968521     1.0031612921
| 14>  H        0.9066212664     2.0648500594    -0.0497998782
| 15>  H       -0.7447766522     2.1071750999    -0.6786536631
| 16>  H       -0.4594431844     2.0096685607     1.0736049363
| 17>  H       -1.1509516419    -0.2170716268     0.1382815257
| 18>  H        0.2168962828    -0.1814045243    -0.9784257158
| 19>  H        2.8052924680     0.3383393145     0.8383183990
| 20>  H        2.3211620955    -1.7217026022     2.9264265399
| 21>  H        4.1385984393    -2.2656502823     0.7379385460
| 22>  H        3.3481516251    -4.3602398417     0.1835098892
| 23>  H        2.0099358056    -1.7886559732    -1.1593824241
| 24>  H        0.1733057487    -2.6638553121     1.0849305262
| 25> *
| 26>
| 27>                          ****END OF INPUT****

CARTESIAN COORDINATES (ANGSTROEM)
---------------------------------
  C     -0.105531    1.671742    0.095551
  C     -0.122005    0.146214    0.020902
  N      0.665569   -0.436394    1.106719
  C      2.144732   -0.528122    0.887309
  C      2.254829   -1.756170    1.840299
  C      3.079936   -2.548883    0.826752
  O      2.922178   -3.945540    0.940059
  C      2.095084   -1.776000   -0.072841
  C      0.945472   -1.899697    1.003161
  H      0.906621    2.064850   -0.049800
  H     -0.744777    2.107175   -0.678654
  H     -0.459443    2.009669    1.073605
  H     -1.150952   -0.217072    0.138282
  H      0.216896   -0.181405   -0.978426
  H      2.805292    0.338339    0.838318
  H      2.321162   -1.721703    2.926427
  H      4.138598   -2.265650    0.737939
  H      3.348152   -4.360240    0.183510
  H      2.009936   -1.788656   -1.159382
  H      0.173306   -2.663855    1.084931

 Total Charge           Charge          ....    0
 Multiplicity           Mult            ....    1
 Number of Electrons    NEL             ....   68
 Basis Dimension        Dim             ....  345

ORBITAL ENERGIES
----------------

  NO   OCC          E(Eh)            E(eV)
   0   2.0000     -20.558930      -559.4369
   1   2.0000     -15.545007      -423.0012
   2   2.0000     -11.285923      -307.1056
   3   2.0000     -11.273663      -306.7720
   4   2.0000     -11.270760      -306.6930
   5   2.0000     -11.241936      -305.9086
   6   2.0000     -11.241246      -305.8899
   7   2.0000     -11.239636      -305.8460
   8   2.0000     -11.209085      -305.0147
   9   2.0000      -1.369380       -37.2627
  10   2.0000      -1.296534       -35.2805
  11   2.0000      -1.120831       -30.4994
  12   2.0000      -0.996822       -27.1249
  13   2.0000      -0.885028       -24.0828
  14   2.0000      -0.875781       -23.8312
  15   2.0000      -0.871929       -23.7264
  16   2.0000      -0.794616       -21.6226
  17   2.0000      -0.702923       -19.1275
  18   2.0000      -0.695847       -18.9350
  19   2.0000      -0.688411       -18.7326
  20   2.0000      -0.660551       -17.9745
  21   2.0000      -0.616362       -16.7721
  22   2.0000      -0.605004       -16.4630
  23   2.0000      -0.565537       -15.3891
  24   2.0000      -0.549900       -14.9635
  25   2.0000      -0.525684       -14.3046
  26   2.0000      -0.507307       -13.8045
  27   2.0000      -0.485703       -13.2166
  28   2.0000      -0.467813       -12.7298
  29   2.0000      -0.445205       -12.1146
  30   2.0000      -0.442456       -12.0398
  31   2.0000      -0.427449       -11.6315
  32   2.0000      -0.421290       -11.4639
  33   2.0000      -0.354623        -9.6498
  34   0.0000       0.135619         3.6904
  35   0.0000       0.143824         3.9136
  36   0.0000       0.159382         4.3370
  37   0.0000       0.175350         4.7715
  38   0.0000       0.182494         4.9659

MULLIKEN ATOMIC CHARGES
-----------------------
   0 C :   -0.380417
   1 C :   -0.121706
   2 N :   -0.191043
   3 C :   -0.128010
   4 C :   -0.034280
   5 C :   -0.015529
   6 O :   -0.468831
   7 C :   -0.106886
   8 C :   -0.078591
   9 H :    0.117451
  10 H :    0.126130
  11 H :    0.131037
  12 H :    0.113317
  13 H :    0.080769
  14 H :    0.128710
  15 H :    0.136647
  16 H :    0.094037
  17 H :    0.317901
  18 H :    0.146634
  19 H :    0.132660
Sum of atomic charges:    0.0000000

LOEWDIN ATOMIC CHARGES
----------------------
   0 C :   -0.319491
   1 C :   -0.323118
   2 N :    0.113440
   3 C :   -0.161138
   4 C :   -0.118017
   5 C :   -0.304866
   6 O :   -0.014678
   7 C :   -0.144964
   8 C :   -0.155876
   9 H :    0.118233
  10 H :    0.121111
  11 H :    0.123791
  12 H :    0.131220
  13 H :    0.118995
  14 H :    0.126558
  15 H :    0.132799
  16 H :    0.126021
  17 H :    0.176239
  18 H :    0.124036
  19 H :    0.129706

  Mayer bond orders larger than 0.1
B(  0-C ,  1-C ) :   0.9356 B(  0-C ,  9-H ) :   0.9371 B(  0-C , 10-H ) :   0.9386
B(  0-C , 11-H ) :   0.9364 B(  1-C ,  2-N ) :   0.8947 B(  1-C , 12-H ) :   0.9313
B(  1-C , 13-H ) :   0.9101 B(  2-N ,  3-C ) :   0.9173 B(  2-N ,  8-C ) :   0.9109
B(  3-C ,  4-C ) :   0.8824 B(  3-C ,  7-C ) :   0.8701 B(  3-C , 14-H ) :   0.8936
B(  4-C ,  5-C ) :   0.8775 B(  4-C ,  6-O ) :  -0.1209 B(  4-C ,  8-C ) :   0.8860
B(  4-C , 15-H ) :   0.8936 B(  5-C ,  6-O ) :   1.1472 B(  5-C ,  7-C ) :   0.8716
B(  5-C , 16-H ) :   0.9911 B(  6-O ,  7-C ) :  -0.1259 B(  6-O , 17-H ) :   0.8445
B(  7-C ,  8-C ) :   0.8848 B(  7-C , 18-H ) :   0.8860 B(  8-C , 19-H ) :   0.8845

MP2 TOTAL ENERGY:     -402.357099635 Eh
FINAL SINGLE POINT ENERGY      -402.357099634690

DIPOLE MOMENT
-------------
                                X             Y             Z
Electronic contribution:      3.63874      -6.56393       2.69267
Nuclear contribution   :     -3.20114       6.58815      -3.54891
                        -----------------------------------------
Total Dipole Moment    :      0.43760       0.02422      -0.85624
                        -----------------------------------------
Magnitude (a.u.)       :      0.96189
Magnitude (Debye)      :      2.44492

                             ****ORCA TERMINATED NORMALLY****
TOTAL RUN TIME: 0 days 0 hours 16 minutes 47 seconds 451 msec
