                         Program Version 3.0.3 - RELEASE   -
|  1> ! RI-MP2 RIJK def2-TZVP def2-TZVP/C def2-TZVP/JK TIGHTSCF
|  2> % maxcore 2000
|  3> % mp2 density relaxed end
|  4> *xyz 0 1
|  5>  C       -0.0803547703     1.4765259014     0.0272206964
|  6>  C        0.0880305267    -0.0222718829     0.0147729145
|  7>  O       -1.2454683359    -0.6840670957     0.0490279507
|  8>  C       -0.9655249898    -1.7813930893     0.8956560111
|  9>  C       -0.4488128973    -1.0924245676     2.1747663024
| 10>  C        0.7299143869    -0.7465146253     1.2384690790
| 11>  C        0.5810556052    -2.1462181070     0.5633422569
| 12>  C        0.9939077865    -1.9555771752    -0.8544421461
| 13>  C        0.7608160660    -0.6759910981    -1.1762050419
| 14>  H        0.8931835954     1.9703285960    -0.0541865287
| 15>  H       -0.6989496105     1.7979985368    -0.8164542813
| 16>  H       -0.5660251317     1.8095288066     0.9487125959
| 17>  H       -1.7683034886    -2.5161587266     0.8612317119
| 18>  H       -1.0661444872    -0.2861824233     2.5772866687
| 19>  H       -0.1518858140    -1.7896555790     2.9618737654
| 20>  H        1.6975226485    -0.3756283338     1.5769598493
| 21>  H        0.9521645744    -3.0068577411     1.1174632687
| 22>  H        1.3322213945    -2.7423391272    -1.5175859649
| 23>  H        0.8576754914    -0.2087695587    -2.1485431180
| 24> *
| 25>
| 26>                          ****END OF INPUT****

CARTESIAN COORDINATES (ANGSTROEM)
---------------------------------
  C     -0.080355    1.476526    0.027221
  C      0.088031   -0.022272    0.014773
  O     -1.245468   -0.684067    0.049028
  C     -0.965525   -1.781393    0.895656
  C     -0.448813   -1.092425    2.174766
  C      0.729914   -0.746515    1.238469
  C      0.581056   -2.146218    0.563342
  C      0.993908   -1.955577   -0.854442
  C      0.760816   -0.675991   -1.176205
  H      0.893184    1.970329   -0.054187
  H     -0.698950    1.797999   -0.816454
  H     -0.566025    1.809529    0.948713
  H     -1.768303   -2.516159    0.861232
  H     -1.066144   -0.286182    2.577287
  H     -0.151886   -1.789656    2.961874
  H      1.697523   -0.375628    1.576960
  H      0.952165   -3.006858    1.117463
  H      1.332221   -2.742339   -1.517586
  H      0.857675   -0.208770   -2.148543

 Total Charge           Charge          ....    0
 Multiplicity           Mult            ....    1
 Number of Electrons    NEL             ....   66
 Basis Dimension        Dim             ....  339

ORBITAL ENERGIES
----------------

  NO   OCC          E(Eh)            E(eV)
   0   2.0000     -20.544531      -559.0451
   1   2.0000     -11.288035      -307.1630
   2   2.0000     -11.283760      -307.0467
   3   2.0000     -11.237399      -305.7852
   4   2.0000     -11.235206      -305.7255
   5   2.0000     -11.226178      -305.4798
   6   2.0000     -11.222722      -305.3858
   7   2.0000     -11.221808      -305.3609
   8   2.0000     -11.217500      -305.2437
   9   2.0000      -1.381017       -37.5794
  10   2.0000      -1.141713       -31.0676
  11   2.0000      -1.068855       -29.0850
  12   2.0000      -1.012595       -27.5541
  13   2.0000      -0.898188       -24.4409
  14   2.0000      -0.885522       -24.0963
  15   2.0000      -0.806956       -21.9584
  16   2.0000      -0.756736       -20.5918
  17   2.0000      -0.722014       -19.6470
  18   2.0000      -0.686660       -18.6850
  19   2.0000      -0.666805       -18.1447
  20   2.0000      -0.619256       -16.8508
  21   2.0000      -0.593725       -16.1561
  22   2.0000      -0.568920       -15.4811
  23   2.0000      -0.563077       -15.3221
  24   2.0000      -0.522838       -14.2272
  25   2.0000      -0.517693       -14.0872
  26   2.0000      -0.509766       -13.8715
  27   2.0000      -0.496442       -13.5089
  28   2.0000      -0.475871       -12.9491
  29   2.0000      -0.454071       -12.3559
  30   2.0000      -0.429021       -11.6743
  31   2.0000      -0.392729       -10.6867
  32   2.0000      -0.344631        -9.3779
  33   0.0000       0.136786         3.7221
  34   0.0000       0.145523         3.9599
  35   0.0000       0.156306         4.2533
  36   0.0000       0.175057         4.7635
  37   0.0000       0.183471         4.9925

MULLIKEN ATOMIC CHARGES
-----------------------
   0 C :   -0.438325
   1 C :    0.264638
   2 O :   -0.317884
   3 C :    0.060034
   4 C :   -0.268532
   5 C :   -0.042944
   6 C :   -0.130627
   7 C :   -0.186780
   8 C :   -0.237591
   9 H :    0.133889
  10 H :    0.143839
  11 H :    0.138683
  12 H :    0.128078
  13 H :    0.119541
  14 H :    0.118152
  15 H :    0.130358
  16 H :    0.126054
  17 H :    0.131040
  18 H :    0.128377
Sum of atomic charges:    0.0000000

LOEWDIN ATOMIC CHARGES
----------------------
   0 C :   -0.265070
   1 C :   -0.281174
   2 O :    0.203984
   3 C :   -0.250018
   4 C :   -0.210102
   5 C :   -0.144777
   6 C :   -0.164186
   7 C :   -0.130375
   8 C :   -0.110584
   9 H :    0.131594
  10 H :    0.133572
  11 H :    0.130125
  12 H :    0.128555
  13 H :    0.128032
  14 H :    0.139506
  15 H :    0.140848
  16 H :    0.145982
  17 H :    0.136483
  18 H :    0.137604

  Mayer bond orders larger than 0.1
B(  0-C ,  1-C ) :   0.8401 B(  0-C ,  9-H ) :   0.9405 B(  0-C , 10-H ) :   0.9411
B(  0-C , 11-H ) :   0.9499 B(  1-C ,  2-O ) :   0.8416 B(  1-C ,  5-C ) :   0.8856
B(  1-C ,  8-C ) :   0.9507 B(  2-O ,  3-C ) :   0.9748 B(  3-C ,  4-C ) :   0.9159
B(  3-C ,  6-C ) :   0.8351 B(  3-C , 12-H ) :   0.9104 B(  4-C ,  5-C ) :   0.9249
B(  4-C , 13-H ) :   0.9208 B(  4-C , 14-H ) :   0.9244 B(  5-C ,  6-C ) :   0.9009
B(  5-C , 15-H ) :   0.9033 B(  6-C ,  7-C ) :   0.9998 B(  6-C , 16-H ) :   0.9139
B(  7-C ,  8-C ) :   1.7379 B(  7-C , 17-H ) :   0.9253 B(  8-C , 18-H ) :   0.9261

MP2 TOTAL ENERGY:     -385.202164615 Eh
FINAL SINGLE POINT ENERGY      -385.202164615180

DIPOLE MOMENT
-------------
                                X             Y             Z
Electronic contribution:     -0.81802      -2.75924      -1.72174
Nuclear contribution   :      1.25656       2.64415       2.01581
                        -----------------------------------------
Total Dipole Moment    :      0.43854      -0.11509       0.29407
                        -----------------------------------------
Magnitude (a.u.)       :      0.54041
Magnitude (Debye)      :      1.37361

                             ****ORCA TERMINATED NORMALLY****
TOTAL RUN TIME: 0 days 0 hours 21 minutes 26 seconds 123 msec
