                         Program Version 3.0.3 - RELEASE   -
|  1> ! RI-MP2 RIJK def2-TZVP def2-TZVP/C def2-TZVP/JK TIGHTSCF
|  2> % maxcore 2000
|  3> % mp2 density relaxed end
|  4> *xyz 0 1
|  5>  C        0.0907849834    -1.1698041581    -0.0250105749
|  6>  C       -0.0035866595     0.0308216469     0.0115444522
|  7>  C       -0.0499075026     1.4437328416     0.0614154207
|  8>  C       -1.1459901121     2.2171617379     0.0466145517
|  9>  C       -0.8191014989     3.6851870051     0.0580230580
| 10>  C        0.6867686759     3.6936750470     0.4649493331
| 11>  C        1.2200639908     2.2814817458     0.0843972532
| 12>  C        1.4501489853     4.7900852583    -0.1209919531
| 13>  N        2.0521022132     5.6571151265    -0.5922918826
| 14>  H        0.1563049036    -2.2291536588    -0.0603724569
| 15>  H       -2.1605968851     1.8428833912    -0.0111140502
| 16>  H       -0.9675165414     4.1309994532    -0.9345348295
| 17>  H       -1.4307896900     4.2651876015     0.7558665683
| 18>  H        0.7418139434     3.7955024874     1.5539693977
| 19>  H        1.9605810155     1.9154887212     0.7999501693
| 20>  H        1.6983939685     2.2820486333    -0.9019569970
| 21> *
| 22>
| 23>                          ****END OF INPUT****

CARTESIAN COORDINATES (ANGSTROEM)
---------------------------------
  C      0.090785   -1.169804   -0.025011
  C     -0.003587    0.030822    0.011544
  C     -0.049908    1.443733    0.061415
  C     -1.145990    2.217162    0.046615
  C     -0.819101    3.685187    0.058023
  C      0.686769    3.693675    0.464949
  C      1.220064    2.281482    0.084397
  C      1.450149    4.790085   -0.120992
  N      2.052102    5.657115   -0.592292
  H      0.156305   -2.229154   -0.060372
  H     -2.160597    1.842883   -0.011114
  H     -0.967517    4.130999   -0.934535
  H     -1.430790    4.265188    0.755867
  H      0.741814    3.795502    1.553969
  H      1.960581    1.915489    0.799950
  H      1.698394    2.282049   -0.901957

 Total Charge           Charge          ....    0
 Multiplicity           Mult            ....    1
 Number of Electrons    NEL             ....   62
 Basis Dimension        Dim             ....  321

ORBITAL ENERGIES
----------------

  NO   OCC          E(Eh)            E(eV)
   0   2.0000     -15.570517      -423.6953
   1   2.0000     -11.293362      -307.3080
   2   2.0000     -11.273932      -306.7793
   3   2.0000     -11.273835      -306.7766
   4   2.0000     -11.263626      -306.4989
   5   2.0000     -11.263152      -306.4860
   6   2.0000     -11.261215      -306.4332
   7   2.0000     -11.250405      -306.1391
   8   2.0000     -11.242517      -305.9244
   9   2.0000      -1.222852       -33.2755
  10   2.0000      -1.177804       -32.0497
  11   2.0000      -1.070212       -29.1220
  12   2.0000      -1.014369       -27.6024
  13   2.0000      -0.991153       -26.9707
  14   2.0000      -0.866110       -23.5680
  15   2.0000      -0.813259       -22.1299
  16   2.0000      -0.738786       -20.1034
  17   2.0000      -0.717315       -19.5191
  18   2.0000      -0.702079       -19.1046
  19   2.0000      -0.605649       -16.4805
  20   2.0000      -0.590425       -16.0663
  21   2.0000      -0.584865       -15.9150
  22   2.0000      -0.560860       -15.2618
  23   2.0000      -0.552993       -15.0477
  24   2.0000      -0.545972       -14.8567
  25   2.0000      -0.536178       -14.5902
  26   2.0000      -0.462486       -12.5849
  27   2.0000      -0.454718       -12.3735
  28   2.0000      -0.451882       -12.2963
  29   2.0000      -0.404993       -11.0204
  30   2.0000      -0.344865        -9.3843
  31   0.0000       0.094962         2.5840
  32   0.0000       0.118278         3.2185
  33   0.0000       0.150625         4.0987
  34   0.0000       0.154793         4.2121
  35   0.0000       0.159870         4.3503

MULLIKEN ATOMIC CHARGES
-----------------------
   0 C :   -0.118000
   1 C :    0.041842
   2 C :   -0.131210
   3 C :   -0.198295
   4 C :   -0.188848
   5 C :    0.044142
   6 C :   -0.240331
   7 C :   -0.215899
   8 N :   -0.054646
   9 H :    0.197652
  10 H :    0.147302
  11 H :    0.142307
  12 H :    0.140320
  13 H :    0.140976
  14 H :    0.146788
  15 H :    0.145901
Sum of atomic charges:    0.0000000

LOEWDIN ATOMIC CHARGES
----------------------
   0 C :   -0.067274
   1 C :   -0.071591
   2 C :   -0.157696
   3 C :   -0.094478
   4 C :   -0.193919
   5 C :   -0.206930
   6 C :   -0.149298
   7 C :   -0.175645
   8 N :    0.060389
   9 H :    0.129586
  10 H :    0.146771
  11 H :    0.153156
  12 H :    0.144643
  13 H :    0.179575
  14 H :    0.147933
  15 H :    0.154779

  Mayer bond orders larger than 0.1
B(  0-C ,  1-C ) :   2.5839 B(  0-C ,  2-C ) :  -0.1509 B(  0-C ,  9-H ) :   0.8781
B(  1-C ,  2-C ) :   1.1552 B(  2-C ,  3-C ) :   1.6656 B(  2-C ,  6-C ) :   0.9356
B(  3-C ,  4-C ) :   0.9495 B(  3-C , 10-H ) :   0.9236 B(  4-C ,  5-C ) :   0.9302
B(  4-C , 11-H ) :   0.8994 B(  4-C , 12-H ) :   0.9253 B(  5-C ,  6-C ) :   0.9239
B(  5-C ,  7-C ) :   0.9316 B(  5-C , 13-H ) :   0.9044 B(  6-C , 14-H ) :   0.9198
B(  6-C , 15-H ) :   0.9018 B(  7-C ,  8-N ) :   2.8773

MP2 TOTAL ENERGY:     -362.936384495 Eh
FINAL SINGLE POINT ENERGY      -362.936384494875

DIPOLE MOMENT
-------------
                                X             Y             Z
Electronic contribution:      1.71316       0.66637      -0.59777
Nuclear contribution   :     -2.56605      -1.74323       1.13026
                        -----------------------------------------
Total Dipole Moment    :     -0.85289      -1.07686       0.53249
                        -----------------------------------------
Magnitude (a.u.)       :      1.47330
Magnitude (Debye)      :      3.74482

                             ****ORCA TERMINATED NORMALLY****
TOTAL RUN TIME: 0 days 0 hours 14 minutes 50 seconds 987 msec
