                         Program Version 3.0.3 - RELEASE   -
|  1> ! RI-MP2 RIJK def2-TZVP def2-TZVP/C def2-TZVP/JK TIGHTSCF
|  2> % maxcore 2000
|  3> % mp2 density relaxed end
|  4> *xyz 0 1
|  5>  O        0.1968149334     1.3486399735    -0.1491074715
|  6>  C        0.0885304103    -0.0302362447    -0.0731178877
|  7>  C        0.0495458880    -0.6463338829     1.3829955595
|  8>  O       -1.3399192254    -0.1636609073     1.4508593645
|  9>  C       -1.3788814484    -0.6077512752     0.0474805058
| 10>  C       -1.1000768451    -2.0988655039     0.1577959565
| 11>  C       -0.1220591355    -2.1252844958     1.0722161573
| 12>  H       -0.4146942155     1.6977024507     0.5150642719
| 13>  H        0.7627555255    -0.4754915286    -0.8071111371
| 14>  H        0.6885338908    -0.3057391633     2.1963567606
| 15>  H       -2.2229214981    -0.2270921417    -0.5257217832
| 16>  H       -1.5605947161    -2.8932162949    -0.4102806122
| 17>  H        0.4523492660    -2.9475921557     1.4717731257
| 18> *
| 19>
| 20>                          ****END OF INPUT****

CARTESIAN COORDINATES (ANGSTROEM)
---------------------------------
  O      0.196815    1.348640   -0.149107
  C      0.088530   -0.030236   -0.073118
  C      0.049546   -0.646334    1.382996
  O     -1.339919   -0.163661    1.450859
  C     -1.378881   -0.607751    0.047481
  C     -1.100077   -2.098866    0.157796
  C     -0.122059   -2.125284    1.072216
  H     -0.414694    1.697702    0.515064
  H      0.762756   -0.475492   -0.807111
  H      0.688534   -0.305739    2.196357
  H     -2.222921   -0.227092   -0.525722
  H     -1.560595   -2.893216   -0.410281
  H      0.452349   -2.947592    1.471773

 Total Charge           Charge          ....    0
 Multiplicity           Mult            ....    1
 Number of Electrons    NEL             ....   52
 Basis Dimension        Dim             ....  253

ORBITAL ENERGIES
----------------

  NO   OCC          E(Eh)            E(eV)
   0   2.0000     -20.565542      -559.6168
   1   2.0000     -20.559681      -559.4574
   2   2.0000     -11.301420      -307.5273
   3   2.0000     -11.299301      -307.4696
   4   2.0000     -11.299242      -307.4680
   5   2.0000     -11.244509      -305.9787
   6   2.0000     -11.242825      -305.9328
   7   2.0000      -1.413852       -38.4729
   8   2.0000      -1.361121       -37.0380
   9   2.0000      -1.105674       -30.0869
  10   2.0000      -0.952137       -25.9090
  11   2.0000      -0.951722       -25.8977
  12   2.0000      -0.794605       -21.6223
  13   2.0000      -0.754619       -20.5342
  14   2.0000      -0.728950       -19.8357
  15   2.0000      -0.703012       -19.1299
  16   2.0000      -0.635684       -17.2978
  17   2.0000      -0.594184       -16.1686
  18   2.0000      -0.588538       -16.0149
  19   2.0000      -0.559621       -15.2281
  20   2.0000      -0.544662       -14.8210
  21   2.0000      -0.520684       -14.1685
  22   2.0000      -0.504721       -13.7342
  23   2.0000      -0.433434       -11.7943
  24   2.0000      -0.417056       -11.3487
  25   2.0000      -0.364313        -9.9135
  26   0.0000       0.126047         3.4299
  27   0.0000       0.156391         4.2556
  28   0.0000       0.171921         4.6782
  29   0.0000       0.174280         4.7424
  30   0.0000       0.183252         4.9865

MULLIKEN ATOMIC CHARGES
-----------------------
   0 O :   -0.455671
   1 C :    0.120079
   2 C :    0.007022
   3 O :   -0.310088
   4 C :    0.007018
   5 C :   -0.193388
   6 C :   -0.193391
   7 H :    0.330805
   8 H :    0.118647
   9 H :    0.140377
  10 H :    0.140378
  11 H :    0.144107
  12 H :    0.144106
Sum of atomic charges:   -0.0000000

LOEWDIN ATOMIC CHARGES
----------------------
   0 O :    0.009102
   1 C :   -0.288046
   2 C :   -0.231584
   3 O :    0.137005
   4 C :   -0.231579
   5 C :   -0.129314
   6 C :   -0.129313
   7 H :    0.187376
   8 H :    0.137726
   9 H :    0.132893
  10 H :    0.132893
  11 H :    0.136421
  12 H :    0.136420

  Mayer bond orders larger than 0.1
B(  0-O ,  1-C ) :   0.9928 B(  0-O ,  7-H ) :   0.8165 B(  1-C ,  2-C ) :   0.9080
B(  1-C ,  4-C ) :   0.9080 B(  1-C ,  8-H ) :   0.9169 B(  2-C ,  3-O ) :   0.8902
B(  2-C ,  6-C ) :   0.9519 B(  2-C ,  9-H ) :   0.9093 B(  3-O ,  4-C ) :   0.8902
B(  4-C ,  5-C ) :   0.9519 B(  4-C , 10-H ) :   0.9093 B(  5-C ,  6-C ) :   1.7113
B(  5-C , 11-H ) :   0.9191 B(  6-C , 12-H ) :   0.9191

MP2 TOTAL ENERGY:     -343.839342019 Eh
FINAL SINGLE POINT ENERGY      -343.839342018653

DIPOLE MOMENT
-------------
                                X             Y             Z
Electronic contribution:     -0.60771       1.23927       0.68578
Nuclear contribution   :      0.72507      -1.79311      -0.82729
                        -----------------------------------------
Total Dipole Moment    :      0.11736      -0.55384      -0.14151
                        -----------------------------------------
Magnitude (a.u.)       :      0.58356
Magnitude (Debye)      :      1.48329

                             ****ORCA TERMINATED NORMALLY****
TOTAL RUN TIME: 0 days 0 hours 7 minutes 19 seconds 254 msec
