                         Program Version 3.0.3 - RELEASE   -
|  1> ! RI-MP2 RIJK def2-TZVP def2-TZVP/C def2-TZVP/JK TIGHTSCF
|  2> % maxcore 2000
|  3> % mp2 density relaxed end
|  4> *xyz 0 1
|  5>  C       -0.0495259568     1.5719433152    -0.0382427080
|  6>  C        0.1545600954     0.0576955185    -0.0445242650
|  7>  C        1.1117693528    -0.4666075849    -1.1349810947
|  8>  C        1.4466458457    -1.9067106219    -0.6921757482
|  9>  C        1.4193924890    -1.8936273175     0.8500510687
| 10>  C        2.7192588181    -1.4111050610     1.5693244728
| 11>  O        3.9645642187    -1.5412013361     0.9242991460
| 12>  C        2.1035215872     0.0025793991     1.7438986716
| 13>  C        0.7274476959    -0.5447525170     1.2521054388
| 14>  H        0.8919690440     2.1027927636     0.1403934451
| 15>  H       -0.4463308839     1.9199259805    -0.9979394513
| 16>  H       -0.7552701054     1.8758896357     0.7422194679
| 17>  H       -0.8227729914    -0.4190143202    -0.2100050447
| 18>  H        0.6733409779    -0.4225603506    -2.1366378000
| 19>  H        2.0162413601     0.1564160884    -1.1660309191
| 20>  H        0.6754133365    -2.5914752942    -1.0601342653
| 21>  H        2.4014482912    -2.2708595757    -1.0857374869
| 22>  H        1.0055929242    -2.8201181782     1.2539873150
| 23>  H        2.8432920196    -1.9206126097     2.5289674569
| 24>  H        3.9420894026    -1.0179061839     0.1163782452
| 25>  H        2.1354490309     0.4254494994     2.7508692759
| 26>  H        2.5516691630     0.7336478862     1.0622716589
| 27>  H       -0.0170884852    -0.6084331358     2.0484415703
| 28> *
| 29>
| 30>                          ****END OF INPUT****

CARTESIAN COORDINATES (ANGSTROEM)
---------------------------------
  C     -0.049526    1.571943   -0.038243
  C      0.154560    0.057696   -0.044524
  C      1.111769   -0.466608   -1.134981
  C      1.446646   -1.906711   -0.692176
  C      1.419392   -1.893627    0.850051
  C      2.719259   -1.411105    1.569324
  O      3.964564   -1.541201    0.924299
  C      2.103522    0.002579    1.743899
  C      0.727448   -0.544753    1.252105
  H      0.891969    2.102793    0.140393
  H     -0.446331    1.919926   -0.997939
  H     -0.755270    1.875890    0.742219
  H     -0.822773   -0.419014   -0.210005
  H      0.673341   -0.422560   -2.136638
  H      2.016241    0.156416   -1.166031
  H      0.675413   -2.591475   -1.060134
  H      2.401448   -2.270860   -1.085737
  H      1.005593   -2.820118    1.253987
  H      2.843292   -1.920613    2.528967
  H      3.942089   -1.017906    0.116378
  H      2.135449    0.425449    2.750869
  H      2.551669    0.733648    1.062272
  H     -0.017088   -0.608433    2.048442

 Total Charge           Charge          ....    0
 Multiplicity           Mult            ....    1
 Number of Electrons    NEL             ....   70
 Basis Dimension        Dim             ....  363

ORBITAL ENERGIES
----------------

  NO   OCC          E(Eh)            E(eV)
   0   2.0000     -20.552208      -559.2540
   1   2.0000     -11.272297      -306.7348
   2   2.0000     -11.225627      -305.4648
   3   2.0000     -11.222860      -305.3895
   4   2.0000     -11.220160      -305.3161
   5   2.0000     -11.219254      -305.2914
   6   2.0000     -11.218454      -305.2697
   7   2.0000     -11.217177      -305.2349
   8   2.0000     -11.214046      -305.1497
   9   2.0000      -1.359164       -36.9847
  10   2.0000      -1.151352       -31.3299
  11   2.0000      -1.047403       -28.5013
  12   2.0000      -1.003042       -27.2942
  13   2.0000      -0.905877       -24.6502
  14   2.0000      -0.892259       -24.2796
  15   2.0000      -0.842973       -22.9385
  16   2.0000      -0.767121       -20.8744
  17   2.0000      -0.725750       -19.7487
  18   2.0000      -0.682084       -18.5605
  19   2.0000      -0.661864       -18.0102
  20   2.0000      -0.627413       -17.0728
  21   2.0000      -0.603995       -16.4355
  22   2.0000      -0.582707       -15.8563
  23   2.0000      -0.579677       -15.7738
  24   2.0000      -0.562358       -15.3025
  25   2.0000      -0.552101       -15.0234
  26   2.0000      -0.525365       -14.2959
  27   2.0000      -0.510146       -13.8818
  28   2.0000      -0.475495       -12.9389
  29   2.0000      -0.469869       -12.7858
  30   2.0000      -0.467655       -12.7255
  31   2.0000      -0.449512       -12.2318
  32   2.0000      -0.431637       -11.7454
  33   2.0000      -0.412485       -11.2243
  34   2.0000      -0.402947       -10.9647
  35   0.0000       0.128789         3.5045
  36   0.0000       0.141897         3.8612
  37   0.0000       0.149707         4.0737
  38   0.0000       0.162795         4.4299
  39   0.0000       0.187514         5.1025

MULLIKEN ATOMIC CHARGES
-----------------------
   0 C :   -0.392904
   1 C :   -0.096750
   2 C :   -0.260758
   3 C :   -0.320647
   4 C :   -0.012972
   5 C :    0.010403
   6 O :   -0.447661
   7 C :   -0.296920
   8 C :   -0.005129
   9 H :    0.119990
  10 H :    0.133038
  11 H :    0.132327
  12 H :    0.086660
  13 H :    0.126329
  14 H :    0.099318
  15 H :    0.117393
  16 H :    0.139784
  17 H :    0.109636
  18 H :    0.097982
  19 H :    0.314615
  20 H :    0.122507
  21 H :    0.111147
  22 H :    0.112613
Sum of atomic charges:    0.0000000

LOEWDIN ATOMIC CHARGES
----------------------
   0 C :   -0.293701
   1 C :   -0.260566
   2 C :   -0.237172
   3 C :   -0.239983
   4 C :   -0.181329
   5 C :   -0.309612
   6 O :   -0.012953
   7 C :   -0.207008
   8 C :   -0.176142
   9 H :    0.121633
  10 H :    0.124119
  11 H :    0.124385
  12 H :    0.155362
  13 H :    0.134377
  14 H :    0.130543
  15 H :    0.140298
  16 H :    0.134452
  17 H :    0.138684
  18 H :    0.141184
  19 H :    0.171305
  20 H :    0.127918
  21 H :    0.132249
  22 H :    0.141955

  Mayer bond orders larger than 0.1
B(  0-C ,  1-C ) :   0.9178 B(  0-C ,  9-H ) :   0.9295 B(  0-C , 10-H ) :   0.9403
B(  0-C , 11-H ) :   0.9420 B(  1-C ,  2-C ) :   0.9148 B(  1-C ,  8-C ) :   0.8892
B(  1-C , 12-H ) :   0.9259 B(  2-C ,  3-C ) :   0.9375 B(  2-C , 13-H ) :   0.9294
B(  2-C , 14-H ) :   0.9345 B(  3-C ,  4-C ) :   0.8691 B(  3-C , 15-H ) :   0.9273
B(  3-C , 16-H ) :   0.9423 B(  4-C ,  5-C ) :   0.8896 B(  4-C ,  8-C ) :   0.9208
B(  4-C , 17-H ) :   0.9144 B(  5-C ,  6-O ) :   0.9916 B(  5-C ,  7-C ) :   0.9428
B(  5-C , 18-H ) :   0.9273 B(  6-O , 19-H ) :   0.8400 B(  7-C ,  8-C ) :   0.9121
B(  7-C , 20-H ) :   0.9209 B(  7-C , 21-H ) :   0.9179 B(  8-C , 22-H ) :   0.9131

MP2 TOTAL ENERGY:     -387.629015476 Eh
FINAL SINGLE POINT ENERGY      -387.629015476101

DIPOLE MOMENT
-------------
                                X             Y             Z
Electronic contribution:      3.75691      -3.93431       2.35072
Nuclear contribution   :     -4.36324       4.24496      -2.59236
                        -----------------------------------------
Total Dipole Moment    :     -0.60633       0.31065      -0.24164
                        -----------------------------------------
Magnitude (a.u.)       :      0.72286
Magnitude (Debye)      :      1.83736

                             ****ORCA TERMINATED NORMALLY****
TOTAL RUN TIME: 0 days 0 hours 22 minutes 12 seconds 394 msec
