                         Program Version 3.0.3 - RELEASE   -
|  1> ! RI-MP2 RIJK def2-TZVP def2-TZVP/C def2-TZVP/JK TIGHTSCF
|  2> % maxcore 2000
|  3> % mp2 density relaxed end
|  4> *xyz 0 1
|  5>  O        0.2147880934     1.4118127337    -0.2079541390
|  6>  C        0.0830008657     0.0259616634    -0.0719663889
|  7>  C        0.0490587547    -0.6271673440     1.3212672406
|  8>  C       -1.4726166283    -0.2933526665     1.5366299872
|  9>  C       -1.8184516090    -1.7530820293     1.8811268730
| 10>  C       -0.7479238525    -1.8632513321     0.7792519139
| 11>  C       -1.3285254322    -0.6231718212    -0.0110345944
| 12>  C       -2.3715112285    -0.6319501018    -0.9885894697
| 13>  C       -3.2418068556    -0.6262687941    -1.8203262818
| 14>  H       -0.3879853255     1.8418977161     0.4086550086
| 15>  H        0.7692407765    -0.4199284065    -0.7981747253
| 16>  H        0.8142926772    -0.6513098519     2.0968544429
| 17>  H       -1.8950438898     0.6217542290     1.9555452932
| 18>  H       -1.5309683627    -2.1005559863     2.8779540944
| 19>  H       -2.8253243180    -2.0938572846     1.6245021240
| 20>  H       -0.3177859915    -2.7490429704     0.3111218996
| 21>  H       -4.0074403841    -0.6225368436    -2.5559786984
| 22> *
| 23>
| 24>                          ****END OF INPUT****

CARTESIAN COORDINATES (ANGSTROEM)
---------------------------------
  O      0.214788    1.411813   -0.207954
  C      0.083001    0.025962   -0.071966
  C      0.049059   -0.627167    1.321267
  C     -1.472617   -0.293353    1.536630
  C     -1.818452   -1.753082    1.881127
  C     -0.747924   -1.863251    0.779252
  C     -1.328525   -0.623172   -0.011035
  C     -2.371511   -0.631950   -0.988589
  C     -3.241807   -0.626269   -1.820326
  H     -0.387985    1.841898    0.408655
  H      0.769241   -0.419928   -0.798175
  H      0.814293   -0.651310    2.096854
  H     -1.895044    0.621754    1.955545
  H     -1.530968   -2.100556    2.877954
  H     -2.825324   -2.093857    1.624502
  H     -0.317786   -2.749043    0.311122
  H     -4.007440   -0.622537   -2.555979

 Total Charge           Charge          ....    0
 Multiplicity           Mult            ....    1
 Number of Electrons    NEL             ....   64
 Basis Dimension        Dim             ....  327

ORBITAL ENERGIES
----------------

  NO   OCC          E(Eh)            E(eV)
   0   2.0000     -20.561440      -559.5052
   1   2.0000     -11.292643      -307.2884
   2   2.0000     -11.270221      -306.6783
   3   2.0000     -11.261115      -306.4305
   4   2.0000     -11.259678      -306.3914
   5   2.0000     -11.249958      -306.1269
   6   2.0000     -11.236134      -305.7507
   7   2.0000     -11.235854      -305.7431
   8   2.0000     -11.227271      -305.5096
   9   2.0000      -1.373781       -37.3825
  10   2.0000      -1.250846       -34.0373
  11   2.0000      -1.040849       -28.3229
  12   2.0000      -1.001298       -27.2467
  13   2.0000      -0.902592       -24.5608
  14   2.0000      -0.878805       -23.9135
  15   2.0000      -0.842742       -22.9322
  16   2.0000      -0.757477       -20.6120
  17   2.0000      -0.720053       -19.5936
  18   2.0000      -0.693351       -18.8670
  19   2.0000      -0.687338       -18.7034
  20   2.0000      -0.627391       -17.0722
  21   2.0000      -0.621920       -16.9233
  22   2.0000      -0.570673       -15.5288
  23   2.0000      -0.564576       -15.3629
  24   2.0000      -0.494892       -13.4667
  25   2.0000      -0.472547       -12.8587
  26   2.0000      -0.468149       -12.7390
  27   2.0000      -0.454910       -12.3787
  28   2.0000      -0.445667       -12.1272
  29   2.0000      -0.429531       -11.6881
  30   2.0000      -0.375194       -10.2095
  31   2.0000      -0.370619       -10.0851
  32   0.0000       0.131837         3.5875
  33   0.0000       0.146974         3.9994
  34   0.0000       0.150624         4.0987
  35   0.0000       0.157809         4.2942
  36   0.0000       0.172181         4.6853

MULLIKEN ATOMIC CHARGES
-----------------------
   0 O :   -0.453878
   1 C :    0.111200
   2 C :   -0.110962
   3 C :   -0.128045
   4 C :   -0.222509
   5 C :   -0.092213
   6 C :   -0.245468
   7 C :   -0.019426
   8 C :   -0.096680
   9 H :    0.317958
  10 H :    0.110507
  11 H :    0.129540
  12 H :    0.130230
  13 H :    0.117545
  14 H :    0.124766
  15 H :    0.135359
  16 H :    0.192077
Sum of atomic charges:   -0.0000000

LOEWDIN ATOMIC CHARGES
----------------------
   0 O :    0.000719
   1 C :   -0.262108
   2 C :   -0.124884
   3 C :   -0.115710
   4 C :   -0.196190
   5 C :   -0.100584
   6 C :   -0.149981
   7 C :   -0.072463
   8 C :   -0.079641
   9 H :    0.179720
  10 H :    0.142462
  11 H :    0.130295
  12 H :    0.126823
  13 H :    0.129398
  14 H :    0.132446
  15 H :    0.132167
  16 H :    0.127530

  Mayer bond orders larger than 0.1
B(  0-O ,  1-C ) :   0.9887 B(  0-O ,  9-H ) :   0.8373 B(  1-C ,  2-C ) :   0.8923
B(  1-C ,  6-C ) :   0.8719 B(  1-C , 10-H ) :   0.9527 B(  2-C ,  3-C ) :   0.8118
B(  2-C ,  5-C ) :   0.8431 B(  2-C , 11-H ) :   0.9121 B(  3-C ,  4-C ) :   0.9268
B(  3-C ,  6-C ) :   0.7880 B(  3-C , 12-H ) :   0.9067 B(  4-C ,  5-C ) :   0.9246
B(  4-C , 13-H ) :   0.9265 B(  4-C , 14-H ) :   0.9175 B(  5-C ,  6-C ) :   0.8065
B(  5-C , 15-H ) :   0.8974 B(  6-C ,  7-C ) :   1.2072 B(  6-C ,  8-C ) :  -0.1760
B(  7-C ,  8-C ) :   2.6404 B(  8-C , 16-H ) :   0.8637

MP2 TOTAL ENERGY:     -383.898293620 Eh
FINAL SINGLE POINT ENERGY      -383.898293620184

DIPOLE MOMENT
-------------
                                X             Y             Z
Electronic contribution:     -0.02271       1.68475      -2.84161
Nuclear contribution   :     -0.26539      -1.98980       3.41169
                        -----------------------------------------
Total Dipole Moment    :     -0.28810      -0.30505       0.57009
                        -----------------------------------------
Magnitude (a.u.)       :      0.70785
Magnitude (Debye)      :      1.79922

                             ****ORCA TERMINATED NORMALLY****
TOTAL RUN TIME: 0 days 0 hours 17 minutes 56 seconds 832 msec
