                         Program Version 3.0.3 - RELEASE   -
|  1> ! RI-MP2 RIJK def2-TZVP def2-TZVP/C def2-TZVP/JK TIGHTSCF
|  2> % maxcore 2000
|  3> % mp2 density relaxed end
|  4> *xyz 0 1
|  5>  O       -0.2083207112     0.0332268762     0.0024256478
|  6>  C       -0.0269922497     1.2217215826     0.0088733524
|  7>  C        1.2884916295     1.9069707093    -0.0001491479
|  8>  C        1.2740469158     3.2552179870     0.0103850490
|  9>  O        2.3845012842     4.0131529237     0.0044674174
| 10>  C        3.5745132014     3.3305425447    -0.0128464329
| 11>  N        3.7345474950     2.0782051885    -0.0242294852
| 12>  C        2.5963648928     1.2077302195    -0.0199195320
| 13>  O        2.7436028507     0.0146909055    -0.0311288919
| 14>  H       -0.8834819923     1.9377584096     0.0241354361
| 15>  H        0.3712160732     3.8572988794     0.0246588862
| 16>  H        4.4003237706     4.0357038640    -0.0156541491
| 17> *
| 18>
| 19>                          ****END OF INPUT****

CARTESIAN COORDINATES (ANGSTROEM)
---------------------------------
  O     -0.208321    0.033227    0.002426
  C     -0.026992    1.221722    0.008873
  C      1.288492    1.906971   -0.000149
  C      1.274047    3.255218    0.010385
  O      2.384501    4.013153    0.004467
  C      3.574513    3.330543   -0.012846
  N      3.734547    2.078205   -0.024229
  C      2.596365    1.207730   -0.019920
  O      2.743603    0.014691   -0.031129
  H     -0.883482    1.937758    0.024135
  H      0.371216    3.857299    0.024659
  H      4.400324    4.035704   -0.015654

 Total Charge           Charge          ....    0
 Multiplicity           Mult            ....    1
 Number of Electrons    NEL             ....   64
 Basis Dimension        Dim             ....  297

ORBITAL ENERGIES
----------------

  NO   OCC          E(Eh)            E(eV)
   0   2.0000     -20.688706      -562.9683
   1   2.0000     -20.567818      -559.6788
   2   2.0000     -20.551655      -559.2390
   3   2.0000     -15.600736      -424.5176
   4   2.0000     -11.400716      -310.2293
   5   2.0000     -11.382223      -309.7260
   6   2.0000     -11.380063      -309.6673
   7   2.0000     -11.354338      -308.9672
   8   2.0000     -11.286030      -307.1085
   9   2.0000      -1.528879       -41.6029
  10   2.0000      -1.414273       -38.4843
  11   2.0000      -1.403329       -38.1865
  12   2.0000      -1.268762       -34.5248
  13   2.0000      -1.141353       -31.0578
  14   2.0000      -0.982476       -26.7345
  15   2.0000      -0.919730       -25.0271
  16   2.0000      -0.855780       -23.2870
  17   2.0000      -0.787901       -21.4399
  18   2.0000      -0.775321       -21.0976
  19   2.0000      -0.707457       -19.2509
  20   2.0000      -0.703805       -19.1515
  21   2.0000      -0.670200       -18.2371
  22   2.0000      -0.662184       -18.0189
  23   2.0000      -0.649471       -17.6730
  24   2.0000      -0.612476       -16.6663
  25   2.0000      -0.585929       -15.9439
  26   2.0000      -0.551250       -15.0003
  27   2.0000      -0.498884       -13.5753
  28   2.0000      -0.471425       -12.8281
  29   2.0000      -0.467728       -12.7275
  30   2.0000      -0.422506       -11.4970
  31   2.0000      -0.405881       -11.0446
  32   0.0000       0.059854         1.6287
  33   0.0000       0.080069         2.1788
  34   0.0000       0.130221         3.5435
  35   0.0000       0.147963         4.0263
  36   0.0000       0.152033         4.1370

MULLIKEN ATOMIC CHARGES
-----------------------
   0 O :   -0.217649
   1 C :    0.055170
   2 C :   -0.009386
   3 C :    0.051993
   4 O :   -0.196270
   5 C :    0.129701
   6 N :   -0.192564
   7 C :    0.192157
   8 O :   -0.225409
   9 H :    0.074339
  10 H :    0.169935
  11 H :    0.167983
Sum of atomic charges:   -0.0000000

LOEWDIN ATOMIC CHARGES
----------------------
   0 O :    0.169025
   1 C :   -0.273347
   2 C :   -0.154164
   3 C :   -0.160356
   4 O :    0.319644
   5 C :   -0.274774
   6 N :    0.151760
   7 C :   -0.375094
   8 O :    0.183440
   9 H :    0.117685
  10 H :    0.152206
  11 H :    0.143975

  Mayer bond orders larger than 0.1
B(  0-O ,  1-C ) :   2.0417 B(  1-C ,  2-C ) :   0.8237 B(  1-C ,  9-H ) :   0.9784
B(  2-C ,  3-C ) :   1.5479 B(  2-C ,  7-C ) :   0.9436 B(  2-C ,  9-H ) :  -0.1109
B(  3-C ,  4-O ) :   1.0545 B(  3-C , 10-H ) :   0.9324 B(  4-O ,  5-C ) :   0.9825
B(  5-C ,  6-N ) :   1.7768 B(  5-C , 11-H ) :   0.9216 B(  6-N ,  7-C ) :   1.0431
B(  7-C ,  8-O ) :   2.0640

MP2 TOTAL ENERGY:     -471.896939147 Eh
FINAL SINGLE POINT ENERGY      -471.896939146862

DIPOLE MOMENT
-------------
                                X             Y             Z
Electronic contribution:      1.40582      -1.37673      -0.02714
Nuclear contribution   :     -1.74385       3.90891       0.05024
                        -----------------------------------------
Total Dipole Moment    :     -0.33804       2.53218       0.02310
                        -----------------------------------------
Magnitude (a.u.)       :      2.55474
Magnitude (Debye)      :      6.49364

                             ****ORCA TERMINATED NORMALLY****
TOTAL RUN TIME: 0 days 0 hours 12 minutes 48 seconds 829 msec
