                         Program Version 3.0.3 - RELEASE   -
|  1> ! RI-MP2 RIJK def2-TZVP def2-TZVP/C def2-TZVP/JK TIGHTSCF
|  2> % maxcore 2000
|  3> % mp2 density relaxed end
|  4> *xyz 0 1
|  5>  C       -0.8480397608     0.5773238686    -0.4804583247
|  6>  C        0.4451685804     0.3700854563     0.3146905752
|  7>  N        0.5024210147    -0.9632882912     0.9050560640
|  8>  C        0.1508598690    -1.1132842660     2.1043977221
|  9>  N        0.1372106519    -2.3053234713     2.8184490836
| 10>  C       -0.2808952213    -2.0387018259     4.0929851831
| 11>  C       -0.4130171004    -3.0641794914     5.1622760817
| 12>  N       -0.5530483877    -0.7879664662     4.2660418590
| 13>  O       -0.2929659885    -0.1710893460     3.0033020624
| 14>  H       -1.7200024680     0.5418708009     0.1802138591
| 15>  H       -0.8404086609     1.5496816348    -0.9840456510
| 16>  H       -0.9628056742    -0.2042335937    -1.2374798670
| 17>  H        1.3011794773     0.4633281032    -0.3635310598
| 18>  H        0.5437819321     1.1618997478     1.0696826884
| 19>  H        0.4329514832    -3.1841867218     2.4329304718
| 20>  H        0.5495806289    -3.5460338950     5.3625625837
| 21>  H       -0.7658748696    -2.5844485056     6.0756984298
| 22>  H       -1.1258294062    -3.8423821675     4.8705404685
| 23> *
| 24>
| 25>                          ****END OF INPUT****

CARTESIAN COORDINATES (ANGSTROEM)
---------------------------------
  C     -0.848040    0.577324   -0.480458
  C      0.445169    0.370085    0.314691
  N      0.502421   -0.963288    0.905056
  C      0.150860   -1.113284    2.104398
  N      0.137211   -2.305323    2.818449
  C     -0.280895   -2.038702    4.092985
  C     -0.413017   -3.064179    5.162276
  N     -0.553048   -0.787966    4.266042
  O     -0.292966   -0.171089    3.003302
  H     -1.720002    0.541871    0.180214
  H     -0.840409    1.549682   -0.984046
  H     -0.962806   -0.204234   -1.237480
  H      1.301179    0.463328   -0.363531
  H      0.543782    1.161900    1.069683
  H      0.432951   -3.184187    2.432930
  H      0.549581   -3.546034    5.362563
  H     -0.765875   -2.584449    6.075698
  H     -1.125829   -3.842382    4.870540

 Total Charge           Charge          ....    0
 Multiplicity           Mult            ....    1
 Number of Electrons    NEL             ....   68
 Basis Dimension        Dim             ....  333

ORBITAL ENERGIES
----------------

  NO   OCC          E(Eh)            E(eV)
   0   2.0000     -20.625077      -561.2369
   1   2.0000     -15.623637      -425.1408
   2   2.0000     -15.620039      -425.0429
   3   2.0000     -15.525684      -422.4754
   4   2.0000     -11.373143      -309.4789
   5   2.0000     -11.344334      -308.6950
   6   2.0000     -11.267630      -306.6078
   7   2.0000     -11.240631      -305.8731
   8   2.0000     -11.202541      -304.8366
   9   2.0000      -1.488664       -40.5086
  10   2.0000      -1.282557       -34.9001
  11   2.0000      -1.237280       -33.6681
  12   2.0000      -1.140583       -31.0368
  13   2.0000      -1.019695       -27.7473
  14   2.0000      -0.998117       -27.1601
  15   2.0000      -0.869802       -23.6685
  16   2.0000      -0.851120       -23.1601
  17   2.0000      -0.798970       -21.7411
  18   2.0000      -0.739385       -20.1197
  19   2.0000      -0.686410       -18.6782
  20   2.0000      -0.656526       -17.8650
  21   2.0000      -0.632515       -17.2116
  22   2.0000      -0.611241       -16.6327
  23   2.0000      -0.600604       -16.3433
  24   2.0000      -0.585736       -15.9387
  25   2.0000      -0.560384       -15.2488
  26   2.0000      -0.541240       -14.7279
  27   2.0000      -0.520219       -14.1559
  28   2.0000      -0.513928       -13.9847
  29   2.0000      -0.506262       -13.7761
  30   2.0000      -0.484123       -13.1737
  31   2.0000      -0.447121       -12.1668
  32   2.0000      -0.403625       -10.9832
  33   2.0000      -0.335868        -9.1394
  34   0.0000       0.114980         3.1288
  35   0.0000       0.151539         4.1236
  36   0.0000       0.155248         4.2245
  37   0.0000       0.161460         4.3936
  38   0.0000       0.192418         5.2360

MULLIKEN ATOMIC CHARGES
-----------------------
   0 C :   -0.390973
   1 C :   -0.065091
   2 N :   -0.308746
   3 C :    0.276690
   4 N :   -0.336193
   5 C :    0.231285
   6 C :   -0.436037
   7 N :   -0.145458
   8 O :   -0.169883
   9 H :    0.128627
  10 H :    0.121597
  11 H :    0.124475
  12 H :    0.114721
  13 H :    0.107412
  14 H :    0.264867
  15 H :    0.154856
  16 H :    0.172620
  17 H :    0.155231
Sum of atomic charges:   -0.0000000

LOEWDIN ATOMIC CHARGES
----------------------
   0 C :   -0.320431
   1 C :   -0.320164
   2 N :    0.057258
   3 C :   -0.450129
   4 N :    0.173065
   5 C :   -0.376906
   6 C :   -0.260895
   7 N :    0.046800
   8 O :    0.211020
   9 H :    0.120533
  10 H :    0.120318
  11 H :    0.120811
  12 H :    0.128561
  13 H :    0.124207
  14 H :    0.201172
  15 H :    0.138458
  16 H :    0.147716
  17 H :    0.138604

  Mayer bond orders larger than 0.1
B(  0-C ,  1-C ) :   0.9214 B(  0-C ,  9-H ) :   0.9361 B(  0-C , 10-H ) :   0.9353
B(  0-C , 11-H ) :   0.9373 B(  1-C ,  2-N ) :   0.8747 B(  1-C , 12-H ) :   0.9358
B(  1-C , 13-H ) :   0.9264 B(  2-N ,  3-C ) :   1.9139 B(  3-C ,  4-N ) :   1.0329
B(  3-C ,  8-O ) :   1.0544 B(  4-N ,  5-C ) :   1.0974 B(  4-N , 14-H ) :   0.8586
B(  5-C ,  6-C ) :   0.8700 B(  5-C ,  7-N ) :   1.7381 B(  6-C , 15-H ) :   0.9262
B(  6-C , 16-H ) :   0.9452 B(  6-C , 17-H ) :   0.9256 B(  7-N ,  8-O ) :   0.8014

MP2 TOTAL ENERGY:     -434.535253239 Eh
FINAL SINGLE POINT ENERGY      -434.535253238890

DIPOLE MOMENT
-------------
                                X             Y             Z
Electronic contribution:      1.36968      -1.12027       4.84736
Nuclear contribution   :     -1.26860      -0.23726      -4.37431
                        -----------------------------------------
Total Dipole Moment    :      0.10108      -1.35753       0.47305
                        -----------------------------------------
Magnitude (a.u.)       :      1.44114
Magnitude (Debye)      :      3.66308

                             ****ORCA TERMINATED NORMALLY****
TOTAL RUN TIME: 0 days 0 hours 16 minutes 18 seconds 575 msec
