                         Program Version 3.0.3 - RELEASE   -
|  1> ! RI-MP2 RIJK def2-TZVP def2-TZVP/C def2-TZVP/JK TIGHTSCF
|  2> % maxcore 2000
|  3> % mp2 density relaxed end
|  4> *xyz 0 1
|  5>  N        0.0217303450     1.0463124160    -0.8657839699
|  6>  C        0.0036421600     0.0273234441    -0.0917236471
|  7>  N       -1.2094543932    -0.5045609446     0.2939878856
|  8>  C       -1.4656042562    -1.5462461601     1.1958385181
|  9>  N       -2.4686037876    -1.4368017219     1.9704181272
| 10>  N       -0.7163519783    -2.7260117449     1.0645483769
| 11>  C        0.5402362085    -2.7635095533     0.8694785563
| 12>  N        1.4955020410    -1.7406348906     0.8871334444
| 13>  C        1.2500915940    -0.5580451486     0.4839796049
| 14>  H        0.9763539888     1.3626572944    -1.0280031491
| 15>  H       -2.0000408436     0.1059762132     0.1293023686
| 16>  H       -2.6176643518    -2.3237322816     2.4507886833
| 17>  H        0.9960526392    -3.7453928258     0.7418294234
| 18>  H        2.0718445441     0.1608768536     0.5363750373
| 19> *
| 20>
| 21>                          ****END OF INPUT****

CARTESIAN COORDINATES (ANGSTROEM)
---------------------------------
  N      0.021730    1.046312   -0.865784
  C      0.003642    0.027323   -0.091724
  N     -1.209454   -0.504561    0.293988
  C     -1.465604   -1.546246    1.195839
  N     -2.468604   -1.436802    1.970418
  N     -0.716352   -2.726012    1.064548
  C      0.540236   -2.763510    0.869479
  N      1.495502   -1.740635    0.887133
  C      1.250092   -0.558045    0.483980
  H      0.976354    1.362657   -1.028003
  H     -2.000041    0.105976    0.129302
  H     -2.617664   -2.323732    2.450789
  H      0.996053   -3.745393    0.741829
  H      2.071845    0.160877    0.536375

 Total Charge           Charge          ....    0
 Multiplicity           Mult            ....    1
 Number of Electrons    NEL             ....   64
 Basis Dimension        Dim             ....  309

ORBITAL ENERGIES
----------------

  NO   OCC          E(Eh)            E(eV)
   0   2.0000     -15.617589      -424.9762
   1   2.0000     -15.611193      -424.8022
   2   2.0000     -15.593341      -424.3164
   3   2.0000     -15.568499      -423.6404
   4   2.0000     -15.543638      -422.9639
   5   2.0000     -11.364197      -309.2355
   6   2.0000     -11.360185      -309.1264
   7   2.0000     -11.354560      -308.9733
   8   2.0000     -11.349678      -308.8404
   9   2.0000      -1.358568       -36.9685
  10   2.0000      -1.291993       -35.1569
  11   2.0000      -1.270332       -34.5675
  12   2.0000      -1.193580       -32.4790
  13   2.0000      -1.162845       -31.6426
  14   2.0000      -0.988543       -26.8996
  15   2.0000      -0.914382       -24.8816
  16   2.0000      -0.835238       -22.7280
  17   2.0000      -0.827426       -22.5154
  18   2.0000      -0.735773       -20.0214
  19   2.0000      -0.702421       -19.1138
  20   2.0000      -0.688712       -18.7408
  21   2.0000      -0.655636       -17.8408
  22   2.0000      -0.652904       -17.7664
  23   2.0000      -0.588015       -16.0007
  24   2.0000      -0.544653       -14.8208
  25   2.0000      -0.527407       -14.3515
  26   2.0000      -0.518655       -14.1133
  27   2.0000      -0.468334       -12.7440
  28   2.0000      -0.456835       -12.4311
  29   2.0000      -0.431347       -11.7375
  30   2.0000      -0.404239       -10.9999
  31   2.0000      -0.373554       -10.1649
  32   0.0000       0.031831         0.8662
  33   0.0000       0.099899         2.7184
  34   0.0000       0.133483         3.6323
  35   0.0000       0.162014         4.4086
  36   0.0000       0.171485         4.6664

MULLIKEN ATOMIC CHARGES
-----------------------
   0 N :   -0.365250
   1 C :    0.190875
   2 N :   -0.264211
   3 C :    0.195728
   4 N :   -0.362704
   5 N :   -0.222260
   6 C :    0.071866
   7 N :   -0.196303
   8 C :   -0.073749
   9 H :    0.220548
  10 H :    0.266658
  11 H :    0.231047
  12 H :    0.152190
  13 H :    0.155564
Sum of atomic charges:   -0.0000000

LOEWDIN ATOMIC CHARGES
----------------------
   0 N :   -0.043024
   1 C :   -0.370925
   2 N :    0.176382
   3 C :   -0.435393
   4 N :   -0.046513
   5 N :    0.154334
   6 C :   -0.265638
   7 N :    0.141535
   8 C :   -0.157709
   9 H :    0.166814
  10 H :    0.213748
  11 H :    0.171925
  12 H :    0.143287
  13 H :    0.151175

  Mayer bond orders larger than 0.1
B(  0-N ,  1-C ) :   1.8553 B(  0-N ,  9-H ) :   0.8634 B(  1-C ,  2-N ) :   1.0855
B(  1-C ,  8-C ) :   0.9526 B(  2-N ,  3-C ) :   1.0101 B(  2-N , 10-H ) :   0.8448
B(  3-C ,  4-N ) :   1.9677 B(  3-C ,  5-N ) :   1.0266 B(  4-N , 11-H ) :   0.8543
B(  5-N ,  6-C ) :   1.7722 B(  6-C ,  7-N ) :   1.0160 B(  6-C , 12-H ) :   0.9230
B(  7-N ,  8-C ) :   1.7757 B(  8-C , 13-H ) :   0.9283

MP2 TOTAL ENERGY:     -428.321226667 Eh
FINAL SINGLE POINT ENERGY      -428.321226667018

DIPOLE MOMENT
-------------
                                X             Y             Z
Electronic contribution:      0.09642      -1.25222       0.25602
Nuclear contribution   :      0.86164       1.08314      -0.36528
                        -----------------------------------------
Total Dipole Moment    :      0.95806      -0.16908      -0.10926
                        -----------------------------------------
Magnitude (a.u.)       :      0.97898
Magnitude (Debye)      :      2.48836

                             ****ORCA TERMINATED NORMALLY****
TOTAL RUN TIME: 0 days 0 hours 13 minutes 53 seconds 4 msec
