                         Program Version 3.0.3 - RELEASE   -
|  1> ! RI-MP2 RIJK def2-TZVP def2-TZVP/C def2-TZVP/JK TIGHTSCF
|  2> % maxcore 2000
|  3> % mp2 density relaxed end
|  4> *xyz 0 1
|  5>  O       -0.0162610958     0.3264638116    -1.1068611260
|  6>  C        0.0122238782     1.1964488379    -0.2554610187
|  7>  C       -1.2335104795     1.5245580909     0.4847944890
|  8>  C       -1.4342371157     2.4315591236     1.4507333257
|  9>  C       -0.4835233658     3.4015187260     2.0957508943
| 10>  C        0.9684143166     3.4124207224     1.6232945057
| 11>  C        1.1318539772     3.4879571295     0.0797968254
| 12>  C        1.2980124200     1.9361860470     0.0500581151
| 13>  C        1.6290406597     2.0067462980     1.5738818347
| 14>  H       -2.0704265438     0.9133721379     0.1576891759
| 15>  H       -2.4456625698     2.4962384665     1.8515873105
| 16>  H       -0.9110114837     4.4091221963     1.9769175308
| 17>  H       -0.5103109163     3.2158424022     3.1806210720
| 18>  H        1.5117359973     4.1705911224     2.1941218300
| 19>  H        0.3129006641     3.9212316547    -0.5000256563
| 20>  H        2.0642409319     3.9812774985    -0.2047181957
| 21>  H        2.0684519383     1.5320939978    -0.6068978784
| 22>  H        2.7087067523     2.0612780458     1.7320149786
| 23>  H        1.2175744549     1.2259716710     2.2186239676
| 24> *
| 25>
| 26>                          ****END OF INPUT****

CARTESIAN COORDINATES (ANGSTROEM)
---------------------------------
  O     -0.016261    0.326464   -1.106861
  C      0.012224    1.196449   -0.255461
  C     -1.233510    1.524558    0.484794
  C     -1.434237    2.431559    1.450733
  C     -0.483523    3.401519    2.095751
  C      0.968414    3.412421    1.623295
  C      1.131854    3.487957    0.079797
  C      1.298012    1.936186    0.050058
  C      1.629041    2.006746    1.573882
  H     -2.070427    0.913372    0.157689
  H     -2.445663    2.496238    1.851587
  H     -0.911011    4.409122    1.976918
  H     -0.510311    3.215842    3.180621
  H      1.511736    4.170591    2.194122
  H      0.312901    3.921232   -0.500026
  H      2.064241    3.981277   -0.204718
  H      2.068452    1.532094   -0.606898
  H      2.708707    2.061278    1.732015
  H      1.217574    1.225972    2.218624

 Total Charge           Charge          ....    0
 Multiplicity           Mult            ....    1
 Number of Electrons    NEL             ....   66
 Basis Dimension        Dim             ....  339

ORBITAL ENERGIES
----------------

  NO   OCC          E(Eh)            E(eV)
   0   2.0000     -20.535044      -558.7870
   1   2.0000     -11.321969      -308.0864
   2   2.0000     -11.262905      -306.4792
   3   2.0000     -11.247152      -306.0506
   4   2.0000     -11.243402      -305.9485
   5   2.0000     -11.237983      -305.8011
   6   2.0000     -11.235344      -305.7293
   7   2.0000     -11.235272      -305.7273
   8   2.0000     -11.234299      -305.7008
   9   2.0000      -1.376077       -37.4450
  10   2.0000      -1.164743       -31.6943
  11   2.0000      -1.077280       -29.3143
  12   2.0000      -1.012426       -27.5495
  13   2.0000      -0.913511       -24.8579
  14   2.0000      -0.894258       -24.3340
  15   2.0000      -0.854247       -23.2452
  16   2.0000      -0.745955       -20.2985
  17   2.0000      -0.701867       -19.0988
  18   2.0000      -0.682614       -18.5749
  19   2.0000      -0.666375       -18.1330
  20   2.0000      -0.616558       -16.7774
  21   2.0000      -0.610509       -16.6128
  22   2.0000      -0.602791       -16.4028
  23   2.0000      -0.567208       -15.4345
  24   2.0000      -0.566913       -15.4265
  25   2.0000      -0.531669       -14.4675
  26   2.0000      -0.528568       -14.3831
  27   2.0000      -0.474974       -12.9247
  28   2.0000      -0.472057       -12.8453
  29   2.0000      -0.447043       -12.1647
  30   2.0000      -0.446700       -12.1553
  31   2.0000      -0.402727       -10.9588
  32   2.0000      -0.373198       -10.1552
  33   0.0000       0.094366         2.5678
  34   0.0000       0.122193         3.3250
  35   0.0000       0.151969         4.1353
  36   0.0000       0.166427         4.5287
  37   0.0000       0.172464         4.6930

MULLIKEN ATOMIC CHARGES
-----------------------
   0 O :   -0.284774
   1 C :    0.144003
   2 C :   -0.231714
   3 C :   -0.162380
   4 C :   -0.189422
   5 C :    0.007987
   6 C :   -0.317854
   7 C :    0.065123
   8 C :   -0.317800
   9 H :    0.130867
  10 H :    0.129992
  11 H :    0.132556
  12 H :    0.132554
  13 H :    0.107983
  14 H :    0.135879
  15 H :    0.129518
  16 H :    0.122058
  17 H :    0.129536
  18 H :    0.135890
Sum of atomic charges:    0.0000000

LOEWDIN ATOMIC CHARGES
----------------------
   0 O :    0.147261
   1 C :   -0.308631
   2 C :   -0.144507
   3 C :   -0.132997
   4 C :   -0.238062
   5 C :   -0.225591
   6 C :   -0.184479
   7 C :   -0.183800
   8 C :   -0.184441
   9 H :    0.156461
  10 H :    0.151003
  11 H :    0.155141
  12 H :    0.155146
  13 H :    0.141359
  14 H :    0.133939
  15 H :    0.139587
  16 H :    0.149074
  17 H :    0.139591
  18 H :    0.133946

  Mayer bond orders larger than 0.1
B(  0-O ,  1-C ) :   1.9356 B(  1-C ,  2-C ) :   1.0147 B(  1-C ,  7-C ) :   0.8942
B(  2-C ,  3-C ) :   1.6886 B(  2-C ,  7-C ) :  -0.1021 B(  2-C ,  9-H ) :   0.9238
B(  3-C ,  4-C ) :   0.9382 B(  3-C , 10-H ) :   0.9242 B(  4-C ,  5-C ) :   0.9293
B(  4-C , 11-H ) :   0.9095 B(  4-C , 12-H ) :   0.9095 B(  5-C ,  6-C ) :   0.8959
B(  5-C ,  8-C ) :   0.8959 B(  5-C , 13-H ) :   0.9285 B(  6-C ,  7-C ) :   0.8564
B(  6-C , 14-H ) :   0.9244 B(  6-C , 15-H ) :   0.9204 B(  7-C ,  8-C ) :   0.8565
B(  7-C , 16-H ) :   0.9272 B(  8-C , 17-H ) :   0.9204 B(  8-C , 18-H ) :   0.9244

MP2 TOTAL ENERGY:     -385.226376650 Eh
FINAL SINGLE POINT ENERGY      -385.226376650247

DIPOLE MOMENT
-------------
                                X             Y             Z
Electronic contribution:     -1.59700      -4.63825      -4.06632
Nuclear contribution   :      1.67160       5.71838       5.11154
                        -----------------------------------------
Total Dipole Moment    :      0.07460       1.08013       1.04522
                        -----------------------------------------
Magnitude (a.u.)       :      1.50490
Magnitude (Debye)      :      3.82516

                             ****ORCA TERMINATED NORMALLY****
TOTAL RUN TIME: 0 days 0 hours 19 minutes 57 seconds 42 msec
