                         Program Version 3.0.3 - RELEASE   -
|  1> ! RI-MP2 RIJK def2-TZVP def2-TZVP/C def2-TZVP/JK TIGHTSCF
|  2> % maxcore 2000
|  3> % mp2 density relaxed end
|  4> *xyz 0 1
|  5>  N       -0.7825430911    -0.7710747861    -1.1631857886
|  6>  C       -0.4719877231     0.2252150616    -0.6660712105
|  7>  C       -0.0844477108     1.4796090456    -0.0336282004
|  8>  C       -0.1482803205     1.5658727779     1.5245136599
|  9>  C        1.2934952764     2.1338691002     1.4739840190
| 10>  C        2.4639837043     1.3519194067     2.1084977694
| 11>  N        2.9510223707     0.4503712276     1.0481282113
| 12>  C        2.2969210456     0.7113218848    -0.0115833180
| 13>  N        1.3876701415     1.7910687433     0.0131463672
| 14>  H       -0.6208476198     2.2968888214    -0.5247110037
| 15>  H       -0.9308622012     2.2085659070     1.9293069167
| 16>  H       -0.2031500506     0.5812938048     1.9935070006
| 17>  H        1.3462875754     3.2106261404     1.6471577406
| 18>  H        3.2728123724     2.0210061680     2.4213817310
| 19>  H        2.1697660385     0.7665817944     2.9876381548
| 20>  H        2.4305709525     0.1692288724    -0.9428509594
| 21> *
| 22>
| 23>                          ****END OF INPUT****

CARTESIAN COORDINATES (ANGSTROEM)
---------------------------------
  N     -0.782543   -0.771075   -1.163186
  C     -0.471988    0.225215   -0.666071
  C     -0.084448    1.479609   -0.033628
  C     -0.148280    1.565873    1.524514
  C      1.293495    2.133869    1.473984
  C      2.463984    1.351919    2.108498
  N      2.951022    0.450371    1.048128
  C      2.296921    0.711322   -0.011583
  N      1.387670    1.791069    0.013146
  H     -0.620848    2.296889   -0.524711
  H     -0.930862    2.208566    1.929307
  H     -0.203150    0.581294    1.993507
  H      1.346288    3.210626    1.647158
  H      3.272812    2.021006    2.421382
  H      2.169766    0.766582    2.987638
  H      2.430571    0.169229   -0.942851

 Total Charge           Charge          ....    0
 Multiplicity           Mult            ....    1
 Number of Electrons    NEL             ....   64
 Basis Dimension        Dim             ....  321

ORBITAL ENERGIES
----------------

  NO   OCC          E(Eh)            E(eV)
   0   2.0000     -15.596261      -424.3958
   1   2.0000     -15.588341      -424.1803
   2   2.0000     -15.560650      -423.4268
   3   2.0000     -11.333754      -308.4071
   4   2.0000     -11.312912      -307.8400
   5   2.0000     -11.289520      -307.2035
   6   2.0000     -11.286870      -307.1313
   7   2.0000     -11.269396      -306.6559
   8   2.0000     -11.269308      -306.6535
   9   2.0000      -1.334944       -36.3257
  10   2.0000      -1.235952       -33.6320
  11   2.0000      -1.203476       -32.7482
  12   2.0000      -1.052769       -28.6473
  13   2.0000      -1.015439       -27.6315
  14   2.0000      -0.932343       -25.3703
  15   2.0000      -0.823794       -22.4166
  16   2.0000      -0.796768       -21.6812
  17   2.0000      -0.740299       -20.1446
  18   2.0000      -0.702922       -19.1275
  19   2.0000      -0.653465       -17.7817
  20   2.0000      -0.623596       -16.9689
  21   2.0000      -0.595459       -16.2033
  22   2.0000      -0.580281       -15.7902
  23   2.0000      -0.576930       -15.6991
  24   2.0000      -0.561257       -15.2726
  25   2.0000      -0.528150       -14.3717
  26   2.0000      -0.525053       -14.2874
  27   2.0000      -0.482372       -13.1260
  28   2.0000      -0.477573       -12.9954
  29   2.0000      -0.455907       -12.4059
  30   2.0000      -0.433398       -11.7934
  31   2.0000      -0.372360       -10.1324
  32   0.0000       0.119631         3.2553
  33   0.0000       0.132176         3.5967
  34   0.0000       0.138051         3.7566
  35   0.0000       0.151380         4.1193
  36   0.0000       0.159286         4.3344

MULLIKEN ATOMIC CHARGES
-----------------------
   0 N :   -0.038996
   1 C :   -0.216701
   2 C :    0.077437
   3 C :   -0.232686
   4 C :   -0.057356
   5 C :   -0.133836
   6 N :   -0.237378
   7 C :    0.000926
   8 N :   -0.130392
   9 H :    0.146993
  10 H :    0.144177
  11 H :    0.144509
  12 H :    0.125383
  13 H :    0.127522
  14 H :    0.125142
  15 H :    0.155254
Sum of atomic charges:   -0.0000000

LOEWDIN ATOMIC CHARGES
----------------------
   0 N :    0.080512
   1 C :   -0.172972
   2 C :   -0.219799
   3 C :   -0.174984
   4 C :   -0.213856
   5 C :   -0.258915
   6 N :    0.083831
   7 C :   -0.291625
   8 N :    0.162240
   9 H :    0.168515
  10 H :    0.134492
  11 H :    0.147587
  12 H :    0.143110
  13 H :    0.135462
  14 H :    0.135074
  15 H :    0.141328

  Mayer bond orders larger than 0.1
B(  0-N ,  1-C ) :   2.8401 B(  1-C ,  2-C ) :   0.9615 B(  2-C ,  3-C ) :   0.9068
B(  2-C ,  8-N ) :   0.8995 B(  2-C ,  9-H ) :   0.8945 B(  3-C ,  4-C ) :   0.9238
B(  3-C , 10-H ) :   0.9241 B(  3-C , 11-H ) :   0.9171 B(  4-C ,  5-C ) :   0.9601
B(  4-C ,  8-N ) :   0.8978 B(  4-C , 12-H ) :   0.9098 B(  5-C ,  6-N ) :   0.9326
B(  5-C , 13-H ) :   0.9250 B(  5-C , 14-H ) :   0.9145 B(  6-N ,  7-C ) :   1.8258
B(  7-C ,  8-N ) :   1.0206 B(  7-C , 15-H ) :   0.9134

MP2 TOTAL ENERGY:     -396.231416916 Eh
FINAL SINGLE POINT ENERGY      -396.231416915798

DIPOLE MOMENT
-------------
                                X             Y             Z
Electronic contribution:     -0.84660      -2.50111      -4.70605
Nuclear contribution   :      0.41461       3.95600       5.61001
                        -----------------------------------------
Total Dipole Moment    :     -0.43199       1.45489       0.90396
                        -----------------------------------------
Magnitude (a.u.)       :      1.76648
Magnitude (Debye)      :      4.49004

                             ****ORCA TERMINATED NORMALLY****
TOTAL RUN TIME: 0 days 0 hours 16 minutes 58 seconds 341 msec
