                         Program Version 3.0.3 - RELEASE   -
|  1> ! RI-MP2 RIJK def2-TZVP def2-TZVP/C def2-TZVP/JK TIGHTSCF
|  2> % maxcore 2000
|  3> % mp2 density relaxed end
|  4> *xyz 0 1
|  5>  C       -0.2032255402     1.4755007669     0.2314585208
|  6>  C       -0.0608294874    -0.0240151557     0.0390073921
|  7>  C        1.0592804455    -0.4858080631    -0.8643396336
|  8>  C        1.1710772169    -0.6674677646     0.6325745051
|  9>  C       -1.3534137554    -0.8375542506     0.0368048521
| 10>  O       -0.9880901821    -2.1925743882    -0.1550107158
| 11>  C       -2.3104407371    -0.5606827472     1.2445314725
| 12>  C       -3.2234560254     0.2816798589     0.3124252532
| 13>  C       -2.4719734842    -0.2983236491    -0.9167439380
| 14>  H        0.7829636258     1.9485795782     0.2158061333
| 15>  H       -0.7973216492     1.9401714615    -0.5629481775
| 16>  H       -0.6673997671     1.7274871430     1.1911375310
| 17>  H        0.8963916263    -1.3773950931    -1.4561622901
| 18>  H        1.6681280758     0.2760410957    -1.3401795353
| 19>  H        1.8564744903    -0.0299679536     1.1815406212
| 20>  H        1.0808222821    -1.6769863291     1.0126283585
| 21>  H       -1.7934248875    -2.7178395188    -0.1580564572
| 22>  H       -2.7926927505    -1.4883506764     1.5697900127
| 23>  H       -1.8828455037    -0.0752714732     2.1250614071
| 24>  H       -4.2955897825     0.0822340672     0.3683488445
| 25>  H       -3.0711135134     1.3562304636     0.4314648453
| 26>  H       -2.1694685402     0.3901920937    -1.7093501090
| 27>  H       -3.0130601867    -1.1304165161    -1.3790931028
| 28> *
| 29>
| 30>                          ****END OF INPUT****

CARTESIAN COORDINATES (ANGSTROEM)
---------------------------------
  C     -0.203226    1.475501    0.231459
  C     -0.060829   -0.024015    0.039007
  C      1.059280   -0.485808   -0.864340
  C      1.171077   -0.667468    0.632575
  C     -1.353414   -0.837554    0.036805
  O     -0.988090   -2.192574   -0.155011
  C     -2.310441   -0.560683    1.244531
  C     -3.223456    0.281680    0.312425
  C     -2.471973   -0.298324   -0.916744
  H      0.782964    1.948580    0.215806
  H     -0.797322    1.940171   -0.562948
  H     -0.667400    1.727487    1.191138
  H      0.896392   -1.377395   -1.456162
  H      1.668128    0.276041   -1.340180
  H      1.856474   -0.029968    1.181541
  H      1.080822   -1.676986    1.012628
  H     -1.793425   -2.717840   -0.158056
  H     -2.792693   -1.488351    1.569790
  H     -1.882846   -0.075271    2.125061
  H     -4.295590    0.082234    0.368349
  H     -3.071114    1.356230    0.431465
  H     -2.169469    0.390192   -1.709350
  H     -3.013060   -1.130417   -1.379093

 Total Charge           Charge          ....    0
 Multiplicity           Mult            ....    1
 Number of Electrons    NEL             ....   70
 Basis Dimension        Dim             ....  363

ORBITAL ENERGIES
----------------

  NO   OCC          E(Eh)            E(eV)
   0   2.0000     -20.552570      -559.2639
   1   2.0000     -11.285050      -307.0818
   2   2.0000     -11.229864      -305.5801
   3   2.0000     -11.222273      -305.3736
   4   2.0000     -11.219393      -305.2952
   5   2.0000     -11.219333      -305.2936
   6   2.0000     -11.214885      -305.1725
   7   2.0000     -11.209435      -305.0242
   8   2.0000     -11.208791      -305.0067
   9   2.0000      -1.364995       -37.1434
  10   2.0000      -1.146425       -31.1958
  11   2.0000      -1.105727       -30.0884
  12   2.0000      -0.958286       -26.0763
  13   2.0000      -0.905282       -24.6340
  14   2.0000      -0.895697       -24.3732
  15   2.0000      -0.810194       -22.0465
  16   2.0000      -0.793781       -21.5999
  17   2.0000      -0.718656       -19.5556
  18   2.0000      -0.683793       -18.6069
  19   2.0000      -0.666751       -18.1432
  20   2.0000      -0.620684       -16.8897
  21   2.0000      -0.596564       -16.2333
  22   2.0000      -0.586156       -15.9501
  23   2.0000      -0.582018       -15.8375
  24   2.0000      -0.576948       -15.6995
  25   2.0000      -0.532790       -14.4979
  26   2.0000      -0.531662       -14.4673
  27   2.0000      -0.506104       -13.7718
  28   2.0000      -0.495557       -13.4848
  29   2.0000      -0.468783       -12.7562
  30   2.0000      -0.461725       -12.5642
  31   2.0000      -0.445906       -12.1337
  32   2.0000      -0.431167       -11.7327
  33   2.0000      -0.394731       -10.7412
  34   2.0000      -0.373506       -10.1636
  35   0.0000       0.134152         3.6505
  36   0.0000       0.147486         4.0133
  37   0.0000       0.165946         4.5156
  38   0.0000       0.168754         4.5920
  39   0.0000       0.180820         4.9204

MULLIKEN ATOMIC CHARGES
-----------------------
   0 C :   -0.437215
   1 C :    0.075258
   2 C :   -0.297142
   3 C :   -0.297141
   4 C :    0.235683
   5 O :   -0.458638
   6 C :   -0.270693
   7 C :   -0.210384
   8 C :   -0.270650
   9 H :    0.136190
  10 H :    0.134584
  11 H :    0.134579
  12 H :    0.140991
  13 H :    0.123990
  14 H :    0.123986
  15 H :    0.140982
  16 H :    0.310042
  17 H :    0.102644
  18 H :    0.123115
  19 H :    0.112311
  20 H :    0.121747
  21 H :    0.123111
  22 H :    0.102649
Sum of atomic charges:    0.0000000

LOEWDIN ATOMIC CHARGES
----------------------
   0 C :   -0.260435
   1 C :   -0.241609
   2 C :   -0.206632
   3 C :   -0.206635
   4 C :   -0.314417
   5 O :    0.021773
   6 C :   -0.205459
   7 C :   -0.246940
   8 C :   -0.205448
   9 H :    0.131304
  10 H :    0.125948
  11 H :    0.125944
  12 H :    0.137968
  13 H :    0.129496
  14 H :    0.129493
  15 H :    0.137963
  16 H :    0.172158
  17 H :    0.131940
  18 H :    0.128974
  19 H :    0.122596
  20 H :    0.131101
  21 H :    0.128968
  22 H :    0.131946

  Mayer bond orders larger than 0.1
B(  0-C ,  1-C ) :   0.9131 B(  0-C ,  9-H ) :   0.9296 B(  0-C , 10-H ) :   0.9365
B(  0-C , 11-H ) :   0.9365 B(  1-C ,  2-C ) :   0.8673 B(  1-C ,  3-C ) :   0.8673
B(  1-C ,  4-C ) :   0.9132 B(  1-C ,  5-O ) :  -0.1266 B(  2-C ,  3-C ) :   0.9190
B(  2-C , 12-H ) :   0.9168 B(  2-C , 13-H ) :   0.9305 B(  3-C , 14-H ) :   0.9305
B(  3-C , 15-H ) :   0.9168 B(  4-C ,  5-O ) :   1.0373 B(  4-C ,  6-C ) :   0.8622
B(  4-C ,  8-C ) :   0.8621 B(  5-O , 16-H ) :   0.8405 B(  6-C ,  7-C ) :   0.9694
B(  6-C , 17-H ) :   0.9116 B(  6-C , 18-H ) :   0.9252 B(  7-C ,  8-C ) :   0.9693
B(  7-C , 19-H ) :   0.9273 B(  7-C , 20-H ) :   0.9196 B(  8-C , 21-H ) :   0.9253
B(  8-C , 22-H ) :   0.9116

MP2 TOTAL ENERGY:     -387.596292212 Eh
FINAL SINGLE POINT ENERGY      -387.596292211711

DIPOLE MOMENT
-------------
                                X             Y             Z
Electronic contribution:      0.35823      -4.23603      -0.54092
Nuclear contribution   :     -0.94443       4.37418       0.60178
                        -----------------------------------------
Total Dipole Moment    :     -0.58619       0.13814       0.06087
                        -----------------------------------------
Magnitude (a.u.)       :      0.60532
Magnitude (Debye)      :      1.53860

                             ****ORCA TERMINATED NORMALLY****
TOTAL RUN TIME: 0 days 0 hours 21 minutes 34 seconds 84 msec
