                         Program Version 3.0.3 - RELEASE   -
|  1> ! RI-MP2 RIJK def2-TZVP def2-TZVP/C def2-TZVP/JK TIGHTSCF
|  2> % maxcore 2000
|  3> % mp2 density relaxed end
|  4> *xyz 0 1
|  5>  C       -0.4822286055     1.4586217314     0.0575839795
|  6>  C       -0.0072145535     0.0131539459     0.0091116320
|  7>  C        1.2060001586    -0.3368833763    -0.9097274732
|  8>  C        1.8961499384    -1.0777293261     0.2656119897
|  9>  C        2.8995553151    -0.2110349224     1.0754979765
| 10>  C        1.7495442157     0.1991873079     2.0138523514
| 11>  C        1.8565659246     0.2273335000     3.5135283170
| 12>  C        1.5656530614     1.4968553172     2.7514553361
| 13>  C        0.7285801080    -0.6341946431     1.2268887369
| 14>  H        0.3388369040     2.1462280272     0.2812158063
| 15>  H       -0.9083771883     1.7535113613    -0.9083898651
| 16>  H       -1.2580279410     1.6039169266     0.8181761420
| 17>  H       -0.8567648809    -0.6281458718    -0.2512499002
| 18>  H        0.9549353892    -0.9629445528    -1.7697807418
| 19>  H        1.7659393481     0.5301846710    -1.2765928127
| 20>  H        2.1635096329    -2.1223095265     0.1051098529
| 21>  H        3.6884730214    -0.7823885108     1.5745977520
| 22>  H        3.3704447958     0.5965461470     0.5040468651
| 23>  H        1.0514011681    -0.2153042419     4.0923059931
| 24>  H        2.8416655851     0.1055859479     3.9539358782
| 25>  H        2.3526607144     2.2410706966     2.6739662394
| 26>  H        0.5676105965     1.9146184464     2.8246434889
| 27>  H        0.1380382520    -1.3359383346     1.8210269258
| 28> *
| 29>
| 30>                          ****END OF INPUT****

CARTESIAN COORDINATES (ANGSTROEM)
---------------------------------
  C     -0.482229    1.458622    0.057584
  C     -0.007215    0.013154    0.009112
  C      1.206000   -0.336883   -0.909727
  C      1.896150   -1.077729    0.265612
  C      2.899555   -0.211035    1.075498
  C      1.749544    0.199187    2.013852
  C      1.856566    0.227333    3.513528
  C      1.565653    1.496855    2.751455
  C      0.728580   -0.634195    1.226889
  H      0.338837    2.146228    0.281216
  H     -0.908377    1.753511   -0.908390
  H     -1.258028    1.603917    0.818176
  H     -0.856765   -0.628146   -0.251250
  H      0.954935   -0.962945   -1.769781
  H      1.765939    0.530185   -1.276593
  H      2.163510   -2.122310    0.105110
  H      3.688473   -0.782389    1.574598
  H      3.370445    0.596546    0.504047
  H      1.051401   -0.215304    4.092306
  H      2.841666    0.105586    3.953936
  H      2.352661    2.241071    2.673966
  H      0.567611    1.914618    2.824643
  H      0.138038   -1.335938    1.821027

 Total Charge           Charge          ....    0
 Multiplicity           Mult            ....    1
 Number of Electrons    NEL             ....   68
 Basis Dimension        Dim             ....  363

ORBITAL ENERGIES
----------------

  NO   OCC          E(Eh)            E(eV)
   0   2.0000     -11.228276      -305.5369
   1   2.0000     -11.221293      -305.3469
   2   2.0000     -11.219661      -305.3025
   3   2.0000     -11.217891      -305.2543
   4   2.0000     -11.217641      -305.2475
   5   2.0000     -11.216804      -305.2248
   6   2.0000     -11.215259      -305.1827
   7   2.0000     -11.211706      -305.0860
   8   2.0000     -11.207015      -304.9584
   9   2.0000      -1.173072       -31.9209
  10   2.0000      -1.104228       -30.0476
  11   2.0000      -1.009999       -27.4835
  12   2.0000      -0.933335       -25.3973
  13   2.0000      -0.896022       -24.3820
  14   2.0000      -0.817880       -22.2556
  15   2.0000      -0.801337       -21.8055
  16   2.0000      -0.765883       -20.8407
  17   2.0000      -0.685003       -18.6399
  18   2.0000      -0.668624       -18.1942
  19   2.0000      -0.636889       -17.3306
  20   2.0000      -0.621078       -16.9004
  21   2.0000      -0.580183       -15.7876
  22   2.0000      -0.575597       -15.6628
  23   2.0000      -0.564462       -15.3598
  24   2.0000      -0.538769       -14.6607
  25   2.0000      -0.505698       -13.7608
  26   2.0000      -0.498030       -13.5521
  27   2.0000      -0.480028       -13.0622
  28   2.0000      -0.457566       -12.4510
  29   2.0000      -0.448378       -12.2010
  30   2.0000      -0.435284       -11.8447
  31   2.0000      -0.403015       -10.9666
  32   2.0000      -0.376563       -10.2468
  33   2.0000      -0.374523       -10.1913
  34   0.0000       0.137972         3.7544
  35   0.0000       0.152956         4.1621
  36   0.0000       0.161675         4.3994
  37   0.0000       0.164511         4.4766
  38   0.0000       0.186283         5.0690

MULLIKEN ATOMIC CHARGES
-----------------------
   0 C :   -0.449435
   1 C :   -0.050896
   2 C :   -0.261658
   3 C :   -0.098134
   4 C :   -0.244746
   5 C :   -0.040015
   6 C :   -0.295191
   7 C :   -0.267894
   8 C :    0.058990
   9 H :    0.137608
  10 H :    0.132258
  11 H :    0.126479
  12 H :    0.088257
  13 H :    0.116794
  14 H :    0.101552
  15 H :    0.110635
  16 H :    0.113733
  17 H :    0.104734
  18 H :    0.124237
  19 H :    0.124841
  20 H :    0.124867
  21 H :    0.132326
  22 H :    0.110658
Sum of atomic charges:   -0.0000000

LOEWDIN ATOMIC CHARGES
----------------------
   0 C :   -0.302518
   1 C :   -0.232062
   2 C :   -0.199279
   3 C :   -0.166436
   4 C :   -0.177630
   5 C :   -0.207990
   6 C :   -0.209761
   7 C :   -0.216272
   8 C :   -0.124143
   9 H :    0.124525
  10 H :    0.123926
  11 H :    0.122337
  12 H :    0.148445
  13 H :    0.127573
  14 H :    0.130410
  15 H :    0.130793
  16 H :    0.132683
  17 H :    0.129756
  18 H :    0.132234
  19 H :    0.131922
  20 H :    0.133043
  21 H :    0.133469
  22 H :    0.134976

  Mayer bond orders larger than 0.1
B(  0-C ,  1-C ) :   0.8711 B(  0-C ,  9-H ) :   0.9447 B(  0-C , 10-H ) :   0.9369
B(  0-C , 11-H ) :   0.9429 B(  1-C ,  2-C ) :   0.9637 B(  1-C ,  8-C ) :   0.8973
B(  1-C , 12-H ) :   0.9224 B(  2-C ,  3-C ) :   0.9230 B(  2-C , 13-H ) :   0.9211
B(  2-C , 14-H ) :   0.9076 B(  3-C ,  4-C ) :   0.9436 B(  3-C ,  8-C ) :   0.9190
B(  3-C , 15-H ) :   0.9110 B(  4-C ,  5-C ) :   0.9154 B(  4-C , 16-H ) :   0.9128
B(  4-C , 17-H ) :   0.9118 B(  5-C ,  6-C ) :   0.8512 B(  5-C ,  7-C ) :   0.8407
B(  5-C ,  8-C ) :   0.8438 B(  6-C ,  7-C ) :   0.9324 B(  6-C , 18-H ) :   0.9252
B(  6-C , 19-H ) :   0.9246 B(  7-C , 20-H ) :   0.9230 B(  7-C , 21-H ) :   0.9245
B(  8-C , 22-H ) :   0.9131

MP2 TOTAL ENERGY:     -350.461628155 Eh
FINAL SINGLE POINT ENERGY      -350.461628154685

DIPOLE MOMENT
-------------
                                X             Y             Z
Electronic contribution:      1.24285      -2.62445       0.89249
Nuclear contribution   :     -1.28011       2.55475      -0.92815
                        -----------------------------------------
Total Dipole Moment    :     -0.03727      -0.06970      -0.03566
                        -----------------------------------------
Magnitude (a.u.)       :      0.08671
Magnitude (Debye)      :      0.22040

                             ****ORCA TERMINATED NORMALLY****
TOTAL RUN TIME: 0 days 0 hours 21 minutes 33 seconds 642 msec
