                         Program Version 3.0.3 - RELEASE   -
|  1> ! RI-MP2 RIJK def2-TZVP def2-TZVP/C def2-TZVP/JK TIGHTSCF
|  2> % maxcore 2000
|  3> % mp2 density relaxed end
|  4> *xyz 0 1
|  5>  O        0.1804708200     1.6756850240    -1.6976500994
|  6>  C        0.1562277347     1.6079933637    -0.4890159531
|  7>  C       -1.1403898110     1.4861010340     0.2952253663
|  8>  C       -1.4931726572     2.6885301768     1.1379534977
|  9>  C       -0.7080734655     3.5412367524     1.7944984238
| 10>  C        0.7882557612     3.6426245841     1.9268144415
| 11>  C        1.7012356643     2.5455533812     1.4269881232
| 12>  N        1.3784001834     1.1491247989     1.6914326691
| 13>  C        1.4359348029     1.6065976981     0.2877801829
| 14>  H       -1.9330331736     1.3056936164    -0.4351423405
| 15>  H       -1.0617384935     0.6041919472     0.9446067013
| 16>  H       -2.5640725985     2.8645166116     1.2104574533
| 17>  H       -1.2161466375     4.3363352458     2.3382654560
| 18>  H        1.1109291113     4.5790606803     1.4459903709
| 19>  H        1.0173337495     3.7889224702     2.9930375552
| 20>  H        2.7509744235     2.8272394016     1.5120790995
| 21>  H        2.2104567790     0.6139901499     1.9223955343
| 22>  H        2.2947818269     1.3428567736    -0.3246436918
| 23> *
| 24>
| 25>                          ****END OF INPUT****

CARTESIAN COORDINATES (ANGSTROEM)
---------------------------------
  O      0.180471    1.675685   -1.697650
  C      0.156228    1.607993   -0.489016
  C     -1.140390    1.486101    0.295225
  C     -1.493173    2.688530    1.137953
  C     -0.708073    3.541237    1.794498
  C      0.788256    3.642625    1.926814
  C      1.701236    2.545553    1.426988
  N      1.378400    1.149125    1.691433
  C      1.435935    1.606598    0.287780
  H     -1.933033    1.305694   -0.435142
  H     -1.061738    0.604192    0.944607
  H     -2.564073    2.864517    1.210457
  H     -1.216147    4.336335    2.338265
  H      1.110929    4.579061    1.445990
  H      1.017334    3.788922    2.993038
  H      2.750974    2.827239    1.512079
  H      2.210457    0.613990    1.922396
  H      2.294782    1.342857   -0.324644

 Total Charge           Charge          ....    0
 Multiplicity           Mult            ....    1
 Number of Electrons    NEL             ....   66
 Basis Dimension        Dim             ....  333

ORBITAL ENERGIES
----------------

  NO   OCC          E(Eh)            E(eV)
   0   2.0000     -20.542282      -558.9839
   1   2.0000     -15.577439      -423.8837
   2   2.0000     -11.328471      -308.2634
   3   2.0000     -11.285745      -307.1007
   4   2.0000     -11.273607      -306.7705
   5   2.0000     -11.246014      -306.0196
   6   2.0000     -11.238415      -305.8128
   7   2.0000     -11.236362      -305.7569
   8   2.0000     -11.234779      -305.7139
   9   2.0000      -1.386744       -37.7352
  10   2.0000      -1.284841       -34.9623
  11   2.0000      -1.096071       -29.8256
  12   2.0000      -1.032951       -28.1080
  13   2.0000      -0.963650       -26.2223
  14   2.0000      -0.915724       -24.9181
  15   2.0000      -0.853398       -23.2221
  16   2.0000      -0.747418       -20.3383
  17   2.0000      -0.726360       -19.7653
  18   2.0000      -0.718378       -19.5481
  19   2.0000      -0.655617       -17.8403
  20   2.0000      -0.639577       -17.4038
  21   2.0000      -0.618877       -16.8405
  22   2.0000      -0.595302       -16.1990
  23   2.0000      -0.587294       -15.9811
  24   2.0000      -0.573099       -15.5948
  25   2.0000      -0.522391       -14.2150
  26   2.0000      -0.520096       -14.1525
  27   2.0000      -0.495888       -13.4938
  28   2.0000      -0.492982       -13.4147
  29   2.0000      -0.461243       -12.5511
  30   2.0000      -0.427164       -11.6237
  31   2.0000      -0.396950       -10.8015
  32   2.0000      -0.355389        -9.6706
  33   0.0000       0.118116         3.2141
  34   0.0000       0.140182         3.8145
  35   0.0000       0.148606         4.0438
  36   0.0000       0.155865         4.2413
  37   0.0000       0.163800         4.4572

MULLIKEN ATOMIC CHARGES
-----------------------
   0 O :   -0.282725
   1 C :    0.152960
   2 C :   -0.093479
   3 C :   -0.213891
   4 C :   -0.199843
   5 C :   -0.120043
   6 C :   -0.043192
   7 N :   -0.397449
   8 C :   -0.062040
   9 H :    0.139607
  10 H :    0.134475
  11 H :    0.123401
  12 H :    0.119905
  13 H :    0.127975
  14 H :    0.122846
  15 H :    0.128094
  16 H :    0.225018
  17 H :    0.138380
Sum of atomic charges:    0.0000000

LOEWDIN ATOMIC CHARGES
----------------------
   0 O :    0.153728
   1 C :   -0.309581
   2 C :   -0.216401
   3 C :   -0.169283
   4 C :   -0.174243
   5 C :   -0.238735
   6 C :   -0.248471
   7 N :    0.023355
   8 C :   -0.215478
   9 H :    0.152882
  10 H :    0.164169
  11 H :    0.149432
  12 H :    0.150098
  13 H :    0.157856
  14 H :    0.156420
  15 H :    0.145221
  16 H :    0.170209
  17 H :    0.148823

  Mayer bond orders larger than 0.1
B(  0-O ,  1-C ) :   2.0063 B(  1-C ,  2-C ) :   0.9086 B(  1-C ,  8-C ) :   0.9411
B(  2-C ,  3-C ) :   0.9094 B(  2-C ,  9-H ) :   0.9195 B(  2-C , 10-H ) :   0.8818
B(  3-C ,  4-C ) :   1.8193 B(  3-C , 11-H ) :   0.9225 B(  4-C ,  5-C ) :   0.9459
B(  4-C , 12-H ) :   0.9233 B(  5-C ,  6-C ) :   0.9429 B(  5-C , 13-H ) :   0.9062
B(  5-C , 14-H ) :   0.9091 B(  6-C ,  7-N ) :   0.9024 B(  6-C ,  8-C ) :   0.8466
B(  6-C , 15-H ) :   0.9289 B(  7-N ,  8-C ) :   0.8794 B(  7-N , 16-H ) :   0.8644
B(  8-C , 17-H ) :   0.9280

MP2 TOTAL ENERGY:     -401.247652200 Eh
FINAL SINGLE POINT ENERGY      -401.247652200025

DIPOLE MOMENT
-------------
                                X             Y             Z
Electronic contribution:      0.49033      -2.11953      -4.01682
Nuclear contribution   :      0.14145       2.29584       5.04133
                        -----------------------------------------
Total Dipole Moment    :      0.63178       0.17631       1.02451
                        -----------------------------------------
Magnitude (a.u.)       :      1.21650
Magnitude (Debye)      :      3.09209

                             ****ORCA TERMINATED NORMALLY****
TOTAL RUN TIME: 0 days 0 hours 17 minutes 22 seconds 412 msec
