                         Program Version 3.0.3 - RELEASE   -
|  1> ! RI-MP2 RIJK def2-TZVP def2-TZVP/C def2-TZVP/JK TIGHTSCF
|  2> % maxcore 2000
|  3> % mp2 density relaxed end
|  4> *xyz 0 1
|  5>  C       -0.0218366119     1.4266368634     0.0611708058
|  6>  N        0.0007121279    -0.0189541763     0.0444751933
|  7>  C       -0.0122838429    -0.7557224936    -1.1317081176
|  8>  O       -0.0427552931    -0.3479930350    -2.2764458367
|  9>  N        0.0178138881    -2.0783296619    -0.6909721139
| 10>  C        0.0473436447    -2.1480543194     0.6866289699
| 11>  C        0.0371776819    -0.8729285299     1.1604563032
| 12>  C        0.0574075526    -0.4047362684     2.4851773672
| 13>  C        0.0741395305     0.0223924619     3.6122258542
| 14>  H        0.8718036257     1.8287573816     0.5481449576
| 15>  H       -0.0490201160     1.7536400433    -0.9793851671
| 16>  H       -0.9063773300     1.8005565729     0.5857669363
| 17>  H        0.0152602250    -2.8501345384    -1.3340504485
| 18>  H        0.0734460084    -3.0779803517     1.2265655969
| 19>  H        0.0891163191     0.3883723916     4.6088306796
| 20> *
| 21>
| 22>                          ****END OF INPUT****

CARTESIAN COORDINATES (ANGSTROEM)
---------------------------------
  C     -0.021837    1.426637    0.061171
  N      0.000712   -0.018954    0.044475
  C     -0.012284   -0.755722   -1.131708
  O     -0.042755   -0.347993   -2.276446
  N      0.017814   -2.078330   -0.690972
  C      0.047344   -2.148054    0.686629
  C      0.037178   -0.872929    1.160456
  C      0.057408   -0.404736    2.485177
  C      0.074140    0.022392    3.612226
  H      0.871804    1.828757    0.548145
  H     -0.049020    1.753640   -0.979385
  H     -0.906377    1.800557    0.585767
  H      0.015260   -2.850135   -1.334050
  H      0.073446   -3.077980    1.226566
  H      0.089116    0.388372    4.608831

 Total Charge           Charge          ....    0
 Multiplicity           Mult            ....    1
 Number of Electrons    NEL             ....   64
 Basis Dimension        Dim             ....  315

ORBITAL ENERGIES
----------------

  NO   OCC          E(Eh)            E(eV)
   0   2.0000     -20.510474      -558.1184
   1   2.0000     -15.614862      -424.9020
   2   2.0000     -15.609679      -424.7610
   3   2.0000     -11.377946      -309.6096
   4   2.0000     -11.297571      -307.4225
   5   2.0000     -11.293195      -307.3035
   6   2.0000     -11.265857      -306.5596
   7   2.0000     -11.255808      -306.2861
   8   2.0000     -11.246135      -306.0229
   9   2.0000      -1.404739       -38.2249
  10   2.0000      -1.315829       -35.8055
  11   2.0000      -1.224340       -33.3160
  12   2.0000      -1.080947       -29.4141
  13   2.0000      -1.012981       -27.5646
  14   2.0000      -0.966141       -26.2900
  15   2.0000      -0.875716       -23.8294
  16   2.0000      -0.808184       -21.9918
  17   2.0000      -0.766368       -20.8539
  18   2.0000      -0.721156       -19.6237
  19   2.0000      -0.670138       -18.2354
  20   2.0000      -0.667408       -18.1611
  21   2.0000      -0.658249       -17.9119
  22   2.0000      -0.617283       -16.7971
  23   2.0000      -0.613695       -16.6995
  24   2.0000      -0.583427       -15.8759
  25   2.0000      -0.551282       -15.0011
  26   2.0000      -0.506628       -13.7861
  27   2.0000      -0.460002       -12.5173
  28   2.0000      -0.445205       -12.1146
  29   2.0000      -0.415180       -11.2976
  30   2.0000      -0.411064       -11.1856
  31   2.0000      -0.296963        -8.0808
  32   0.0000       0.108033         2.9397
  33   0.0000       0.132457         3.6043
  34   0.0000       0.143688         3.9099
  35   0.0000       0.155268         4.2251
  36   0.0000       0.157030         4.2730

MULLIKEN ATOMIC CHARGES
-----------------------
   0 C :   -0.339928
   1 N :   -0.081224
   2 C :    0.264522
   3 O :   -0.392472
   4 N :   -0.287865
   5 C :   -0.077562
   6 C :   -0.109855
   7 C :    0.049304
   8 C :   -0.128926
   9 H :    0.149460
  10 H :    0.184485
  11 H :    0.149467
  12 H :    0.255203
  13 H :    0.168248
  14 H :    0.197142
Sum of atomic charges:    0.0000000

LOEWDIN ATOMIC CHARGES
----------------------
   0 C :   -0.267634
   1 N :    0.240330
   2 C :   -0.497239
   3 O :    0.040289
   4 N :    0.170802
   5 C :   -0.182142
   6 C :   -0.214993
   7 C :   -0.080496
   8 C :   -0.068585
   9 H :    0.124659
  10 H :    0.139995
  11 H :    0.124665
  12 H :    0.196173
  13 H :    0.144494
  14 H :    0.129682

  Mayer bond orders larger than 0.1
B(  0-C ,  1-N ) :   0.8539 B(  0-C ,  9-H ) :   0.9314 B(  0-C , 10-H ) :   0.9205
B(  0-C , 11-H ) :   0.9314 B(  1-N ,  2-C ) :   1.1101 B(  1-N ,  6-C ) :   1.0941
B(  2-C ,  3-O ) :   1.9460 B(  2-C ,  4-N ) :   1.0826 B(  4-N ,  5-C ) :   1.0877
B(  4-N , 12-H ) :   0.8676 B(  5-C ,  6-C ) :   1.5585 B(  5-C , 13-H ) :   0.9058
B(  6-C ,  7-C ) :   1.1854 B(  6-C ,  8-C ) :  -0.1358 B(  7-C ,  8-C ) :   2.6136
B(  8-C , 14-H ) :   0.8698

MP2 TOTAL ENERGY:     -416.117436496 Eh
FINAL SINGLE POINT ENERGY      -416.117436495767

DIPOLE MOMENT
-------------
                                X             Y             Z
Electronic contribution:      0.02885      -3.43686      -1.23308
Nuclear contribution   :      0.00194       2.98117       2.39627
                        -----------------------------------------
Total Dipole Moment    :      0.03079      -0.45569       1.16319
                        -----------------------------------------
Magnitude (a.u.)       :      1.24964
Magnitude (Debye)      :      3.17633

                             ****ORCA TERMINATED NORMALLY****
TOTAL RUN TIME: 0 days 0 hours 15 minutes 19 seconds 483 msec
