                         Program Version 3.0.3 - RELEASE   -
|  1> ! RI-MP2 RIJK def2-TZVP def2-TZVP/C def2-TZVP/JK TIGHTSCF
|  2> % maxcore 2000
|  3> % mp2 density relaxed end
|  4> *xyz 0 1
|  5>  C       -0.0398134920    -1.2205551439    -0.0021406416
|  6>  C       -0.0276323767    -0.0174749603     0.0036279107
|  7>  C        0.0038357704     1.3958651865     0.0101993228
|  8>  C       -1.0700710081     2.2502353891     0.0295197019
|  9>  O       -0.6705603524     3.5345779791     0.0303009384
| 10>  C        0.6984997885     3.5256456948     0.0109959622
| 11>  C        1.1620494744     2.2430582910    -0.0019048403
| 12>  C        1.3629898792     4.7705754173     0.0078303794
| 13>  N        1.9285228450     5.7813770731     0.0048944353
| 14>  H       -0.0549754682    -2.2825041149    -0.0071503673
| 15>  H       -2.1338146417     2.0806185041     0.0436311394
| 16>  H        2.1933202316     1.9311376341    -0.0179639010
| 17> *
| 18>
| 19>                          ****END OF INPUT****

CARTESIAN COORDINATES (ANGSTROEM)
---------------------------------
  C     -0.039813   -1.220555   -0.002141
  C     -0.027632   -0.017475    0.003628
  C      0.003836    1.395865    0.010199
  C     -1.070071    2.250235    0.029520
  O     -0.670560    3.534578    0.030301
  C      0.698500    3.525646    0.010996
  C      1.162049    2.243058   -0.001905
  C      1.362990    4.770575    0.007830
  N      1.928523    5.781377    0.004894
  H     -0.054975   -2.282504   -0.007150
  H     -2.133815    2.080619    0.043631
  H      2.193320    1.931138   -0.017964

 Total Charge           Charge          ....    0
 Multiplicity           Mult            ....    1
 Number of Electrons    NEL             ....   60
 Basis Dimension        Dim             ....  297

ORBITAL ENERGIES
----------------

  NO   OCC          E(Eh)            E(eV)
   0   2.0000     -20.670647      -562.4769
   1   2.0000     -15.592542      -424.2946
   2   2.0000     -11.349020      -308.8225
   3   2.0000     -11.341757      -308.6249
   4   2.0000     -11.293983      -307.3249
   5   2.0000     -11.289757      -307.2099
   6   2.0000     -11.287817      -307.1571
   7   2.0000     -11.262092      -306.4571
   8   2.0000     -11.251833      -306.1779
   9   2.0000      -1.510206       -41.0948
  10   2.0000      -1.234862       -33.6023
  11   2.0000      -1.151765       -31.3411
  12   2.0000      -1.083395       -29.4807
  13   2.0000      -1.037276       -28.2257
  14   2.0000      -0.892343       -24.2819
  15   2.0000      -0.875386       -23.8205
  16   2.0000      -0.816093       -22.2070
  17   2.0000      -0.734331       -19.9822
  18   2.0000      -0.696034       -18.9400
  19   2.0000      -0.688369       -18.7315
  20   2.0000      -0.663993       -18.0682
  21   2.0000      -0.618678       -16.8351
  22   2.0000      -0.604088       -16.4381
  23   2.0000      -0.575342       -15.6558
  24   2.0000      -0.515995       -14.0409
  25   2.0000      -0.494737       -13.4625
  26   2.0000      -0.487235       -13.2583
  27   2.0000      -0.419952       -11.4275
  28   2.0000      -0.398539       -10.8448
  29   2.0000      -0.342387        -9.3168
  30   0.0000       0.069571         1.8931
  31   0.0000       0.111623         3.0374
  32   0.0000       0.144789         3.9399
  33   0.0000       0.148570         4.0428
  34   0.0000       0.151765         4.1297

MULLIKEN ATOMIC CHARGES
-----------------------
   0 C :   -0.120580
   1 C :    0.026640
   2 C :   -0.036653
   3 C :   -0.040908
   4 O :   -0.191956
   5 C :    0.373364
   6 C :   -0.279166
   7 C :   -0.239157
   8 N :   -0.030535
   9 H :    0.200932
  10 H :    0.169979
  11 H :    0.168040
Sum of atomic charges:    0.0000000

LOEWDIN ATOMIC CHARGES
----------------------
   0 C :   -0.059976
   1 C :   -0.068493
   2 C :   -0.168334
   3 C :   -0.171047
   4 O :    0.392597
   5 C :   -0.237333
   6 C :   -0.069312
   7 C :   -0.150805
   8 N :    0.097091
   9 H :    0.131109
  10 H :    0.145027
  11 H :    0.159476

  Mayer bond orders larger than 0.1
B(  0-C ,  1-C ) :   2.6297 B(  0-C ,  2-C ) :  -0.1576 B(  0-C ,  9-H ) :   0.8677
B(  1-C ,  2-C ) :   1.1476 B(  2-C ,  3-C ) :   1.4704 B(  2-C ,  6-C ) :   1.1840
B(  3-C ,  4-O ) :   1.0870 B(  3-C , 10-H ) :   0.9191 B(  4-O ,  5-C ) :   1.0032
B(  5-C ,  6-C ) :   1.4706 B(  5-C ,  7-C ) :   0.9120 B(  6-C , 11-H ) :   0.9192
B(  7-C ,  8-N ) :   2.8339

MP2 TOTAL ENERGY:     -397.643371375 Eh
FINAL SINGLE POINT ENERGY      -397.643371374673

DIPOLE MOMENT
-------------
                                X             Y             Z
Electronic contribution:      0.39009       3.94441       0.01407
Nuclear contribution   :     -0.99699      -5.42940      -0.01290
                        -----------------------------------------
Total Dipole Moment    :     -0.60690      -1.48499       0.00117
                        -----------------------------------------
Magnitude (a.u.)       :      1.60423
Magnitude (Debye)      :      4.07762

                             ****ORCA TERMINATED NORMALLY****
TOTAL RUN TIME: 0 days 0 hours 18 minutes 43 seconds 763 msec
