                         Program Version 3.0.3 - RELEASE   -
|  1> ! RI-MP2 RIJK def2-TZVP def2-TZVP/C def2-TZVP/JK TIGHTSCF
|  2> % maxcore 2000
|  3> % mp2 density relaxed end
|  4> *xyz 0 1
|  5>  C        0.0271428453     1.5239409122    -0.0482547615
|  6>  C        0.0558772361     0.0011533855    -0.0436759512
|  7>  O        1.1114751324    -0.6070821502    -0.1052010283
|  8>  N       -1.1508456076    -0.6514329618     0.0434532309
|  9>  C       -2.4676146635    -0.0313706098     0.0464203738
| 10>  C       -3.3269324478    -0.6514925865     1.1536946397
| 11>  O       -3.3881721137    -2.0589890684     1.0335012776
| 12>  C       -2.0934709360    -2.6393129470     1.1049798121
| 13>  C       -1.1854765410    -2.1109389590    -0.0030339634
| 14>  H        1.0583823804     1.8645960805    -0.1320082038
| 15>  H       -0.5496419248     1.9199189629    -0.8900711709
| 16>  H       -0.4056625401     1.9273232359     0.8727814268
| 17>  H       -2.3852787093     1.0439209849     0.2040653478
| 18>  H       -2.9632463970    -0.1965238254    -0.9226064443
| 19>  H       -2.9127432567    -0.3685495005     2.1362470590
| 20>  H       -4.3552062671    -0.2839484219     1.0890959792
| 21>  H       -1.6392525173    -2.4294435495     2.0871655636
| 22>  H       -2.2311407746    -3.7196000184     1.0077130228
| 23>  H       -1.5738110990    -2.4407662486    -0.9778378290
| 24>  H       -0.1627406486    -2.4721487251     0.1056236990
| 25> *
| 26>
| 27>                          ****END OF INPUT****

CARTESIAN COORDINATES (ANGSTROEM)
---------------------------------
  C      0.027143    1.523941   -0.048255
  C      0.055877    0.001153   -0.043676
  O      1.111475   -0.607082   -0.105201
  N     -1.150846   -0.651433    0.043453
  C     -2.467615   -0.031371    0.046420
  C     -3.326932   -0.651493    1.153695
  O     -3.388172   -2.058989    1.033501
  C     -2.093471   -2.639313    1.104980
  C     -1.185477   -2.110939   -0.003034
  H      1.058382    1.864596   -0.132008
  H     -0.549642    1.919919   -0.890071
  H     -0.405663    1.927323    0.872781
  H     -2.385279    1.043921    0.204065
  H     -2.963246   -0.196524   -0.922606
  H     -2.912743   -0.368550    2.136247
  H     -4.355206   -0.283948    1.089096
  H     -1.639253   -2.429444    2.087166
  H     -2.231141   -3.719600    1.007713
  H     -1.573811   -2.440766   -0.977838
  H     -0.162741   -2.472149    0.105624

 Total Charge           Charge          ....    0
 Multiplicity           Mult            ....    1
 Number of Electrons    NEL             ....   70
 Basis Dimension        Dim             ....  345

ORBITAL ENERGIES
----------------

  NO   OCC          E(Eh)            E(eV)
   0   2.0000     -20.564205      -559.5805
   1   2.0000     -20.512220      -558.1659
   2   2.0000     -15.585576      -424.1051
   3   2.0000     -11.349819      -308.8443
   4   2.0000     -11.287633      -307.1521
   5   2.0000     -11.281036      -306.9726
   6   2.0000     -11.276718      -306.8551
   7   2.0000     -11.259088      -306.3754
   8   2.0000     -11.238439      -305.8135
   9   2.0000      -1.390661       -37.8418
  10   2.0000      -1.377425       -37.4816
  11   2.0000      -1.246003       -33.9055
  12   2.0000      -1.052759       -28.6470
  13   2.0000      -1.017734       -27.6939
  14   2.0000      -0.959575       -26.1114
  15   2.0000      -0.894056       -24.3285
  16   2.0000      -0.830329       -22.5944
  17   2.0000      -0.751303       -20.4440
  18   2.0000      -0.694229       -18.8909
  19   2.0000      -0.660114       -17.9626
  20   2.0000      -0.657147       -17.8819
  21   2.0000      -0.653129       -17.7726
  22   2.0000      -0.644285       -17.5319
  23   2.0000      -0.623259       -16.9597
  24   2.0000      -0.586999       -15.9731
  25   2.0000      -0.583353       -15.8738
  26   2.0000      -0.569763       -15.5040
  27   2.0000      -0.545995       -14.8573
  28   2.0000      -0.522234       -14.2107
  29   2.0000      -0.510590       -13.8939
  30   2.0000      -0.507905       -13.8208
  31   2.0000      -0.476463       -12.9652
  32   2.0000      -0.442810       -12.0495
  33   2.0000      -0.421031       -11.4568
  34   2.0000      -0.368307       -10.0222
  35   0.0000       0.123578         3.3627
  36   0.0000       0.152988         4.1630
  37   0.0000       0.157530         4.2866
  38   0.0000       0.169005         4.5989
  39   0.0000       0.182394         4.9632

MULLIKEN ATOMIC CHARGES
-----------------------
   0 C :   -0.449565
   1 C :    0.249325
   2 O :   -0.381322
   3 N :   -0.096270
   4 C :   -0.196207
   5 C :   -0.034624
   6 O :   -0.305465
   7 C :   -0.071878
   8 C :   -0.159466
   9 H :    0.165043
  10 H :    0.148097
  11 H :    0.143873
  12 H :    0.140241
  13 H :    0.117548
  14 H :    0.091538
  15 H :    0.124832
  16 H :    0.102716
  17 H :    0.126235
  18 H :    0.114437
  19 H :    0.170910
Sum of atomic charges:    0.0000000

LOEWDIN ATOMIC CHARGES
----------------------
   0 C :   -0.281934
   1 C :   -0.455003
   2 O :    0.072362
   3 N :    0.183571
   4 C :   -0.262966
   5 C :   -0.319714
   6 O :    0.151616
   7 C :   -0.313855
   8 C :   -0.251878
   9 H :    0.138479
  10 H :    0.131384
  11 H :    0.130783
  12 H :    0.143666
  13 H :    0.135135
  14 H :    0.121884
  15 H :    0.132172
  16 H :    0.123812
  17 H :    0.132767
  18 H :    0.135209
  19 H :    0.152507

  Mayer bond orders larger than 0.1
B(  0-C ,  1-C ) :   0.8987 B(  0-C ,  9-H ) :   0.9397 B(  0-C , 10-H ) :   0.9196
B(  0-C , 11-H ) :   0.9175 B(  1-C ,  2-O ) :   1.9026 B(  1-C ,  3-N ) :   1.1611
B(  3-N ,  4-C ) :   0.9111 B(  3-N ,  8-C ) :   0.8394 B(  4-C ,  5-C ) :   0.9469
B(  4-C , 12-H ) :   0.9184 B(  4-C , 13-H ) :   0.9154 B(  5-C ,  6-O ) :   0.9443
B(  5-C , 14-H ) :   0.9297 B(  5-C , 15-H ) :   0.9230 B(  6-O ,  7-C ) :   0.9227
B(  7-C ,  8-C ) :   0.9484 B(  7-C , 16-H ) :   0.9330 B(  7-C , 17-H ) :   0.9268
B(  8-C , 18-H ) :   0.9195 B(  8-C , 19-H ) :   0.9082

MP2 TOTAL ENERGY:     -439.598807509 Eh
FINAL SINGLE POINT ENERGY      -439.598807509027

DIPOLE MOMENT
-------------
                                X             Y             Z
Electronic contribution:      1.76096      -2.82040      -0.47188
Nuclear contribution   :     -2.70563       3.45161       0.57307
                        -----------------------------------------
Total Dipole Moment    :     -0.94468       0.63120       0.10118
                        -----------------------------------------
Magnitude (a.u.)       :      1.14065
Magnitude (Debye)      :      2.89929

                             ****ORCA TERMINATED NORMALLY****
TOTAL RUN TIME: 0 days 0 hours 20 minutes 26 seconds 389 msec
