                         Program Version 3.0.3 - RELEASE   -
|  1> ! RI-MP2 RIJK def2-TZVP def2-TZVP/C def2-TZVP/JK TIGHTSCF
|  2> % maxcore 2000
|  3> % mp2 density relaxed end
|  4> *xyz 0 1
|  5>  C       -0.6198019987     1.2577499257    -0.2926043643
|  6>  C        0.1650420449    -0.0514589518    -0.2503134492
|  7>  C        1.4800760658    -0.0319830761    -1.0742308939
|  8>  C        2.3686814859    -0.9881492440    -0.3183784732
|  9>  C        1.8707833939    -1.2800975684     0.8817366465
| 10>  C        0.5673627445    -0.5735584771     1.1589740846
| 11>  C        0.6613269359     0.3858187043     2.4021718830
| 12>  C        0.0146894856    -0.7235489312     3.2709381990
| 13>  C       -0.4737349726    -1.4073023314     1.9686744106
| 14>  H       -0.0251123718     2.0955734354     0.0878911209
| 15>  H       -0.9105378841     1.5008694356    -1.3202416838
| 16>  H       -1.5379704878     1.2011728159     0.3026232802
| 17>  H       -0.4679668311    -0.8398805705    -0.6807421702
| 18>  H        1.3205276729    -0.3213001776    -2.1197309449
| 19>  H        1.9238910039     0.9749125574    -1.1011613934
| 20>  H        3.3124140144    -1.3525457292    -0.7100716884
| 21>  H        2.3473992174    -1.9181420762     1.6199009722
| 22>  H        1.6574340836     0.7392186007     2.6808473179
| 23>  H        0.0012487968     1.2510569542     2.2983309981
| 24>  H        0.7637980294    -1.3247557870     3.7938449702
| 25>  H       -0.7441103552    -0.4175587389     3.9950276109
| 26>  H       -1.4970324163    -1.1102003530     1.7154011850
| 27>  H       -0.4023662670    -2.4965167369     1.8974104621
| 28> *
| 29>
| 30>                          ****END OF INPUT****

CARTESIAN COORDINATES (ANGSTROEM)
---------------------------------
  C     -0.619802    1.257750   -0.292604
  C      0.165042   -0.051459   -0.250313
  C      1.480076   -0.031983   -1.074231
  C      2.368681   -0.988149   -0.318378
  C      1.870783   -1.280098    0.881737
  C      0.567363   -0.573558    1.158974
  C      0.661327    0.385819    2.402172
  C      0.014689   -0.723549    3.270938
  C     -0.473735   -1.407302    1.968674
  H     -0.025112    2.095573    0.087891
  H     -0.910538    1.500869   -1.320242
  H     -1.537970    1.201173    0.302623
  H     -0.467967   -0.839881   -0.680742
  H      1.320528   -0.321300   -2.119731
  H      1.923891    0.974913   -1.101161
  H      3.312414   -1.352546   -0.710072
  H      2.347399   -1.918142    1.619901
  H      1.657434    0.739219    2.680847
  H      0.001249    1.251057    2.298331
  H      0.763798   -1.324756    3.793845
  H     -0.744110   -0.417559    3.995028
  H     -1.497032   -1.110200    1.715401
  H     -0.402366   -2.496517    1.897410

 Total Charge           Charge          ....    0
 Multiplicity           Mult            ....    1
 Number of Electrons    NEL             ....   68
 Basis Dimension        Dim             ....  363

ORBITAL ENERGIES
----------------

  NO   OCC          E(Eh)            E(eV)
   0   2.0000     -11.228870      -305.5531
   1   2.0000     -11.221710      -305.3583
   2   2.0000     -11.218412      -305.2685
   3   2.0000     -11.217556      -305.2452
   4   2.0000     -11.216034      -305.2038
   5   2.0000     -11.215306      -305.1840
   6   2.0000     -11.214535      -305.1630
   7   2.0000     -11.214287      -305.1563
   8   2.0000     -11.211084      -305.0691
   9   2.0000      -1.155123       -31.4325
  10   2.0000      -1.082752       -29.4632
  11   2.0000      -1.008554       -27.4441
  12   2.0000      -0.925243       -25.1771
  13   2.0000      -0.896260       -24.3885
  14   2.0000      -0.882594       -24.0166
  15   2.0000      -0.796154       -21.6645
  16   2.0000      -0.748104       -20.3570
  17   2.0000      -0.697045       -18.9676
  18   2.0000      -0.663926       -18.0663
  19   2.0000      -0.630581       -17.1590
  20   2.0000      -0.611154       -16.6303
  21   2.0000      -0.599651       -16.3173
  22   2.0000      -0.555203       -15.1078
  23   2.0000      -0.552033       -15.0216
  24   2.0000      -0.530792       -14.4436
  25   2.0000      -0.515784       -14.0352
  26   2.0000      -0.509410       -13.8618
  27   2.0000      -0.487532       -13.2664
  28   2.0000      -0.468202       -12.7404
  29   2.0000      -0.458493       -12.4762
  30   2.0000      -0.438733       -11.9385
  31   2.0000      -0.432633       -11.7725
  32   2.0000      -0.413616       -11.2551
  33   2.0000      -0.334997        -9.1157
  34   0.0000       0.134709         3.6656
  35   0.0000       0.154247         4.1973
  36   0.0000       0.155229         4.2240
  37   0.0000       0.163626         4.4525
  38   0.0000       0.179122         4.8741

MULLIKEN ATOMIC CHARGES
-----------------------
   0 C :   -0.441480
   1 C :   -0.076138
   2 C :   -0.173758
   3 C :   -0.154844
   4 C :   -0.299644
   5 C :    0.261083
   6 C :   -0.265364
   7 C :   -0.247331
   8 C :   -0.263607
   9 H :    0.132731
  10 H :    0.137295
  11 H :    0.132435
  12 H :    0.091934
  13 H :    0.119138
  14 H :    0.106857
  15 H :    0.122994
  16 H :    0.123814
  17 H :    0.117406
  18 H :    0.118503
  19 H :    0.117809
  20 H :    0.112227
  21 H :    0.111433
  22 H :    0.116508
Sum of atomic charges:   -0.0000000

LOEWDIN ATOMIC CHARGES
----------------------
   0 C :   -0.299497
   1 C :   -0.217656
   2 C :   -0.219108
   3 C :   -0.155263
   4 C :   -0.122444
   5 C :   -0.204888
   6 C :   -0.194623
   7 C :   -0.244133
   8 C :   -0.201215
   9 H :    0.123040
  10 H :    0.124882
  11 H :    0.122098
  12 H :    0.159102
  13 H :    0.135977
  14 H :    0.141549
  15 H :    0.134645
  16 H :    0.140960
  17 H :    0.126030
  18 H :    0.135595
  19 H :    0.132057
  20 H :    0.121447
  21 H :    0.135713
  22 H :    0.125734

  Mayer bond orders larger than 0.1
B(  0-C ,  1-C ) :   0.8995 B(  0-C ,  9-H ) :   0.9354 B(  0-C , 10-H ) :   0.9373
B(  0-C , 11-H ) :   0.9427 B(  1-C ,  2-C ) :   0.9610 B(  1-C ,  5-C ) :   0.8616
B(  1-C , 12-H ) :   0.9284 B(  2-C ,  3-C ) :   0.9350 B(  2-C , 13-H ) :   0.9278
B(  2-C , 14-H ) :   0.9007 B(  3-C ,  4-C ) :   1.8055 B(  3-C , 15-H ) :   0.9308
B(  4-C ,  5-C ) :   0.9071 B(  4-C , 16-H ) :   0.9185 B(  5-C ,  6-C ) :   0.8723
B(  5-C ,  8-C ) :   0.8730 B(  6-C ,  7-C ) :   0.9569 B(  6-C , 17-H ) :   0.9282
B(  6-C , 18-H ) :   0.9211 B(  7-C ,  8-C ) :   0.9551 B(  7-C , 19-H ) :   0.9281
B(  7-C , 20-H ) :   0.9271 B(  8-C , 21-H ) :   0.9196 B(  8-C , 22-H ) :   0.9297

MP2 TOTAL ENERGY:     -350.508714635 Eh
FINAL SINGLE POINT ENERGY      -350.508714634929

DIPOLE MOMENT
-------------
                                X             Y             Z
Electronic contribution:      2.96962      -2.66510      -0.37870
Nuclear contribution   :     -3.02500       2.73042       0.33898
                        -----------------------------------------
Total Dipole Moment    :     -0.05538       0.06532      -0.03972
                        -----------------------------------------
Magnitude (a.u.)       :      0.09440
Magnitude (Debye)      :      0.23994

                             ****ORCA TERMINATED NORMALLY****
TOTAL RUN TIME: 0 days 0 hours 21 minutes 30 seconds 626 msec
