                         Program Version 3.0.3 - RELEASE   -
|  1> ! RI-MP2 RIJK def2-TZVP def2-TZVP/C def2-TZVP/JK TIGHTSCF
|  2> % maxcore 2000
|  3> % mp2 density relaxed end
|  4> *xyz 0 1
|  5>  C        0.0149473009     1.5176141056     0.5042849978
|  6>  C        0.0225725345     0.0897388203    -0.0566864035
|  7>  C       -1.3604732369    -0.5131485872    -0.1776887025
|  8>  C       -2.0891748276    -1.0197727588     1.0673181277
|  9>  C       -1.6927509593    -1.9921130879     0.0057607013
| 10>  C       -2.7728945706    -2.4003403363    -0.9949428350
| 11>  C       -3.3706395108    -1.0733912746    -1.5059082036
| 12>  C       -2.2775076005    -0.0218171346    -1.2581339525
| 13>  O       -2.1374136089     0.9997815000    -1.8883524642
| 14>  H        1.0329851192     1.9128342335     0.5759584832
| 15>  H       -0.5663265669     2.1766416250    -0.1442005272
| 16>  H       -0.4273388245     1.5446512859     1.5060611781
| 17>  H        0.4949343498     0.0908397273    -1.0462633576
| 18>  H        0.6356441685    -0.5587773598     0.5815823822
| 19>  H       -1.5007146307    -1.0008670413     1.9787186602
| 20>  H       -3.1370115722    -0.7773794373     1.2133108428
| 21>  H       -0.8945607853    -2.6940439281     0.2224423800
| 22>  H       -2.3122495225    -2.9465706688    -1.8248644755
| 23>  H       -3.5221252313    -3.0616965337    -0.5477630820
| 24>  H       -3.6429406887    -1.0841653792    -2.5626448175
| 25>  H       -4.2704101262    -0.7824823500    -0.9507174623
| 26> *
| 27>
| 28>                          ****END OF INPUT****

CARTESIAN COORDINATES (ANGSTROEM)
---------------------------------
  C      0.014947    1.517614    0.504285
  C      0.022573    0.089739   -0.056686
  C     -1.360473   -0.513149   -0.177689
  C     -2.089175   -1.019773    1.067318
  C     -1.692751   -1.992113    0.005761
  C     -2.772895   -2.400340   -0.994943
  C     -3.370640   -1.073391   -1.505908
  C     -2.277508   -0.021817   -1.258134
  O     -2.137414    0.999781   -1.888352
  H      1.032985    1.912834    0.575958
  H     -0.566327    2.176642   -0.144201
  H     -0.427339    1.544651    1.506061
  H      0.494934    0.090840   -1.046263
  H      0.635644   -0.558777    0.581582
  H     -1.500715   -1.000867    1.978719
  H     -3.137012   -0.777379    1.213311
  H     -0.894561   -2.694044    0.222442
  H     -2.312250   -2.946571   -1.824864
  H     -3.522125   -3.061697   -0.547763
  H     -3.642941   -1.084165   -2.562645
  H     -4.270410   -0.782482   -0.950717

 Total Charge           Charge          ....    0
 Multiplicity           Mult            ....    1
 Number of Electrons    NEL             ....   68
 Basis Dimension        Dim             ....  351

ORBITAL ENERGIES
----------------

  NO   OCC          E(Eh)            E(eV)
   0   2.0000     -20.537067      -558.8420
   1   2.0000     -11.323999      -308.1417
   2   2.0000     -11.248025      -306.0743
   3   2.0000     -11.244588      -305.9808
   4   2.0000     -11.242913      -305.9352
   5   2.0000     -11.239907      -305.8534
   6   2.0000     -11.236146      -305.7511
   7   2.0000     -11.226833      -305.4977
   8   2.0000     -11.205697      -304.9225
   9   2.0000      -1.381544       -37.5937
  10   2.0000      -1.191659       -32.4267
  11   2.0000      -1.054587       -28.6968
  12   2.0000      -1.013589       -27.5812
  13   2.0000      -0.932164       -25.3655
  14   2.0000      -0.878508       -23.9054
  15   2.0000      -0.829858       -22.5816
  16   2.0000      -0.784222       -21.3398
  17   2.0000      -0.707073       -19.2404
  18   2.0000      -0.678002       -18.4494
  19   2.0000      -0.647752       -17.6262
  20   2.0000      -0.633855       -17.2481
  21   2.0000      -0.605255       -16.4698
  22   2.0000      -0.575011       -15.6469
  23   2.0000      -0.572405       -15.5759
  24   2.0000      -0.562576       -15.3085
  25   2.0000      -0.544537       -14.8176
  26   2.0000      -0.533134       -14.5073
  27   2.0000      -0.503921       -13.7124
  28   2.0000      -0.495073       -13.4716
  29   2.0000      -0.489690       -13.3252
  30   2.0000      -0.481360       -13.0985
  31   2.0000      -0.429513       -11.6876
  32   2.0000      -0.403738       -10.9863
  33   2.0000      -0.385266       -10.4836
  34   0.0000       0.131029         3.5655
  35   0.0000       0.141124         3.8402
  36   0.0000       0.150551         4.0967
  37   0.0000       0.155962         4.2439
  38   0.0000       0.176443         4.8013

MULLIKEN ATOMIC CHARGES
-----------------------
   0 C :   -0.418036
   1 C :   -0.203484
   2 C :    0.093013
   3 C :   -0.315207
   4 C :   -0.070877
   5 C :   -0.245795
   6 C :   -0.231895
   7 C :    0.112506
   8 O :   -0.292511
   9 H :    0.129315
  10 H :    0.158474
  11 H :    0.117840
  12 H :    0.118427
  13 H :    0.110248
  14 H :    0.140352
  15 H :    0.138023
  16 H :    0.132795
  17 H :    0.124487
  18 H :    0.121180
  19 H :    0.142403
  20 H :    0.138743
Sum of atomic charges:   -0.0000000

LOEWDIN ATOMIC CHARGES
----------------------
   0 C :   -0.309464
   1 C :   -0.244247
   2 C :   -0.188207
   3 C :   -0.169035
   4 C :   -0.172195
   5 C :   -0.227209
   6 C :   -0.214815
   7 C :   -0.281103
   8 O :    0.147174
   9 H :    0.119756
  10 H :    0.128630
  11 H :    0.119068
  12 H :    0.146740
  13 H :    0.141374
  14 H :    0.142685
  15 H :    0.138076
  16 H :    0.147146
  17 H :    0.142259
  18 H :    0.136666
  19 H :    0.146816
  20 H :    0.149887

  Mayer bond orders larger than 0.1
B(  0-C ,  1-C ) :   0.9243 B(  0-C ,  9-H ) :   0.9384 B(  0-C , 10-H ) :   0.9327
B(  0-C , 11-H ) :   0.9386 B(  1-C ,  2-C ) :   0.9046 B(  1-C , 12-H ) :   0.9217
B(  1-C , 13-H ) :   0.9375 B(  2-C ,  3-C ) :   0.8247 B(  2-C ,  4-C ) :   0.7754
B(  2-C ,  6-C ) :  -0.1132 B(  2-C ,  7-C ) :   0.9119 B(  3-C ,  4-C ) :   0.9177
B(  3-C , 14-H ) :   0.9286 B(  3-C , 15-H ) :   0.9115 B(  4-C ,  5-C ) :   0.9228
B(  4-C , 16-H ) :   0.9179 B(  5-C ,  6-C ) :   0.9405 B(  5-C , 17-H ) :   0.9286
B(  5-C , 18-H ) :   0.9292 B(  6-C ,  7-C ) :   0.9309 B(  6-C , 19-H ) :   0.9159
B(  6-C , 20-H ) :   0.9158 B(  7-C ,  8-O ) :   2.0058

MP2 TOTAL ENERGY:     -386.443152301 Eh
FINAL SINGLE POINT ENERGY      -386.443152300853

DIPOLE MOMENT
-------------
                                X             Y             Z
Electronic contribution:     -2.52541       0.61768      -3.90111
Nuclear contribution   :      2.48682      -1.61507       4.50349
                        -----------------------------------------
Total Dipole Moment    :     -0.03859      -0.99739       0.60238
                        -----------------------------------------
Magnitude (a.u.)       :      1.16582
Magnitude (Debye)      :      2.96328

                             ****ORCA TERMINATED NORMALLY****
TOTAL RUN TIME: 0 days 0 hours 20 minutes 38 seconds 223 msec
