                         Program Version 3.0.3 - RELEASE   -
|  1> ! RI-MP2 RIJK def2-TZVP def2-TZVP/C def2-TZVP/JK TIGHTSCF
|  2> % maxcore 2000
|  3> % mp2 density relaxed end
|  4> *xyz 0 1
|  5>  O       -0.0390963693     1.4635911430     0.0022945620
|  6>  C        0.0400684401     0.0583674901     0.0269603809
|  7>  C        0.3283310902    -0.6604544973     1.3749590745
|  8>  C       -0.8017961255    -1.6651011823     1.0227690428
|  9>  C       -1.3321534362    -0.6416904223    -0.0136726215
| 10>  C       -0.5037716295    -3.1052863988     0.5223520159
| 11>  N       -1.5134578664    -3.7118538537     1.4617243136
| 12>  C       -1.0410334073    -3.3635655557     2.8126761031
| 13>  C       -1.7319346677    -2.3174331668     2.0324496226
| 14>  H        0.8546582335     1.8192672764     0.0364119829
| 15>  H        0.7011451634    -0.3175421031    -0.7673939696
| 16>  H        1.3321046669    -1.0575932804     1.5502240903
| 17>  H        0.0402339285    -0.0160865895     2.2116850979
| 18>  H       -2.0872693797     0.0159305125     0.4290638714
| 19>  H       -1.6992426373    -1.0163389301    -0.9724016070
| 20>  H       -0.8029981271    -3.2813944715    -0.5139466605
| 21>  H        0.5135649938    -3.4859233806     0.6724135414
| 22>  H       -1.6039036292    -3.8588055438     3.5981993649
| 23>  H        0.0292697511    -3.2893560023     2.9979478878
| 24>  H       -2.7233720022    -1.9552510538     2.2906697367
| 25> *
| 26>
| 27>                          ****END OF INPUT****

CARTESIAN COORDINATES (ANGSTROEM)
---------------------------------
  O     -0.039096    1.463591    0.002295
  C      0.040068    0.058367    0.026960
  C      0.328331   -0.660454    1.374959
  C     -0.801796   -1.665101    1.022769
  C     -1.332153   -0.641690   -0.013673
  C     -0.503772   -3.105286    0.522352
  N     -1.513458   -3.711854    1.461724
  C     -1.041033   -3.363566    2.812676
  C     -1.731935   -2.317433    2.032450
  H      0.854658    1.819267    0.036412
  H      0.701145   -0.317542   -0.767394
  H      1.332105   -1.057593    1.550224
  H      0.040234   -0.016087    2.211685
  H     -2.087269    0.015931    0.429064
  H     -1.699243   -1.016339   -0.972402
  H     -0.802998   -3.281394   -0.513947
  H      0.513565   -3.485923    0.672414
  H     -1.603904   -3.858806    3.598199
  H      0.029270   -3.289356    2.997948
  H     -2.723372   -1.955251    2.290670

 Total Charge           Charge          ....    0
 Multiplicity           Mult            ....    1
 Number of Electrons    NEL             ....   68
 Basis Dimension        Dim             ....  345

ORBITAL ENERGIES
----------------

  NO   OCC          E(Eh)            E(eV)
   0   2.0000     -20.560128      -559.4695
   1   2.0000     -15.558280      -423.3623
   2   2.0000     -11.284079      -307.0554
   3   2.0000     -11.258217      -306.3516
   4   2.0000     -11.254729      -306.2567
   5   2.0000     -11.253607      -306.2262
   6   2.0000     -11.244054      -305.9663
   7   2.0000     -11.224483      -305.4337
   8   2.0000     -11.222912      -305.3910
   9   2.0000      -1.367374       -37.2081
  10   2.0000      -1.288477       -35.0612
  11   2.0000      -1.126066       -30.6418
  12   2.0000      -0.975870       -26.5548
  13   2.0000      -0.913813       -24.8661
  14   2.0000      -0.910560       -24.7776
  15   2.0000      -0.828479       -22.5441
  16   2.0000      -0.796982       -21.6870
  17   2.0000      -0.721985       -19.6462
  18   2.0000      -0.712412       -19.3857
  19   2.0000      -0.675667       -18.3858
  20   2.0000      -0.633559       -17.2400
  21   2.0000      -0.629899       -17.1404
  22   2.0000      -0.600746       -16.3471
  23   2.0000      -0.578050       -15.7295
  24   2.0000      -0.559765       -15.2320
  25   2.0000      -0.538958       -14.6658
  26   2.0000      -0.526214       -14.3190
  27   2.0000      -0.493499       -13.4288
  28   2.0000      -0.481588       -13.1047
  29   2.0000      -0.448202       -12.1962
  30   2.0000      -0.440256       -11.9800
  31   2.0000      -0.423140       -11.5142
  32   2.0000      -0.414744       -11.2857
  33   2.0000      -0.362983        -9.8773
  34   0.0000       0.130048         3.5388
  35   0.0000       0.149516         4.0685
  36   0.0000       0.163429         4.4471
  37   0.0000       0.166018         4.5176
  38   0.0000       0.174539         4.7495

MULLIKEN ATOMIC CHARGES
-----------------------
   0 O :   -0.444894
   1 C :   -0.007368
   2 C :   -0.163634
   3 C :    0.018099
   4 C :   -0.186373
   5 C :   -0.188012
   6 N :   -0.225265
   7 C :   -0.142405
   8 C :   -0.121285
   9 H :    0.316328
  10 H :    0.079032
  11 H :    0.116570
  12 H :    0.100405
  13 H :    0.111676
  14 H :    0.126304
  15 H :    0.119904
  16 H :    0.112282
  17 H :    0.130004
  18 H :    0.119119
  19 H :    0.129513
Sum of atomic charges:   -0.0000000

LOEWDIN ATOMIC CHARGES
----------------------
   0 O :   -0.019859
   1 C :   -0.331447
   2 C :   -0.194006
   3 C :   -0.227780
   4 C :   -0.175513
   5 C :   -0.204799
   6 N :    0.096000
   7 C :   -0.251043
   8 C :   -0.186556
   9 H :    0.176070
  10 H :    0.129664
  11 H :    0.124129
  12 H :    0.143108
  13 H :    0.147299
  14 H :    0.129242
  15 H :    0.130239
  16 H :    0.122005
  17 H :    0.132691
  18 H :    0.126122
  19 H :    0.134434

  Mayer bond orders larger than 0.1
B(  0-O ,  1-C ) :   1.1546 B(  0-O ,  2-C ) :  -0.1095 B(  0-O ,  4-C ) :  -0.1106
B(  0-O ,  9-H ) :   0.8452 B(  1-C ,  2-C ) :   0.9282 B(  1-C ,  4-C ) :   0.9167
B(  1-C , 10-H ) :   0.9658 B(  2-C ,  3-C ) :   0.9193 B(  2-C , 11-H ) :   0.9150
B(  2-C , 12-H ) :   0.8895 B(  3-C ,  4-C ) :   0.8916 B(  3-C ,  5-C ) :   0.9484
B(  3-C ,  8-C ) :   0.9217 B(  4-C , 13-H ) :   0.9042 B(  4-C , 14-H ) :   0.9225
B(  5-C ,  6-N ) :   0.9423 B(  5-C , 15-H ) :   0.9115 B(  5-C , 16-H ) :   0.9298
B(  6-N ,  7-C ) :   0.8861 B(  6-N ,  8-C ) :   0.9178 B(  7-C ,  8-C ) :   0.9440
B(  7-C , 17-H ) :   0.9308 B(  7-C , 18-H ) :   0.9056 B(  8-C , 19-H ) :   0.8931

MP2 TOTAL ENERGY:     -402.393918653 Eh
FINAL SINGLE POINT ENERGY      -402.393918652684

DIPOLE MOMENT
-------------
                                X             Y             Z
Electronic contribution:     -1.24260       0.39905      -0.29676
Nuclear contribution   :      2.14136      -0.09136       0.45528
                        -----------------------------------------
Total Dipole Moment    :      0.89877       0.30770       0.15851
                        -----------------------------------------
Magnitude (a.u.)       :      0.96311
Magnitude (Debye)      :      2.44804

                             ****ORCA TERMINATED NORMALLY****
TOTAL RUN TIME: 0 days 0 hours 18 minutes 47 seconds 602 msec
