                         Program Version 3.0.3 - RELEASE   -
|  1> ! RI-MP2 RIJK def2-TZVP def2-TZVP/C def2-TZVP/JK TIGHTSCF
|  2> % maxcore 2000
|  3> % mp2 density relaxed end
|  4> *xyz 0 1
|  5>  C        0.0148753414     1.5068259093     0.0665834282
|  6>  C        0.0172078005    -0.0116486865     0.0197460169
|  7>  O        0.6907834672    -0.4972024898     1.1640168177
|  8>  C        0.7522778679    -1.9032113982     1.2230215455
|  9>  C        1.4784257346    -2.2977303014     2.5203607575
| 10>  C        0.7190757988    -1.8070934942     3.7681090970
| 11>  C        1.6906703926    -3.7427855231     2.5500553959
| 12>  C        1.8396944115    -4.9356100533     2.5692825680
| 13>  H        1.0385115781     1.8917141453     0.0787323115
| 14>  H       -0.4995471417     1.9143502807    -0.8087508294
| 15>  H       -0.4954515698     1.8622354979     0.9662832778
| 16>  H       -1.0146557490    -0.4009091406    -0.0061199418
| 17>  H        0.5181749951    -0.3705794593    -0.8952372090
| 18>  H       -0.2594719538    -2.3425907083     1.2147702230
| 19>  H        1.2938736665    -2.3080237356     0.3534723018
| 20>  H        2.4575992998    -1.8008723179     2.4947965728
| 21>  H        0.5646224371    -0.7282846015     3.7027459683
| 22>  H       -0.2567986315    -2.2975089511     3.8396244960
| 23>  H        1.2804591463    -2.0345522379     4.6776588250
| 24>  H        1.9846803183    -5.9872086744     2.5908563272
| 25> *
| 26>
| 27>                          ****END OF INPUT****

CARTESIAN COORDINATES (ANGSTROEM)
---------------------------------
  C      0.014875    1.506826    0.066583
  C      0.017208   -0.011649    0.019746
  O      0.690783   -0.497202    1.164017
  C      0.752278   -1.903211    1.223022
  C      1.478426   -2.297730    2.520361
  C      0.719076   -1.807093    3.768109
  C      1.690670   -3.742786    2.550055
  C      1.839694   -4.935610    2.569283
  H      1.038512    1.891714    0.078732
  H     -0.499547    1.914350   -0.808751
  H     -0.495452    1.862235    0.966283
  H     -1.014656   -0.400909   -0.006120
  H      0.518175   -0.370579   -0.895237
  H     -0.259472   -2.342591    1.214770
  H      1.293874   -2.308024    0.353472
  H      2.457599   -1.800872    2.494797
  H      0.564622   -0.728285    3.702746
  H     -0.256799   -2.297509    3.839624
  H      1.280459   -2.034552    4.677659
  H      1.984680   -5.987209    2.590856

 Total Charge           Charge          ....    0
 Multiplicity           Mult            ....    1
 Number of Electrons    NEL             ....   62
 Basis Dimension        Dim             ....  320

ORBITAL ENERGIES
----------------

  NO   OCC          E(Eh)            E(eV)
   0   2.0000     -20.557039      -559.3855
   1   2.0000     -11.280328      -306.9533
   2   2.0000     -11.277766      -306.8836
   3   2.0000     -11.254655      -306.2547
   4   2.0000     -11.230865      -305.6074
   5   2.0000     -11.219230      -305.2908
   6   2.0000     -11.216863      -305.2264
   7   2.0000     -11.216769      -305.2238
   8   2.0000      -1.381082       -37.5811
   9   2.0000      -1.099993       -29.9323
  10   2.0000      -1.023716       -27.8567
  11   2.0000      -0.992587       -27.0097
  12   2.0000      -0.921944       -25.0874
  13   2.0000      -0.844964       -22.9926
  14   2.0000      -0.826026       -22.4773
  15   2.0000      -0.717744       -19.5308
  16   2.0000      -0.682801       -18.5800
  17   2.0000      -0.674771       -18.3615
  18   2.0000      -0.634231       -17.2583
  19   2.0000      -0.623086       -16.9550
  20   2.0000      -0.589927       -16.0527
  21   2.0000      -0.552918       -15.0457
  22   2.0000      -0.542564       -14.7639
  23   2.0000      -0.533516       -14.5177
  24   2.0000      -0.516563       -14.0564
  25   2.0000      -0.495366       -13.4796
  26   2.0000      -0.492437       -13.3999
  27   2.0000      -0.476670       -12.9708
  28   2.0000      -0.424720       -11.5572
  29   2.0000      -0.384826       -10.4716
  30   2.0000      -0.383890       -10.4462
  31   0.0000       0.135165         3.6780
  32   0.0000       0.152723         4.1558
  33   0.0000       0.164091         4.4651
  34   0.0000       0.170129         4.6294
  35   0.0000       0.176508         4.8030

MULLIKEN ATOMIC CHARGES
-----------------------
   0 C :   -0.363732
   1 C :   -0.046421
   2 O :   -0.293118
   3 C :   -0.076331
   4 C :   -0.081741
   5 C :   -0.391920
   6 C :   -0.063473
   7 C :   -0.171866
   8 H :    0.129782
   9 H :    0.123012
  10 H :    0.129283
  11 H :    0.091815
  12 H :    0.092149
  13 H :    0.100156
  14 H :    0.111743
  15 H :    0.110598
  16 H :    0.151310
  17 H :    0.122269
  18 H :    0.137497
  19 H :    0.188989
Sum of atomic charges:   -0.0000000

LOEWDIN ATOMIC CHARGES
----------------------
   0 C :   -0.316966
   1 C :   -0.352678
   2 O :    0.161282
   3 C :   -0.294781
   4 C :   -0.268344
   5 C :   -0.272579
   6 C :   -0.089150
   7 C :   -0.102573
   8 H :    0.124031
   9 H :    0.124637
  10 H :    0.123759
  11 H :    0.116490
  12 H :    0.116887
  13 H :    0.124847
  14 H :    0.126365
  15 H :    0.171834
  16 H :    0.128125
  17 H :    0.126237
  18 H :    0.126386
  19 H :    0.126190

  Mayer bond orders larger than 0.1
B(  0-C ,  1-C ) :   0.9529 B(  0-C ,  8-H ) :   0.9361 B(  0-C ,  9-H ) :   0.9328
B(  0-C , 10-H ) :   0.9364 B(  1-C ,  2-O ) :   0.9142 B(  1-C , 11-H ) :   0.9235
B(  1-C , 12-H ) :   0.9245 B(  2-O ,  3-C ) :   0.9526 B(  3-C ,  4-C ) :   0.9445
B(  3-C , 13-H ) :   0.9212 B(  3-C , 14-H ) :   0.9264 B(  4-C ,  5-C ) :   0.9205
B(  4-C ,  6-C ) :   1.0878 B(  4-C , 15-H ) :   0.9093 B(  5-C , 16-H ) :   0.9322
B(  5-C , 17-H ) :   0.9289 B(  5-C , 18-H ) :   0.9362 B(  6-C ,  7-C ) :   2.6043
B(  7-C , 19-H ) :   0.8994

MP2 TOTAL ENERGY:     -348.354521162 Eh
FINAL SINGLE POINT ENERGY      -348.354521161685

DIPOLE MOMENT
-------------
                                X             Y             Z
Electronic contribution:      3.19016      -6.09721       1.61800
Nuclear contribution   :     -3.42772       6.16827      -1.96625
                        -----------------------------------------
Total Dipole Moment    :     -0.23755       0.07106      -0.34824
                        -----------------------------------------
Magnitude (a.u.)       :      0.42750
Magnitude (Debye)      :      1.08661

                             ****ORCA TERMINATED NORMALLY****
TOTAL RUN TIME: 0 days 0 hours 11 minutes 55 seconds 729 msec
