                         Program Version 3.0.3 - RELEASE   -
|  1> ! RI-MP2 RIJK def2-TZVP def2-TZVP/C def2-TZVP/JK TIGHTSCF
|  2> % maxcore 2000
|  3> % mp2 density relaxed end
|  4> *xyz 0 1
|  5>  C       -0.6882986960     1.3077748349     0.1326759381
|  6>  C       -0.0530481807    -0.0532104920    -0.1334637415
|  7>  C        0.8783012173    -0.2002297430    -1.3849663504
|  8>  C        2.0245200914    -0.7513722743    -0.4911388395
|  9>  C        3.3494882025    -0.0164758178    -0.5211560629
| 10>  O        3.5477296382     0.9828466358    -1.1642869817
| 11>  C        1.1363858544    -0.4516759722     0.7211176785
| 12>  N        1.2876085234    -0.4568641145     1.9758502667
| 13>  O        2.5875906363    -0.8702548987     2.3288227648
| 14>  H        0.0651589538     2.1012982385     0.1104925851
| 15>  H       -1.4436724686     1.5335498640    -0.6270531144
| 16>  H       -1.1715047874     1.3275364388     1.1138421980
| 17>  H       -0.8221296645    -0.8344845350    -0.1110290472
| 18>  H        0.5239825020    -0.8721524221    -2.1672492672
| 19>  H        1.1574866200     0.7585048999    -1.8265038098
| 20>  H        2.2212511450    -1.8269675796    -0.5794056052
| 21>  H        4.1382953735    -0.4619940732     0.1175822506
| 22>  H        2.5688401993    -0.8136196596     3.2903655282
| 23> *
| 24>
| 25>                          ****END OF INPUT****

CARTESIAN COORDINATES (ANGSTROEM)
---------------------------------
  C     -0.688299    1.307775    0.132676
  C     -0.053048   -0.053210   -0.133464
  C      0.878301   -0.200230   -1.384966
  C      2.024520   -0.751372   -0.491139
  C      3.349488   -0.016476   -0.521156
  O      3.547730    0.982847   -1.164287
  C      1.136386   -0.451676    0.721118
  N      1.287609   -0.456864    1.975850
  O      2.587591   -0.870255    2.328823
  H      0.065159    2.101298    0.110493
  H     -1.443672    1.533550   -0.627053
  H     -1.171505    1.327536    1.113842
  H     -0.822130   -0.834485   -0.111029
  H      0.523983   -0.872152   -2.167249
  H      1.157487    0.758505   -1.826504
  H      2.221251   -1.826968   -0.579406
  H      4.138295   -0.461994    0.117582
  H      2.568840   -0.813620    3.290366

 Total Charge           Charge          ....    0
 Multiplicity           Mult            ....    1
 Number of Electrons    NEL             ....   68
 Basis Dimension        Dim             ....  333

ORBITAL ENERGIES
----------------

  NO   OCC          E(Eh)            E(eV)
   0   2.0000     -20.603105      -560.6390
   1   2.0000     -20.559832      -559.4615
   2   2.0000     -15.625316      -425.1865
   3   2.0000     -11.335311      -308.4495
   4   2.0000     -11.289502      -307.2030
   5   2.0000     -11.260640      -306.4176
   6   2.0000     -11.252037      -306.1835
   7   2.0000     -11.238384      -305.8120
   8   2.0000     -11.225075      -305.4498
   9   2.0000      -1.427901       -38.8552
  10   2.0000      -1.399028       -38.0695
  11   2.0000      -1.197414       -32.5833
  12   2.0000      -1.106006       -30.0959
  13   2.0000      -1.016128       -27.6502
  14   2.0000      -0.921396       -25.0725
  15   2.0000      -0.853787       -23.2327
  16   2.0000      -0.794911       -21.6306
  17   2.0000      -0.723534       -19.6884
  18   2.0000      -0.709876       -19.3167
  19   2.0000      -0.693528       -18.8719
  20   2.0000      -0.678176       -18.4541
  21   2.0000      -0.645438       -17.5632
  22   2.0000      -0.597123       -16.2485
  23   2.0000      -0.595358       -16.2005
  24   2.0000      -0.585895       -15.9430
  25   2.0000      -0.550394       -14.9770
  26   2.0000      -0.546382       -14.8678
  27   2.0000      -0.519313       -14.1312
  28   2.0000      -0.506118       -13.7722
  29   2.0000      -0.490452       -13.3459
  30   2.0000      -0.472299       -12.8519
  31   2.0000      -0.438477       -11.9316
  32   2.0000      -0.420220       -11.4348
  33   2.0000      -0.391288       -10.6475
  34   0.0000       0.114991         3.1291
  35   0.0000       0.132385         3.6024
  36   0.0000       0.142143         3.8679
  37   0.0000       0.156744         4.2652
  38   0.0000       0.165170         4.4945

MULLIKEN ATOMIC CHARGES
-----------------------
   0 C :   -0.425652
   1 C :    0.062314
   2 C :   -0.310641
   3 C :    0.044271
   4 C :    0.091983
   5 O :   -0.275189
   6 C :   -0.129005
   7 N :   -0.075694
   8 O :   -0.369876
   9 H :    0.137543
  10 H :    0.135345
  11 H :    0.142302
  12 H :    0.114709
  13 H :    0.131966
  14 H :    0.148769
  15 H :    0.133986
  16 H :    0.101965
  17 H :    0.340906
Sum of atomic charges:    0.0000000

LOEWDIN ATOMIC CHARGES
----------------------
   0 C :   -0.287215
   1 C :   -0.212219
   2 C :   -0.173266
   3 C :   -0.197356
   4 C :   -0.268271
   5 O :    0.135487
   6 C :   -0.235203
   7 N :    0.033875
   8 O :   -0.071394
   9 H :    0.128647
  10 H :    0.126169
  11 H :    0.128999
  12 H :    0.158038
  13 H :    0.130160
  14 H :    0.144665
  15 H :    0.168974
  16 H :    0.118388
  17 H :    0.171524

  Mayer bond orders larger than 0.1
B(  0-C ,  1-C ) :   0.8788 B(  0-C ,  9-H ) :   0.9345 B(  0-C , 10-H ) :   0.9366
B(  0-C , 11-H ) :   0.9361 B(  1-C ,  2-C ) :   0.9560 B(  1-C ,  6-C ) :   0.9212
B(  1-C , 12-H ) :   0.9059 B(  2-C ,  3-C ) :   0.9341 B(  2-C , 13-H ) :   0.9276
B(  2-C , 14-H ) :   0.9083 B(  3-C ,  4-C ) :   0.8365 B(  3-C ,  6-C ) :   0.8888
B(  3-C , 15-H ) :   0.8684 B(  4-C ,  5-O ) :   1.9781 B(  4-C , 16-H ) :   0.9323
B(  6-C ,  7-N ) :   1.8786 B(  7-N ,  8-O ) :   0.8005 B(  8-O , 17-H ) :   0.8413

MP2 TOTAL ENERGY:     -438.312628588 Eh
FINAL SINGLE POINT ENERGY      -438.312628588329

DIPOLE MOMENT
-------------
                                X             Y             Z
Electronic contribution:      6.19957      -1.94078       2.56832
Nuclear contribution   :     -6.67131       1.23211      -2.30812
                        -----------------------------------------
Total Dipole Moment    :     -0.47174      -0.70867       0.26020
                        -----------------------------------------
Magnitude (a.u.)       :      0.89020
Magnitude (Debye)      :      2.26271

                             ****ORCA TERMINATED NORMALLY****
TOTAL RUN TIME: 0 days 0 hours 17 minutes 25 seconds 406 msec
