                         Program Version 3.0.3 - RELEASE   -
|  1> ! RI-MP2 RIJK def2-TZVP def2-TZVP/C def2-TZVP/JK TIGHTSCF
|  2> % maxcore 2000
|  3> % mp2 density relaxed end
|  4> *xyz 0 1
|  5>  O        0.0351392568    -0.0221426546     0.0149743013
|  6>  C       -0.0191648881     1.1794268468     0.0282916155
|  7>  C       -1.2339209953     2.0462981622     0.1057876535
|  8>  C       -0.9030641987     3.3357672080    -0.0255660820
|  9>  C        0.5938849617     3.4903801103    -0.1315365830
| 10>  O        1.2866454714     3.0190320180     1.0434199603
| 11>  C        1.1749984193     2.1367622657    -0.0803357283
| 12>  C        1.1824944356     4.5986864492    -0.8364006427
| 13>  N        1.6175998633     5.5010364432    -1.4121380102
| 14>  H       -2.2238270236     1.6396510016     0.2638709277
| 15>  H       -1.5710615742     4.1870843832    -0.0205213739
| 16>  H        2.0975507420     1.8401515064    -0.5680078983
| 17> *
| 18>
| 19>                          ****END OF INPUT****

CARTESIAN COORDINATES (ANGSTROEM)
---------------------------------
  O      0.035139   -0.022143    0.014974
  C     -0.019165    1.179427    0.028292
  C     -1.233921    2.046298    0.105788
  C     -0.903064    3.335767   -0.025566
  C      0.593885    3.490380   -0.131537
  O      1.286645    3.019032    1.043420
  C      1.174998    2.136762   -0.080336
  C      1.182494    4.598686   -0.836401
  N      1.617600    5.501036   -1.412138
  H     -2.223827    1.639651    0.263871
  H     -1.571062    4.187084   -0.020521
  H      2.097551    1.840152   -0.568008

 Total Charge           Charge          ....    0
 Multiplicity           Mult            ....    1
 Number of Electrons    NEL             ....   62
 Basis Dimension        Dim             ....  297

ORBITAL ENERGIES
----------------

  NO   OCC          E(Eh)            E(eV)
   0   2.0000     -20.636373      -561.5443
   1   2.0000     -20.590085      -560.2847
   2   2.0000     -15.607938      -424.7136
   3   2.0000     -11.379385      -309.6488
   4   2.0000     -11.374393      -309.5130
   5   2.0000     -11.346961      -308.7665
   6   2.0000     -11.309369      -307.7436
   7   2.0000     -11.306161      -307.6563
   8   2.0000     -11.287054      -307.1363
   9   2.0000      -1.481443       -40.3121
  10   2.0000      -1.428538       -38.8725
  11   2.0000      -1.249978       -34.0136
  12   2.0000      -1.162536       -31.6342
  13   2.0000      -1.014136       -27.5960
  14   2.0000      -0.993199       -27.0263
  15   2.0000      -0.863856       -23.5067
  16   2.0000      -0.816774       -22.2255
  17   2.0000      -0.779783       -21.2190
  18   2.0000      -0.699812       -19.0429
  19   2.0000      -0.666748       -18.1431
  20   2.0000      -0.659668       -17.9505
  21   2.0000      -0.640034       -17.4162
  22   2.0000      -0.620873       -16.8948
  23   2.0000      -0.593500       -16.1499
  24   2.0000      -0.588853       -16.0235
  25   2.0000      -0.543768       -14.7967
  26   2.0000      -0.537152       -14.6166
  27   2.0000      -0.497933       -13.5494
  28   2.0000      -0.482714       -13.1353
  29   2.0000      -0.440506       -11.9868
  30   2.0000      -0.418290       -11.3823
  31   0.0000       0.036064         0.9813
  32   0.0000       0.124796         3.3959
  33   0.0000       0.133118         3.6223
  34   0.0000       0.139819         3.8047
  35   0.0000       0.158137         4.3031

MULLIKEN ATOMIC CHARGES
-----------------------
   0 O :   -0.237309
   1 C :    0.191094
   2 C :   -0.134089
   3 C :   -0.205999
   4 C :    0.376701
   5 O :   -0.276818
   6 C :   -0.004034
   7 C :   -0.183818
   8 N :   -0.036714
   9 H :    0.167432
  10 H :    0.174242
  11 H :    0.169312
Sum of atomic charges:   -0.0000000

LOEWDIN ATOMIC CHARGES
----------------------
   0 O :    0.188682
   1 C :   -0.287023
   2 C :   -0.084103
   3 C :   -0.047802
   4 C :   -0.270207
   5 O :    0.233282
   6 C :   -0.158516
   7 C :   -0.133924
   8 N :    0.098910
   9 H :    0.153501
  10 H :    0.154126
  11 H :    0.153074

  Mayer bond orders larger than 0.1
B(  0-O ,  1-C ) :   1.9892 B(  1-C ,  2-C ) :   0.9644 B(  1-C ,  6-C ) :   0.8936
B(  2-C ,  3-C ) :   1.6933 B(  2-C ,  9-H ) :   0.9078 B(  3-C ,  4-C ) :   0.9306
B(  3-C , 10-H ) :   0.9018 B(  4-C ,  5-O ) :   0.9105 B(  4-C ,  6-C ) :   0.8627
B(  4-C ,  7-C ) :   0.8736 B(  5-O ,  6-C ) :   0.8637 B(  6-C , 11-H ) :   0.9107
B(  7-C ,  8-N ) :   2.8276

MP2 TOTAL ENERGY:     -434.752355999 Eh
FINAL SINGLE POINT ENERGY      -434.752355998565

DIPOLE MOMENT
-------------
                                X             Y             Z
Electronic contribution:      1.82715       0.43108       0.01004
Nuclear contribution   :     -2.77927      -0.60070       0.04359
                        -----------------------------------------
Total Dipole Moment    :     -0.95213      -0.16961       0.05363
                        -----------------------------------------
Magnitude (a.u.)       :      0.96860
Magnitude (Debye)      :      2.46199

                             ****ORCA TERMINATED NORMALLY****
TOTAL RUN TIME: 0 days 0 hours 13 minutes 42 seconds 987 msec
