                         Program Version 3.0.3 - RELEASE   -
|  1> ! RI-MP2 RIJK def2-TZVP def2-TZVP/C def2-TZVP/JK TIGHTSCF
|  2> % maxcore 2000
|  3> % mp2 density relaxed end
|  4> *xyz 0 1
|  5>  C       -0.0253884126     1.5815721529     0.0289739752
|  6>  C        1.4790121143     1.8303976701     0.0240336044
|  7>  C        1.9575914038     0.8708731268     1.1308788934
|  8>  C        2.4893632196    -0.0805733508     0.1275981897
|  9>  C        2.2083962454     0.8812400738    -1.0506344720
| 10>  C        1.3202910467     0.2026076817    -2.0448109778
| 11>  C        0.2072309390    -0.3125531516    -1.5115444729
| 12>  C       -0.0022070699     0.0263404374    -0.0611960206
| 13>  N        1.2076640125    -0.3498531206     0.7886642343
| 14>  H       -0.4599354426     1.9187776525     0.9771278717
| 15>  H       -0.5747143207     2.0363585038    -0.7985838902
| 16>  H        1.8104150108     2.8676403267     0.0243424085
| 17>  H        2.2151747349     1.0840292987     2.1611523986
| 18>  H        3.2682198336    -0.8343741912     0.1735291858
| 19>  H        3.1026915219     1.3448432240    -1.4667610768
| 20>  H        1.6040085632     0.0917543766    -3.0858437468
| 21>  H       -0.5290830207    -0.8853707252    -2.0638389787
| 22>  H       -0.8797838991    -0.4535308457     0.3718148342
| 23> *
| 24>
| 25>                          ****END OF INPUT****

CARTESIAN COORDINATES (ANGSTROEM)
---------------------------------
  C     -0.025388    1.581572    0.028974
  C      1.479012    1.830398    0.024034
  C      1.957591    0.870873    1.130879
  C      2.489363   -0.080573    0.127598
  C      2.208396    0.881240   -1.050634
  C      1.320291    0.202608   -2.044811
  C      0.207231   -0.312553   -1.511544
  C     -0.002207    0.026340   -0.061196
  N      1.207664   -0.349853    0.788664
  H     -0.459935    1.918778    0.977128
  H     -0.574714    2.036359   -0.798584
  H      1.810415    2.867640    0.024342
  H      2.215175    1.084029    2.161152
  H      3.268220   -0.834374    0.173529
  H      3.102692    1.344843   -1.466761
  H      1.604009    0.091754   -3.085844
  H     -0.529083   -0.885371   -2.063839
  H     -0.879784   -0.453531    0.371815

 Total Charge           Charge          ....    0
 Multiplicity           Mult            ....    1
 Number of Electrons    NEL             ....   64
 Basis Dimension        Dim             ....  333

ORBITAL ENERGIES
----------------

  NO   OCC          E(Eh)            E(eV)
   0   2.0000     -15.554546      -423.2607
   1   2.0000     -11.255761      -306.2848
   2   2.0000     -11.255273      -306.2716
   3   2.0000     -11.250522      -306.1423
   4   2.0000     -11.238225      -305.8076
   5   2.0000     -11.237406      -305.7854
   6   2.0000     -11.223368      -305.4034
   7   2.0000     -11.222581      -305.3820
   8   2.0000     -11.221357      -305.3486
   9   2.0000      -1.302153       -35.4334
  10   2.0000      -1.096552       -29.8387
  11   2.0000      -1.039982       -28.2994
  12   2.0000      -1.020466       -27.7683
  13   2.0000      -0.875374       -23.8201
  14   2.0000      -0.826493       -22.4900
  15   2.0000      -0.820675       -22.3317
  16   2.0000      -0.756255       -20.5787
  17   2.0000      -0.709813       -19.3150
  18   2.0000      -0.672655       -18.3039
  19   2.0000      -0.658515       -17.9191
  20   2.0000      -0.622984       -16.9523
  21   2.0000      -0.586591       -15.9620
  22   2.0000      -0.563074       -15.3220
  23   2.0000      -0.548045       -14.9131
  24   2.0000      -0.532192       -14.4817
  25   2.0000      -0.472460       -12.8563
  26   2.0000      -0.468750       -12.7553
  27   2.0000      -0.453915       -12.3517
  28   2.0000      -0.428843       -11.6694
  29   2.0000      -0.409842       -11.1524
  30   2.0000      -0.376114       -10.2346
  31   2.0000      -0.346357        -9.4249
  32   0.0000       0.140648         3.8272
  33   0.0000       0.146930         3.9982
  34   0.0000       0.167125         4.5477
  35   0.0000       0.172166         4.6849
  36   0.0000       0.186026         5.0620

MULLIKEN ATOMIC CHARGES
-----------------------
   0 C :   -0.290454
   1 C :   -0.022114
   2 C :   -0.171947
   3 C :   -0.057605
   4 C :   -0.037178
   5 C :   -0.215408
   6 C :   -0.284199
   7 C :    0.177604
   8 N :   -0.238687
   9 H :    0.118740
  10 H :    0.122456
  11 H :    0.134525
  12 H :    0.136304
  13 H :    0.129094
  14 H :    0.130565
  15 H :    0.121596
  16 H :    0.121485
  17 H :    0.125223
Sum of atomic charges:    0.0000000

LOEWDIN ATOMIC CHARGES
----------------------
   0 C :   -0.205841
   1 C :   -0.166397
   2 C :   -0.193311
   3 C :   -0.185614
   4 C :   -0.164854
   5 C :   -0.142624
   6 C :   -0.140461
   7 C :   -0.223258
   8 N :    0.164223
   9 H :    0.142233
  10 H :    0.139893
  11 H :    0.142874
  12 H :    0.130811
  13 H :    0.131926
  14 H :    0.149650
  15 H :    0.138016
  16 H :    0.138353
  17 H :    0.144382

  Mayer bond orders larger than 0.1
B(  0-C ,  1-C ) :   0.9371 B(  0-C ,  7-C ) :   0.9187 B(  0-C ,  9-H ) :   0.9161
B(  0-C , 10-H ) :   0.9134 B(  1-C ,  2-C ) :   0.8709 B(  1-C ,  4-C ) :   0.9272
B(  1-C , 11-H ) :   0.9057 B(  2-C ,  3-C ) :   0.8446 B(  2-C ,  8-N ) :   0.9467
B(  2-C , 12-H ) :   0.9204 B(  3-C ,  4-C ) :   0.8659 B(  3-C ,  8-N ) :   0.9190
B(  3-C , 13-H ) :   0.9310 B(  4-C ,  5-C ) :   1.0035 B(  4-C , 14-H ) :   0.8977
B(  5-C ,  6-C ) :   1.7266 B(  5-C , 15-H ) :   0.9381 B(  6-C ,  7-C ) :   0.9735
B(  6-C , 16-H ) :   0.9377 B(  7-C ,  8-N ) :   0.8786 B(  7-C , 17-H ) :   0.9177

MP2 TOTAL ENERGY:     -364.124479932 Eh
FINAL SINGLE POINT ENERGY      -364.124479932160

DIPOLE MOMENT
-------------
                                X             Y             Z
Electronic contribution:      1.18927      -1.73614       0.82500
Nuclear contribution   :     -1.11409       2.30203      -1.13328
                        -----------------------------------------
Total Dipole Moment    :      0.07518       0.56589      -0.30828
                        -----------------------------------------
Magnitude (a.u.)       :      0.64879
Magnitude (Debye)      :      1.64908

                             ****ORCA TERMINATED NORMALLY****
TOTAL RUN TIME: 0 days 0 hours 21 minutes 3 seconds 896 msec
