                         Program Version 3.0.3 - RELEASE   -
|  1> ! RI-MP2 RIJK def2-TZVP def2-TZVP/C def2-TZVP/JK TIGHTSCF
|  2> % maxcore 2000
|  3> % mp2 density relaxed end
|  4> *xyz 0 1
|  5>  C       -0.0136694201     1.4569317815    -0.0051300176
|  6>  C       -0.0780070575    -0.0364696680    -0.0051256923
|  7>  C        0.4630555856    -1.0482783085    -0.9463605985
|  8>  N        1.1531196421    -0.8223913823     0.3663201644
|  9>  C        0.4880156955    -2.0448874051     0.9829957334
| 10>  C       -0.6632483251    -1.5332716624     1.8617654324
| 11>  C       -1.1967106017    -0.9603391027     0.5266548883
| 12>  C       -0.4461718132    -2.1119839685    -0.2719197397
| 13>  C       -1.0973542981    -3.3238418517    -0.8655478954
| 14>  H        0.9478741264     1.7958386348    -0.4013292491
| 15>  H       -0.8122662706     1.8877596010    -0.6189431570
| 16>  H       -0.1161774287     1.8530812154     1.0118897906
| 17>  H        0.9692207321    -0.9707275033    -1.9028741959
| 18>  H        1.1996177373    -2.8104594487     1.2927127256
| 19>  H       -1.2834444977    -2.3550312426     2.2329377014
| 20>  H       -0.4279496724    -0.8419039623     2.6761386013
| 21>  H       -2.2373311216    -0.6858720084     0.3564896421
| 22>  H       -1.7799707997    -3.0508674676    -1.6788626270
| 23>  H       -0.3521447488    -4.0155992349    -1.2753464492
| 24>  H       -1.6792912838    -3.8687512157    -0.1133019379
| 25> *
| 26>
| 27>                          ****END OF INPUT****

CARTESIAN COORDINATES (ANGSTROEM)
---------------------------------
  C     -0.013669    1.456932   -0.005130
  C     -0.078007   -0.036470   -0.005126
  C      0.463056   -1.048278   -0.946361
  N      1.153120   -0.822391    0.366320
  C      0.488016   -2.044887    0.982996
  C     -0.663248   -1.533272    1.861765
  C     -1.196711   -0.960339    0.526655
  C     -0.446172   -2.111984   -0.271920
  C     -1.097354   -3.323842   -0.865548
  H      0.947874    1.795839   -0.401329
  H     -0.812266    1.887760   -0.618943
  H     -0.116177    1.853081    1.011890
  H      0.969221   -0.970728   -1.902874
  H      1.199618   -2.810459    1.292713
  H     -1.283444   -2.355031    2.232938
  H     -0.427950   -0.841904    2.676139
  H     -2.237331   -0.685872    0.356490
  H     -1.779971   -3.050867   -1.678863
  H     -0.352145   -4.015599   -1.275346
  H     -1.679291   -3.868751   -0.113302

 Total Charge           Charge          ....    0
 Multiplicity           Mult            ....    1
 Number of Electrons    NEL             ....   66
 Basis Dimension        Dim             ....  345

ORBITAL ENERGIES
----------------

  NO   OCC          E(Eh)            E(eV)
   0   2.0000     -15.549598      -423.1261
   1   2.0000     -11.259088      -306.3753
   2   2.0000     -11.253433      -306.2215
   3   2.0000     -11.250163      -306.1325
   4   2.0000     -11.242460      -305.9229
   5   2.0000     -11.233887      -305.6896
   6   2.0000     -11.223924      -305.4185
   7   2.0000     -11.221926      -305.3641
   8   2.0000     -11.217766      -305.2509
   9   2.0000      -1.318457       -35.8770
  10   2.0000      -1.080725       -29.4080
  11   2.0000      -1.006409       -27.3858
  12   2.0000      -1.000759       -27.2320
  13   2.0000      -0.934138       -25.4192
  14   2.0000      -0.859132       -23.3782
  15   2.0000      -0.817662       -22.2497
  16   2.0000      -0.719385       -19.5755
  17   2.0000      -0.706936       -19.2367
  18   2.0000      -0.652276       -17.7493
  19   2.0000      -0.635722       -17.2989
  20   2.0000      -0.615263       -16.7422
  21   2.0000      -0.587646       -15.9907
  22   2.0000      -0.565066       -15.3762
  23   2.0000      -0.559402       -15.2221
  24   2.0000      -0.553113       -15.0510
  25   2.0000      -0.529724       -14.4145
  26   2.0000      -0.506996       -13.7961
  27   2.0000      -0.475085       -12.9277
  28   2.0000      -0.447939       -12.1890
  29   2.0000      -0.419975       -11.4281
  30   2.0000      -0.407047       -11.0763
  31   2.0000      -0.400678       -10.9030
  32   2.0000      -0.341737        -9.2991
  33   0.0000       0.136445         3.7129
  34   0.0000       0.152733         4.1561
  35   0.0000       0.165347         4.4993
  36   0.0000       0.181373         4.9354
  37   0.0000       0.190170         5.1748

MULLIKEN ATOMIC CHARGES
-----------------------
   0 C :   -0.431150
   1 C :    0.076437
   2 C :   -0.202660
   3 N :   -0.229296
   4 C :   -0.014866
   5 C :   -0.281602
   6 C :   -0.061415
   7 C :    0.111871
   8 C :   -0.404667
   9 H :    0.145138
  10 H :    0.129559
  11 H :    0.131047
  12 H :    0.130723
  13 H :    0.122130
  14 H :    0.118065
  15 H :    0.119587
  16 H :    0.129637
  17 H :    0.135702
  18 H :    0.139139
  19 H :    0.136621
Sum of atomic charges:   -0.0000000

LOEWDIN ATOMIC CHARGES
----------------------
   0 C :   -0.272795
   1 C :   -0.238950
   2 C :   -0.137547
   3 N :    0.155036
   4 C :   -0.174477
   5 C :   -0.206631
   6 C :   -0.122121
   7 C :   -0.173569
   8 C :   -0.279224
   9 H :    0.135912
  10 H :    0.127614
  11 H :    0.130360
  12 H :    0.127990
  13 H :    0.130148
  14 H :    0.140379
  15 H :    0.128931
  16 H :    0.136788
  17 H :    0.130117
  18 H :    0.130510
  19 H :    0.131529

  Mayer bond orders larger than 0.1
B(  0-C ,  1-C ) :   0.8532 B(  0-C ,  9-H ) :   0.9421 B(  0-C , 10-H ) :   0.9447
B(  0-C , 11-H ) :   0.9376 B(  1-C ,  2-C ) :   0.9068 B(  1-C ,  3-N ) :   0.8705
B(  1-C ,  6-C ) :   0.8493 B(  2-C ,  3-N ) :   0.9346 B(  2-C ,  7-C ) :   0.9282
B(  2-C , 12-H ) :   0.9010 B(  3-N ,  4-C ) :   0.9127 B(  4-C ,  5-C ) :   0.9656
B(  4-C ,  7-C ) :   0.9213 B(  4-C , 13-H ) :   0.9096 B(  5-C ,  6-C ) :   0.9336
B(  5-C , 14-H ) :   0.9164 B(  5-C , 15-H ) :   0.9048 B(  6-C ,  7-C ) :   0.8754
B(  6-C , 16-H ) :   0.9017 B(  7-C ,  8-C ) :   0.8279 B(  8-C , 17-H ) :   0.9376
B(  8-C , 18-H ) :   0.9434 B(  8-C , 19-H ) :   0.9459

MP2 TOTAL ENERGY:     -365.278276030 Eh
FINAL SINGLE POINT ENERGY      -365.278276029561

DIPOLE MOMENT
-------------
                                X             Y             Z
Electronic contribution:      2.81549       0.06146       0.20383
Nuclear contribution   :     -3.51508      -0.32923      -0.39620
                        -----------------------------------------
Total Dipole Moment    :     -0.69959      -0.26778      -0.19237
                        -----------------------------------------
Magnitude (a.u.)       :      0.77339
Magnitude (Debye)      :      1.96581

                             ****ORCA TERMINATED NORMALLY****
TOTAL RUN TIME: 0 days 0 hours 26 minutes 34 seconds 956 msec
