                         Program Version 3.0.3 - RELEASE   -
|  1> ! RI-MP2 RIJK def2-TZVP def2-TZVP/C def2-TZVP/JK TIGHTSCF
|  2> % maxcore 2000
|  3> % mp2 density relaxed end
|  4> *xyz 0 1
|  5>  O       -0.0186267479     1.4627951124     0.2385444236
|  6>  C       -0.0150217821     0.0729080956     0.0408610527
|  7>  C       -0.4869139668    -0.8323070041     1.1423610809
|  8>  C       -1.3489385914    -0.6141837851    -0.1023186986
|  9>  C       -2.6429376793     0.0935182066    -0.0396044064
| 10>  C       -3.9157798731    -0.3471235220    -0.3619917639
| 11>  C       -4.7572647236     0.7496032736    -0.0854476265
| 12>  N       -4.0754959350     1.7975946241     0.3690018643
| 13>  N       -2.7982683179     1.3712548535     0.3957179577
| 14>  H        0.6920076727     1.6770321474     0.8523615983
| 15>  H        0.7888779814    -0.2782894868    -0.6044112245
| 16>  H       -0.0078350616    -1.7948551814     1.2831126961
| 17>  H       -0.8344384201    -0.3507653829     2.0502460533
| 18>  H       -1.3603445140    -1.4411292017    -0.8044851485
| 19>  H       -4.1869489759    -1.3223733750    -0.7333983051
| 20>  H       -5.8294572354     0.8176059702    -0.1991289499
| 21>  H       -2.0444433200     2.0004635256     0.6201035665
| 22> *
| 23>
| 24>                          ****END OF INPUT****

CARTESIAN COORDINATES (ANGSTROEM)
---------------------------------
  O     -0.018627    1.462795    0.238544
  C     -0.015022    0.072908    0.040861
  C     -0.486914   -0.832307    1.142361
  C     -1.348939   -0.614184   -0.102319
  C     -2.642938    0.093518   -0.039604
  C     -3.915780   -0.347124   -0.361992
  C     -4.757265    0.749603   -0.085448
  N     -4.075496    1.797595    0.369002
  N     -2.798268    1.371255    0.395718
  H      0.692008    1.677032    0.852362
  H      0.788878   -0.278289   -0.604411
  H     -0.007835   -1.794855    1.283113
  H     -0.834438   -0.350765    2.050246
  H     -1.360345   -1.441129   -0.804485
  H     -4.186949   -1.322373   -0.733398
  H     -5.829457    0.817606   -0.199129
  H     -2.044443    2.000464    0.620104

 Total Charge           Charge          ....    0
 Multiplicity           Mult            ....    1
 Number of Electrons    NEL             ....   66
 Basis Dimension        Dim             ....  327

ORBITAL ENERGIES
----------------

  NO   OCC          E(Eh)            E(eV)
   0   2.0000     -20.588968      -560.2543
   1   2.0000     -15.615734      -424.9257
   2   2.0000     -15.569231      -423.6603
   3   2.0000     -11.307646      -307.6967
   4   2.0000     -11.273838      -306.7767
   5   2.0000     -11.259622      -306.3899
   6   2.0000     -11.246585      -306.0351
   7   2.0000     -11.238586      -305.8175
   8   2.0000     -11.205662      -304.9216
   9   2.0000      -1.398164       -38.0460
  10   2.0000      -1.356851       -36.9218
  11   2.0000      -1.159477       -31.5510
  12   2.0000      -1.079241       -29.3676
  13   2.0000      -1.039472       -28.2855
  14   2.0000      -0.871903       -23.7257
  15   2.0000      -0.846416       -23.0321
  16   2.0000      -0.800086       -21.7714
  17   2.0000      -0.787374       -21.4255
  18   2.0000      -0.732127       -19.9222
  19   2.0000      -0.696138       -18.9429
  20   2.0000      -0.668616       -18.1940
  21   2.0000      -0.622851       -16.9486
  22   2.0000      -0.599036       -16.3006
  23   2.0000      -0.589005       -16.0277
  24   2.0000      -0.575952       -15.6725
  25   2.0000      -0.563974       -15.3465
  26   2.0000      -0.538571       -14.6553
  27   2.0000      -0.526976       -14.3398
  28   2.0000      -0.456290       -12.4163
  29   2.0000      -0.442332       -12.0365
  30   2.0000      -0.428833       -11.6691
  31   2.0000      -0.350842        -9.5469
  32   2.0000      -0.317421        -8.6375
  33   0.0000       0.124481         3.3873
  34   0.0000       0.147630         4.0172
  35   0.0000       0.159657         4.3445
  36   0.0000       0.173616         4.7243
  37   0.0000       0.177215         4.8223

MULLIKEN ATOMIC CHARGES
-----------------------
   0 O :   -0.498169
   1 C :    0.049618
   2 C :   -0.284061
   3 C :   -0.138625
   4 C :    0.129188
   5 C :   -0.239001
   6 C :   -0.099989
   7 N :   -0.241597
   8 N :   -0.087043
   9 H :    0.334528
  10 H :    0.120597
  11 H :    0.135032
  12 H :    0.149705
  13 H :    0.142875
  14 H :    0.131583
  15 H :    0.128614
  16 H :    0.266745
Sum of atomic charges:    0.0000000

LOEWDIN ATOMIC CHARGES
----------------------
   0 O :   -0.007694
   1 C :   -0.308419
   2 C :   -0.205263
   3 C :   -0.171534
   4 C :   -0.225160
   5 C :   -0.185540
   6 C :   -0.283190
   7 N :    0.016756
   8 N :    0.153428
   9 H :    0.185048
  10 H :    0.134388
  11 H :    0.133032
  12 H :    0.140883
  13 H :    0.163626
  14 H :    0.140508
  15 H :    0.131373
  16 H :    0.187760

  Mayer bond orders larger than 0.1
B(  0-O ,  1-C ) :   0.9628 B(  0-O ,  9-H ) :   0.8343 B(  1-C ,  2-C ) :   0.8961
B(  1-C ,  3-C ) :   0.8973 B(  1-C , 10-H ) :   0.9491 B(  2-C ,  3-C ) :   0.8221
B(  2-C , 11-H ) :   0.9169 B(  2-C , 12-H ) :   0.9251 B(  3-C ,  4-C ) :   0.9340
B(  3-C , 13-H ) :   0.9215 B(  4-C ,  5-C ) :   1.4010 B(  4-C ,  8-N ) :   1.1881
B(  5-C ,  6-C ) :   1.3111 B(  5-C , 14-H ) :   0.9337 B(  6-C ,  7-N ) :   1.5296
B(  6-C , 15-H ) :   0.9389 B(  7-N ,  8-N ) :   1.0567 B(  8-N , 16-H ) :   0.8482

MP2 TOTAL ENERGY:     -417.303166615 Eh
FINAL SINGLE POINT ENERGY      -417.303166614901

DIPOLE MOMENT
-------------
                                X             Y             Z
Electronic contribution:     -2.67709       3.21632      -0.59600
Nuclear contribution   :      4.20433      -4.04112       0.85502
                        -----------------------------------------
Total Dipole Moment    :      1.52725      -0.82480       0.25902
                        -----------------------------------------
Magnitude (a.u.)       :      1.75495
Magnitude (Debye)      :      4.46074

                             ****ORCA TERMINATED NORMALLY****
TOTAL RUN TIME: 0 days 0 hours 17 minutes 45 seconds 293 msec
