                         Program Version 3.0.3 - RELEASE   -
|  1> ! RI-MP2 RIJK def2-TZVP def2-TZVP/C def2-TZVP/JK TIGHTSCF
|  2> % maxcore 2000
|  3> % mp2 density relaxed end
|  4> *xyz 0 1
|  5>  C        0.0097449702     1.4166526418    -0.0073081639
|  6>  N       -0.0515011174    -0.0405657545    -0.0195627190
|  7>  N       -0.2966095323    -0.6147508489    -1.2456582139
|  8>  C       -0.3530993524    -1.8934989946    -1.2716058123
|  9>  N       -0.1875370983    -2.7034921851    -0.1755789408
| 10>  C        0.0644075664    -2.2138455429     1.1064504725
| 11>  N        0.2279413091    -2.9007977776     2.1631315950
| 12>  C        0.1384411703    -0.7031726565     1.1777813891
| 13>  O        0.3493303264    -0.1018481924     2.2083595337
| 14>  H        0.9873327786     1.7527013236     0.3483054920
| 15>  H       -0.1619635701     1.7562810518    -1.0268226708
| 16>  H       -0.7508797855     1.8229967441     0.6645330127
| 17>  H       -0.5441939366    -2.3839220307    -2.2180518090
| 18>  H       -0.2497458402    -3.7045326582    -0.2951363307
| 19>  H        0.1542171020    -3.9039481600     1.9800353155
| 20> *
| 21>
| 22>                          ****END OF INPUT****

CARTESIAN COORDINATES (ANGSTROEM)
---------------------------------
  C      0.009745    1.416653   -0.007308
  N     -0.051501   -0.040566   -0.019563
  N     -0.296610   -0.614751   -1.245658
  C     -0.353099   -1.893499   -1.271606
  N     -0.187537   -2.703492   -0.175579
  C      0.064408   -2.213846    1.106450
  N      0.227941   -2.900798    2.163132
  C      0.138441   -0.703173    1.177781
  O      0.349330   -0.101848    2.208360
  H      0.987333    1.752701    0.348305
  H     -0.161964    1.756281   -1.026823
  H     -0.750880    1.822997    0.664533
  H     -0.544194   -2.383922   -2.218052
  H     -0.249746   -3.704533   -0.295136
  H      0.154217   -3.903948    1.980035

 Total Charge           Charge          ....    0
 Multiplicity           Mult            ....    1
 Number of Electrons    NEL             ....   66
 Basis Dimension        Dim             ....  315

ORBITAL ENERGIES
----------------

  NO   OCC          E(Eh)            E(eV)
   0   2.0000     -20.531087      -558.6793
   1   2.0000     -15.640348      -425.5955
   2   2.0000     -15.635335      -425.4591
   3   2.0000     -15.616787      -424.9544
   4   2.0000     -15.560380      -423.4195
   5   2.0000     -11.367832      -309.3344
   6   2.0000     -11.351099      -308.8791
   7   2.0000     -11.342531      -308.6460
   8   2.0000     -11.260705      -306.4194
   9   2.0000      -1.415222       -38.5102
  10   2.0000      -1.360681       -37.0260
  11   2.0000      -1.302695       -35.4481
  12   2.0000      -1.205506       -32.8035
  13   2.0000      -1.137663       -30.9574
  14   2.0000      -0.991815       -26.9887
  15   2.0000      -0.906370       -24.6636
  16   2.0000      -0.890727       -24.2379
  17   2.0000      -0.787197       -21.4207
  18   2.0000      -0.765610       -20.8333
  19   2.0000      -0.703262       -19.1367
  20   2.0000      -0.672256       -18.2930
  21   2.0000      -0.667932       -18.1753
  22   2.0000      -0.644836       -17.5469
  23   2.0000      -0.599796       -16.3213
  24   2.0000      -0.592229       -16.1154
  25   2.0000      -0.560700       -15.2574
  26   2.0000      -0.538946       -14.6655
  27   2.0000      -0.514475       -13.9996
  28   2.0000      -0.512668       -13.9504
  29   2.0000      -0.456772       -12.4294
  30   2.0000      -0.432611       -11.7719
  31   2.0000      -0.418382       -11.3847
  32   2.0000      -0.334324        -9.0974
  33   0.0000       0.101060         2.7500
  34   0.0000       0.104400         2.8409
  35   0.0000       0.133141         3.6229
  36   0.0000       0.154913         4.2154
  37   0.0000       0.159645         4.3442

MULLIKEN ATOMIC CHARGES
-----------------------
   0 C :   -0.308085
   1 N :    0.027410
   2 N :   -0.235969
   3 C :    0.052545
   4 N :   -0.279335
   5 C :   -0.021869
   6 N :   -0.285275
   7 C :    0.304811
   8 O :   -0.322019
   9 H :    0.152511
  10 H :    0.164394
  11 H :    0.152567
  12 H :    0.158356
  13 H :    0.241449
  14 H :    0.198509
Sum of atomic charges:   -0.0000000

LOEWDIN ATOMIC CHARGES
----------------------
   0 C :   -0.274589
   1 N :    0.151995
   2 N :    0.056661
   3 C :   -0.325899
   4 N :    0.147107
   5 C :   -0.333062
   6 N :   -0.030561
   7 C :   -0.403585
   8 O :    0.133370
   9 H :    0.126431
  10 H :    0.127168
  11 H :    0.126451
  12 H :    0.143267
  13 H :    0.197409
  14 H :    0.157839

  Mayer bond orders larger than 0.1
B(  0-C ,  1-N ) :   0.8559 B(  0-C ,  9-H ) :   0.9308 B(  0-C , 10-H ) :   0.9249
B(  0-C , 11-H ) :   0.9308 B(  1-N ,  2-N ) :   0.8597 B(  1-N ,  7-C ) :   1.1568
B(  2-N ,  3-C ) :   1.7320 B(  3-C ,  4-N ) :   1.0843 B(  3-C , 12-H ) :   0.9167
B(  4-N ,  5-C ) :   1.0372 B(  4-N , 13-H ) :   0.8603 B(  5-C ,  6-N ) :   2.1403
B(  5-C ,  7-C ) :   0.8748 B(  6-N ,  7-C ) :  -0.1296 B(  6-N , 14-H ) :   0.8520
B(  7-C ,  8-O ) :   1.9374

MP2 TOTAL ENERGY:     -449.404108010 Eh
FINAL SINGLE POINT ENERGY      -449.404108010247

DIPOLE MOMENT
-------------
                                X             Y             Z
Electronic contribution:      0.11706      -2.70802       1.25312
Nuclear contribution   :     -0.48286       1.64621      -3.03616
                        -----------------------------------------
Total Dipole Moment    :     -0.36580      -1.06182      -1.78304
                        -----------------------------------------
Magnitude (a.u.)       :      2.10725
Magnitude (Debye)      :      5.35619

                             ****ORCA TERMINATED NORMALLY****
TOTAL RUN TIME: 0 days 0 hours 16 minutes 0 seconds 763 msec
