                         Program Version 3.0.3 - RELEASE   -
|  1> ! RI-MP2 RIJK def2-TZVP def2-TZVP/C def2-TZVP/JK TIGHTSCF
|  2> % maxcore 2000
|  3> % mp2 density relaxed end
|  4> *xyz 0 1
|  5>  O       -0.2092531519     1.3825619242    -0.1777318866
|  6>  C       -0.0571341398    -0.0183501166    -0.0625096898
|  7>  C        0.6583779359    -0.5957867107    -1.2087167526
|  8>  C        1.2646683009    -1.0644016986    -2.1339772846
|  9>  C        0.6637243298    -0.4058044356     1.2339601764
| 10>  O        1.5994322184     0.5386266298     1.7245451536
| 11>  C        0.4494700574     0.2524984668     2.5444145137
| 12>  C       -0.5376614911     1.3548041187     2.7929175116
| 13>  O       -1.2970039251     1.3104150666     3.7283556552
| 14>  H        0.6703971300     1.7624567849    -0.0505015858
| 15>  H       -1.0729782119    -0.4313909705    -0.0327757193
| 16>  H        1.7898182521    -1.4749552959    -2.9613499167
| 17>  H        0.9996975513    -1.4428948988     1.2612050753
| 18>  H        0.6581130752    -0.3419682259     3.4333998383
| 19>  H       -0.5164518113     2.1936883815     2.0759020013
| 20> *
| 21>
| 22>                          ****END OF INPUT****

CARTESIAN COORDINATES (ANGSTROEM)
---------------------------------
  O     -0.209253    1.382562   -0.177732
  C     -0.057134   -0.018350   -0.062510
  C      0.658378   -0.595787   -1.208717
  C      1.264668   -1.064402   -2.133977
  C      0.663724   -0.405804    1.233960
  O      1.599432    0.538627    1.724545
  C      0.449470    0.252498    2.544415
  C     -0.537661    1.354804    2.792918
  O     -1.297004    1.310415    3.728356
  H      0.670397    1.762457   -0.050502
  H     -1.072978   -0.431391   -0.032776
  H      1.789818   -1.474955   -2.961350
  H      0.999698   -1.442895    1.261205
  H      0.658113   -0.341968    3.433400
  H     -0.516452    2.193688    2.075902

 Total Charge           Charge          ....    0
 Multiplicity           Mult            ....    1
 Number of Electrons    NEL             ....   66
 Basis Dimension        Dim             ....  315

ORBITAL ENERGIES
----------------

  NO   OCC          E(Eh)            E(eV)
   0   2.0000     -20.610064      -560.8284
   1   2.0000     -20.588806      -560.2499
   2   2.0000     -20.571977      -559.7920
   3   2.0000     -11.345266      -308.7204
   4   2.0000     -11.342426      -308.6431
   5   2.0000     -11.330174      -308.3097
   6   2.0000     -11.319523      -308.0199
   7   2.0000     -11.253141      -306.2135
   8   2.0000     -11.248307      -306.0820
   9   2.0000      -1.457902       -39.6715
  10   2.0000      -1.408611       -38.3302
  11   2.0000      -1.396629       -38.0042
  12   2.0000      -1.082837       -29.4655
  13   2.0000      -1.009797       -27.4780
  14   2.0000      -0.984486       -26.7892
  15   2.0000      -0.884358       -24.0646
  16   2.0000      -0.818236       -22.2653
  17   2.0000      -0.769355       -20.9352
  18   2.0000      -0.729631       -19.8543
  19   2.0000      -0.725851       -19.7514
  20   2.0000      -0.693076       -18.8596
  21   2.0000      -0.674694       -18.3593
  22   2.0000      -0.642668       -17.4879
  23   2.0000      -0.631940       -17.1960
  24   2.0000      -0.579116       -15.7586
  25   2.0000      -0.561888       -15.2897
  26   2.0000      -0.550109       -14.9692
  27   2.0000      -0.529897       -14.4192
  28   2.0000      -0.489910       -13.3311
  29   2.0000      -0.462281       -12.5793
  30   2.0000      -0.439131       -11.9494
  31   2.0000      -0.416236       -11.3264
  32   2.0000      -0.411217       -11.1898
  33   0.0000       0.104399         2.8408
  34   0.0000       0.131698         3.5837
  35   0.0000       0.151571         4.1245
  36   0.0000       0.155940         4.2433
  37   0.0000       0.157171         4.2768

MULLIKEN ATOMIC CHARGES
-----------------------
   0 O :   -0.462166
   1 C :    0.052053
   2 C :   -0.099500
   3 C :   -0.091586
   4 C :   -0.049049
   5 O :   -0.329709
   6 C :    0.089144
   7 C :    0.080091
   8 O :   -0.259298
   9 H :    0.333384
  10 H :    0.138638
  11 H :    0.200557
  12 H :    0.141243
  13 H :    0.142911
  14 H :    0.113286
Sum of atomic charges:   -0.0000000

LOEWDIN ATOMIC CHARGES
----------------------
   0 O :    0.016955
   1 C :   -0.325933
   2 C :   -0.089453
   3 C :   -0.073236
   4 C :   -0.239086
   5 O :    0.179200
   6 C :   -0.242844
   7 C :   -0.279739
   8 O :    0.143567
   9 H :    0.184809
  10 H :    0.171320
  11 H :    0.130693
  12 H :    0.152107
  13 H :    0.150493
  14 H :    0.121147

  Mayer bond orders larger than 0.1
B(  0-O ,  1-C ) :   0.8945 B(  0-O ,  9-H ) :   0.8219 B(  1-C ,  2-C ) :   1.1538
B(  1-C ,  4-C ) :   0.9299 B(  1-C , 10-H ) :   0.8996 B(  2-C ,  3-C ) :   2.5778
B(  3-C , 11-H ) :   0.8907 B(  4-C ,  5-O ) :   0.9372 B(  4-C ,  6-C ) :   0.9158
B(  4-C , 12-H ) :   0.9104 B(  5-O ,  6-C ) :   0.8402 B(  6-C ,  7-C ) :   0.8757
B(  6-C , 13-H ) :   0.9083 B(  7-C ,  8-O ) :   1.9617 B(  7-C , 14-H ) :   0.9361

MP2 TOTAL ENERGY:     -456.953718157 Eh
FINAL SINGLE POINT ENERGY      -456.953718156981

DIPOLE MOMENT
-------------
                                X             Y             Z
Electronic contribution:     -0.25932       1.06406       1.48621
Nuclear contribution   :      0.87269      -1.78386      -2.10303
                        -----------------------------------------
Total Dipole Moment    :      0.61338      -0.71980      -0.61682
                        -----------------------------------------
Magnitude (a.u.)       :      1.12907
Magnitude (Debye)      :      2.86988

                             ****ORCA TERMINATED NORMALLY****
TOTAL RUN TIME: 0 days 0 hours 14 minutes 15 seconds 471 msec
