                         Program Version 3.0.3 - RELEASE   -
|  1> ! RI-MP2 RIJK def2-TZVP def2-TZVP/C def2-TZVP/JK TIGHTSCF
|  2> % maxcore 2000
|  3> % mp2 density relaxed end
|  4> *xyz 0 1
|  5>  C        0.1624467069     1.4086932913    -0.0156740901
|  6>  C        0.1040312463    -0.1166221549     0.1340897984
|  7>  C       -1.3090029248    -0.6473804853     0.2565829726
|  8>  C       -2.1327939402    -0.9173259398    -0.9780466160
|  9>  C       -1.6359071137    -2.0659213142    -0.1328517141
| 10>  C        1.5896396753     1.9423829010    -0.1334292631
| 11>  N        1.5960956613     3.3901812825    -0.3180255739
| 12>  C        1.6245672698     4.1949379348     0.8988185230
| 13>  C        2.8301413791     4.0821509110     0.0320691367
| 14>  H       -0.4052532559     1.7191518854    -0.9001406082
| 15>  H       -0.3272860493     1.8811544007     0.8463075437
| 16>  H        0.5907984684    -0.5883273896    -0.7309089407
| 17>  H        0.6878777503    -0.4222709312     1.0138159179
| 18>  H       -1.8580474680    -0.2552645179     1.1099761773
| 19>  H       -3.1916388786    -0.6838153261    -0.9604662405
| 20>  H       -1.6616553037    -0.7600521585    -1.9432767249
| 21>  H       -0.8336995315    -2.6780144505    -0.5326821439
| 22>  H       -2.3553046838    -2.6156314421     0.4642323549
| 23>  H        2.1770909950     1.6401998137     0.7551306673
| 24>  H        2.0834545285     1.4947228211    -1.0055723176
| 25>  H        1.0168955992     5.0952825714     0.8899330501
| 26>  H        1.6526065474     3.6733978964     1.8551112546
| 27>  H        3.6595001959     3.4873166163     0.4128410691
| 28>  H        3.1196692064     4.8980509243    -0.6242867026
| 29> *
| 30>
| 31>                          ****END OF INPUT****

CARTESIAN COORDINATES (ANGSTROEM)
---------------------------------
  C      0.162447    1.408693   -0.015674
  C      0.104031   -0.116622    0.134090
  C     -1.309003   -0.647380    0.256583
  C     -2.132794   -0.917326   -0.978047
  C     -1.635907   -2.065921   -0.132852
  C      1.589640    1.942383   -0.133429
  N      1.596096    3.390181   -0.318026
  C      1.624567    4.194938    0.898819
  C      2.830141    4.082151    0.032069
  H     -0.405253    1.719152   -0.900141
  H     -0.327286    1.881154    0.846308
  H      0.590798   -0.588327   -0.730909
  H      0.687878   -0.422271    1.013816
  H     -1.858047   -0.255265    1.109976
  H     -3.191639   -0.683815   -0.960466
  H     -1.661655   -0.760052   -1.943277
  H     -0.833700   -2.678014   -0.532682
  H     -2.355305   -2.615631    0.464232
  H      2.177091    1.640200    0.755131
  H      2.083455    1.494723   -1.005572
  H      1.016896    5.095283    0.889933
  H      1.652607    3.673398    1.855111
  H      3.659500    3.487317    0.412841
  H      3.119669    4.898051   -0.624287

 Total Charge           Charge          ....    0
 Multiplicity           Mult            ....    1
 Number of Electrons    NEL             ....   70
 Basis Dimension        Dim             ....  369

ORBITAL ENERGIES
----------------

  NO   OCC          E(Eh)            E(eV)
   0   2.0000     -15.554582      -423.2617
   1   2.0000     -11.250514      -306.1421
   2   2.0000     -11.249778      -306.1220
   3   2.0000     -11.246929      -306.0445
   4   2.0000     -11.225783      -305.4691
   5   2.0000     -11.219959      -305.3106
   6   2.0000     -11.219247      -305.2912
   7   2.0000     -11.218560      -305.2725
   8   2.0000     -11.212715      -305.1135
   9   2.0000      -1.269488       -34.5445
  10   2.0000      -1.140562       -31.0363
  11   2.0000      -1.055988       -28.7349
  12   2.0000      -0.965848       -26.2821
  13   2.0000      -0.859582       -23.3904
  14   2.0000      -0.838510       -22.8170
  15   2.0000      -0.817449       -22.2439
  16   2.0000      -0.789333       -21.4789
  17   2.0000      -0.768644       -20.9159
  18   2.0000      -0.675353       -18.3773
  19   2.0000      -0.666423       -18.1343
  20   2.0000      -0.643601       -17.5133
  21   2.0000      -0.620111       -16.8741
  22   2.0000      -0.612246       -16.6601
  23   2.0000      -0.554394       -15.0858
  24   2.0000      -0.544757       -14.8236
  25   2.0000      -0.523530       -14.2460
  26   2.0000      -0.513808       -13.9814
  27   2.0000      -0.506384       -13.7794
  28   2.0000      -0.483157       -13.1474
  29   2.0000      -0.473965       -12.8973
  30   2.0000      -0.457694       -12.4545
  31   2.0000      -0.443191       -12.0598
  32   2.0000      -0.408326       -11.1111
  33   2.0000      -0.398690       -10.8489
  34   2.0000      -0.371399       -10.1063
  35   0.0000       0.141873         3.8605
  36   0.0000       0.155166         4.2223
  37   0.0000       0.160314         4.3624
  38   0.0000       0.167544         4.5591
  39   0.0000       0.176867         4.8128

MULLIKEN ATOMIC CHARGES
-----------------------
   0 C :   -0.215068
   1 C :   -0.253051
   2 C :   -0.058896
   3 C :   -0.278537
   4 C :   -0.258178
   5 C :   -0.137846
   6 N :   -0.216533
   7 C :   -0.186065
   8 C :   -0.167850
   9 H :    0.122282
  10 H :    0.107320
  11 H :    0.111110
  12 H :    0.115046
  13 H :    0.114310
  14 H :    0.127601
  15 H :    0.126061
  16 H :    0.125210
  17 H :    0.127228
  18 H :    0.086302
  19 H :    0.116374
  20 H :    0.128116
  21 H :    0.118911
  22 H :    0.117697
  23 H :    0.128455
Sum of atomic charges:    0.0000000

LOEWDIN ATOMIC CHARGES
----------------------
   0 C :   -0.261600
   1 C :   -0.252031
   2 C :   -0.234996
   3 C :   -0.233011
   4 C :   -0.233464
   5 C :   -0.298924
   6 N :    0.089389
   7 C :   -0.273621
   8 C :   -0.273319
   9 H :    0.141996
  10 H :    0.137358
  11 H :    0.141790
  12 H :    0.139574
  13 H :    0.146554
  14 H :    0.129323
  15 H :    0.131825
  16 H :    0.131132
  17 H :    0.129348
  18 H :    0.120487
  19 H :    0.133543
  20 H :    0.123217
  21 H :    0.121073
  22 H :    0.120988
  23 H :    0.123369

  Mayer bond orders larger than 0.1
B(  0-C ,  1-C ) :   0.9306 B(  0-C ,  5-C ) :   0.9489 B(  0-C ,  9-H ) :   0.9294
B(  0-C , 10-H ) :   0.9281 B(  1-C ,  2-C ) :   0.9192 B(  1-C , 11-H ) :   0.9316
B(  1-C , 12-H ) :   0.9252 B(  2-C ,  3-C ) :   0.8928 B(  2-C ,  4-C ) :   0.8904
B(  2-C , 13-H ) :   0.9285 B(  3-C ,  4-C ) :   0.9020 B(  3-C , 14-H ) :   0.9300
B(  3-C , 15-H ) :   0.9291 B(  4-C , 16-H ) :   0.9301 B(  4-C , 17-H ) :   0.9324
B(  5-C ,  6-N ) :   0.8999 B(  5-C , 18-H ) :   0.9282 B(  5-C , 19-H ) :   0.9183
B(  6-N ,  7-C ) :   0.8926 B(  6-N ,  8-C ) :   0.8892 B(  7-C ,  8-C ) :   0.9451
B(  7-C , 20-H ) :   0.9275 B(  7-C , 21-H ) :   0.9219 B(  8-C , 22-H ) :   0.9256
B(  8-C , 23-H ) :   0.9269

MP2 TOTAL ENERGY:     -367.699839409 Eh
FINAL SINGLE POINT ENERGY      -367.699839409320

DIPOLE MOMENT
-------------
                                X             Y             Z
Electronic contribution:      0.79453       2.73119      -0.56781
Nuclear contribution   :     -0.57782      -2.85943       0.95212
                        -----------------------------------------
Total Dipole Moment    :      0.21671      -0.12823       0.38430
                        -----------------------------------------
Magnitude (a.u.)       :      0.45945
Magnitude (Debye)      :      1.16784

                             ****ORCA TERMINATED NORMALLY****
TOTAL RUN TIME: 0 days 0 hours 16 minutes 31 seconds 432 msec
