                         Program Version 3.0.3 - RELEASE   -
|  1> ! RI-MP2 RIJK def2-TZVP def2-TZVP/C def2-TZVP/JK TIGHTSCF
|  2> % maxcore 2000
|  3> % mp2 density relaxed end
|  4> *xyz 0 1
|  5>  C       -0.0228848606     1.5438270394    -0.0403150288
|  6>  C        0.0316391715     0.0179501413     0.0427002401
|  7>  C        0.7928580494    -0.6341769157    -1.1320495671
|  8>  O        1.3463784524    -1.8521498149    -0.6479126303
|  9>  C        1.5353962956    -1.7320812021     0.7475894411
| 10>  C        1.6831566493    -3.0769290828     1.3992071432
| 11>  C        2.2694515637    -0.5001975506     1.2295947889
| 12>  C        0.7436971271    -0.5601054580     1.2675607829
| 13>  C        0.0133629253    -0.5422941079     2.5883532673
| 14>  H        0.9836897282     1.9746575956    -0.0088460694
| 15>  H       -0.5011051447     1.8738882451    -0.9690872198
| 16>  H       -0.5944599950     1.9674029002     0.7915655774
| 17>  H       -0.9957159661    -0.3714991381     0.0585538418
| 18>  H        0.1514139723    -0.8697021442    -1.9863968915
| 19>  H        1.5900218470     0.0361710410    -1.4894670467
| 20>  H        2.5675210622    -3.5941377326     1.0128577248
| 21>  H        1.7961431446    -2.9775610832     2.4818435030
| 22>  H        0.8089336751    -3.7032444574     1.1944583646
| 23>  H        2.7819835287    -0.5705586081     2.1840457029
| 24>  H        2.7704086780     0.1372205042     0.5084044330
| 25>  H       -0.1355120333     0.4833422619     2.9467022304
| 26>  H       -0.9750974879    -1.0096844371     2.5034359908
| 27>  H        0.5701379473    -1.0771472259     3.3637908515
| 28> *
| 29>
| 30>                          ****END OF INPUT****

CARTESIAN COORDINATES (ANGSTROEM)
---------------------------------
  C     -0.022885    1.543827   -0.040315
  C      0.031639    0.017950    0.042700
  C      0.792858   -0.634177   -1.132050
  O      1.346378   -1.852150   -0.647913
  C      1.535396   -1.732081    0.747589
  C      1.683157   -3.076929    1.399207
  C      2.269452   -0.500198    1.229595
  C      0.743697   -0.560105    1.267561
  C      0.013363   -0.542294    2.588353
  H      0.983690    1.974658   -0.008846
  H     -0.501105    1.873888   -0.969087
  H     -0.594460    1.967403    0.791566
  H     -0.995716   -0.371499    0.058554
  H      0.151414   -0.869702   -1.986397
  H      1.590022    0.036171   -1.489467
  H      2.567521   -3.594138    1.012858
  H      1.796143   -2.977561    2.481844
  H      0.808934   -3.703244    1.194458
  H      2.781984   -0.570559    2.184046
  H      2.770409    0.137221    0.508404
  H     -0.135512    0.483342    2.946702
  H     -0.975097   -1.009684    2.503436
  H      0.570138   -1.077147    3.363791

 Total Charge           Charge          ....    0
 Multiplicity           Mult            ....    1
 Number of Electrons    NEL             ....   70
 Basis Dimension        Dim             ....  363

ORBITAL ENERGIES
----------------

  NO   OCC          E(Eh)            E(eV)
   0   2.0000     -20.548687      -559.1582
   1   2.0000     -11.278570      -306.9055
   2   2.0000     -11.268223      -306.6239
   3   2.0000     -11.231242      -305.6176
   4   2.0000     -11.230517      -305.5979
   5   2.0000     -11.220236      -305.3181
   6   2.0000     -11.217522      -305.2443
   7   2.0000     -11.217459      -305.2426
   8   2.0000     -11.214717      -305.1680
   9   2.0000      -1.379589       -37.5405
  10   2.0000      -1.142541       -31.0901
  11   2.0000      -1.058053       -28.7911
  12   2.0000      -0.974114       -26.5070
  13   2.0000      -0.955371       -25.9970
  14   2.0000      -0.911010       -24.7898
  15   2.0000      -0.852018       -23.1846
  16   2.0000      -0.755520       -20.5587
  17   2.0000      -0.725925       -19.7534
  18   2.0000      -0.681202       -18.5364
  19   2.0000      -0.637760       -17.3543
  20   2.0000      -0.617901       -16.8139
  21   2.0000      -0.597350       -16.2547
  22   2.0000      -0.580172       -15.7873
  23   2.0000      -0.572693       -15.5838
  24   2.0000      -0.560665       -15.2565
  25   2.0000      -0.557249       -15.1635
  26   2.0000      -0.539900       -14.6914
  27   2.0000      -0.531762       -14.4700
  28   2.0000      -0.517438       -14.0802
  29   2.0000      -0.503644       -13.7049
  30   2.0000      -0.485767       -13.2184
  31   2.0000      -0.451542       -12.2871
  32   2.0000      -0.450385       -12.2556
  33   2.0000      -0.393157       -10.6983
  34   2.0000      -0.359374        -9.7791
  35   0.0000       0.132001         3.5919
  36   0.0000       0.150857         4.1050
  37   0.0000       0.169246         4.6054
  38   0.0000       0.171127         4.6566
  39   0.0000       0.188897         5.1401

MULLIKEN ATOMIC CHARGES
-----------------------
   0 C :   -0.426337
   1 C :   -0.055770
   2 C :   -0.053064
   3 O :   -0.307649
   4 C :    0.229702
   5 C :   -0.430849
   6 C :   -0.326961
   7 C :    0.055273
   8 C :   -0.427630
   9 H :    0.127710
  10 H :    0.136951
  11 H :    0.132937
  12 H :    0.086640
  13 H :    0.117668
  14 H :    0.089458
  15 H :    0.143009
  16 H :    0.121868
  17 H :    0.133283
  18 H :    0.124495
  19 H :    0.131934
  20 H :    0.137943
  21 H :    0.132778
  22 H :    0.126611
Sum of atomic charges:    0.0000000

LOEWDIN ATOMIC CHARGES
----------------------
   0 C :   -0.288574
   1 C :   -0.232578
   2 C :   -0.271632
   3 O :    0.201680
   4 C :   -0.315961
   5 C :   -0.263411
   6 C :   -0.171534
   7 C :   -0.220083
   8 C :   -0.265742
   9 H :    0.125112
  10 H :    0.124906
  11 H :    0.124395
  12 H :    0.156259
  13 H :    0.126720
  14 H :    0.121022
  15 H :    0.132126
  16 H :    0.128917
  17 H :    0.130527
  18 H :    0.137855
  19 H :    0.135924
  20 H :    0.127697
  21 H :    0.128739
  22 H :    0.127639

  Mayer bond orders larger than 0.1
B(  0-C ,  1-C ) :   0.9046 B(  0-C ,  9-H ) :   0.9325 B(  0-C , 10-H ) :   0.9410
B(  0-C , 11-H ) :   0.9365 B(  1-C ,  2-C ) :   0.9566 B(  1-C ,  7-C ) :   0.9226
B(  1-C , 12-H ) :   0.9168 B(  2-C ,  3-O ) :   0.9317 B(  2-C , 13-H ) :   0.9212
B(  2-C , 14-H ) :   0.9203 B(  3-O ,  4-C ) :   0.9749 B(  4-C ,  5-C ) :   0.8951
B(  4-C ,  6-C ) :   0.8596 B(  4-C ,  7-C ) :   0.8404 B(  5-C , 15-H ) :   0.9412
B(  5-C , 16-H ) :   0.9387 B(  5-C , 17-H ) :   0.9367 B(  6-C ,  7-C ) :   0.8665
B(  6-C , 18-H ) :   0.9190 B(  6-C , 19-H ) :   0.9065 B(  7-C ,  8-C ) :   0.8939
B(  8-C , 20-H ) :   0.9401 B(  8-C , 21-H ) :   0.9373 B(  8-C , 22-H ) :   0.9347

MP2 TOTAL ENERGY:     -387.620546564 Eh
FINAL SINGLE POINT ENERGY      -387.620546564412

DIPOLE MOMENT
-------------
                                X             Y             Z
Electronic contribution:      1.77462      -3.10042      -3.57329
Nuclear contribution   :     -2.03000       3.50734       3.92404
                        -----------------------------------------
Total Dipole Moment    :     -0.25539       0.40692       0.35075
                        -----------------------------------------
Magnitude (a.u.)       :      0.59483
Magnitude (Debye)      :      1.51195

                             ****ORCA TERMINATED NORMALLY****
TOTAL RUN TIME: 0 days 0 hours 21 minutes 53 seconds 498 msec
