                         Program Version 3.0.3 - RELEASE   -
|  1> ! RI-MP2 RIJK def2-TZVP def2-TZVP/C def2-TZVP/JK TIGHTSCF
|  2> % maxcore 2000
|  3> % mp2 density relaxed end
|  4> *xyz 0 1
|  5>  O       -0.1176880526     0.0348103359    -0.4056450466
|  6>  C        0.0053195583     1.1578771970     0.0149909992
|  7>  C        1.2715626474     1.9222966433     0.0371676477
|  8>  C        1.1879701284     3.4426451387    -0.1223873426
|  9>  C        1.5398848841     2.8654256934     1.1932372593
| 10>  C        0.8215784182     2.9892991625     2.5375684155
| 11>  O        2.0860202860     3.1527312297     3.2138890696
| 12>  C        2.8345858843     3.0018376450     1.9887693168
| 13>  H       -0.8690816239     1.7178082848     0.4268722632
| 14>  H        2.1227413179     1.4079143808    -0.3974508394
| 15>  H        1.9631776604     3.9157326813    -0.7157177983
| 16>  H        0.1973482864     3.8715713310    -0.2469255728
| 17>  H        0.1747049590     3.8683569688     2.6529995556
| 18>  H        0.2850466981     2.0976407088     2.8855847168
| 19>  H        3.4788258227     2.1134218806     2.0064765252
| 20>  H        3.4427852453     3.8873410984     1.7636075207
| 21> *
| 22>
| 23>                          ****END OF INPUT****

CARTESIAN COORDINATES (ANGSTROEM)
---------------------------------
  O     -0.117688    0.034810   -0.405645
  C      0.005320    1.157877    0.014991
  C      1.271563    1.922297    0.037168
  C      1.187970    3.442645   -0.122387
  C      1.539885    2.865426    1.193237
  C      0.821578    2.989299    2.537568
  O      2.086020    3.152731    3.213889
  C      2.834586    3.001838    1.988769
  H     -0.869082    1.717808    0.426872
  H      2.122741    1.407914   -0.397451
  H      1.963178    3.915733   -0.715718
  H      0.197348    3.871571   -0.246926
  H      0.174705    3.868357    2.653000
  H      0.285047    2.097641    2.885585
  H      3.478826    2.113422    2.006477
  H      3.442785    3.887341    1.763608

 Total Charge           Charge          ....    0
 Multiplicity           Mult            ....    1
 Number of Electrons    NEL             ....   60
 Basis Dimension        Dim             ....  296

ORBITAL ENERGIES
----------------

  NO   OCC          E(Eh)            E(eV)
   0   2.0000     -20.563142      -559.5515
   1   2.0000     -20.557423      -559.3959
   2   2.0000     -11.339062      -308.5516
   3   2.0000     -11.297643      -307.4245
   4   2.0000     -11.296128      -307.3833
   5   2.0000     -11.271594      -306.7157
   6   2.0000     -11.261977      -306.4540
   7   2.0000     -11.259586      -306.3889
   8   2.0000      -1.397412       -38.0255
   9   2.0000      -1.393535       -37.9200
  10   2.0000      -1.180307       -32.1178
  11   2.0000      -0.966588       -26.3022
  12   2.0000      -0.954951       -25.9855
  13   2.0000      -0.911509       -24.8034
  14   2.0000      -0.806080       -21.9345
  15   2.0000      -0.756899       -20.5963
  16   2.0000      -0.709784       -19.3142
  17   2.0000      -0.684767       -18.6334
  18   2.0000      -0.678329       -18.4583
  19   2.0000      -0.641750       -17.4629
  20   2.0000      -0.601418       -16.3654
  21   2.0000      -0.588880       -16.0242
  22   2.0000      -0.570052       -15.5119
  23   2.0000      -0.559826       -15.2336
  24   2.0000      -0.531639       -14.4666
  25   2.0000      -0.487384       -13.2624
  26   2.0000      -0.476034       -12.9535
  27   2.0000      -0.437904       -11.9160
  28   2.0000      -0.423257       -11.5174
  29   2.0000      -0.407960       -11.1012
  30   0.0000       0.119235         3.2445
  31   0.0000       0.135974         3.7000
  32   0.0000       0.146012         3.9732
  33   0.0000       0.153000         4.1634
  34   0.0000       0.180132         4.9016

MULLIKEN ATOMIC CHARGES
-----------------------
   0 O :   -0.265007
   1 C :    0.028930
   2 C :   -0.015691
   3 C :   -0.293714
   4 C :   -0.056850
   5 C :   -0.001402
   6 O :   -0.322633
   7 C :   -0.002537
   8 H :    0.076602
   9 H :    0.142227
  10 H :    0.149351
  11 H :    0.145269
  12 H :    0.102407
  13 H :    0.108781
  14 H :    0.103130
  15 H :    0.101136
Sum of atomic charges:   -0.0000000

LOEWDIN ATOMIC CHARGES
----------------------
   0 O :    0.130817
   1 C :   -0.291835
   2 C :   -0.175680
   3 C :   -0.169173
   4 C :   -0.214858
   5 C :   -0.227699
   6 O :    0.120463
   7 C :   -0.222028
   8 H :    0.115580
   9 H :    0.158374
  10 H :    0.142936
  11 H :    0.142757
  12 H :    0.122263
  13 H :    0.122947
  14 H :    0.123221
  15 H :    0.121917

  Mayer bond orders larger than 0.1
B(  0-O ,  1-C ) :   1.9909 B(  1-C ,  2-C ) :   0.8726 B(  1-C ,  8-H ) :   0.9523
B(  2-C ,  3-C ) :   0.8497 B(  2-C ,  4-C ) :   0.7662 B(  2-C ,  9-H ) :   0.9103
B(  3-C ,  4-C ) :   0.8625 B(  3-C , 10-H ) :   0.9180 B(  3-C , 11-H ) :   0.9178
B(  4-C ,  5-C ) :   0.9700 B(  4-C ,  7-C ) :   0.9626 B(  5-C ,  6-O ) :   0.9618
B(  5-C , 12-H ) :   0.9096 B(  5-C , 13-H ) :   0.9084 B(  6-O ,  7-C ) :   0.9624
B(  7-C , 14-H ) :   0.9059 B(  7-C , 15-H ) :   0.9124

MP2 TOTAL ENERGY:     -383.063168221 Eh
FINAL SINGLE POINT ENERGY      -383.063168221074

DIPOLE MOMENT
-------------
                                X             Y             Z
Electronic contribution:     -0.91065      -3.11197      -0.04776
Nuclear contribution   :      1.12636       4.12229      -0.24719
                        -----------------------------------------
Total Dipole Moment    :      0.21571       1.01033      -0.29494
                        -----------------------------------------
Magnitude (a.u.)       :      1.07437
Magnitude (Debye)      :      2.73084

                             ****ORCA TERMINATED NORMALLY****
TOTAL RUN TIME: 0 days 0 hours 11 minutes 33 seconds 126 msec
