                         Program Version 3.0.3 - RELEASE   -
|  1> ! RI-MP2 RIJK def2-TZVP def2-TZVP/C def2-TZVP/JK TIGHTSCF
|  2> % maxcore 2000
|  3> % mp2 density relaxed end
|  4> *xyz 0 1
|  5>  O       -0.0717882730     1.5077472530    -0.0208618347
|  6>  C       -0.0311137024     0.1073257699     0.0414689680
|  7>  C        0.1778665782    -0.6205476740     1.4008934603
|  8>  C       -0.4873397998     0.2000720898     2.5017944298
|  9>  O       -1.8101425401     0.5646442264     2.1055553737
| 10>  C       -2.3390626732    -0.3750988541     1.1899615420
| 11>  C       -2.0106536445    -1.8141560775     1.6438030947
| 12>  N       -0.7186728904    -1.7466583394     0.8781855174
| 13>  C       -1.3511023535    -0.6554891933     0.0031826848
| 14>  H        0.8006418919     1.8287081837    -0.2660497554
| 15>  H        0.6363032064    -0.3161068192    -0.7192592527
| 16>  H        1.1806519444    -0.9512512769     1.6841132307
| 17>  H       -0.5071699481    -0.3589333547     3.4483837287
| 18>  H        0.0664208521     1.1296718396     2.6676689025
| 19>  H       -3.3651789420    -0.0707867014     0.9742027293
| 20>  H       -1.9441957178    -2.0100388872     2.7176459871
| 21>  H       -2.6446217189    -2.5754636937     1.1797810297
| 22>  H       -1.8038605694    -0.9561548613    -0.9452573159
| 23> *
| 24>
| 25>                          ****END OF INPUT****

CARTESIAN COORDINATES (ANGSTROEM)
---------------------------------
  O     -0.071788    1.507747   -0.020862
  C     -0.031114    0.107326    0.041469
  C      0.177867   -0.620548    1.400893
  C     -0.487340    0.200072    2.501794
  O     -1.810143    0.564644    2.105555
  C     -2.339063   -0.375099    1.189962
  C     -2.010654   -1.814156    1.643803
  N     -0.718673   -1.746658    0.878186
  C     -1.351102   -0.655489    0.003183
  H      0.800642    1.828708   -0.266050
  H      0.636303   -0.316107   -0.719259
  H      1.180652   -0.951251    1.684113
  H     -0.507170   -0.358933    3.448384
  H      0.066421    1.129672    2.667669
  H     -3.365179   -0.070787    0.974203
  H     -1.944196   -2.010039    2.717646
  H     -2.644622   -2.575464    1.179781
  H     -1.803861   -0.956155   -0.945257

 Total Charge           Charge          ....    0
 Multiplicity           Mult            ....    1
 Number of Electrons    NEL             ....   68
 Basis Dimension        Dim             ....  333

ORBITAL ENERGIES
----------------

  NO   OCC          E(Eh)            E(eV)
   0   2.0000     -20.565231      -559.6084
   1   2.0000     -20.552898      -559.2728
   2   2.0000     -15.554625      -423.2629
   3   2.0000     -11.289752      -307.2098
   4   2.0000     -11.285630      -307.0976
   5   2.0000     -11.275284      -306.8161
   6   2.0000     -11.261743      -306.4476
   7   2.0000     -11.259428      -306.3846
   8   2.0000     -11.251692      -306.1741
   9   2.0000      -1.391389       -37.8616
  10   2.0000      -1.368827       -37.2477
  11   2.0000      -1.253450       -34.1081
  12   2.0000      -1.052896       -28.6508
  13   2.0000      -0.981993       -26.7214
  14   2.0000      -0.903729       -24.5917
  15   2.0000      -0.855350       -23.2753
  16   2.0000      -0.835294       -22.7295
  17   2.0000      -0.730960       -19.8904
  18   2.0000      -0.698299       -19.0017
  19   2.0000      -0.693121       -18.8608
  20   2.0000      -0.671628       -18.2759
  21   2.0000      -0.640886       -17.4394
  22   2.0000      -0.611212       -16.6319
  23   2.0000      -0.577986       -15.7278
  24   2.0000      -0.571425       -15.5493
  25   2.0000      -0.559152       -15.2153
  26   2.0000      -0.539543       -14.6817
  27   2.0000      -0.519713       -14.1421
  28   2.0000      -0.507216       -13.8021
  29   2.0000      -0.466090       -12.6830
  30   2.0000      -0.451777       -12.2935
  31   2.0000      -0.428419       -11.6579
  32   2.0000      -0.389515       -10.5992
  33   2.0000      -0.364853        -9.9282
  34   0.0000       0.125371         3.4115
  35   0.0000       0.153351         4.1729
  36   0.0000       0.163605         4.4519
  37   0.0000       0.177149         4.8205
  38   0.0000       0.188517         5.1298

MULLIKEN ATOMIC CHARGES
-----------------------
   0 O :   -0.443014
   1 C :   -0.033014
   2 C :   -0.010378
   3 C :   -0.053593
   4 O :   -0.311113
   5 C :    0.065510
   6 C :   -0.193482
   7 N :   -0.222299
   8 C :   -0.056933
   9 H :    0.321139
  10 H :    0.102512
  11 H :    0.125165
  12 H :    0.112703
  13 H :    0.105692
  14 H :    0.120757
  15 H :    0.123530
  16 H :    0.127119
  17 H :    0.119699
Sum of atomic charges:    0.0000000

LOEWDIN ATOMIC CHARGES
----------------------
   0 O :    0.002550
   1 C :   -0.310786
   2 C :   -0.233451
   3 C :   -0.289925
   4 O :    0.179573
   5 C :   -0.278869
   6 C :   -0.244846
   7 N :    0.111984
   8 C :   -0.175872
   9 H :    0.177690
  10 H :    0.141216
  11 H :    0.136703
  12 H :    0.123737
  13 H :    0.135675
  14 H :    0.131927
  15 H :    0.124589
  16 H :    0.134978
  17 H :    0.133126

  Mayer bond orders larger than 0.1
B(  0-O ,  1-C ) :   1.1815 B(  0-O ,  9-H ) :   0.8412 B(  1-C ,  2-C ) :   0.9087
B(  1-C ,  8-C ) :   0.9571 B(  1-C , 10-H ) :   0.9341 B(  2-C ,  3-C ) :   0.9531
B(  2-C ,  7-N ) :   0.9272 B(  2-C , 11-H ) :   0.9111 B(  3-C ,  4-O ) :   0.9207
B(  3-C , 12-H ) :   0.9334 B(  3-C , 13-H ) :   0.9034 B(  4-O ,  5-C ) :   0.9641
B(  5-C ,  6-C ) :   0.9085 B(  5-C ,  8-C ) :   0.9067 B(  5-C , 14-H ) :   0.9228
B(  6-C ,  7-N ) :   0.9190 B(  6-C , 15-H ) :   0.9245 B(  6-C , 16-H ) :   0.9213
B(  7-N ,  8-C ) :   0.9273 B(  8-C , 17-H ) :   0.8903

MP2 TOTAL ENERGY:     -438.308323405 Eh
FINAL SINGLE POINT ENERGY      -438.308323404938

DIPOLE MOMENT
-------------
                                X             Y             Z
Electronic contribution:     -0.33760       1.66539      -1.05411
Nuclear contribution   :      0.88359      -1.75716       0.91490
                        -----------------------------------------
Total Dipole Moment    :      0.54599      -0.09177      -0.13921
                        -----------------------------------------
Magnitude (a.u.)       :      0.57088
Magnitude (Debye)      :      1.45107

                             ****ORCA TERMINATED NORMALLY****
TOTAL RUN TIME: 0 days 0 hours 20 minutes 53 seconds 438 msec
