                         Program Version 3.0.3 - RELEASE   -
|  1> ! RI-MP2 RIJK def2-TZVP def2-TZVP/C def2-TZVP/JK TIGHTSCF
|  2> % maxcore 2000
|  3> % mp2 density relaxed end
|  4> *xyz 0 1
|  5>  O        0.3708836181     1.2887461420    -0.0556651019
|  6>  C        0.0282386298    -0.0581753768    -0.0211893261
|  7>  C        0.0757679976    -0.8741288042    -1.3311375264
|  8>  O       -1.3111553607    -1.2674190807    -1.1804547046
|  9>  C       -1.4457499020    -0.5299094235     0.0480685926
| 10>  C       -1.1328622038    -1.3947311265     1.2929964111
| 11>  C        0.3494358306    -0.8619218956     1.2909019647
| 12>  C        1.4431713562    -1.8085416749     1.2825295939
| 13>  C        2.3510745608    -2.5976763980     1.2440336822
| 14>  H        1.3302252672     1.3606768813    -0.1255832512
| 15>  H        0.2206273428    -0.2434923074    -2.2165214050
| 16>  H        0.7562914311    -1.7319788691    -1.3604213710
| 17>  H       -2.3142353839     0.1314091828     0.0603661538
| 18>  H       -1.6834392019    -1.1313321838     2.1979804781
| 19>  H       -1.2341705173    -2.4623797513     1.0967951159
| 20>  H        0.4836895837    -0.1332877862     2.0965632606
| 21>  H        3.1505175118    -3.2963434683     1.2252352933
| 22> *
| 23>
| 24>                          ****END OF INPUT****

CARTESIAN COORDINATES (ANGSTROEM)
---------------------------------
  O      0.370884    1.288746   -0.055665
  C      0.028239   -0.058175   -0.021189
  C      0.075768   -0.874129   -1.331138
  O     -1.311155   -1.267419   -1.180455
  C     -1.445750   -0.529909    0.048069
  C     -1.132862   -1.394731    1.292996
  C      0.349436   -0.861922    1.290902
  C      1.443171   -1.808542    1.282530
  C      2.351075   -2.597676    1.244034
  H      1.330225    1.360677   -0.125583
  H      0.220627   -0.243492   -2.216521
  H      0.756291   -1.731979   -1.360421
  H     -2.314235    0.131409    0.060366
  H     -1.683439   -1.131332    2.197980
  H     -1.234171   -2.462380    1.096795
  H      0.483690   -0.133288    2.096563
  H      3.150518   -3.296343    1.225235

 Total Charge           Charge          ....    0
 Multiplicity           Mult            ....    1
 Number of Electrons    NEL             ....   66
 Basis Dimension        Dim             ....  327

ORBITAL ENERGIES
----------------

  NO   OCC          E(Eh)            E(eV)
   0   2.0000     -20.578887      -559.9800
   1   2.0000     -20.553657      -559.2934
   2   2.0000     -11.302921      -307.5681
   3   2.0000     -11.287121      -307.1382
   4   2.0000     -11.281286      -306.9794
   5   2.0000     -11.265045      -306.5375
   6   2.0000     -11.241260      -305.8902
   7   2.0000     -11.238767      -305.8224
   8   2.0000     -11.230041      -305.5849
   9   2.0000      -1.402962       -38.1765
  10   2.0000      -1.372094       -37.3366
  11   2.0000      -1.129959       -30.7478
  12   2.0000      -1.033005       -28.1095
  13   2.0000      -0.971260       -26.4293
  14   2.0000      -0.918591       -24.9961
  15   2.0000      -0.868065       -23.6213
  16   2.0000      -0.759127       -20.6569
  17   2.0000      -0.734707       -19.9924
  18   2.0000      -0.718648       -19.5554
  19   2.0000      -0.680919       -18.5288
  20   2.0000      -0.662648       -18.0316
  21   2.0000      -0.649344       -17.6696
  22   2.0000      -0.598353       -16.2820
  23   2.0000      -0.585949       -15.9445
  24   2.0000      -0.563168       -15.3246
  25   2.0000      -0.544901       -14.8275
  26   2.0000      -0.523998       -14.2587
  27   2.0000      -0.507132       -13.7998
  28   2.0000      -0.452720       -12.3191
  29   2.0000      -0.437494       -11.9048
  30   2.0000      -0.411498       -11.1974
  31   2.0000      -0.387612       -10.5475
  32   2.0000      -0.381443       -10.3796
  33   0.0000       0.127574         3.4715
  34   0.0000       0.143869         3.9149
  35   0.0000       0.160658         4.3717
  36   0.0000       0.165231         4.4962
  37   0.0000       0.178189         4.8488

MULLIKEN ATOMIC CHARGES
-----------------------
   0 O :   -0.452415
   1 C :    0.227266
   2 C :   -0.064071
   3 O :   -0.327046
   4 C :    0.021997
   5 C :   -0.200363
   6 C :   -0.232585
   7 C :   -0.042167
   8 C :   -0.162242
   9 H :    0.328945
  10 H :    0.098714
  11 H :    0.116670
  12 H :    0.112871
  13 H :    0.125043
  14 H :    0.130135
  15 H :    0.128162
  16 H :    0.191085
Sum of atomic charges:   -0.0000000

LOEWDIN ATOMIC CHARGES
----------------------
   0 O :    0.027226
   1 C :   -0.312901
   2 C :   -0.224151
   3 O :    0.137822
   4 C :   -0.215666
   5 C :   -0.172154
   6 C :   -0.184889
   7 C :   -0.099471
   8 C :   -0.098511
   9 H :    0.186976
  10 H :    0.122943
  11 H :    0.124611
  12 H :    0.130758
  13 H :    0.134515
  14 H :    0.143433
  15 H :    0.172079
  16 H :    0.127380

  Mayer bond orders larger than 0.1
B(  0-O ,  1-C ) :   1.0294 B(  0-O ,  9-H ) :   0.8319 B(  1-C ,  2-C ) :   0.9940
B(  1-C ,  4-C ) :   0.9374 B(  1-C ,  6-C ) :   0.8992 B(  2-C ,  3-O ) :   0.9489
B(  2-C , 10-H ) :   0.9040 B(  2-C , 11-H ) :   0.9004 B(  3-O ,  4-C ) :   0.9741
B(  4-C ,  5-C ) :   0.9156 B(  4-C , 12-H ) :   0.9127 B(  5-C ,  6-C ) :   0.9146
B(  5-C , 13-H ) :   0.9075 B(  5-C , 14-H ) :   0.9004 B(  6-C ,  7-C ) :   1.1134
B(  6-C , 15-H ) :   0.9070 B(  7-C ,  8-C ) :   2.5806 B(  8-C , 16-H ) :   0.9023

MP2 TOTAL ENERGY:     -421.037393708 Eh
FINAL SINGLE POINT ENERGY      -421.037393708361

DIPOLE MOMENT
-------------
                                X             Y             Z
Electronic contribution:      0.37516       0.79574      -0.67264
Nuclear contribution   :      0.30460      -0.68020       1.01577
                        -----------------------------------------
Total Dipole Moment    :      0.67976       0.11554       0.34313
                        -----------------------------------------
Magnitude (a.u.)       :      0.77017
Magnitude (Debye)      :      1.95762

                             ****ORCA TERMINATED NORMALLY****
TOTAL RUN TIME: 0 days 0 hours 17 minutes 45 seconds 288 msec
