                         Program Version 3.0.3 - RELEASE   -
|  1> ! RI-MP2 RIJK def2-TZVP def2-TZVP/C def2-TZVP/JK TIGHTSCF
|  2> % maxcore 2000
|  3> % mp2 density relaxed end
|  4> *xyz 0 1
|  5>  C        0.4844803538     0.8661824117     0.5595713058
|  6>  C       -0.2701064412     0.2322237148    -0.6117510641
|  7>  N        0.4439176154    -0.6762870409    -1.4972921588
|  8>  C        1.6534126196    -0.9289448246    -1.2973613078
|  9>  O        2.2798080411    -1.7989091807    -2.1693383672
| 10>  C        3.6008365798    -2.0820934647    -1.9592709386
| 11>  O        4.2626964182    -1.6268989860    -1.0653619943
| 12>  C        4.0993796238    -3.0533224809    -3.0215948638
| 13>  N        5.4936598419    -3.4338643814    -2.9076611655
| 14>  H        0.8699066445     0.1114054173     1.2530771961
| 15>  H        1.3265530475     1.4779892777     0.2192791847
| 16>  H       -0.1928748488     1.5168281151     1.1204579029
| 17>  H       -1.1389257549    -0.3222217057    -0.2340282766
| 18>  H       -0.6901824612     1.0204667501    -1.2498247443
| 19>  H        2.3154822507    -0.5594938959    -0.5164901655
| 20>  H        3.4596865653    -3.9431590543    -2.9845912644
| 21>  H        3.9094510386    -2.5997760689    -4.0017017644
| 22>  H        6.0724797876    -2.5990215135    -2.9311348573
| 23>  H        5.6567237680    -3.8408397792    -1.9909676670
| 24> *
| 25>
| 26>                          ****END OF INPUT****

CARTESIAN COORDINATES (ANGSTROEM)
---------------------------------
  C      0.484480    0.866182    0.559571
  C     -0.270106    0.232224   -0.611751
  N      0.443918   -0.676287   -1.497292
  C      1.653413   -0.928945   -1.297361
  O      2.279808   -1.798909   -2.169338
  C      3.600837   -2.082093   -1.959271
  O      4.262696   -1.626899   -1.065362
  C      4.099380   -3.053322   -3.021595
  N      5.493660   -3.433864   -2.907661
  H      0.869907    0.111405    1.253077
  H      1.326553    1.477989    0.219279
  H     -0.192875    1.516828    1.120458
  H     -1.138926   -0.322222   -0.234028
  H     -0.690182    1.020467   -1.249825
  H      2.315482   -0.559494   -0.516490
  H      3.459687   -3.943159   -2.984591
  H      3.909451   -2.599776   -4.001702
  H      6.072480   -2.599022   -2.931135
  H      5.656724   -3.840840   -1.990968

 Total Charge           Charge          ....    0
 Multiplicity           Mult            ....    1
 Number of Electrons    NEL             ....   70
 Basis Dimension        Dim             ....  339

ORBITAL ENERGIES
----------------

  NO   OCC          E(Eh)            E(eV)
   0   2.0000     -20.627305      -561.2975
   1   2.0000     -20.565966      -559.6284
   2   2.0000     -15.560711      -423.4285
   3   2.0000     -15.556141      -423.3041
   4   2.0000     -11.397720      -310.1477
   5   2.0000     -11.338809      -308.5447
   6   2.0000     -11.282154      -307.0030
   7   2.0000     -11.262072      -306.4566
   8   2.0000     -11.225929      -305.4731
   9   2.0000      -1.487789       -40.4848
  10   2.0000      -1.392273       -37.8857
  11   2.0000      -1.236972       -33.6597
  12   2.0000      -1.199383       -32.6369
  13   2.0000      -1.031173       -28.0596
  14   2.0000      -0.983406       -26.7598
  15   2.0000      -0.899926       -24.4882
  16   2.0000      -0.824529       -22.4366
  17   2.0000      -0.790737       -21.5171
  18   2.0000      -0.724869       -19.7247
  19   2.0000      -0.700641       -19.0654
  20   2.0000      -0.681677       -18.5494
  21   2.0000      -0.656913       -17.8755
  22   2.0000      -0.640225       -17.4214
  23   2.0000      -0.628265       -17.0960
  24   2.0000      -0.603953       -16.4344
  25   2.0000      -0.590150       -16.0588
  26   2.0000      -0.554461       -15.0877
  27   2.0000      -0.550692       -14.9851
  28   2.0000      -0.523133       -14.2352
  29   2.0000      -0.523065       -14.2333
  30   2.0000      -0.509659       -13.8685
  31   2.0000      -0.482204       -13.1214
  32   2.0000      -0.427062       -11.6210
  33   2.0000      -0.410809       -11.1787
  34   2.0000      -0.405337       -11.0298
  35   0.0000       0.128312         3.4915
  36   0.0000       0.135695         3.6925
  37   0.0000       0.139235         3.7888
  38   0.0000       0.170087         4.6283
  39   0.0000       0.171725         4.6729

MULLIKEN ATOMIC CHARGES
-----------------------
   0 C :   -0.435513
   1 C :   -0.083471
   2 N :   -0.173683
   3 C :    0.037430
   4 O :   -0.204254
   5 C :    0.248085
   6 O :   -0.319961
   7 C :   -0.126729
   8 N :   -0.511569
   9 H :    0.134937
  10 H :    0.134929
  11 H :    0.142094
  12 H :    0.127565
  13 H :    0.127546
  14 H :    0.130546
  15 H :    0.153849
  16 H :    0.153843
  17 H :    0.232178
  18 H :    0.232178
Sum of atomic charges:   -0.0000000

LOEWDIN ATOMIC CHARGES
----------------------
   0 C :   -0.330390
   1 C :   -0.322087
   2 N :    0.101192
   3 C :   -0.316796
   4 O :    0.291071
   5 C :   -0.465201
   6 O :    0.125714
   7 C :   -0.315710
   8 N :   -0.161889
   9 H :    0.122149
  10 H :    0.122147
  11 H :    0.127747
  12 H :    0.138126
  13 H :    0.138124
  14 H :    0.127145
  15 H :    0.151160
  16 H :    0.151159
  17 H :    0.158169
  18 H :    0.158169

  Mayer bond orders larger than 0.1
B(  0-C ,  1-C ) :   0.9112 B(  0-C ,  9-H ) :   0.9338 B(  0-C , 10-H ) :   0.9338
B(  0-C , 11-H ) :   0.9294 B(  1-C ,  2-N ) :   0.9046 B(  1-C , 12-H ) :   0.9258
B(  1-C , 13-H ) :   0.9258 B(  2-N ,  3-C ) :   1.9252 B(  3-C ,  4-O ) :   0.9464
B(  3-C , 14-H ) :   0.9257 B(  4-O ,  5-C ) :   1.0309 B(  5-C ,  6-O ) :   1.9555
B(  5-C ,  7-C ) :   0.9497 B(  7-C ,  8-N ) :   0.9777 B(  7-C , 15-H ) :   0.9123
B(  7-C , 16-H ) :   0.9123 B(  8-N , 17-H ) :   0.8937 B(  8-N , 18-H ) :   0.8937

MP2 TOTAL ENERGY:     -455.626498281 Eh
FINAL SINGLE POINT ENERGY      -455.626498280728

DIPOLE MOMENT
-------------
                                X             Y             Z
Electronic contribution:      3.00971      -3.54548      -3.35862
Nuclear contribution   :     -3.11169       3.95588       3.85579
                        -----------------------------------------
Total Dipole Moment    :     -0.10198       0.41040       0.49717
                        -----------------------------------------
Magnitude (a.u.)       :      0.65269
Magnitude (Debye)      :      1.65902

                             ****ORCA TERMINATED NORMALLY****
TOTAL RUN TIME: 0 days 0 hours 13 minutes 19 seconds 155 msec
