                         Program Version 3.0.3 - RELEASE   -
|  1> ! RI-MP2 RIJK def2-TZVP def2-TZVP/C def2-TZVP/JK TIGHTSCF
|  2> % maxcore 2000
|  3> % mp2 density relaxed end
|  4> *xyz 0 1
|  5>  C        0.0375076275     1.5493107371    -0.1709364469
|  6>  C        0.0598839037     0.0210333334    -0.0487980660
|  7>  C       -1.3331577780    -0.5863424388     0.0624346543
|  8>  C       -2.2801951257    -0.5931511775    -1.1804622432
|  9>  C       -2.6731283993    -2.0719984108    -0.8881829163
| 10>  C       -1.9153606831    -3.1155833935    -1.7406141881
| 11>  C       -0.7090069075    -3.0433238959    -0.7526736259
| 12>  C       -1.5440249556    -2.1204711502     0.1925329836
| 13>  O       -1.8236318591    -2.6336479455     1.4680005754
| 14>  H        1.0489715962     1.9583583536    -0.2582515968
| 15>  H       -0.5270809809     1.8669146716    -1.0542318013
| 16>  H       -0.4349432294     2.0079468532     0.7046977834
| 17>  H        0.5807885155    -0.4011064835    -0.9177177528
| 18>  H        0.6533244192    -0.2644323891     0.8312693545
| 19>  H       -1.8613515335    -0.1340726519     0.9108328959
| 20>  H       -3.0991575244     0.1281652479    -1.1481323783
| 21>  H       -1.7557178868    -0.4687468616    -2.1340352019
| 22>  H       -3.7184164796    -2.2577487336    -0.6414731950
| 23>  H       -2.3946314890    -4.0976842682    -1.7420477645
| 24>  H       -1.7146552116    -2.8291607134    -2.7768710809
| 25>  H       -0.4657863920    -3.9980188789    -0.2805194547
| 26>  H        0.2097625973    -2.6105896239    -1.1561404724
| 27>  H       -0.9955359642    -2.6889660304     1.9583377281
| 28> *
| 29>
| 30>                          ****END OF INPUT****

CARTESIAN COORDINATES (ANGSTROEM)
---------------------------------
  C      0.037508    1.549311   -0.170936
  C      0.059884    0.021033   -0.048798
  C     -1.333158   -0.586342    0.062435
  C     -2.280195   -0.593151   -1.180462
  C     -2.673128   -2.071998   -0.888183
  C     -1.915361   -3.115583   -1.740614
  C     -0.709007   -3.043324   -0.752674
  C     -1.544025   -2.120471    0.192533
  O     -1.823632   -2.633648    1.468001
  H      1.048972    1.958358   -0.258252
  H     -0.527081    1.866915   -1.054232
  H     -0.434943    2.007947    0.704698
  H      0.580789   -0.401106   -0.917718
  H      0.653324   -0.264432    0.831269
  H     -1.861352   -0.134073    0.910833
  H     -3.099158    0.128165   -1.148132
  H     -1.755718   -0.468747   -2.134035
  H     -3.718416   -2.257749   -0.641473
  H     -2.394631   -4.097684   -1.742048
  H     -1.714655   -2.829161   -2.776871
  H     -0.465786   -3.998019   -0.280519
  H      0.209763   -2.610590   -1.156140
  H     -0.995536   -2.688966    1.958338

 Total Charge           Charge          ....    0
 Multiplicity           Mult            ....    1
 Number of Electrons    NEL             ....   70
 Basis Dimension        Dim             ....  363

ORBITAL ENERGIES
----------------

  NO   OCC          E(Eh)            E(eV)
   0   2.0000     -20.553514      -559.2896
   1   2.0000     -11.274400      -306.7920
   2   2.0000     -11.220237      -305.3182
   3   2.0000     -11.219408      -305.2956
   4   2.0000     -11.218227      -305.2635
   5   2.0000     -11.217736      -305.2501
   6   2.0000     -11.217423      -305.2416
   7   2.0000     -11.216852      -305.2261
   8   2.0000     -11.213634      -305.1385
   9   2.0000      -1.362526       -37.0762
  10   2.0000      -1.152926       -31.3727
  11   2.0000      -1.052973       -28.6529
  12   2.0000      -0.991467       -26.9792
  13   2.0000      -0.914527       -24.8855
  14   2.0000      -0.858737       -23.3674
  15   2.0000      -0.839761       -22.8511
  16   2.0000      -0.784402       -21.3447
  17   2.0000      -0.713912       -19.4265
  18   2.0000      -0.689835       -18.7714
  19   2.0000      -0.638891       -17.3851
  20   2.0000      -0.625842       -17.0300
  21   2.0000      -0.610740       -16.6191
  22   2.0000      -0.601776       -16.3752
  23   2.0000      -0.560342       -15.2477
  24   2.0000      -0.545502       -14.8439
  25   2.0000      -0.536931       -14.6106
  26   2.0000      -0.534609       -14.5475
  27   2.0000      -0.509834       -13.8733
  28   2.0000      -0.486228       -13.2309
  29   2.0000      -0.473850       -12.8941
  30   2.0000      -0.464278       -12.6336
  31   2.0000      -0.452879       -12.3235
  32   2.0000      -0.430360       -11.7107
  33   2.0000      -0.394473       -10.7341
  34   2.0000      -0.382351       -10.4043
  35   0.0000       0.132359         3.6017
  36   0.0000       0.141080         3.8390
  37   0.0000       0.158893         4.3237
  38   0.0000       0.163027         4.4362
  39   0.0000       0.183717         4.9992

MULLIKEN ATOMIC CHARGES
-----------------------
   0 C :   -0.393724
   1 C :   -0.212014
   2 C :   -0.140745
   3 C :   -0.279383
   4 C :   -0.082203
   5 C :   -0.254840
   6 C :   -0.308703
   7 C :    0.338482
   8 O :   -0.459879
   9 H :    0.133384
  10 H :    0.129088
  11 H :    0.124519
  12 H :    0.099935
  13 H :    0.102161
  14 H :    0.089100
  15 H :    0.122782
  16 H :    0.110371
  17 H :    0.109516
  18 H :    0.117984
  19 H :    0.109592
  20 H :    0.110030
  21 H :    0.120630
  22 H :    0.313916
Sum of atomic charges:   -0.0000000

LOEWDIN ATOMIC CHARGES
----------------------
   0 C :   -0.316051
   1 C :   -0.281556
   2 C :   -0.207158
   3 C :   -0.192280
   4 C :   -0.160404
   5 C :   -0.222857
   6 C :   -0.203126
   7 C :   -0.307930
   8 O :    0.009008
   9 H :    0.119922
  10 H :    0.121803
  11 H :    0.120974
  12 H :    0.134306
  13 H :    0.135524
  14 H :    0.157390
  15 H :    0.128479
  16 H :    0.133130
  17 H :    0.135896
  18 H :    0.132975
  19 H :    0.124686
  20 H :    0.131836
  21 H :    0.127195
  22 H :    0.178238

  Mayer bond orders larger than 0.1
B(  0-C ,  1-C ) :   0.9228 B(  0-C ,  9-H ) :   0.9417 B(  0-C , 10-H ) :   0.9399
B(  0-C , 11-H ) :   0.9393 B(  1-C ,  2-C ) :   0.9028 B(  1-C , 12-H ) :   0.9313
B(  1-C , 13-H ) :   0.9321 B(  2-C ,  3-C ) :   0.9467 B(  2-C ,  7-C ) :   0.9461
B(  2-C , 14-H ) :   0.9020 B(  3-C ,  4-C ) :   0.9441 B(  3-C , 15-H ) :   0.9156
B(  3-C , 16-H ) :   0.9117 B(  4-C ,  5-C ) :   0.9393 B(  4-C ,  7-C ) :   0.9139
B(  4-C , 17-H ) :   0.8845 B(  5-C ,  6-C ) :   0.9663 B(  5-C , 18-H ) :   0.9175
B(  5-C , 19-H ) :   0.9286 B(  6-C ,  7-C ) :   0.8992 B(  6-C , 20-H ) :   0.9116
B(  6-C , 21-H ) :   0.9086 B(  7-C ,  8-O ) :   1.0099 B(  8-O , 22-H ) :   0.8404

MP2 TOTAL ENERGY:     -387.593214920 Eh
FINAL SINGLE POINT ENERGY      -387.593214920291

DIPOLE MOMENT
-------------
                                X             Y             Z
Electronic contribution:     -3.38698      -5.18101       3.05980
Nuclear contribution   :      3.91590       5.32839      -3.17919
                        -----------------------------------------
Total Dipole Moment    :      0.52892       0.14738      -0.11939
                        -----------------------------------------
Magnitude (a.u.)       :      0.56190
Magnitude (Debye)      :      1.42823

                             ****ORCA TERMINATED NORMALLY****
TOTAL RUN TIME: 0 days 0 hours 33 minutes 28 seconds 734 msec
