                         Program Version 3.0.3 - RELEASE   -
|  1> ! RI-MP2 RIJK def2-TZVP def2-TZVP/C def2-TZVP/JK TIGHTSCF
|  2> % maxcore 2000
|  3> % mp2 density relaxed end
|  4> *xyz 0 1
|  5>  C       -0.0764907465     1.4309171530     0.0500381809
|  6>  N       -0.0094068679    -0.0182173210     0.0425468838
|  7>  C        0.0003357743    -0.8338850258    -1.0288963969
|  8>  N        0.0686250865    -2.1161074729    -0.7000376578
|  9>  C        0.1047155449    -2.1291587518     0.6528101360
| 10>  O        0.1759231816    -3.2615034119     1.3608027675
| 11>  C        0.0585861947    -0.8425675376     1.1712574772
| 12>  C        0.0702487884    -0.3507245408     2.4850625716
| 13>  N        0.0782256038     0.0825345921     3.5617736989
| 14>  H        0.8062692212     1.8536243996     0.5371814762
| 15>  H       -0.1196609943     1.7826669761    -0.9817812895
| 16>  H       -0.9681204376     1.7712689898     0.5833471139
| 17>  H       -0.0439809789    -0.4505840206    -2.0375463091
| 18>  H        0.1929888199    -3.9889355983     0.7253719473
| 19> *
| 20>
| 21>                          ****END OF INPUT****

CARTESIAN COORDINATES (ANGSTROEM)
---------------------------------
  C     -0.076491    1.430917    0.050038
  N     -0.009407   -0.018217    0.042547
  C      0.000336   -0.833885   -1.028896
  N      0.068625   -2.116107   -0.700038
  C      0.104716   -2.129159    0.652810
  O      0.175923   -3.261503    1.360803
  C      0.058586   -0.842568    1.171257
  C      0.070249   -0.350725    2.485063
  N      0.078226    0.082535    3.561774
  H      0.806269    1.853624    0.537181
  H     -0.119661    1.782667   -0.981781
  H     -0.968120    1.771269    0.583347
  H     -0.043981   -0.450584   -2.037546
  H      0.192989   -3.988936    0.725372

 Total Charge           Charge          ....    0
 Multiplicity           Mult            ....    1
 Number of Electrons    NEL             ....   64
 Basis Dimension        Dim             ....  309

ORBITAL ENERGIES
----------------

  NO   OCC          E(Eh)            E(eV)
   0   2.0000     -20.612739      -560.9012
   1   2.0000     -15.655019      -425.9947
   2   2.0000     -15.574135      -423.7938
   3   2.0000     -15.570509      -423.6951
   4   2.0000     -11.353754      -308.9514
   5   2.0000     -11.337318      -308.5041
   6   2.0000     -11.301673      -307.5342
   7   2.0000     -11.292480      -307.2840
   8   2.0000     -11.278989      -306.9169
   9   2.0000      -1.445796       -39.3421
  10   2.0000      -1.374322       -37.3972
  11   2.0000      -1.223409       -33.2906
  12   2.0000      -1.210274       -32.9332
  13   2.0000      -1.060590       -28.8601
  14   2.0000      -0.993478       -27.0339
  15   2.0000      -0.876495       -23.8506
  16   2.0000      -0.856530       -23.3074
  17   2.0000      -0.771415       -20.9913
  18   2.0000      -0.734834       -19.9958
  19   2.0000      -0.684691       -18.6314
  20   2.0000      -0.671393       -18.2695
  21   2.0000      -0.655237       -17.8299
  22   2.0000      -0.622507       -16.9393
  23   2.0000      -0.594746       -16.1839
  24   2.0000      -0.581910       -15.8346
  25   2.0000      -0.557886       -15.1809
  26   2.0000      -0.554925       -15.1003
  27   2.0000      -0.500499       -13.6193
  28   2.0000      -0.491208       -13.3664
  29   2.0000      -0.458968       -12.4892
  30   2.0000      -0.410464       -11.1693
  31   2.0000      -0.327513        -8.9121
  32   0.0000       0.102225         2.7817
  33   0.0000       0.121340         3.3018
  34   0.0000       0.143948         3.9170
  35   0.0000       0.153674         4.1817
  36   0.0000       0.172476         4.6933

MULLIKEN ATOMIC CHARGES
-----------------------
   0 C :   -0.331383
   1 N :   -0.035585
   2 C :    0.011211
   3 N :   -0.307510
   4 C :    0.179792
   5 O :   -0.416477
   6 C :    0.113523
   7 C :   -0.172332
   8 N :   -0.048431
   9 H :    0.171771
  10 H :    0.154328
  11 H :    0.171765
  12 H :    0.161348
  13 H :    0.347980
Sum of atomic charges:   -0.0000000

LOEWDIN ATOMIC CHARGES
----------------------
   0 C :   -0.252446
   1 N :    0.260245
   2 C :   -0.282588
   3 N :    0.099359
   4 C :   -0.367112
   5 O :    0.099720
   6 C :   -0.203251
   7 C :   -0.172739
   8 N :    0.076433
   9 H :    0.132722
  10 H :    0.132292
  11 H :    0.132717
  12 H :    0.137825
  13 H :    0.206824

  Mayer bond orders larger than 0.1
B(  0-C ,  1-N ) :   0.8572 B(  0-C ,  9-H ) :   0.9256 B(  0-C , 10-H ) :   0.9274
B(  0-C , 11-H ) :   0.9256 B(  1-N ,  2-C ) :   1.2451 B(  1-N ,  6-C ) :   1.0785
B(  2-C ,  3-N ) :   1.4689 B(  2-C , 12-H ) :   0.9174 B(  3-N ,  4-C ) :   1.3420
B(  4-C ,  5-O ) :   1.1714 B(  4-C ,  6-C ) :   1.4404 B(  5-O , 13-H ) :   0.8128
B(  6-C ,  7-C ) :   0.9070 B(  7-C ,  8-N ) :   2.8496

MP2 TOTAL ENERGY:     -432.199969816 Eh
FINAL SINGLE POINT ENERGY      -432.199969815605

DIPOLE MOMENT
-------------
                                X             Y             Z
Electronic contribution:      0.29293      -4.46953       3.24741
Nuclear contribution   :     -0.37014       5.17058      -4.94903
                        -----------------------------------------
Total Dipole Moment    :     -0.07721       0.70105      -1.70161
                        -----------------------------------------
Magnitude (a.u.)       :      1.84199
Magnitude (Debye)      :      4.68196

                             ****ORCA TERMINATED NORMALLY****
TOTAL RUN TIME: 0 days 0 hours 14 minutes 53 seconds 626 msec
