                         Program Version 3.0.3 - RELEASE   -
|  1> ! RI-MP2 RIJK def2-TZVP def2-TZVP/C def2-TZVP/JK TIGHTSCF
|  2> % maxcore 2000
|  3> % mp2 density relaxed end
|  4> *xyz 0 1
|  5>  C       -0.9418554654     1.1222934046     0.1733398627
|  6>  C        0.0188619356    -0.0423540540    -0.0304141591
|  7>  C        0.9748911070    -0.0597334080    -1.2677849681
|  8>  C        2.1836476145    -0.4479021316    -0.3697726481
|  9>  O        2.3898962692    -1.8464434161    -0.4378254482
| 10>  C        3.4223616690     0.3131259193    -0.5226036286
| 11>  N        4.3982684529     0.9271096302    -0.6088450514
| 12>  C        1.2653823818    -0.0919019466     0.8628803358
| 13>  O        1.4937599277     0.0980809255     2.0169081701
| 14>  H       -0.4231852379     2.0823616043     0.0875018731
| 15>  H       -1.7424914305     1.0999432465    -0.5718907045
| 16>  H       -1.3976469019     1.0736111994     1.1662223622
| 17>  H       -0.5128658981    -0.9974636361     0.0557714095
| 18>  H        0.7674924775    -0.7964159686    -2.0433497587
| 19>  H        1.1000802723     0.9282847200    -1.7147107823
| 20>  H        2.9656044663    -2.1021538487     0.2939382657
| 21> *
| 22>
| 23>                          ****END OF INPUT****

CARTESIAN COORDINATES (ANGSTROEM)
---------------------------------
  C     -0.941855    1.122293    0.173340
  C      0.018862   -0.042354   -0.030414
  C      0.974891   -0.059733   -1.267785
  C      2.183648   -0.447902   -0.369773
  O      2.389896   -1.846443   -0.437825
  C      3.422362    0.313126   -0.522604
  N      4.398268    0.927110   -0.608845
  C      1.265382   -0.091902    0.862880
  O      1.493760    0.098081    2.016908
  H     -0.423185    2.082362    0.087502
  H     -1.742491    1.099943   -0.571891
  H     -1.397647    1.073611    1.166222
  H     -0.512866   -0.997464    0.055771
  H      0.767492   -0.796416   -2.043350
  H      1.100080    0.928285   -1.714711
  H      2.965604   -2.102154    0.293938

 Total Charge           Charge          ....    0
 Multiplicity           Mult            ....    1
 Number of Electrons    NEL             ....   66
 Basis Dimension        Dim             ....  321

ORBITAL ENERGIES
----------------

  NO   OCC          E(Eh)            E(eV)
   0   2.0000     -20.611163      -560.8583
   1   2.0000     -20.589314      -560.2637
   2   2.0000     -15.591507      -424.2665
   3   2.0000     -11.363570      -309.2184
   4   2.0000     -11.360600      -309.1376
   5   2.0000     -11.287042      -307.1360
   6   2.0000     -11.273533      -306.7684
   7   2.0000     -11.269481      -306.6582
   8   2.0000     -11.246054      -306.0207
   9   2.0000      -1.436991       -39.1025
  10   2.0000      -1.415125       -38.5075
  11   2.0000      -1.234163       -33.5833
  12   2.0000      -1.164494       -31.6875
  13   2.0000      -1.029475       -28.0134
  14   2.0000      -0.929915       -25.3043
  15   2.0000      -0.896731       -24.4013
  16   2.0000      -0.782970       -21.3057
  17   2.0000      -0.774074       -21.0636
  18   2.0000      -0.707489       -19.2517
  19   2.0000      -0.690290       -18.7837
  20   2.0000      -0.637164       -17.3381
  21   2.0000      -0.628607       -17.1053
  22   2.0000      -0.591494       -16.0954
  23   2.0000      -0.584691       -15.9103
  24   2.0000      -0.581868       -15.8334
  25   2.0000      -0.559659       -15.2291
  26   2.0000      -0.552981       -15.0474
  27   2.0000      -0.538441       -14.6517
  28   2.0000      -0.515899       -14.0383
  29   2.0000      -0.501453       -13.6452
  30   2.0000      -0.487334       -13.2610
  31   2.0000      -0.472047       -12.8451
  32   2.0000      -0.412141       -11.2149
  33   0.0000       0.088036         2.3956
  34   0.0000       0.116527         3.1709
  35   0.0000       0.139744         3.8026
  36   0.0000       0.151941         4.1345
  37   0.0000       0.157191         4.2774

MULLIKEN ATOMIC CHARGES
-----------------------
   0 C :   -0.421128
   1 C :    0.008658
   2 C :   -0.320402
   3 C :    0.460101
   4 O :   -0.451733
   5 C :   -0.245574
   6 N :   -0.041951
   7 C :    0.008459
   8 O :   -0.216276
   9 H :    0.136563
  10 H :    0.146481
  11 H :    0.151791
  12 H :    0.141690
  13 H :    0.147000
  14 H :    0.156706
  15 H :    0.339615
Sum of atomic charges:    0.0000000

LOEWDIN ATOMIC CHARGES
----------------------
   0 C :   -0.284680
   1 C :   -0.218558
   2 C :   -0.148257
   3 C :   -0.326952
   4 O :    0.046421
   5 C :   -0.150959
   6 N :    0.084527
   7 C :   -0.249984
   8 O :    0.199041
   9 H :    0.129108
  10 H :    0.129672
  11 H :    0.134189
  12 H :    0.169931
  13 H :    0.143656
  14 H :    0.149232
  15 H :    0.193613

  Mayer bond orders larger than 0.1
B(  0-C ,  1-C ) :   0.8929 B(  0-C ,  9-H ) :   0.9327 B(  0-C , 10-H ) :   0.9378
B(  0-C , 11-H ) :   0.9343 B(  1-C ,  2-C ) :   0.9425 B(  1-C ,  3-C ) :  -0.1387
B(  1-C ,  7-C ) :   0.8651 B(  1-C , 12-H ) :   0.8868 B(  2-C ,  3-C ) :   0.8735
B(  2-C , 13-H ) :   0.9160 B(  2-C , 14-H ) :   0.9187 B(  3-C ,  4-O ) :   0.9241
B(  3-C ,  5-C ) :   0.9152 B(  3-C ,  7-C ) :   0.7559 B(  4-O , 15-H ) :   0.8278
B(  5-C ,  6-N ) :   2.8396 B(  7-C ,  8-O ) :   2.0712

MP2 TOTAL ENERGY:     -437.174698744 Eh
FINAL SINGLE POINT ENERGY      -437.174698744390

DIPOLE MOMENT
-------------
                                X             Y             Z
Electronic contribution:      8.73339      -1.90507       2.19285
Nuclear contribution   :    -10.16532       1.40709      -2.54441
                        -----------------------------------------
Total Dipole Moment    :     -1.43193      -0.49798      -0.35156
                        -----------------------------------------
Magnitude (a.u.)       :      1.55628
Magnitude (Debye)      :      3.95574

                             ****ORCA TERMINATED NORMALLY****
TOTAL RUN TIME: 0 days 0 hours 15 minutes 38 seconds 619 msec
