                         Program Version 3.0.3 - RELEASE   -
|  1> ! RI-MP2 RIJK def2-TZVP def2-TZVP/C def2-TZVP/JK TIGHTSCF
|  2> % maxcore 2000
|  3> % mp2 density relaxed end
|  4> *xyz 0 1
|  5>  C       -0.1565494565     1.3467354400    -0.1827765401
|  6>  C        1.2717868740     0.9818739422     0.0182574993
|  7>  N        0.2313084702    -0.0415795363     0.0516678242
|  8>  C       -0.0975315350    -0.5867008229     1.3707660235
|  9>  C       -1.5177812650    -1.2060746015     1.3933402236
| 10>  C       -1.4023467386    -2.4982980140     2.2405503286
| 11>  C        0.0809710730    -2.7818159546     2.2225470094
| 12>  C        0.7838636240    -1.7554433811     1.7502938199
| 13>  H       -0.6490034080     1.8833308004     0.6272531627
| 14>  H       -0.5373419876     1.5715720684    -1.1747508012
| 15>  H        1.9559983515     0.9342625435    -0.8240136217
| 16>  H        1.7300164414     1.2787345534     0.9609109114
| 17>  H       -0.0068413903     0.2078410765     2.1395796002
| 18>  H       -2.2764250570    -0.5146977602     1.7682911409
| 19>  H       -1.7770440516    -1.4597118369     0.3612739195
| 20>  H       -1.7553698780    -2.3450480779     3.2700850519
| 21>  H       -1.9991149797    -3.3231269208     1.8346468864
| 22>  H        0.5027247058    -3.7112605531     2.5902888194
| 23>  H        1.8638954772    -1.7101229150     1.6654747923
| 24> *
| 25>
| 26>                          ****END OF INPUT****

CARTESIAN COORDINATES (ANGSTROEM)
---------------------------------
  C     -0.156549    1.346735   -0.182777
  C      1.271787    0.981874    0.018257
  N      0.231308   -0.041580    0.051668
  C     -0.097532   -0.586701    1.370766
  C     -1.517781   -1.206075    1.393340
  C     -1.402347   -2.498298    2.240550
  C      0.080971   -2.781816    2.222547
  C      0.783864   -1.755443    1.750294
  H     -0.649003    1.883331    0.627253
  H     -0.537342    1.571572   -1.174751
  H      1.955998    0.934263   -0.824014
  H      1.730016    1.278735    0.960911
  H     -0.006841    0.207841    2.139580
  H     -2.276425   -0.514698    1.768291
  H     -1.777044   -1.459712    0.361274
  H     -1.755370   -2.345048    3.270085
  H     -1.999115   -3.323127    1.834647
  H      0.502725   -3.711261    2.590289
  H      1.863895   -1.710123    1.665475

 Total Charge           Charge          ....    0
 Multiplicity           Mult            ....    1
 Number of Electrons    NEL             ....   60
 Basis Dimension        Dim             ....  314

ORBITAL ENERGIES
----------------

  NO   OCC          E(Eh)            E(eV)
   0   2.0000     -15.555673      -423.2914
   1   2.0000     -11.256279      -306.2989
   2   2.0000     -11.251817      -306.1775
   3   2.0000     -11.251086      -306.1576
   4   2.0000     -11.222479      -305.3792
   5   2.0000     -11.221814      -305.3611
   6   2.0000     -11.216742      -305.2231
   7   2.0000     -11.215353      -305.1853
   8   2.0000      -1.271782       -34.6069
   9   2.0000      -1.126790       -30.6615
  10   2.0000      -0.981940       -26.7200
  11   2.0000      -0.962365       -26.1873
  12   2.0000      -0.855990       -23.2927
  13   2.0000      -0.840617       -22.8744
  14   2.0000      -0.775468       -21.1016
  15   2.0000      -0.727616       -19.7994
  16   2.0000      -0.684676       -18.6310
  17   2.0000      -0.662554       -18.0290
  18   2.0000      -0.642032       -17.4706
  19   2.0000      -0.592798       -16.1309
  20   2.0000      -0.544017       -14.8034
  21   2.0000      -0.531124       -14.4526
  22   2.0000      -0.524162       -14.2632
  23   2.0000      -0.506412       -13.7802
  24   2.0000      -0.487856       -13.2752
  25   2.0000      -0.482182       -13.1208
  26   2.0000      -0.459392       -12.5007
  27   2.0000      -0.435060       -11.8386
  28   2.0000      -0.374974       -10.2036
  29   2.0000      -0.345043        -9.3891
  30   0.0000       0.143556         3.9064
  31   0.0000       0.157586         4.2881
  32   0.0000       0.160339         4.3630
  33   0.0000       0.167068         4.5461
  34   0.0000       0.180200         4.9035

MULLIKEN ATOMIC CHARGES
-----------------------
   0 C :   -0.172093
   1 C :   -0.194113
   2 N :   -0.238493
   3 C :    0.097309
   4 C :   -0.265383
   5 C :   -0.147684
   6 C :   -0.158025
   7 C :   -0.215841
   8 H :    0.117768
   9 H :    0.131093
  10 H :    0.130763
  11 H :    0.120389
  12 H :    0.071835
  13 H :    0.117153
  14 H :    0.122516
  15 H :    0.111221
  16 H :    0.120127
  17 H :    0.125609
  18 H :    0.125850
Sum of atomic charges:    0.0000000

LOEWDIN ATOMIC CHARGES
----------------------
   0 C :   -0.269221
   1 C :   -0.271265
   2 N :    0.110179
   3 C :   -0.272550
   4 C :   -0.213026
   5 C :   -0.242556
   6 C :   -0.155927
   7 C :   -0.140612
   8 H :    0.121990
   9 H :    0.123998
  10 H :    0.124087
  11 H :    0.122104
  12 H :    0.138227
  13 H :    0.130265
  14 H :    0.145581
  15 H :    0.138809
  16 H :    0.135805
  17 H :    0.135787
  18 H :    0.138325

  Mayer bond orders larger than 0.1
B(  0-C ,  1-C ) :   0.9507 B(  0-C ,  2-N ) :   0.8778 B(  0-C ,  8-H ) :   0.9198
B(  0-C ,  9-H ) :   0.9287 B(  1-C ,  2-N ) :   0.8966 B(  1-C , 10-H ) :   0.9249
B(  1-C , 11-H ) :   0.9236 B(  2-N ,  3-C ) :   0.8504 B(  3-C ,  4-C ) :   0.9227
B(  3-C ,  7-C ) :   0.9018 B(  3-C , 12-H ) :   0.9064 B(  4-C ,  5-C ) :   0.9582
B(  4-C , 13-H ) :   0.9288 B(  4-C , 14-H ) :   0.9274 B(  5-C ,  6-C ) :   0.9355
B(  5-C , 15-H ) :   0.9085 B(  5-C , 16-H ) :   0.9299 B(  6-C ,  7-C ) :   1.8036
B(  6-C , 17-H ) :   0.9289 B(  7-C , 18-H ) :   0.9259

MP2 TOTAL ENERGY:     -327.306007658 Eh
FINAL SINGLE POINT ENERGY      -327.306007657533

DIPOLE MOMENT
-------------
                                X             Y             Z
Electronic contribution:      1.56996      -1.08854      -0.71510
Nuclear contribution   :     -1.61158       1.37999       1.06187
                        -----------------------------------------
Total Dipole Moment    :     -0.04162       0.29145       0.34676
                        -----------------------------------------
Magnitude (a.u.)       :      0.45488
Magnitude (Debye)      :      1.15622

                             ****ORCA TERMINATED NORMALLY****
TOTAL RUN TIME: 0 days 0 hours 12 minutes 23 seconds 335 msec
