                         Program Version 3.0.3 - RELEASE   -
|  1> ! RI-MP2 RIJK def2-TZVP def2-TZVP/C def2-TZVP/JK TIGHTSCF
|  2> % maxcore 2000
|  3> % mp2 density relaxed end
|  4> *xyz 0 1
|  5>  O        0.0255413605     1.3510738303    -0.0909473505
|  6>  C        0.0451824233    -0.0484460031    -0.0281012113
|  7>  C       -0.4311637036    -0.7579949192    -1.2577386889
|  8>  C       -1.2864625005    -0.7566960760    -0.0003971139
|  9>  C       -1.4544160343    -1.9782567757     0.8776033398
| 10>  O       -1.2541618854    -1.6734808049     2.2576278044
| 11>  C        0.0853489626    -1.6464842442     2.6671582976
| 12>  O        0.8481565497    -0.5579713521     2.2054928020
| 13>  C        1.1660192628    -0.6181373893     0.8172167254
| 14>  H       -0.1273145675     1.6678679320     0.8076141567
| 15>  H       -0.7597818414    -0.1391730009    -2.0844622097
| 16>  H        0.0634795579    -1.6801899421    -1.5467496455
| 17>  H       -2.1387241501    -0.0843853257    -0.0225077302
| 18>  H       -2.4726013424    -2.3719512828     0.8022633524
| 19>  H       -0.7686746104    -2.7829616511     0.5698915044
| 20>  H        0.0658611587    -1.5591925627     3.7556345975
| 21>  H        0.5830495373    -2.5880560876     2.3669465129
| 22>  H        1.3970304662    -1.6537254452     0.5277237547
| 23>  H        2.0667130765    -0.0137574999     0.6736961121
| 24> *
| 25>
| 26>                          ****END OF INPUT****

CARTESIAN COORDINATES (ANGSTROEM)
---------------------------------
  O      0.025541    1.351074   -0.090947
  C      0.045182   -0.048446   -0.028101
  C     -0.431164   -0.757995   -1.257739
  C     -1.286463   -0.756696   -0.000397
  C     -1.454416   -1.978257    0.877603
  O     -1.254162   -1.673481    2.257628
  C      0.085349   -1.646484    2.667158
  O      0.848157   -0.557971    2.205493
  C      1.166019   -0.618137    0.817217
  H     -0.127315    1.667868    0.807614
  H     -0.759782   -0.139173   -2.084462
  H      0.063480   -1.680190   -1.546750
  H     -2.138724   -0.084385   -0.022508
  H     -2.472601   -2.371951    0.802263
  H     -0.768675   -2.782962    0.569892
  H      0.065861   -1.559193    3.755635
  H      0.583050   -2.588056    2.366947
  H      1.397030   -1.653725    0.527724
  H      2.066713   -0.013757    0.673696

 Total Charge           Charge          ....    0
 Multiplicity           Mult            ....    1
 Number of Electrons    NEL             ....   70
 Basis Dimension        Dim             ....  339

ORBITAL ENERGIES
----------------

  NO   OCC          E(Eh)            E(eV)
   0   2.0000     -20.566955      -559.6553
   1   2.0000     -20.564169      -559.5795
   2   2.0000     -20.562635      -559.5377
   3   2.0000     -11.331660      -308.3501
   4   2.0000     -11.289928      -307.2146
   5   2.0000     -11.287791      -307.1564
   6   2.0000     -11.286089      -307.1101
   7   2.0000     -11.237020      -305.7749
   8   2.0000     -11.234247      -305.6994
   9   2.0000      -1.419574       -38.6286
  10   2.0000      -1.375342       -37.4250
  11   2.0000      -1.351535       -36.7771
  12   2.0000      -1.148918       -31.2636
  13   2.0000      -0.990390       -26.9499
  14   2.0000      -0.968434       -26.3524
  15   2.0000      -0.863333       -23.4925
  16   2.0000      -0.818526       -22.2732
  17   2.0000      -0.776578       -21.1318
  18   2.0000      -0.721420       -19.6308
  19   2.0000      -0.708047       -19.2669
  20   2.0000      -0.685862       -18.6633
  21   2.0000      -0.670088       -18.2340
  22   2.0000      -0.642789       -17.4912
  23   2.0000      -0.611123       -16.6295
  24   2.0000      -0.600405       -16.3378
  25   2.0000      -0.569948       -15.5091
  26   2.0000      -0.558232       -15.1903
  27   2.0000      -0.542347       -14.7580
  28   2.0000      -0.527771       -14.3614
  29   2.0000      -0.499930       -13.6038
  30   2.0000      -0.480111       -13.0645
  31   2.0000      -0.461837       -12.5672
  32   2.0000      -0.448896       -12.2151
  33   2.0000      -0.410668       -11.1748
  34   2.0000      -0.395056       -10.7500
  35   0.0000       0.141652         3.8546
  36   0.0000       0.156911         4.2698
  37   0.0000       0.169042         4.5999
  38   0.0000       0.175024         4.7627
  39   0.0000       0.187614         5.1052

MULLIKEN ATOMIC CHARGES
-----------------------
   0 O :   -0.467004
   1 C :    0.208969
   2 C :   -0.313476
   3 C :   -0.127946
   4 C :   -0.089199
   5 O :   -0.297070
   6 C :    0.039311
   7 O :   -0.306721
   8 C :   -0.111240
   9 H :    0.330129
  10 H :    0.140138
  11 H :    0.139990
  12 H :    0.128237
  13 H :    0.130891
  14 H :    0.114889
  15 H :    0.131686
  16 H :    0.095685
  17 H :    0.114066
  18 H :    0.138664
Sum of atomic charges:    0.0000000

LOEWDIN ATOMIC CHARGES
----------------------
   0 O :    0.025303
   1 C :   -0.361475
   2 C :   -0.176543
   3 C :   -0.197868
   4 C :   -0.294450
   5 O :    0.160089
   6 C :   -0.410059
   7 O :    0.154611
   8 C :   -0.277716
   9 H :    0.187557
  10 H :    0.142884
  11 H :    0.136045
  12 H :    0.154791
  13 H :    0.134740
  14 H :    0.124539
  15 H :    0.124708
  16 H :    0.105259
  17 H :    0.128077
  18 H :    0.139507

  Mayer bond orders larger than 0.1
B(  0-O ,  1-C ) :   0.9687 B(  0-O ,  9-H ) :   0.8348 B(  1-C ,  2-C ) :   0.8745
B(  1-C ,  3-C ) :   0.8274 B(  1-C ,  8-C ) :   0.9417 B(  2-C ,  3-C ) :   0.8935
B(  2-C , 10-H ) :   0.9143 B(  2-C , 11-H ) :   0.9202 B(  3-C ,  4-C ) :   0.8987
B(  3-C , 12-H ) :   0.9231 B(  4-C ,  5-O ) :   0.8963 B(  4-C , 13-H ) :   0.9332
B(  4-C , 14-H ) :   0.9395 B(  5-O ,  6-C ) :   0.9949 B(  6-C ,  7-O ) :   0.9750
B(  6-C , 15-H ) :   0.9323 B(  6-C , 16-H ) :   0.9473 B(  7-O ,  8-C ) :   0.8870
B(  8-C , 17-H ) :   0.9324 B(  8-C , 18-H ) :   0.9306

MP2 TOTAL ENERGY:     -459.411853049 Eh
FINAL SINGLE POINT ENERGY      -459.411853049438

DIPOLE MOMENT
-------------
                                X             Y             Z
Electronic contribution:     -0.18478       2.96445       2.39944
Nuclear contribution   :      0.25779      -3.63659      -2.61623
                        -----------------------------------------
Total Dipole Moment    :      0.07301      -0.67214      -0.21679
                        -----------------------------------------
Magnitude (a.u.)       :      0.71000
Magnitude (Debye)      :      1.80468

                             ****ORCA TERMINATED NORMALLY****
TOTAL RUN TIME: 0 days 0 hours 16 minutes 50 seconds 316 msec
