                         Program Version 3.0.3 - RELEASE   -
|  1> ! RI-MP2 RIJK def2-TZVP def2-TZVP/C def2-TZVP/JK TIGHTSCF
|  2> % maxcore 2000
|  3> % mp2 density relaxed end
|  4> *xyz 0 1
|  5>  N       -0.0523749546    -1.1298233041    -0.3402092569
|  6>  C       -0.0122776389    -0.0142249719    -0.0415718904
|  7>  C        0.0701204877     1.3992933713     0.3228709771
|  8>  C        1.4642800138     1.9844164308     0.0595960543
|  9>  C        1.8426921454     2.1998938809    -1.4236930686
| 10>  O        1.8331481884     3.6371183511    -1.2614884811
| 11>  C        1.5662165872     3.5081016218     0.1346927356
| 12>  C        0.7436369911     4.5108024594     0.8750583315
| 13>  C        2.2377520523     4.3755689262     1.1455356857
| 14>  H       -0.6828173882     1.9558107920    -0.2465617311
| 15>  H       -0.1930818991     1.5025070959     1.3818792090
| 16>  H        2.2135358255     1.4475992896     0.6448820889
| 17>  H        2.8312238947     1.8279757217    -1.7128817132
| 18>  H        1.1006434978     1.8652318283    -2.1574575351
| 19>  H        0.4140999488     5.3786267119     0.3139226614
| 20>  H        0.0455405438     4.1704627237     1.6335394855
| 21>  H        2.5569181805     3.9334702264     2.0841530551
| 22>  H        2.8862187135     5.1573409948     0.7653394124
| 23> *
| 24>
| 25>                          ****END OF INPUT****

CARTESIAN COORDINATES (ANGSTROEM)
---------------------------------
  N     -0.052375   -1.129823   -0.340209
  C     -0.012278   -0.014225   -0.041572
  C      0.070120    1.399293    0.322871
  C      1.464280    1.984416    0.059596
  C      1.842692    2.199894   -1.423693
  O      1.833148    3.637118   -1.261488
  C      1.566217    3.508102    0.134693
  C      0.743637    4.510802    0.875058
  C      2.237752    4.375569    1.145536
  H     -0.682817    1.955811   -0.246562
  H     -0.193082    1.502507    1.381879
  H      2.213536    1.447599    0.644882
  H      2.831224    1.827976   -1.712882
  H      1.100643    1.865232   -2.157458
  H      0.414100    5.378627    0.313923
  H      0.045541    4.170463    1.633539
  H      2.556918    3.933470    2.084153
  H      2.886219    5.157341    0.765339

 Total Charge           Charge          ....    0
 Multiplicity           Mult            ....    1
 Number of Electrons    NEL             ....   66
 Basis Dimension        Dim             ....  333

ORBITAL ENERGIES
----------------

  NO   OCC          E(Eh)            E(eV)
   0   2.0000     -20.565805      -559.6240
   1   2.0000     -15.574997      -423.8172
   2   2.0000     -11.306727      -307.6717
   3   2.0000     -11.296063      -307.3815
   4   2.0000     -11.292072      -307.2729
   5   2.0000     -11.279064      -306.9189
   6   2.0000     -11.269193      -306.6503
   7   2.0000     -11.241768      -305.9041
   8   2.0000     -11.239835      -305.8515
   9   2.0000      -1.401225       -38.1293
  10   2.0000      -1.224891       -33.3310
  11   2.0000      -1.147013       -31.2118
  12   2.0000      -1.098202       -29.8836
  13   2.0000      -0.973206       -26.4823
  14   2.0000      -0.887330       -24.1455
  15   2.0000      -0.847269       -23.0554
  16   2.0000      -0.748475       -20.3670
  17   2.0000      -0.718274       -19.5452
  18   2.0000      -0.694886       -18.9088
  19   2.0000      -0.684342       -18.6219
  20   2.0000      -0.665254       -18.1025
  21   2.0000      -0.623811       -16.9747
  22   2.0000      -0.594545       -16.1784
  23   2.0000      -0.566684       -15.4203
  24   2.0000      -0.561566       -15.2810
  25   2.0000      -0.534993       -14.5579
  26   2.0000      -0.531217       -14.4552
  27   2.0000      -0.514203       -13.9922
  28   2.0000      -0.488855       -13.3024
  29   2.0000      -0.465377       -12.6636
  30   2.0000      -0.458240       -12.4693
  31   2.0000      -0.427743       -11.6395
  32   2.0000      -0.390500       -10.6261
  33   0.0000       0.118175         3.2157
  34   0.0000       0.143365         3.9012
  35   0.0000       0.147152         4.0042
  36   0.0000       0.168836         4.5943
  37   0.0000       0.172473         4.6932

MULLIKEN ATOMIC CHARGES
-----------------------
   0 N :   -0.051620
   1 C :   -0.180616
   2 C :   -0.202777
   3 C :   -0.043983
   4 C :   -0.052445
   5 O :   -0.311811
   6 C :    0.143313
   7 C :   -0.266433
   8 C :   -0.276778
   9 H :    0.180592
  10 H :    0.157761
  11 H :    0.135299
  12 H :    0.110988
  13 H :    0.111829
  14 H :    0.142008
  15 H :    0.130149
  16 H :    0.133465
  17 H :    0.141059
Sum of atomic charges:   -0.0000000

LOEWDIN ATOMIC CHARGES
----------------------
   0 N :    0.059737
   1 C :   -0.190553
   2 C :   -0.223626
   3 C :   -0.181412
   4 C :   -0.225831
   5 O :    0.171284
   6 C :   -0.295018
   7 C :   -0.206626
   8 C :   -0.202559
   9 H :    0.171962
  10 H :    0.166170
  11 H :    0.156409
  12 H :    0.122898
  13 H :    0.124735
  14 H :    0.142101
  15 H :    0.133410
  16 H :    0.135044
  17 H :    0.141876

  Mayer bond orders larger than 0.1
B(  0-N ,  1-C ) :   2.8785 B(  1-C ,  2-C ) :   0.9305 B(  2-C ,  3-C ) :   0.8811
B(  2-C ,  9-H ) :   0.9128 B(  2-C , 10-H ) :   0.9033 B(  3-C ,  4-C ) :   0.9677
B(  3-C ,  6-C ) :   0.8877 B(  3-C , 11-H ) :   0.9108 B(  4-C ,  5-O ) :   0.9408
B(  4-C , 12-H ) :   0.9147 B(  4-C , 13-H ) :   0.9027 B(  5-O ,  6-C ) :   0.9950
B(  6-C ,  7-C ) :   0.8501 B(  6-C ,  8-C ) :   0.8769 B(  7-C ,  8-C ) :   0.9111
B(  7-C , 14-H ) :   0.9152 B(  7-C , 15-H ) :   0.9153 B(  8-C , 16-H ) :   0.9188
B(  8-C , 17-H ) :   0.9177

MP2 TOTAL ENERGY:     -401.228932730 Eh
FINAL SINGLE POINT ENERGY      -401.228932729654

DIPOLE MOMENT
-------------
                                X             Y             Z
Electronic contribution:     -1.13317      -4.97368      -2.40684
Nuclear contribution   :      1.23783       5.97558       3.16068
                        -----------------------------------------
Total Dipole Moment    :      0.10467       1.00190       0.75384
                        -----------------------------------------
Magnitude (a.u.)       :      1.25819
Magnitude (Debye)      :      3.19806

                             ****ORCA TERMINATED NORMALLY****
TOTAL RUN TIME: 0 days 0 hours 16 minutes 4 seconds 549 msec
