                         Program Version 3.0.3 - RELEASE   -
|  1> ! RI-MP2 RIJK def2-TZVP def2-TZVP/C def2-TZVP/JK TIGHTSCF
|  2> % maxcore 2000
|  3> % mp2 density relaxed end
|  4> *xyz 0 1
|  5>  C       -0.2352981339     1.5506712424     0.0139162514
|  6>  C        0.0121230946     0.0450449863     0.0039070506
|  7>  C        0.8570780736    -0.4954161430    -1.1972273393
|  8>  C        1.9782026971    -1.2508232979    -0.4520965719
|  9>  O        1.2975416374    -1.7528489572     0.7143782310
| 10>  C        0.8800063615    -0.4801399541     1.1699492198
| 11>  O        2.0782412265     0.2858453964     1.2624850896
| 12>  C        2.9292029983    -0.2274329865     0.2095291409
| 13>  C        4.1924902714    -0.8253754958     0.8084024910
| 14>  H        0.7097245095     2.1003599389     0.0277881455
| 15>  H       -0.8042899881     1.8599181743    -0.8686045271
| 16>  H       -0.8078152967     1.8510898865     0.8984266426
| 17>  H       -0.9464573485    -0.4833708283     0.0424127361
| 18>  H        0.2790442423    -1.1744388956    -1.8275026621
| 19>  H        1.2490230458     0.3065327876    -1.8292747247
| 20>  H        2.4635112375    -2.0668442377    -0.9859105153
| 21>  H        0.4111844163    -0.5467157730     2.1522698729
| 22>  H        3.1754943440     0.5933869174    -0.4752258793
| 23>  H        3.9427075919    -1.6989893716     1.4162274927
| 24>  H        4.8915093467    -1.1262946091     0.0202973221
| 25>  H        4.6905564029    -0.0901368900     1.4466537635
| 26> *
| 27>
| 28>                          ****END OF INPUT****

CARTESIAN COORDINATES (ANGSTROEM)
---------------------------------
  C     -0.235298    1.550671    0.013916
  C      0.012123    0.045045    0.003907
  C      0.857078   -0.495416   -1.197227
  C      1.978203   -1.250823   -0.452097
  O      1.297542   -1.752849    0.714378
  C      0.880006   -0.480140    1.169949
  O      2.078241    0.285845    1.262485
  C      2.929203   -0.227433    0.209529
  C      4.192490   -0.825375    0.808402
  H      0.709725    2.100360    0.027788
  H     -0.804290    1.859918   -0.868605
  H     -0.807815    1.851090    0.898427
  H     -0.946457   -0.483371    0.042413
  H      0.279044   -1.174439   -1.827503
  H      1.249023    0.306533   -1.829275
  H      2.463511   -2.066844   -0.985911
  H      0.411184   -0.546716    2.152270
  H      3.175494    0.593387   -0.475226
  H      3.942708   -1.698989    1.416227
  H      4.891509   -1.126295    0.020297
  H      4.690556   -0.090137    1.446654

 Total Charge           Charge          ....    0
 Multiplicity           Mult            ....    1
 Number of Electrons    NEL             ....   70
 Basis Dimension        Dim             ....  351

ORBITAL ENERGIES
----------------

  NO   OCC          E(Eh)            E(eV)
   0   2.0000     -20.560281      -559.4737
   1   2.0000     -20.552697      -559.2673
   2   2.0000     -11.325246      -308.1756
   3   2.0000     -11.285185      -307.0855
   4   2.0000     -11.281899      -306.9961
   5   2.0000     -11.231625      -305.6281
   6   2.0000     -11.228347      -305.5388
   7   2.0000     -11.214786      -305.1698
   8   2.0000     -11.213095      -305.1238
   9   2.0000      -1.441145       -39.2155
  10   2.0000      -1.323449       -36.0129
  11   2.0000      -1.076149       -29.2835
  12   2.0000      -1.057150       -28.7665
  13   2.0000      -0.970364       -26.4049
  14   2.0000      -0.913832       -24.8666
  15   2.0000      -0.838238       -22.8096
  16   2.0000      -0.808018       -21.9873
  17   2.0000      -0.770438       -20.9647
  18   2.0000      -0.718391       -19.5484
  19   2.0000      -0.683559       -18.6006
  20   2.0000      -0.648463       -17.6456
  21   2.0000      -0.596682       -16.2365
  22   2.0000      -0.581796       -15.8315
  23   2.0000      -0.573511       -15.6060
  24   2.0000      -0.563122       -15.3233
  25   2.0000      -0.549817       -14.9613
  26   2.0000      -0.541880       -14.7453
  27   2.0000      -0.521062       -14.1788
  28   2.0000      -0.518210       -14.1012
  29   2.0000      -0.503801       -13.7091
  30   2.0000      -0.490517       -13.3476
  31   2.0000      -0.472333       -12.8528
  32   2.0000      -0.459940       -12.5156
  33   2.0000      -0.431454       -11.7405
  34   2.0000      -0.409384       -11.1399
  35   0.0000       0.134801         3.6681
  36   0.0000       0.153102         4.1661
  37   0.0000       0.164810         4.4847
  38   0.0000       0.172214         4.6862
  39   0.0000       0.189485         5.1561

MULLIKEN ATOMIC CHARGES
-----------------------
   0 C :   -0.434693
   1 C :   -0.039005
   2 C :   -0.253833
   3 C :    0.034225
   4 O :   -0.313638
   5 C :    0.196109
   6 O :   -0.338331
   7 C :    0.077636
   8 C :   -0.427470
   9 H :    0.141696
  10 H :    0.132618
  11 H :    0.127935
  12 H :    0.095813
  13 H :    0.128687
  14 H :    0.116853
  15 H :    0.131389
  16 H :    0.127815
  17 H :    0.090222
  18 H :    0.146544
  19 H :    0.118776
  20 H :    0.140651
Sum of atomic charges:    0.0000000

LOEWDIN ATOMIC CHARGES
----------------------
   0 C :   -0.297021
   1 C :   -0.250535
   2 C :   -0.207189
   3 C :   -0.272065
   4 O :    0.199387
   5 C :   -0.359404
   6 O :    0.180028
   7 C :   -0.301183
   8 C :   -0.296179
   9 H :    0.127340
  10 H :    0.123481
  11 H :    0.124886
  12 H :    0.151799
  13 H :    0.136809
  14 H :    0.138818
  15 H :    0.143112
  16 H :    0.136923
  17 H :    0.138658
  18 H :    0.130439
  19 H :    0.123761
  20 H :    0.128135

  Mayer bond orders larger than 0.1
B(  0-C ,  1-C ) :   0.8992 B(  0-C ,  9-H ) :   0.9302 B(  0-C , 10-H ) :   0.9357
B(  0-C , 11-H ) :   0.9393 B(  1-C ,  2-C ) :   0.9492 B(  1-C ,  5-C ) :   0.9544
B(  1-C , 12-H ) :   0.9137 B(  2-C ,  3-C ) :   0.9512 B(  2-C , 13-H ) :   0.9192
B(  2-C , 14-H ) :   0.9175 B(  3-C ,  4-O ) :   0.9200 B(  3-C ,  7-C ) :   0.9256
B(  3-C , 15-H ) :   0.9145 B(  4-O ,  5-C ) :   0.9604 B(  5-C ,  6-O ) :   0.9462
B(  5-C , 16-H ) :   0.9152 B(  6-O ,  7-C ) :   0.8899 B(  7-C ,  8-C ) :   0.9006
B(  7-C , 17-H ) :   0.9141 B(  8-C , 18-H ) :   0.9430 B(  8-C , 19-H ) :   0.9309
B(  8-C , 20-H ) :   0.9384

MP2 TOTAL ENERGY:     -423.549400569 Eh
FINAL SINGLE POINT ENERGY      -423.549400569043

DIPOLE MOMENT
-------------
                                X             Y             Z
Electronic contribution:     -0.46881      -3.29832       2.66965
Nuclear contribution   :      0.42102       3.42215      -3.32976
                        -----------------------------------------
Total Dipole Moment    :     -0.04779       0.12383      -0.66011
                        -----------------------------------------
Magnitude (a.u.)       :      0.67332
Magnitude (Debye)      :      1.71145

                             ****ORCA TERMINATED NORMALLY****
TOTAL RUN TIME: 0 days 0 hours 19 minutes 11 seconds 671 msec
