                         Program Version 3.0.3 - RELEASE   -
|  1> ! RI-MP2 RIJK def2-TZVP def2-TZVP/C def2-TZVP/JK TIGHTSCF
|  2> % maxcore 2000
|  3> % mp2 density relaxed end
|  4> *xyz 0 1
|  5>  O       -0.3930264571     0.2771096157     0.5242213071
|  6>  C       -0.1523642105     1.3597882765     0.0977808531
|  7>  O       -1.0058281283     2.2109462895    -0.5625056560
|  8>  C        0.0386092983     3.2507242470    -0.6726676793
|  9>  C       -0.1256346490     4.4368194847     0.2540588026
| 10>  C       -0.6520515006     4.1657334853     1.6182284271
| 11>  N        0.7893777344     4.3109866178     1.4174422242
| 12>  C        1.5324061882     3.0377483565     1.2916409399
| 13>  C        1.0480229320     2.3095509789     0.0189804568
| 14>  H        0.1810935607     3.5161890209    -1.7192765604
| 15>  H       -0.2152157216     5.4236375774    -0.1883686940
| 16>  H       -1.1166052898     4.9703347806     2.1807503887
| 17>  H       -1.0664495852     3.1811480709     1.8189714949
| 18>  H        2.5939792138     3.2828782819     1.1966500176
| 19>  H        1.4110134600     2.4308026290     2.1939070056
| 20>  H        1.8603251649     1.9073758873    -0.5875477479
| 21> *
| 22>
| 23>                          ****END OF INPUT****

CARTESIAN COORDINATES (ANGSTROEM)
---------------------------------
  O     -0.393026    0.277110    0.524221
  C     -0.152364    1.359788    0.097781
  O     -1.005828    2.210946   -0.562506
  C      0.038609    3.250724   -0.672668
  C     -0.125635    4.436819    0.254059
  C     -0.652052    4.165733    1.618228
  N      0.789378    4.310987    1.417442
  C      1.532406    3.037748    1.291641
  C      1.048023    2.309551    0.018980
  H      0.181094    3.516189   -1.719277
  H     -0.215216    5.423638   -0.188369
  H     -1.116605    4.970335    2.180750
  H     -1.066450    3.181148    1.818971
  H      2.593979    3.282878    1.196650
  H      1.411013    2.430803    2.193907
  H      1.860325    1.907376   -0.587548

 Total Charge           Charge          ....    0
 Multiplicity           Mult            ....    1
 Number of Electrons    NEL             ....   66
 Basis Dimension        Dim             ....  321

ORBITAL ENERGIES
----------------

  NO   OCC          E(Eh)            E(eV)
   0   2.0000     -20.606069      -560.7197
   1   2.0000     -20.559643      -559.4563
   2   2.0000     -15.580981      -423.9800
   3   2.0000     -11.389371      -309.9205
   4   2.0000     -11.321988      -308.0869
   5   2.0000     -11.281231      -306.9779
   6   2.0000     -11.280000      -306.9444
   7   2.0000     -11.273487      -306.7672
   8   2.0000     -11.272385      -306.7372
   9   2.0000      -1.469110       -39.9765
  10   2.0000      -1.386114       -37.7181
  11   2.0000      -1.299420       -35.3590
  12   2.0000      -1.083364       -29.4798
  13   2.0000      -1.013377       -27.5754
  14   2.0000      -0.927644       -25.2425
  15   2.0000      -0.846578       -23.0366
  16   2.0000      -0.813185       -22.1279
  17   2.0000      -0.758738       -20.6463
  18   2.0000      -0.729637       -19.8544
  19   2.0000      -0.701158       -19.0795
  20   2.0000      -0.683504       -18.5991
  21   2.0000      -0.639538       -17.4027
  22   2.0000      -0.621486       -16.9115
  23   2.0000      -0.613178       -16.6854
  24   2.0000      -0.592012       -16.1095
  25   2.0000      -0.556274       -15.1370
  26   2.0000      -0.544498       -14.8165
  27   2.0000      -0.500413       -13.6169
  28   2.0000      -0.490300       -13.3417
  29   2.0000      -0.469246       -12.7688
  30   2.0000      -0.464597       -12.6423
  31   2.0000      -0.451382       -12.2827
  32   2.0000      -0.392630       -10.6840
  33   0.0000       0.124520         3.3884
  34   0.0000       0.152554         4.1512
  35   0.0000       0.159897         4.3510
  36   0.0000       0.168436         4.5834
  37   0.0000       0.176227         4.7954

MULLIKEN ATOMIC CHARGES
-----------------------
   0 O :   -0.254484
   1 C :    0.223743
   2 O :   -0.247430
   3 C :    0.117392
   4 C :   -0.111376
   5 C :   -0.189886
   6 N :   -0.219276
   7 C :   -0.168036
   8 C :   -0.143582
   9 H :    0.134713
  10 H :    0.136410
  11 H :    0.137897
  12 H :    0.150502
  13 H :    0.137371
  14 H :    0.146831
  15 H :    0.149211
Sum of atomic charges:   -0.0000000

LOEWDIN ATOMIC CHARGES
----------------------
   0 O :    0.159077
   1 C :   -0.451994
   2 O :    0.247608
   3 C :   -0.197918
   4 C :   -0.222894
   5 C :   -0.229596
   6 N :    0.111884
   7 C :   -0.240341
   8 C :   -0.171249
   9 H :    0.143789
  10 H :    0.143571
  11 H :    0.130309
  12 H :    0.135229
  13 H :    0.138474
  14 H :    0.142117
  15 H :    0.161935

  Mayer bond orders larger than 0.1
B(  0-O ,  1-C ) :   2.0624 B(  1-C ,  2-O ) :   1.0805 B(  1-C ,  8-C ) :   0.9230
B(  2-O ,  3-C ) :   0.8867 B(  3-C ,  4-C ) :   0.9336 B(  3-C ,  8-C ) :   0.8954
B(  3-C ,  9-H ) :   0.9236 B(  4-C ,  5-C ) :   0.9111 B(  4-C ,  6-N ) :   0.8909
B(  4-C , 10-H ) :   0.9132 B(  5-C ,  6-N ) :   0.8897 B(  5-C , 11-H ) :   0.9215
B(  5-C , 12-H ) :   0.9153 B(  6-N ,  7-C ) :   0.9180 B(  7-C ,  8-C ) :   0.9141
B(  7-C , 13-H ) :   0.9280 B(  7-C , 14-H ) :   0.9319 B(  8-C , 15-H ) :   0.9014

MP2 TOTAL ENERGY:     -437.163811342 Eh
FINAL SINGLE POINT ENERGY      -437.163811341919

DIPOLE MOMENT
-------------
                                X             Y             Z
Electronic contribution:     -2.08567      -3.98881      -2.04685
Nuclear contribution   :      2.73929       4.88136       1.67120
                        -----------------------------------------
Total Dipole Moment    :      0.65363       0.89255      -0.37566
                        -----------------------------------------
Magnitude (a.u.)       :      1.16833
Magnitude (Debye)      :      2.96966

                             ****ORCA TERMINATED NORMALLY****
TOTAL RUN TIME: 0 days 0 hours 17 minutes 59 seconds 924 msec
