                         Program Version 3.0.3 - RELEASE   -
|  1> ! RI-MP2 RIJK def2-TZVP def2-TZVP/C def2-TZVP/JK TIGHTSCF
|  2> % maxcore 2000
|  3> % mp2 density relaxed end
|  4> *xyz 0 1
|  5>  C        0.0871394806     1.4149882239     0.0624912034
|  6>  N       -0.0547343405    -0.0286212480     0.0684319307
|  7>  C       -1.2612129953    -0.6408803811    -0.0263664048
|  8>  O       -2.3367202747    -0.0771517183    -0.1243460587
|  9>  C       -1.1997650516    -2.1308737826    -0.0037442323
| 10>  C       -2.2012657882    -3.0485562420    -0.0784480324
| 11>  N       -1.6084536310    -4.2855151718    -0.0131123238
| 12>  N       -0.3628007687    -4.1881150965     0.0912019118
| 13>  O       -0.0388765422    -2.7764812352     0.1021450647
| 14>  H        0.6875577702     1.7480629853    -0.7905188267
| 15>  H       -0.9122067791     1.8437756843    -0.0142269553
| 16>  H        0.5600128403     1.7665521909     0.9852818092
| 17>  H        0.7663637149    -0.6082413449     0.1438719661
| 18>  H       -3.2635805049    -2.9105914842    -0.1703683919
| 19> *
| 20>
| 21>                          ****END OF INPUT****

CARTESIAN COORDINATES (ANGSTROEM)
---------------------------------
  C      0.087139    1.414988    0.062491
  N     -0.054734   -0.028621    0.068432
  C     -1.261213   -0.640880   -0.026366
  O     -2.336720   -0.077152   -0.124346
  C     -1.199765   -2.130874   -0.003744
  C     -2.201266   -3.048556   -0.078448
  N     -1.608454   -4.285515   -0.013112
  N     -0.362801   -4.188115    0.091202
  O     -0.038877   -2.776481    0.102145
  H      0.687558    1.748063   -0.790519
  H     -0.912207    1.843776   -0.014227
  H      0.560013    1.766552    0.985282
  H      0.766364   -0.608241    0.143872
  H     -3.263581   -2.910591   -0.170368

 Total Charge           Charge          ....    0
 Multiplicity           Mult            ....    1
 Number of Electrons    NEL             ....   66
 Basis Dimension        Dim             ....  309

ORBITAL ENERGIES
----------------

  NO   OCC          E(Eh)            E(eV)
   0   2.0000     -20.677837      -562.6726
   1   2.0000     -20.543930      -559.0288
   2   2.0000     -15.712907      -427.5699
   3   2.0000     -15.656168      -426.0260
   4   2.0000     -15.611001      -424.7969
   5   2.0000     -11.387641      -309.8735
   6   2.0000     -11.345181      -308.7181
   7   2.0000     -11.292069      -307.2728
   8   2.0000     -11.276642      -306.8530
   9   2.0000      -1.543808       -42.0092
  10   2.0000      -1.409968       -38.3672
  11   2.0000      -1.338532       -36.4233
  12   2.0000      -1.256620       -34.1944
  13   2.0000      -1.120110       -30.4797
  14   2.0000      -0.994482       -27.0612
  15   2.0000      -0.908437       -24.7198
  16   2.0000      -0.873989       -23.7825
  17   2.0000      -0.815364       -22.1872
  18   2.0000      -0.787975       -21.4419
  19   2.0000      -0.703470       -19.1424
  20   2.0000      -0.700872       -19.0717
  21   2.0000      -0.666639       -18.1402
  22   2.0000      -0.642496       -17.4832
  23   2.0000      -0.624436       -16.9918
  24   2.0000      -0.610989       -16.6259
  25   2.0000      -0.572179       -15.5698
  26   2.0000      -0.566224       -15.4077
  27   2.0000      -0.564371       -15.3573
  28   2.0000      -0.514758       -14.0073
  29   2.0000      -0.491458       -13.3732
  30   2.0000      -0.461263       -12.5516
  31   2.0000      -0.415335       -11.3018
  32   2.0000      -0.393417       -10.7054
  33   0.0000       0.056961         1.5500
  34   0.0000       0.130097         3.5401
  35   0.0000       0.151768         4.1298
  36   0.0000       0.163641         4.4529
  37   0.0000       0.177409         4.8275

MULLIKEN ATOMIC CHARGES
-----------------------
   0 C :   -0.293017
   1 N :   -0.304502
   2 C :    0.230352
   3 O :   -0.357810
   4 C :    0.207743
   5 C :   -0.135361
   6 N :   -0.084000
   7 N :   -0.026332
   8 O :   -0.141929
   9 H :    0.144555
  10 H :    0.180218
  11 H :    0.144536
  12 H :    0.258953
  13 H :    0.176594
Sum of atomic charges:   -0.0000000

LOEWDIN ATOMIC CHARGES
----------------------
   0 C :   -0.301892
   1 N :    0.104178
   2 C :   -0.445216
   3 O :    0.100152
   4 C :   -0.267987
   5 C :   -0.205467
   6 N :    0.037089
   7 N :   -0.001770
   8 O :    0.261017
   9 H :    0.119535
  10 H :    0.136375
  11 H :    0.119590
  12 H :    0.191767
  13 H :    0.152630

  Mayer bond orders larger than 0.1
B(  0-C ,  1-N ) :   0.8444 B(  0-C ,  9-H ) :   0.9339 B(  0-C , 10-H ) :   0.9275
B(  0-C , 11-H ) :   0.9338 B(  1-N ,  2-C ) :   1.2342 B(  1-N , 12-H ) :   0.8637
B(  2-C ,  3-O ) :   1.9409 B(  2-C ,  4-C ) :   0.8863 B(  4-C ,  5-C ) :   1.4822
B(  4-C ,  8-O ) :   1.0846 B(  5-C ,  6-N ) :   1.2332 B(  5-C , 13-H ) :   0.9154
B(  6-N ,  7-N ) :   1.4515 B(  7-N ,  8-O ) :   0.8367

MP2 TOTAL ENERGY:     -469.253191513 Eh
FINAL SINGLE POINT ENERGY      -469.253191512502

DIPOLE MOMENT
-------------
                                X             Y             Z
Electronic contribution:     -1.73931      -8.62471      -0.04273
Nuclear contribution   :      2.52881       9.67958       0.09658
                        -----------------------------------------
Total Dipole Moment    :      0.78949       1.05487       0.05385
                        -----------------------------------------
Magnitude (a.u.)       :      1.31870
Magnitude (Debye)      :      3.35186

                             ****ORCA TERMINATED NORMALLY****
TOTAL RUN TIME: 0 days 0 hours 15 minutes 18 seconds 215 msec
