                         Program Version 3.0.3 - RELEASE   -
|  1> ! RI-MP2 RIJK def2-TZVP def2-TZVP/C def2-TZVP/JK TIGHTSCF
|  2> % maxcore 2000
|  3> % mp2 density relaxed end
|  4> *xyz 0 1
|  5>  O       -0.0678596710     1.3898970098     0.0038864190
|  6>  N        0.0485905372    -0.0108749304     0.0566736591
|  7>  C       -1.0805755706    -0.6039723485    -0.0066456039
|  8>  C       -2.4383956414     0.0431807804    -0.0632148080
|  9>  C       -3.2549348916    -0.3626302364     1.1817503619
| 10>  C       -3.2660550723    -1.8607106673     1.3903863275
| 11>  O       -3.4899487110    -2.6598532090     0.2233287540
| 12>  C       -2.1944412900    -2.7056105737     0.8379661836
| 13>  C       -1.0471631244    -2.1133660667     0.0336083297
| 14>  H        0.8522101016     1.6660264100     0.0649484246
| 15>  H       -2.3478891737     1.1261803739    -0.1279221261
| 16>  H       -2.9633006947    -0.3152484305    -0.9555991776
| 17>  H       -2.8319224082     0.1091275436     2.0774273190
| 18>  H       -4.2846326591     0.0016462163     1.0874551629
| 19>  H       -3.7958430576    -2.2106340990     2.2775147184
| 20>  H       -1.9786578116    -3.6570857140     1.3238962683
| 21>  H       -1.1167979845    -2.5140982214    -0.9875574780
| 22>  H       -0.0861535871    -2.4404161873     0.4391062157
| 23> *
| 24>
| 25>                          ****END OF INPUT****

CARTESIAN COORDINATES (ANGSTROEM)
---------------------------------
  O     -0.067860    1.389897    0.003886
  N      0.048591   -0.010875    0.056674
  C     -1.080576   -0.603972   -0.006646
  C     -2.438396    0.043181   -0.063215
  C     -3.254935   -0.362630    1.181750
  C     -3.266055   -1.860711    1.390386
  O     -3.489949   -2.659853    0.223329
  C     -2.194441   -2.705611    0.837966
  C     -1.047163   -2.113366    0.033608
  H      0.852210    1.666026    0.064948
  H     -2.347889    1.126180   -0.127922
  H     -2.963301   -0.315248   -0.955599
  H     -2.831922    0.109128    2.077427
  H     -4.284633    0.001646    1.087455
  H     -3.795843   -2.210634    2.277515
  H     -1.978658   -3.657086    1.323896
  H     -1.116798   -2.514098   -0.987557
  H     -0.086154   -2.440416    0.439106

 Total Charge           Charge          ....    0
 Multiplicity           Mult            ....    1
 Number of Electrons    NEL             ....   68
 Basis Dimension        Dim             ....  333

ORBITAL ENERGIES
----------------

  NO   OCC          E(Eh)            E(eV)
   0   2.0000     -20.588531      -560.2424
   1   2.0000     -20.568130      -559.6873
   2   2.0000     -15.612557      -424.8393
   3   2.0000     -11.293265      -307.3054
   4   2.0000     -11.291625      -307.2607
   5   2.0000     -11.279704      -306.9363
   6   2.0000     -11.242338      -305.9196
   7   2.0000     -11.241314      -305.8917
   8   2.0000     -11.234904      -305.7173
   9   2.0000      -1.416140       -38.5351
  10   2.0000      -1.413999       -38.4769
  11   2.0000      -1.174248       -31.9529
  12   2.0000      -1.065699       -28.9991
  13   2.0000      -1.018434       -27.7130
  14   2.0000      -0.942819       -25.6554
  15   2.0000      -0.857407       -23.3312
  16   2.0000      -0.809051       -22.0154
  17   2.0000      -0.722533       -19.6611
  18   2.0000      -0.714787       -19.4503
  19   2.0000      -0.694231       -18.8910
  20   2.0000      -0.651090       -17.7170
  21   2.0000      -0.627534       -17.0761
  22   2.0000      -0.624109       -16.9829
  23   2.0000      -0.595919       -16.2158
  24   2.0000      -0.577153       -15.7051
  25   2.0000      -0.558771       -15.2049
  26   2.0000      -0.552696       -15.0396
  27   2.0000      -0.520865       -14.1734
  28   2.0000      -0.506788       -13.7904
  29   2.0000      -0.490852       -13.3568
  30   2.0000      -0.447880       -12.1874
  31   2.0000      -0.443900       -12.0791
  32   2.0000      -0.415563       -11.3080
  33   2.0000      -0.379222       -10.3191
  34   0.0000       0.133683         3.6377
  35   0.0000       0.153531         4.1778
  36   0.0000       0.159569         4.3421
  37   0.0000       0.162501         4.4219
  38   0.0000       0.180481         4.9111

MULLIKEN ATOMIC CHARGES
-----------------------
   0 O :   -0.374914
   1 N :   -0.085735
   2 C :   -0.003356
   3 C :   -0.221407
   4 C :   -0.181392
   5 C :   -0.019557
   6 O :   -0.336847
   7 C :    0.033132
   8 C :   -0.199711
   9 H :    0.336126
  10 H :    0.159596
  11 H :    0.135425
  12 H :    0.125053
  13 H :    0.128786
  14 H :    0.117455
  15 H :    0.125075
  16 H :    0.130973
  17 H :    0.131299
Sum of atomic charges:    0.0000000

LOEWDIN ATOMIC CHARGES
----------------------
   0 O :   -0.082546
   1 N :    0.023297
   2 C :   -0.275503
   3 C :   -0.221229
   4 C :   -0.235513
   5 C :   -0.265925
   6 O :    0.160494
   7 C :   -0.252990
   8 C :   -0.206752
   9 H :    0.168709
  10 H :    0.148782
  11 H :    0.156434
  12 H :    0.149584
  13 H :    0.145226
  14 H :    0.137542
  15 H :    0.137822
  16 H :    0.158473
  17 H :    0.154094

  Mayer bond orders larger than 0.1
B(  0-O ,  1-N ) :   0.8069 B(  0-O ,  9-H ) :   0.8438 B(  1-N ,  2-C ) :   1.8803
B(  2-C ,  3-C ) :   0.9436 B(  2-C ,  8-C ) :   0.9673 B(  3-C ,  4-C ) :   0.9107
B(  3-C , 10-H ) :   0.9212 B(  3-C , 11-H ) :   0.9100 B(  4-C ,  5-C ) :   0.9345
B(  4-C , 12-H ) :   0.9108 B(  4-C , 13-H ) :   0.9190 B(  5-C ,  6-O ) :   0.9319
B(  5-C ,  7-C ) :   0.9686 B(  5-C , 14-H ) :   0.9284 B(  6-O ,  7-C ) :   0.8574
B(  7-C ,  8-C ) :   0.9213 B(  7-C , 15-H ) :   0.9175 B(  8-C , 16-H ) :   0.9023
B(  8-C , 17-H ) :   0.9150

MP2 TOTAL ENERGY:     -438.321151414 Eh
FINAL SINGLE POINT ENERGY      -438.321151414292

DIPOLE MOMENT
-------------
                                X             Y             Z
Electronic contribution:      2.00976      -0.09824      -1.03615
Nuclear contribution   :     -1.82263       0.26419       1.53431
                        -----------------------------------------
Total Dipole Moment    :      0.18713       0.16595       0.49816
                        -----------------------------------------
Magnitude (a.u.)       :      0.55743
Magnitude (Debye)      :      1.41686

                             ****ORCA TERMINATED NORMALLY****
TOTAL RUN TIME: 0 days 0 hours 16 minutes 10 seconds 728 msec
