                         Program Version 3.0.3 - RELEASE   -
|  1> ! RI-MP2 RIJK def2-TZVP def2-TZVP/C def2-TZVP/JK TIGHTSCF
|  2> % maxcore 2000
|  3> % mp2 density relaxed end
|  4> *xyz 0 1
|  5>  O        0.0661349028     1.4191221884     0.0315174098
|  6>  C       -0.0021992052     0.0063263752    -0.0759820342
|  7>  C       -1.4080151107    -0.5229078335    -0.0240261004
|  8>  C       -1.9119545804    -1.7044111556    -0.8094920831
|  9>  C       -2.5434019480    -0.3514476614    -1.0200565082
| 10>  C       -3.4989352746     0.0965562399     0.1205237167
| 11>  C       -3.6162700926    -0.9112124121     1.2643611898
| 12>  C       -2.3765317846    -0.0925912682     1.1192284543
| 13>  O       -1.8152808553     0.7263192560     2.0976131432
| 14>  H       -0.3631491575     1.6455988303     0.8659368068
| 15>  H        0.4461218733    -0.2543272718    -1.0413287363
| 16>  H        0.6074017564    -0.4785459524     0.7048856657
| 17>  H       -1.2481411486    -2.0127830041    -1.6130286589
| 18>  H       -2.4370634090    -2.5357201891    -0.3523200782
| 19>  H       -2.5054223702     0.1572851946    -1.9746002478
| 20>  H       -4.2163548582     0.8990356567     0.0070964121
| 21>  H       -4.2794034123    -0.5559096699     2.0517040420
| 22>  H       -3.6692634592    -1.9870407615     1.1251623349
| 23>  H       -2.5047877360     1.0203680784     2.7014559818
| 24> *
| 25>
| 26>                          ****END OF INPUT****

CARTESIAN COORDINATES (ANGSTROEM)
---------------------------------
  O      0.066135    1.419122    0.031517
  C     -0.002199    0.006326   -0.075982
  C     -1.408015   -0.522908   -0.024026
  C     -1.911955   -1.704411   -0.809492
  C     -2.543402   -0.351448   -1.020057
  C     -3.498935    0.096556    0.120524
  C     -3.616270   -0.911212    1.264361
  C     -2.376532   -0.092591    1.119228
  O     -1.815281    0.726319    2.097613
  H     -0.363149    1.645599    0.865937
  H      0.446122   -0.254327   -1.041329
  H      0.607402   -0.478546    0.704886
  H     -1.248141   -2.012783   -1.613029
  H     -2.437063   -2.535720   -0.352320
  H     -2.505422    0.157285   -1.974600
  H     -4.216355    0.899036    0.007096
  H     -4.279403   -0.555910    2.051704
  H     -3.669263   -1.987041    1.125162
  H     -2.504788    1.020368    2.701456

 Total Charge           Charge          ....    0
 Multiplicity           Mult            ....    1
 Number of Electrons    NEL             ....   68
 Basis Dimension        Dim             ....  339

ORBITAL ENERGIES
----------------

  NO   OCC          E(Eh)            E(eV)
   0   2.0000     -20.584809      -560.1411
   1   2.0000     -20.535449      -558.7980
   2   2.0000     -11.300783      -307.5099
   3   2.0000     -11.270522      -306.6865
   4   2.0000     -11.239500      -305.8423
   5   2.0000     -11.238952      -305.8274
   6   2.0000     -11.238430      -305.8132
   7   2.0000     -11.236633      -305.7643
   8   2.0000     -11.236065      -305.7489
   9   2.0000      -1.394250       -37.9395
  10   2.0000      -1.342017       -36.5181
  11   2.0000      -1.216890       -33.1132
  12   2.0000      -1.080633       -29.4055
  13   2.0000      -0.945020       -25.7153
  14   2.0000      -0.886084       -24.1116
  15   2.0000      -0.852863       -23.2076
  16   2.0000      -0.767752       -20.8916
  17   2.0000      -0.740772       -20.1574
  18   2.0000      -0.714964       -19.4552
  19   2.0000      -0.690721       -18.7955
  20   2.0000      -0.655639       -17.8408
  21   2.0000      -0.624708       -16.9992
  22   2.0000      -0.606679       -16.5086
  23   2.0000      -0.591305       -16.0902
  24   2.0000      -0.583469       -15.8770
  25   2.0000      -0.552464       -15.0333
  26   2.0000      -0.543930       -14.8011
  27   2.0000      -0.520329       -14.1589
  28   2.0000      -0.492169       -13.3926
  29   2.0000      -0.450278       -12.2527
  30   2.0000      -0.434609       -11.8263
  31   2.0000      -0.432455       -11.7677
  32   2.0000      -0.403354       -10.9758
  33   2.0000      -0.323380        -8.7996
  34   0.0000       0.127518         3.4700
  35   0.0000       0.159066         4.3284
  36   0.0000       0.163623         4.4524
  37   0.0000       0.168510         4.5854
  38   0.0000       0.192779         5.2458

MULLIKEN ATOMIC CHARGES
-----------------------
   0 O :   -0.490436
   1 C :   -0.004349
   2 C :    0.007404
   3 C :   -0.262719
   4 C :   -0.126010
   5 C :   -0.152704
   6 C :   -0.281734
   7 C :    0.137141
   8 O :   -0.476672
   9 H :    0.328150
  10 H :    0.101706
  11 H :    0.106952
  12 H :    0.130712
  13 H :    0.122283
  14 H :    0.139260
  15 H :    0.144335
  16 H :    0.124955
  17 H :    0.126360
  18 H :    0.325365
Sum of atomic charges:    0.0000000

LOEWDIN ATOMIC CHARGES
----------------------
   0 O :   -0.048302
   1 C :   -0.310895
   2 C :   -0.171646
   3 C :   -0.175908
   4 C :   -0.136665
   5 C :   -0.144914
   6 C :   -0.195224
   7 C :   -0.284677
   8 O :    0.024041
   9 H :    0.171204
  10 H :    0.135262
  11 H :    0.126095
  12 H :    0.144990
  13 H :    0.129933
  14 H :    0.142569
  15 H :    0.138956
  16 H :    0.142247
  17 H :    0.127701
  18 H :    0.185234

  Mayer bond orders larger than 0.1
B(  0-O ,  1-C ) :   0.9606 B(  0-O ,  9-H ) :   0.8303 B(  1-C ,  2-C ) :   0.9096
B(  1-C , 10-H ) :   0.9218 B(  1-C , 11-H ) :   0.9378 B(  2-C ,  3-C ) :   0.9129
B(  2-C ,  4-C ) :   0.8476 B(  2-C ,  7-C ) :   0.9229 B(  3-C ,  4-C ) :   0.9073
B(  3-C , 12-H ) :   0.9217 B(  3-C , 13-H ) :   0.8959 B(  4-C ,  5-C ) :   0.8762
B(  4-C , 14-H ) :   0.9072 B(  5-C ,  6-C ) :   0.8207 B(  5-C ,  7-C ) :   0.8961
B(  5-C , 15-H ) :   0.9049 B(  6-C ,  7-C ) :   0.9495 B(  6-C , 16-H ) :   0.9249
B(  6-C , 17-H ) :   0.8950 B(  7-C ,  8-O ) :   0.9766 B(  8-O , 18-H ) :   0.8305

MP2 TOTAL ENERGY:     -422.239185438 Eh
FINAL SINGLE POINT ENERGY      -422.239185438428

DIPOLE MOMENT
-------------
                                X             Y             Z
Electronic contribution:      0.66079       2.56044       1.37584
Nuclear contribution   :     -1.58377      -2.95100      -0.88872
                        -----------------------------------------
Total Dipole Moment    :     -0.92298      -0.39056       0.48713
                        -----------------------------------------
Magnitude (a.u.)       :      1.11433
Magnitude (Debye)      :      2.83240

                             ****ORCA TERMINATED NORMALLY****
TOTAL RUN TIME: 0 days 0 hours 16 minutes 44 seconds 359 msec
