                         Program Version 3.0.3 - RELEASE   -
|  1> ! RI-MP2 RIJK def2-TZVP def2-TZVP/C def2-TZVP/JK TIGHTSCF
|  2> % maxcore 2000
|  3> % mp2 density relaxed end
|  4> *xyz 0 1
|  5>  C       -0.3404750248     1.3575472566     0.6411366751
|  6>  O       -0.2661596588    -0.0264582929     0.8943683963
|  7>  C        0.9380385575    -0.6038451184     0.4476814413
|  8>  C        0.9072745100    -2.0800278001     0.7464253698
|  9>  C       -0.3420626166    -2.9314855829     0.4616382998
| 10>  O       -0.2045556183    -3.6113757007     1.7395418142
| 11>  C        0.9225758950    -2.8038905929     2.1113044437
| 12>  C        2.2634561554    -3.3848909955     1.6414851782
| 13>  O        2.1310444450    -2.7322289209     0.3479242570
| 14>  H       -0.2811348274     1.5774500890    -0.4362299603
| 15>  H       -1.3024926152     1.7073046291     1.0224163537
| 16>  H        0.4665751220     1.9081858803     1.1489602354
| 17>  H        1.0730006370    -0.4611387745    -0.6393963576
| 18>  H        1.8103268655    -0.1456122297     0.9421952142
| 19>  H       -1.2773427160    -2.3646618868     0.4134365972
| 20>  H       -0.2530719591    -3.6113288586    -0.3922745827
| 21>  H        0.8310358960    -2.3601128933     3.1038598722
| 22>  H        3.1478050044    -3.0185166739     2.1780753932
| 23>  H        2.2948247183    -4.4763139338     1.5631890093
| 24> *
| 25>
| 26>                          ****END OF INPUT****

CARTESIAN COORDINATES (ANGSTROEM)
---------------------------------
  C     -0.340475    1.357547    0.641137
  O     -0.266160   -0.026458    0.894368
  C      0.938039   -0.603845    0.447681
  C      0.907275   -2.080028    0.746425
  C     -0.342063   -2.931486    0.461638
  O     -0.204556   -3.611376    1.739542
  C      0.922576   -2.803891    2.111304
  C      2.263456   -3.384891    1.641485
  O      2.131044   -2.732229    0.347924
  H     -0.281135    1.577450   -0.436230
  H     -1.302493    1.707305    1.022416
  H      0.466575    1.908186    1.148960
  H      1.073001   -0.461139   -0.639396
  H      1.810327   -0.145612    0.942195
  H     -1.277343   -2.364662    0.413437
  H     -0.253072   -3.611329   -0.392275
  H      0.831036   -2.360113    3.103860
  H      3.147805   -3.018517    2.178075
  H      2.294825   -4.476314    1.563189

 Total Charge           Charge          ....    0
 Multiplicity           Mult            ....    1
 Number of Electrons    NEL             ....   70
 Basis Dimension        Dim             ....  339

ORBITAL ENERGIES
----------------

  NO   OCC          E(Eh)            E(eV)
   0   2.0000     -20.568694      -559.7026
   1   2.0000     -20.557508      -559.3982
   2   2.0000     -20.552405      -559.2594
   3   2.0000     -11.293502      -307.3118
   4   2.0000     -11.287686      -307.1536
   5   2.0000     -11.287262      -307.1420
   6   2.0000     -11.282919      -307.0238
   7   2.0000     -11.280597      -306.9606
   8   2.0000     -11.275608      -306.8249
   9   2.0000      -1.416037       -38.5323
  10   2.0000      -1.388900       -37.7939
  11   2.0000      -1.350141       -36.7392
  12   2.0000      -1.036210       -28.1967
  13   2.0000      -0.988598       -26.9011
  14   2.0000      -0.945660       -25.7327
  15   2.0000      -0.900532       -24.5047
  16   2.0000      -0.859682       -23.3931
  17   2.0000      -0.726077       -19.7576
  18   2.0000      -0.707502       -19.2521
  19   2.0000      -0.690616       -18.7926
  20   2.0000      -0.682897       -18.5826
  21   2.0000      -0.659278       -17.9399
  22   2.0000      -0.645891       -17.5756
  23   2.0000      -0.614441       -16.7198
  24   2.0000      -0.589804       -16.0494
  25   2.0000      -0.571562       -15.5530
  26   2.0000      -0.563086       -15.3223
  27   2.0000      -0.547058       -14.8862
  28   2.0000      -0.526089       -14.3156
  29   2.0000      -0.499480       -13.5915
  30   2.0000      -0.490821       -13.3559
  31   2.0000      -0.443436       -12.0665
  32   2.0000      -0.430371       -11.7110
  33   2.0000      -0.425295       -11.5729
  34   2.0000      -0.401300       -10.9199
  35   0.0000       0.135441         3.6855
  36   0.0000       0.160987         4.3807
  37   0.0000       0.169736         4.6188
  38   0.0000       0.181324         4.9341
  39   0.0000       0.187961         5.1147

MULLIKEN ATOMIC CHARGES
-----------------------
   0 C :   -0.223110
   1 O :   -0.305501
   2 C :   -0.069195
   3 C :    0.199153
   4 C :   -0.040070
   5 O :   -0.330856
   6 C :    0.009923
   7 C :   -0.027752
   8 O :   -0.341667
   9 H :    0.115455
  10 H :    0.143491
  11 H :    0.114720
  12 H :    0.108574
  13 H :    0.103332
  14 H :    0.114172
  15 H :    0.104067
  16 H :    0.114179
  17 H :    0.100049
  18 H :    0.111037
Sum of atomic charges:    0.0000000

LOEWDIN ATOMIC CHARGES
----------------------
   0 C :   -0.355758
   1 O :    0.142313
   2 C :   -0.293965
   3 C :   -0.300600
   4 C :   -0.214953
   5 O :    0.136886
   6 C :   -0.236116
   7 C :   -0.240616
   8 O :    0.156983
   9 H :    0.102971
  10 H :    0.114962
  11 H :    0.103131
  12 H :    0.131465
  13 H :    0.129330
  14 H :    0.125969
  15 H :    0.122968
  16 H :    0.130403
  17 H :    0.120238
  18 H :    0.124388

  Mayer bond orders larger than 0.1
B(  0-C ,  1-O ) :   0.9137 B(  0-C ,  9-H ) :   0.9381 B(  0-C , 10-H ) :   0.9389
B(  0-C , 11-H ) :   0.9368 B(  1-O ,  2-C ) :   0.9601 B(  2-C ,  3-C ) :   0.9343
B(  2-C , 12-H ) :   0.9191 B(  2-C , 13-H ) :   0.9101 B(  3-C ,  4-C ) :   0.9714
B(  3-C ,  6-C ) :   0.9682 B(  3-C ,  8-O ) :   0.9105 B(  4-C ,  5-O ) :   0.9352
B(  4-C , 14-H ) :   0.9034 B(  4-C , 15-H ) :   0.9040 B(  5-O ,  6-C ) :   0.9773
B(  6-C ,  7-C ) :   0.9528 B(  6-C , 16-H ) :   0.9031 B(  7-C ,  8-O ) :   0.9281
B(  7-C , 17-H ) :   0.9124 B(  7-C , 18-H ) :   0.9018

MP2 TOTAL ENERGY:     -459.360249287 Eh
FINAL SINGLE POINT ENERGY      -459.360249287381

DIPOLE MOMENT
-------------
                                X             Y             Z
Electronic contribution:      0.30780      -5.74368       1.00245
Nuclear contribution   :     -0.05081       6.64674      -0.97045
                        -----------------------------------------
Total Dipole Moment    :      0.25699       0.90306       0.03200
                        -----------------------------------------
Magnitude (a.u.)       :      0.93946
Magnitude (Debye)      :      2.38791

                             ****ORCA TERMINATED NORMALLY****
TOTAL RUN TIME: 0 days 0 hours 17 minutes 50 seconds 358 msec
