                         Program Version 3.0.3 - RELEASE   -
|  1> ! RI-MP2 RIJK def2-TZVP def2-TZVP/C def2-TZVP/JK TIGHTSCF
|  2> % maxcore 2000
|  3> % mp2 density relaxed end
|  4> *xyz 0 1
|  5>  C        0.2144788110     1.5727027273    -0.0920139409
|  6>  C        0.0843711265     0.0606446187    -0.0953136362
|  7>  C        0.6648200103    -0.7587155508    -1.2849614399
|  8>  O        1.7394506348    -0.1800443949    -1.9997520952
|  9>  C        2.9740351648    -0.4720753685    -1.3355449803
| 10>  C        2.7559866654    -1.8024548429    -0.5986898255
| 11>  C        1.2814004009    -1.7001213536    -0.2184911839
| 12>  N        0.9887358423    -0.6815947545     0.8145868227
| 13>  C        0.4859182747    -1.1154840352     2.0973493630
| 14>  H        1.2265002941     1.8754197967    -0.3704953322
| 15>  H       -0.4854420032     2.0204444491    -0.8055710619
| 16>  H       -0.0101797021     1.9800098127     0.8995921558
| 17>  H       -0.9700475709    -0.2310486009     0.0596998671
| 18>  H       -0.0585110985    -1.1439607705    -2.0056259282
| 19>  H        3.7564834629    -0.5119489302    -2.0984371542
| 20>  H        3.2198310040     0.3218408105    -0.6185957337
| 21>  H        2.9133180686    -2.6535749063    -1.2701746628
| 22>  H        3.4114898465    -1.9123453332     0.2690001832
| 23>  H        0.7783053363    -2.6634024195    -0.0650643409
| 24>  H        1.2444412200    -1.7116945132     2.6161572475
| 25>  H        0.2631200472    -0.2462548652     2.7253278129
| 26>  H       -0.4353918056    -1.7257187855     2.0224597234
| 27> *
| 28>
| 29>                          ****END OF INPUT****

CARTESIAN COORDINATES (ANGSTROEM)
---------------------------------
  C      0.214479    1.572703   -0.092014
  C      0.084371    0.060645   -0.095314
  C      0.664820   -0.758716   -1.284961
  O      1.739451   -0.180044   -1.999752
  C      2.974035   -0.472075   -1.335545
  C      2.755987   -1.802455   -0.598690
  C      1.281400   -1.700121   -0.218491
  N      0.988736   -0.681595    0.814587
  C      0.485918   -1.115484    2.097349
  H      1.226500    1.875420   -0.370495
  H     -0.485442    2.020444   -0.805571
  H     -0.010180    1.980010    0.899592
  H     -0.970048   -0.231049    0.059700
  H     -0.058511   -1.143961   -2.005626
  H      3.756483   -0.511949   -2.098437
  H      3.219831    0.321841   -0.618596
  H      2.913318   -2.653575   -1.270175
  H      3.411490   -1.912345    0.269000
  H      0.778305   -2.663402   -0.065064
  H      1.244441   -1.711695    2.616157
  H      0.263120   -0.246255    2.725328
  H     -0.435392   -1.725719    2.022460

 Total Charge           Charge          ....    0
 Multiplicity           Mult            ....    1
 Number of Electrons    NEL             ....   70
 Basis Dimension        Dim             ....  357

ORBITAL ENERGIES
----------------

  NO   OCC          E(Eh)            E(eV)
   0   2.0000     -20.547808      -559.1343
   1   2.0000     -15.540882      -422.8889
   2   2.0000     -11.271950      -306.7253
   3   2.0000     -11.266512      -306.5774
   4   2.0000     -11.253728      -306.2295
   5   2.0000     -11.251435      -306.1671
   6   2.0000     -11.243811      -305.9597
   7   2.0000     -11.220595      -305.3279
   8   2.0000     -11.206888      -304.9549
   9   2.0000      -1.374963       -37.4146
  10   2.0000      -1.241023       -33.7700
  11   2.0000      -1.041684       -28.3457
  12   2.0000      -1.023721       -27.8569
  13   2.0000      -0.973037       -26.4777
  14   2.0000      -0.890024       -24.2188
  15   2.0000      -0.842848       -22.9351
  16   2.0000      -0.790238       -21.5035
  17   2.0000      -0.735342       -20.0097
  18   2.0000      -0.697979       -18.9930
  19   2.0000      -0.666511       -18.1367
  20   2.0000      -0.627535       -17.0761
  21   2.0000      -0.609805       -16.5936
  22   2.0000      -0.598776       -16.2935
  23   2.0000      -0.578658       -15.7461
  24   2.0000      -0.574714       -15.6388
  25   2.0000      -0.548444       -14.9239
  26   2.0000      -0.539855       -14.6902
  27   2.0000      -0.512936       -13.9577
  28   2.0000      -0.503080       -13.6895
  29   2.0000      -0.491113       -13.3639
  30   2.0000      -0.474221       -12.9042
  31   2.0000      -0.458788       -12.4843
  32   2.0000      -0.437855       -11.9146
  33   2.0000      -0.397000       -10.8029
  34   2.0000      -0.354897        -9.6572
  35   0.0000       0.136922         3.7258
  36   0.0000       0.156699         4.2640
  37   0.0000       0.163223         4.4415
  38   0.0000       0.168407         4.5826
  39   0.0000       0.192941         5.2502

MULLIKEN ATOMIC CHARGES
-----------------------
   0 C :   -0.411779
   1 C :   -0.002470
   2 C :    0.098234
   3 O :   -0.336027
   4 C :   -0.038781
   5 C :   -0.243792
   6 C :   -0.016419
   7 N :   -0.199798
   8 C :   -0.347372
   9 H :    0.138633
  10 H :    0.126255
  11 H :    0.126088
  12 H :    0.072528
  13 H :    0.118801
  14 H :    0.118402
  15 H :    0.091055
  16 H :    0.110635
  17 H :    0.117375
  18 H :    0.100963
  19 H :    0.135517
  20 H :    0.137536
  21 H :    0.104417
Sum of atomic charges:    0.0000000

LOEWDIN ATOMIC CHARGES
----------------------
   0 C :   -0.295242
   1 C :   -0.261959
   2 C :   -0.249007
   3 O :    0.171770
   4 C :   -0.295931
   5 C :   -0.245881
   6 C :   -0.231388
   7 N :    0.106541
   8 C :   -0.340396
   9 H :    0.127307
  10 H :    0.126603
  11 H :    0.123864
  12 H :    0.136711
  13 H :    0.131361
  14 H :    0.123519
  15 H :    0.119354
  16 H :    0.138576
  17 H :    0.140836
  18 H :    0.135774
  19 H :    0.118240
  20 H :    0.118907
  21 H :    0.100440

  Mayer bond orders larger than 0.1
B(  0-C ,  1-C ) :   0.9154 B(  0-C ,  9-H ) :   0.9362 B(  0-C , 10-H ) :   0.9353
B(  0-C , 11-H ) :   0.9364 B(  1-C ,  2-C ) :   0.8918 B(  1-C ,  7-N ) :   0.8609
B(  1-C , 12-H ) :   0.9108 B(  2-C ,  3-O ) :   0.9570 B(  2-C ,  6-C ) :   0.9030
B(  2-C , 13-H ) :   0.9295 B(  3-O ,  4-C ) :   0.9124 B(  4-C ,  5-C ) :   0.9875
B(  4-C , 14-H ) :   0.9320 B(  4-C , 15-H ) :   0.9168 B(  5-C ,  6-C ) :   0.9182
B(  5-C , 16-H ) :   0.9194 B(  5-C , 17-H ) :   0.9174 B(  6-C ,  7-N ) :   0.8970
B(  6-C , 18-H ) :   0.9113 B(  7-N ,  8-C ) :   0.9223 B(  8-C , 19-H ) :   0.9363
B(  8-C , 20-H ) :   0.9370 B(  8-C , 21-H ) :   0.9280

MP2 TOTAL ENERGY:     -403.646629686 Eh
FINAL SINGLE POINT ENERGY      -403.646629685693

DIPOLE MOMENT
-------------
                                X             Y             Z
Electronic contribution:      1.09272      -0.97493      -4.42108
Nuclear contribution   :     -1.23605       0.49581       4.85729
                        -----------------------------------------
Total Dipole Moment    :     -0.14333      -0.47912       0.43622
                        -----------------------------------------
Magnitude (a.u.)       :      0.66362
Magnitude (Debye)      :      1.68678

                             ****ORCA TERMINATED NORMALLY****
TOTAL RUN TIME: 0 days 0 hours 20 minutes 53 seconds 564 msec
