                         Program Version 3.0.3 - RELEASE   -
|  1> ! RI-MP2 RIJK def2-TZVP def2-TZVP/C def2-TZVP/JK TIGHTSCF
|  2> % maxcore 2000
|  3> % mp2 density relaxed end
|  4> *xyz 0 1
|  5>  C       -0.5637295236     1.4246069832     0.1881455398
|  6>  C       -0.0251590965     0.0125452193    -0.0187129206
|  7>  C       -1.1012393322    -0.8861272895    -0.6376948642
|  8>  C        1.3297412991    -0.1028718386    -0.7857267150
|  9>  C        1.8132800623    -1.1392109193     0.2601006450
| 10>  C        0.6714395751    -0.6767887032     1.2062340288
| 11>  C        1.1307941162     0.1289870994     2.4559575038
| 12>  C        0.9050662338    -1.1470806000     3.3087893550
| 13>  C        0.0109165124    -1.6982854399     2.1664611741
| 14>  H        0.1959041299     2.0910087322     0.6087094762
| 15>  H       -0.8915746275     1.8557880440    -0.7653014096
| 16>  H       -1.4273670939     1.4314524797     0.8643881411
| 17>  H       -1.4279151647    -0.4853346061    -1.6041963873
| 18>  H       -0.7351340425    -1.9038679076    -0.8077347321
| 19>  H       -1.9833333445    -0.9544339732     0.0086635755
| 20>  H        1.2806356276    -0.4270231365    -1.8292579921
| 21>  H        1.9033194789     0.8276453339    -0.7401267225
| 22>  H        1.6763445528    -2.1703094825    -0.0801416444
| 23>  H        2.8367536026    -1.0354446847     0.6314907237
| 24>  H        2.1340570557     0.5649528952     2.4358408027
| 25>  H        0.4163556292     0.9143516915     2.7208350945
| 26>  H        1.8234908451    -1.7296097132     3.4217156746
| 27>  H        0.4514715759    -1.0219058684     4.2948360532
| 28>  H       -1.0462946519    -1.4697120090     2.3391860318
| 29>  H        0.0981227906    -2.7584124969     1.9107472280
| 30> *
| 31>
| 32>                          ****END OF INPUT****

CARTESIAN COORDINATES (ANGSTROEM)
---------------------------------
  C     -0.563730    1.424607    0.188146
  C     -0.025159    0.012545   -0.018713
  C     -1.101239   -0.886127   -0.637695
  C      1.329741   -0.102872   -0.785727
  C      1.813280   -1.139211    0.260101
  C      0.671440   -0.676789    1.206234
  C      1.130794    0.128987    2.455958
  C      0.905066   -1.147081    3.308789
  C      0.010917   -1.698285    2.166461
  H      0.195904    2.091009    0.608709
  H     -0.891575    1.855788   -0.765301
  H     -1.427367    1.431452    0.864388
  H     -1.427915   -0.485335   -1.604196
  H     -0.735134   -1.903868   -0.807735
  H     -1.983333   -0.954434    0.008664
  H      1.280636   -0.427023   -1.829258
  H      1.903319    0.827645   -0.740127
  H      1.676345   -2.170309   -0.080142
  H      2.836754   -1.035445    0.631491
  H      2.134057    0.564953    2.435841
  H      0.416356    0.914352    2.720835
  H      1.823491   -1.729610    3.421716
  H      0.451472   -1.021906    4.294836
  H     -1.046295   -1.469712    2.339186
  H      0.098123   -2.758412    1.910747

 Total Charge           Charge          ....    0
 Multiplicity           Mult            ....    1
 Number of Electrons    NEL             ....   70
 Basis Dimension        Dim             ....  375

ORBITAL ENERGIES
----------------

  NO   OCC          E(Eh)            E(eV)
   0   2.0000     -11.225450      -305.4600
   1   2.0000     -11.223299      -305.4015
   2   2.0000     -11.215083      -305.1779
   3   2.0000     -11.213210      -305.1270
   4   2.0000     -11.212216      -305.0999
   5   2.0000     -11.212050      -305.0954
   6   2.0000     -11.210961      -305.0658
   7   2.0000     -11.208463      -304.9978
   8   2.0000     -11.207102      -304.9608
   9   2.0000      -1.156451       -31.4686
  10   2.0000      -1.079443       -29.3731
  11   2.0000      -0.991963       -26.9927
  12   2.0000      -0.929128       -25.2829
  13   2.0000      -0.888712       -24.1831
  14   2.0000      -0.872475       -23.7413
  15   2.0000      -0.826822       -22.4990
  16   2.0000      -0.770564       -20.9681
  17   2.0000      -0.682321       -18.5669
  18   2.0000      -0.638775       -17.3819
  19   2.0000      -0.635176       -17.2840
  20   2.0000      -0.624149       -16.9840
  21   2.0000      -0.589452       -16.0398
  22   2.0000      -0.564761       -15.3679
  23   2.0000      -0.543397       -14.7866
  24   2.0000      -0.536333       -14.5944
  25   2.0000      -0.527842       -14.3633
  26   2.0000      -0.523501       -14.2452
  27   2.0000      -0.495415       -13.4809
  28   2.0000      -0.488369       -13.2892
  29   2.0000      -0.482912       -13.1407
  30   2.0000      -0.453122       -12.3301
  31   2.0000      -0.439700       -11.9649
  32   2.0000      -0.414525       -11.2798
  33   2.0000      -0.403933       -10.9916
  34   2.0000      -0.386267       -10.5109
  35   0.0000       0.131115         3.5678
  36   0.0000       0.151954         4.1349
  37   0.0000       0.161562         4.3963
  38   0.0000       0.163041         4.4366
  39   0.0000       0.189369         5.1530

MULLIKEN ATOMIC CHARGES
-----------------------
   0 C :   -0.441585
   1 C :    0.187715
   2 C :   -0.443305
   3 C :   -0.254571
   4 C :   -0.281935
   5 C :    0.045487
   6 C :   -0.277746
   7 C :   -0.213382
   8 C :   -0.224828
   9 H :    0.134835
  10 H :    0.132583
  11 H :    0.128202
  12 H :    0.132391
  13 H :    0.132952
  14 H :    0.125658
  15 H :    0.110339
  16 H :    0.111048
  17 H :    0.112351
  18 H :    0.111789
  19 H :    0.113884
  20 H :    0.115449
  21 H :    0.113392
  22 H :    0.113693
  23 H :    0.106447
  24 H :    0.109137
Sum of atomic charges:    0.0000000

LOEWDIN ATOMIC CHARGES
----------------------
   0 C :   -0.277585
   1 C :   -0.270110
   2 C :   -0.266650
   3 C :   -0.197074
   4 C :   -0.198097
   5 C :   -0.192005
   6 C :   -0.201781
   7 C :   -0.240034
   8 C :   -0.207041
   9 H :    0.124731
  10 H :    0.126822
  11 H :    0.124956
  12 H :    0.125483
  13 H :    0.128112
  14 H :    0.124397
  15 H :    0.125648
  16 H :    0.134860
  17 H :    0.133509
  18 H :    0.126076
  19 H :    0.124666
  20 H :    0.136326
  21 H :    0.133179
  22 H :    0.121006
  23 H :    0.136163
  24 H :    0.124443

  Mayer bond orders larger than 0.1
B(  0-C ,  1-C ) :   0.8776 B(  0-C ,  9-H ) :   0.9382 B(  0-C , 10-H ) :   0.9376
B(  0-C , 11-H ) :   0.9401 B(  1-C ,  2-C ) :   0.8940 B(  1-C ,  3-C ) :   0.9135
B(  1-C ,  5-C ) :   0.8661 B(  2-C , 12-H ) :   0.9371 B(  2-C , 13-H ) :   0.9340
B(  2-C , 14-H ) :   0.9396 B(  3-C ,  4-C ) :   0.9613 B(  3-C , 15-H ) :   0.9239
B(  3-C , 16-H ) :   0.9149 B(  4-C ,  5-C ) :   0.9258 B(  4-C , 17-H ) :   0.9154
B(  4-C , 18-H ) :   0.9188 B(  5-C ,  6-C ) :   0.8967 B(  5-C ,  8-C ) :   0.9026
B(  6-C ,  7-C ) :   0.9546 B(  6-C , 19-H ) :   0.9265 B(  6-C , 20-H ) :   0.9239
B(  7-C ,  8-C ) :   0.9534 B(  7-C , 21-H ) :   0.9245 B(  7-C , 22-H ) :   0.9293
B(  8-C , 23-H ) :   0.9246 B(  8-C , 24-H ) :   0.9239

MP2 TOTAL ENERGY:     -351.697010870 Eh
FINAL SINGLE POINT ENERGY      -351.697010870171

DIPOLE MOMENT
-------------
                                X             Y             Z
Electronic contribution:      1.69914      -0.79820       0.87386
Nuclear contribution   :     -1.72294       0.80820      -0.87171
                        -----------------------------------------
Total Dipole Moment    :     -0.02380       0.01000       0.00215
                        -----------------------------------------
Magnitude (a.u.)       :      0.02590
Magnitude (Debye)      :      0.06584

                             ****ORCA TERMINATED NORMALLY****
TOTAL RUN TIME: 0 days 0 hours 23 minutes 47 seconds 992 msec
