                         Program Version 3.0.3 - RELEASE   -
|  1> ! RI-MP2 RIJK def2-TZVP def2-TZVP/C def2-TZVP/JK TIGHTSCF
|  2> % maxcore 2000
|  3> % mp2 density relaxed end
|  4> *xyz 0 1
|  5>  C       -2.6947729787     1.9499173449     0.6839698335
|  6>  C       -2.3781734440     0.5387077129     0.1812323473
|  7>  C       -2.1147779609    -0.4482244524     1.3283073950
|  8>  C       -1.7625028319    -1.8491894464     0.8646444514
|  9>  C       -0.3407831010    -2.0396689161     0.3624359663
| 10>  O        0.5928600592    -1.8652401394     1.4150759977
| 11>  O       -2.1346297968    -2.9203428170     1.7660005259
| 12>  C       -2.7787173494    -2.8492316736     0.4852698847
| 13>  C       -4.2679559987    -2.6140132277     0.4714701432
| 14>  H       -2.8776614876     2.6375503114    -0.1474605572
| 15>  H       -3.5857881179     1.9523894483     1.3215616811
| 16>  H       -1.8653318547     2.3529661352     1.2751591344
| 17>  H       -3.2094279981     0.1707524870    -0.4334009265
| 18>  H       -1.5049843664     0.5790347851    -0.4816422883
| 19>  H       -1.2817589091    -0.0855871897     1.9428072372
| 20>  H       -2.9873504329    -0.4991765537     1.9865565038
| 21>  H       -0.2453244320    -3.0359019162    -0.0942568893
| 22>  H       -0.0879778021    -1.2952023871    -0.3996312226
| 23>  H        0.3333831615    -2.4861057680     2.1065001150
| 24>  H       -2.4520553881    -3.6345941426    -0.2010550875
| 25>  H       -4.5620810210    -1.8031069860     1.1398644516
| 26>  H       -4.6038914700    -2.3730352785    -0.5428679541
| 27>  H       -4.7921967491    -3.5216484704     0.7886605675
| 28> *
| 29>
| 30>                          ****END OF INPUT****

CARTESIAN COORDINATES (ANGSTROEM)
---------------------------------
  C     -2.694773    1.949917    0.683970
  C     -2.378173    0.538708    0.181232
  C     -2.114778   -0.448224    1.328307
  C     -1.762503   -1.849189    0.864644
  C     -0.340783   -2.039669    0.362436
  O      0.592860   -1.865240    1.415076
  O     -2.134630   -2.920343    1.766001
  C     -2.778717   -2.849232    0.485270
  C     -4.267956   -2.614013    0.471470
  H     -2.877661    2.637550   -0.147461
  H     -3.585788    1.952389    1.321562
  H     -1.865332    2.352966    1.275159
  H     -3.209428    0.170752   -0.433401
  H     -1.504984    0.579035   -0.481642
  H     -1.281759   -0.085587    1.942807
  H     -2.987350   -0.499177    1.986557
  H     -0.245324   -3.035902   -0.094257
  H     -0.087978   -1.295202   -0.399631
  H      0.333383   -2.486106    2.106500
  H     -2.452055   -3.634594   -0.201055
  H     -4.562081   -1.803107    1.139864
  H     -4.603891   -2.373035   -0.542868
  H     -4.792197   -3.521648    0.788661

 Total Charge           Charge          ....    0
 Multiplicity           Mult            ....    1
 Number of Electrons    NEL             ....   72
 Basis Dimension        Dim             ....  363

ORBITAL ENERGIES
----------------

  NO   OCC          E(Eh)            E(eV)
   0   2.0000     -20.563643      -559.5652
   1   2.0000     -20.554401      -559.3137
   2   2.0000     -11.290840      -307.2394
   3   2.0000     -11.287965      -307.1611
   4   2.0000     -11.278806      -306.9119
   5   2.0000     -11.229328      -305.5655
   6   2.0000     -11.227750      -305.5226
   7   2.0000     -11.224267      -305.4278
   8   2.0000     -11.217321      -305.2388
   9   2.0000      -1.409767       -38.3617
  10   2.0000      -1.357229       -36.9321
  11   2.0000      -1.076730       -29.2993
  12   2.0000      -1.014875       -27.6162
  13   2.0000      -0.995333       -27.0844
  14   2.0000      -0.930750       -25.3270
  15   2.0000      -0.849800       -23.1242
  16   2.0000      -0.827110       -22.5068
  17   2.0000      -0.760688       -20.6994
  18   2.0000      -0.710385       -19.3306
  19   2.0000      -0.673820       -18.3356
  20   2.0000      -0.633700       -17.2439
  21   2.0000      -0.626966       -17.0606
  22   2.0000      -0.604628       -16.4528
  23   2.0000      -0.595243       -16.1974
  24   2.0000      -0.578222       -15.7342
  25   2.0000      -0.562878       -15.3167
  26   2.0000      -0.557002       -15.1568
  27   2.0000      -0.538076       -14.6418
  28   2.0000      -0.527000       -14.3404
  29   2.0000      -0.503329       -13.6963
  30   2.0000      -0.491530       -13.3752
  31   2.0000      -0.481847       -13.1117
  32   2.0000      -0.471232       -12.8229
  33   2.0000      -0.460178       -12.5221
  34   2.0000      -0.431301       -11.7363
  35   2.0000      -0.417602       -11.3635
  36   0.0000       0.129608         3.5268
  37   0.0000       0.152948         4.1619
  38   0.0000       0.160011         4.3541
  39   0.0000       0.166350         4.5266
  40   0.0000       0.180025         4.8987

MULLIKEN ATOMIC CHARGES
-----------------------
   0 C :   -0.387366
   1 C :   -0.234035
   2 C :   -0.249878
   3 C :    0.127382
   4 C :    0.004736
   5 O :   -0.474916
   6 O :   -0.362435
   7 C :    0.038054
   8 C :   -0.395573
   9 H :    0.134140
  10 H :    0.123675
  11 H :    0.128368
  12 H :    0.114231
  13 H :    0.110550
  14 H :    0.137586
  15 H :    0.132078
  16 H :    0.099733
  17 H :    0.106076
  18 H :    0.327604
  19 H :    0.104861
  20 H :    0.138396
  21 H :    0.131465
  22 H :    0.145267
Sum of atomic charges:   -0.0000000

LOEWDIN ATOMIC CHARGES
----------------------
   0 C :   -0.318233
   1 C :   -0.287280
   2 C :   -0.228228
   3 C :   -0.311454
   4 C :   -0.304459
   5 O :   -0.041079
   6 O :    0.161924
   7 C :   -0.272138
   8 C :   -0.292720
   9 H :    0.120904
  10 H :    0.120770
  11 H :    0.122444
  12 H :    0.135166
  13 H :    0.134666
  14 H :    0.151125
  15 H :    0.144557
  16 H :    0.123973
  17 H :    0.131877
  18 H :    0.180874
  19 H :    0.137112
  20 H :    0.128568
  21 H :    0.130359
  22 H :    0.131272

  Mayer bond orders larger than 0.1
B(  0-C ,  1-C ) :   0.9206 B(  0-C ,  9-H ) :   0.9424 B(  0-C , 10-H ) :   0.9406
B(  0-C , 11-H ) :   0.9394 B(  1-C ,  2-C ) :   0.9129 B(  1-C , 12-H ) :   0.9356
B(  1-C , 13-H ) :   0.9325 B(  2-C ,  3-C ) :   0.8572 B(  2-C , 14-H ) :   0.9176
B(  2-C , 15-H ) :   0.9407 B(  3-C ,  4-C ) :   0.9457 B(  3-C ,  6-O ) :   0.8400
B(  3-C ,  7-C ) :   0.9891 B(  4-C ,  5-O ) :   0.9165 B(  4-C , 16-H ) :   0.9096
B(  4-C , 17-H ) :   0.9238 B(  5-O , 18-H ) :   0.8348 B(  6-O ,  7-C ) :   0.8820
B(  7-C ,  8-C ) :   0.8962 B(  7-C , 19-H ) :   0.8961 B(  8-C , 20-H ) :   0.9413
B(  8-C , 21-H ) :   0.9275 B(  8-C , 22-H ) :   0.9329

MP2 TOTAL ENERGY:     -424.713810407 Eh
FINAL SINGLE POINT ENERGY      -424.713810406600

DIPOLE MOMENT
-------------
                                X             Y             Z
Electronic contribution:      5.19707      -7.27780       2.89238
Nuclear contribution   :     -5.88674       7.31769      -3.50739
                        -----------------------------------------
Total Dipole Moment    :     -0.68967       0.03989      -0.61502
                        -----------------------------------------
Magnitude (a.u.)       :      0.92492
Magnitude (Debye)      :      2.35097

                             ****ORCA TERMINATED NORMALLY****
TOTAL RUN TIME: 0 days 0 hours 18 minutes 10 seconds 218 msec
