                         Program Version 3.0.3 - RELEASE   -
|  1> ! RI-MP2 RIJK def2-TZVP def2-TZVP/C def2-TZVP/JK TIGHTSCF
|  2> % maxcore 2000
|  3> % mp2 density relaxed end
|  4> *xyz 0 1
|  5>  O        0.0501340849     0.0465205446    -0.5327146346
|  6>  C       -0.0166692350     1.1547518756    -0.0623921872
|  7>  C       -1.3295314231     1.7419855317     0.4781126405
|  8>  C       -1.3143144241     3.2426829563     0.8581798888
|  9>  C       -0.0575429119     3.6000419963     1.6305239121
| 10>  C        1.0733106932     3.0679189887     1.1963675109
| 11>  C        2.5067745068     2.7772773134     1.5826452198
| 12>  N        2.4345384379     1.5597015675     0.7089285926
| 13>  C        1.1929889460     2.0775857897     0.0702342993
| 14>  H       -2.1218841367     1.5135231774    -0.2413462700
| 15>  H       -1.5544114093     1.1517033344     1.3758516970
| 16>  H       -1.3934507103     3.8589562166    -0.0479292421
| 17>  H       -2.2068968793     3.4677691111     1.4495670984
| 18>  H       -0.1219054783     4.2250341977     2.5158055397
| 19>  H        3.2173394146     3.5406589166     1.2327195758
| 20>  H        2.7144564322     2.5634149406     2.6367431249
| 21>  H        3.2174559014     1.4467725501     0.0749203964
| 22>  H        1.3523663211     2.5523945016    -0.9139830425
| 23> *
| 24>
| 25>                          ****END OF INPUT****

CARTESIAN COORDINATES (ANGSTROEM)
---------------------------------
  O      0.050134    0.046521   -0.532715
  C     -0.016669    1.154752   -0.062392
  C     -1.329531    1.741986    0.478113
  C     -1.314314    3.242683    0.858180
  C     -0.057543    3.600042    1.630524
  C      1.073311    3.067919    1.196368
  C      2.506775    2.777277    1.582645
  N      2.434538    1.559702    0.708929
  C      1.192989    2.077586    0.070234
  H     -2.121884    1.513523   -0.241346
  H     -1.554411    1.151703    1.375852
  H     -1.393451    3.858956   -0.047929
  H     -2.206897    3.467769    1.449567
  H     -0.121905    4.225034    2.515806
  H      3.217339    3.540659    1.232720
  H      2.714456    2.563415    2.636743
  H      3.217456    1.446773    0.074920
  H      1.352366    2.552395   -0.913983

 Total Charge           Charge          ....    0
 Multiplicity           Mult            ....    1
 Number of Electrons    NEL             ....   66
 Basis Dimension        Dim             ....  333

ORBITAL ENERGIES
----------------

  NO   OCC          E(Eh)            E(eV)
   0   2.0000     -20.539928      -558.9198
   1   2.0000     -15.558092      -423.3572
   2   2.0000     -11.326461      -308.2087
   3   2.0000     -11.271221      -306.7055
   4   2.0000     -11.270670      -306.6905
   5   2.0000     -11.245017      -305.9925
   6   2.0000     -11.243588      -305.9536
   7   2.0000     -11.240238      -305.8624
   8   2.0000     -11.238092      -305.8040
   9   2.0000      -1.384851       -37.6837
  10   2.0000      -1.250049       -34.0156
  11   2.0000      -1.107594       -30.1392
  12   2.0000      -1.010205       -27.4891
  13   2.0000      -0.969221       -26.3738
  14   2.0000      -0.927035       -25.2259
  15   2.0000      -0.843920       -22.9642
  16   2.0000      -0.777568       -21.1587
  17   2.0000      -0.703563       -19.1449
  18   2.0000      -0.687439       -18.7062
  19   2.0000      -0.662075       -18.0160
  20   2.0000      -0.641774       -17.4636
  21   2.0000      -0.624269       -16.9872
  22   2.0000      -0.588068       -16.0021
  23   2.0000      -0.574886       -15.6434
  24   2.0000      -0.560973       -15.2649
  25   2.0000      -0.535184       -14.5631
  26   2.0000      -0.527754       -14.3609
  27   2.0000      -0.507572       -13.8117
  28   2.0000      -0.492456       -13.4004
  29   2.0000      -0.458516       -12.4769
  30   2.0000      -0.416193       -11.3252
  31   2.0000      -0.396661       -10.7937
  32   2.0000      -0.349100        -9.4995
  33   0.0000       0.113905         3.0995
  34   0.0000       0.128129         3.4866
  35   0.0000       0.145417         3.9570
  36   0.0000       0.157411         4.2834
  37   0.0000       0.166428         4.5287

MULLIKEN ATOMIC CHARGES
-----------------------
   0 O :   -0.272943
   1 C :    0.112750
   2 C :   -0.231516
   3 C :   -0.192783
   4 C :   -0.190356
   5 C :   -0.083019
   6 C :   -0.119318
   7 N :   -0.337513
   8 C :    0.073775
   9 H :    0.144649
  10 H :    0.142829
  11 H :    0.125547
  12 H :    0.133476
  13 H :    0.133519
  14 H :    0.120359
  15 H :    0.119189
  16 H :    0.207632
  17 H :    0.113724
Sum of atomic charges:   -0.0000000

LOEWDIN ATOMIC CHARGES
----------------------
   0 O :    0.160761
   1 C :   -0.295684
   2 C :   -0.222124
   3 C :   -0.241658
   4 C :   -0.144454
   5 C :   -0.148960
   6 C :   -0.223435
   7 N :    0.009915
   8 C :   -0.204997
   9 H :    0.150420
  10 H :    0.161175
  11 H :    0.145123
  12 H :    0.142882
  13 H :    0.142400
  14 H :    0.127284
  15 H :    0.127793
  16 H :    0.157080
  17 H :    0.156480

  Mayer bond orders larger than 0.1
B(  0-O ,  1-C ) :   2.0259 B(  1-C ,  2-C ) :   0.9098 B(  1-C ,  8-C ) :   0.8434
B(  2-C ,  3-C ) :   0.9182 B(  2-C ,  9-H ) :   0.9186 B(  2-C , 10-H ) :   0.9078
B(  3-C ,  4-C ) :   0.9314 B(  3-C , 11-H ) :   0.9171 B(  3-C , 12-H ) :   0.9340
B(  4-C ,  5-C ) :   1.7546 B(  4-C , 13-H ) :   0.9240 B(  5-C ,  6-C ) :   0.9125
B(  5-C ,  8-C ) :   0.9173 B(  6-C ,  7-N ) :   0.9565 B(  6-C , 14-H ) :   0.9068
B(  6-C , 15-H ) :   0.9134 B(  7-N ,  8-C ) :   1.0137 B(  7-N , 16-H ) :   0.8766
B(  8-C , 17-H ) :   0.8848

MP2 TOTAL ENERGY:     -401.239999254 Eh
FINAL SINGLE POINT ENERGY      -401.239999254040

DIPOLE MOMENT
-------------
                                X             Y             Z
Electronic contribution:      1.39213      -3.63597      -1.95754
Nuclear contribution   :     -1.38463       5.00907       2.17265
                        -----------------------------------------
Total Dipole Moment    :      0.00750       1.37310       0.21511
                        -----------------------------------------
Magnitude (a.u.)       :      1.38987
Magnitude (Debye)      :      3.53277

                             ****ORCA TERMINATED NORMALLY****
TOTAL RUN TIME: 0 days 0 hours 19 minutes 35 seconds 947 msec
