                         Program Version 3.0.3 - RELEASE   -
|  1> ! RI-MP2 RIJK def2-TZVP def2-TZVP/C def2-TZVP/JK TIGHTSCF
|  2> % maxcore 2000
|  3> % mp2 density relaxed end
|  4> *xyz 0 1
|  5>  O        0.1272797251     1.2318764218    -0.5605971960
|  6>  C        0.0240748743    -0.0521901283     0.0308854677
|  7>  C        0.5230184079    -0.1209735661     1.5033922795
|  8>  C       -0.4082170271    -1.1125255733     2.2457118792
|  9>  C       -1.7121483711    -1.1606319531     1.4271652181
| 10>  C       -2.7986813199    -0.0911249905     1.5974245251
| 11>  C       -2.3398210661     1.2932891225     1.3732184538
| 12>  N       -2.5854073941     0.4601124908     0.1861761171
| 13>  C       -1.4435790076    -0.5283351015     0.0406012242
| 14>  H        1.0607094449     1.4580884419    -0.6181788832
| 15>  H        0.5901059384    -0.7870337300    -0.5638591335
| 16>  H        1.5722141340    -0.4295681968     1.5584018529
| 17>  H        0.4696493604     0.8798612053     1.9415672568
| 18>  H        0.0436962966    -2.1101504251     2.2662270965
| 19>  H       -0.5748355746    -0.8193316654     3.2867176130
| 20>  H       -2.1477246545    -2.1604949576     1.3925697628
| 21>  H       -3.7992868600    -0.3018758011     1.9635331116
| 22>  H       -3.0954138070     2.0674775718     1.4777748698
| 23>  H       -1.3390210231     1.6278842208     1.6097743644
| 24>  H       -1.6651946965    -1.1528441662    -0.8255007898
| 25> *
| 26>
| 27>                          ****END OF INPUT****

CARTESIAN COORDINATES (ANGSTROEM)
---------------------------------
  O      0.127280    1.231876   -0.560597
  C      0.024075   -0.052190    0.030885
  C      0.523018   -0.120974    1.503392
  C     -0.408217   -1.112526    2.245712
  C     -1.712148   -1.160632    1.427165
  C     -2.798681   -0.091125    1.597425
  C     -2.339821    1.293289    1.373218
  N     -2.585407    0.460112    0.186176
  C     -1.443579   -0.528335    0.040601
  H      1.060709    1.458088   -0.618179
  H      0.590106   -0.787034   -0.563859
  H      1.572214   -0.429568    1.558402
  H      0.469649    0.879861    1.941567
  H      0.043696   -2.110150    2.266227
  H     -0.574836   -0.819332    3.286718
  H     -2.147725   -2.160495    1.392570
  H     -3.799287   -0.301876    1.963533
  H     -3.095414    2.067478    1.477775
  H     -1.339021    1.627884    1.609774
  H     -1.665195   -1.152844   -0.825501

 Total Charge           Charge          ....    0
 Multiplicity           Mult            ....    1
 Number of Electrons    NEL             ....   68
 Basis Dimension        Dim             ....  345

ORBITAL ENERGIES
----------------

  NO   OCC          E(Eh)            E(eV)
   0   2.0000     -20.556877      -559.3810
   1   2.0000     -15.550335      -423.1461
   2   2.0000     -11.282113      -307.0019
   3   2.0000     -11.254650      -306.2546
   4   2.0000     -11.250965      -306.1543
   5   2.0000     -11.246236      -306.0256
   6   2.0000     -11.231637      -305.6284
   7   2.0000     -11.227079      -305.5044
   8   2.0000     -11.225169      -305.4524
   9   2.0000      -1.363903       -37.1137
  10   2.0000      -1.277469       -34.7617
  11   2.0000      -1.094956       -29.7953
  12   2.0000      -0.977560       -26.6008
  13   2.0000      -0.970713       -26.4145
  14   2.0000      -0.873479       -23.7686
  15   2.0000      -0.834704       -22.7134
  16   2.0000      -0.776162       -21.1204
  17   2.0000      -0.718903       -19.5623
  18   2.0000      -0.709910       -19.3176
  19   2.0000      -0.682376       -18.5684
  20   2.0000      -0.641200       -17.4479
  21   2.0000      -0.612609       -16.6699
  22   2.0000      -0.589987       -16.0544
  23   2.0000      -0.576762       -15.6945
  24   2.0000      -0.560982       -15.2651
  25   2.0000      -0.527807       -14.3623
  26   2.0000      -0.513697       -13.9784
  27   2.0000      -0.505994       -13.7688
  28   2.0000      -0.481090       -13.0911
  29   2.0000      -0.455837       -12.4039
  30   2.0000      -0.446214       -12.1421
  31   2.0000      -0.422975       -11.5097
  32   2.0000      -0.399951       -10.8832
  33   2.0000      -0.356950        -9.7131
  34   0.0000       0.128560         3.4983
  35   0.0000       0.140606         3.8261
  36   0.0000       0.158566         4.3148
  37   0.0000       0.175478         4.7750
  38   0.0000       0.189605         5.1594

MULLIKEN ATOMIC CHARGES
-----------------------
   0 O :   -0.443234
   1 C :   -0.007577
   2 C :   -0.283536
   3 C :   -0.240810
   4 C :   -0.079105
   5 C :   -0.110871
   6 C :   -0.137129
   7 N :   -0.241819
   8 C :    0.062322
   9 H :    0.313737
  10 H :    0.084301
  11 H :    0.123018
  12 H :    0.123837
  13 H :    0.119114
  14 H :    0.119873
  15 H :    0.114350
  16 H :    0.122509
  17 H :    0.125422
  18 H :    0.119141
  19 H :    0.116457
Sum of atomic charges:    0.0000000

LOEWDIN ATOMIC CHARGES
----------------------
   0 O :   -0.010935
   1 C :   -0.323020
   2 C :   -0.249988
   3 C :   -0.234243
   4 C :   -0.196680
   5 C :   -0.194579
   6 C :   -0.248261
   7 N :    0.119253
   8 C :   -0.194343
   9 H :    0.175128
  10 H :    0.136631
  11 H :    0.130177
  12 H :    0.133571
  13 H :    0.137140
  14 H :    0.138470
  15 H :    0.149054
  16 H :    0.130588
  17 H :    0.134123
  18 H :    0.124816
  19 H :    0.143098

  Mayer bond orders larger than 0.1
B(  0-O ,  1-C ) :   1.0779 B(  0-O ,  9-H ) :   0.8456 B(  1-C ,  2-C ) :   0.9085
B(  1-C ,  8-C ) :   0.8900 B(  1-C , 10-H ) :   0.9385 B(  2-C ,  3-C ) :   0.9306
B(  2-C , 11-H ) :   0.9277 B(  2-C , 12-H ) :   0.9320 B(  3-C ,  4-C ) :   0.9188
B(  3-C , 13-H ) :   0.9268 B(  3-C , 14-H ) :   0.9218 B(  4-C ,  5-C ) :   0.9169
B(  4-C ,  8-C ) :   0.9609 B(  4-C , 15-H ) :   0.9284 B(  5-C ,  6-C ) :   0.9649
B(  5-C ,  7-N ) :   0.8580 B(  5-C , 16-H ) :   0.9046 B(  6-C ,  7-N ) :   0.9018
B(  6-C , 17-H ) :   0.9308 B(  6-C , 18-H ) :   0.8958 B(  7-N ,  8-C ) :   0.9535
B(  8-C , 19-H ) :   0.9193

MP2 TOTAL ENERGY:     -402.414412750 Eh
FINAL SINGLE POINT ENERGY      -402.414412749857

DIPOLE MOMENT
-------------
                                X             Y             Z
Electronic contribution:     -2.38279       1.34792      -3.23741
Nuclear contribution   :      3.30694      -1.85834       3.89567
                        -----------------------------------------
Total Dipole Moment    :      0.92415      -0.51042       0.65826
                        -----------------------------------------
Magnitude (a.u.)       :      1.24414
Magnitude (Debye)      :      3.16235

                             ****ORCA TERMINATED NORMALLY****
TOTAL RUN TIME: 0 days 0 hours 20 minutes 47 seconds 508 msec
