                         Program Version 3.0.3 - RELEASE   -
|  1> ! RI-MP2 RIJK def2-TZVP def2-TZVP/C def2-TZVP/JK TIGHTSCF
|  2> % maxcore 2000
|  3> % mp2 density relaxed end
|  4> *xyz 0 1
|  5>  N       -0.0640525032     1.3247987978     0.0096653665
|  6>  C       -0.0236649030     0.0688591692     0.0029546381
|  7>  O        1.0814535630    -0.7383127809    -0.0063968979
|  8>  C        0.7197448751    -2.1409132694    -0.0119931899
|  9>  C       -0.7744660584    -2.0938712876    -0.0047582646
| 10>  N       -1.7955972750    -2.9020512952    -0.0041891772
| 11>  C       -2.8928912338    -2.0460591665     0.0054532141
| 12>  C       -2.5124904696    -0.7282019673     0.0104559511
| 13>  N       -1.1339124015    -0.7782695859     0.0037480872
| 14>  H        0.8749383042     1.7185159061     0.0073244215
| 15>  H        1.1407043653    -2.6095300018    -0.9071700797
| 16>  H        1.1490403316    -2.6187927226     0.8742837264
| 17>  H       -3.8984730212    -2.4380664350     0.0081594650
| 18>  H       -3.0543041234     0.2008975492     0.0178045995
| 19> *
| 20>
| 21>                          ****END OF INPUT****

CARTESIAN COORDINATES (ANGSTROEM)
---------------------------------
  N     -0.064053    1.324799    0.009665
  C     -0.023665    0.068859    0.002955
  O      1.081454   -0.738313   -0.006397
  C      0.719745   -2.140913   -0.011993
  C     -0.774466   -2.093871   -0.004758
  N     -1.795597   -2.902051   -0.004189
  C     -2.892891   -2.046059    0.005453
  C     -2.512490   -0.728202    0.010456
  N     -1.133912   -0.778270    0.003748
  H      0.874938    1.718516    0.007324
  H      1.140704   -2.609530   -0.907170
  H      1.149040   -2.618793    0.874284
  H     -3.898473   -2.438066    0.008159
  H     -3.054304    0.200898    0.017805

 Total Charge           Charge          ....    0
 Multiplicity           Mult            ....    1
 Number of Electrons    NEL             ....   64
 Basis Dimension        Dim             ....  309

ORBITAL ENERGIES
----------------

  NO   OCC          E(Eh)            E(eV)
   0   2.0000     -20.627572      -561.3048
   1   2.0000     -15.643887      -425.6918
   2   2.0000     -15.568677      -423.6452
   3   2.0000     -15.550784      -423.1583
   4   2.0000     -11.401451      -310.2492
   5   2.0000     -11.334105      -308.4167
   6   2.0000     -11.324683      -308.1603
   7   2.0000     -11.279121      -306.9205
   8   2.0000     -11.266907      -306.5881
   9   2.0000      -1.480234       -40.2792
  10   2.0000      -1.362426       -37.0735
  11   2.0000      -1.240624       -33.7591
  12   2.0000      -1.186393       -32.2834
  13   2.0000      -1.061895       -28.8956
  14   2.0000      -0.992549       -27.0086
  15   2.0000      -0.881660       -23.9912
  16   2.0000      -0.836962       -22.7749
  17   2.0000      -0.792740       -21.5715
  18   2.0000      -0.721955       -19.6454
  19   2.0000      -0.711761       -19.3680
  20   2.0000      -0.692157       -18.8346
  21   2.0000      -0.641880       -17.4664
  22   2.0000      -0.628691       -17.1076
  23   2.0000      -0.614881       -16.7318
  24   2.0000      -0.602374       -16.3914
  25   2.0000      -0.573665       -15.6102
  26   2.0000      -0.551276       -15.0010
  27   2.0000      -0.474984       -12.9250
  28   2.0000      -0.455383       -12.3916
  29   2.0000      -0.450671       -12.2634
  30   2.0000      -0.397958       -10.8290
  31   2.0000      -0.338661        -9.2154
  32   0.0000       0.118086         3.2133
  33   0.0000       0.134297         3.6544
  34   0.0000       0.160599         4.3701
  35   0.0000       0.176148         4.7932
  36   0.0000       0.180974         4.9246

MULLIKEN ATOMIC CHARGES
-----------------------
   0 N :   -0.385999
   1 C :    0.224705
   2 O :   -0.260349
   3 C :   -0.003317
   4 C :    0.043383
   5 N :   -0.264051
   6 C :   -0.065975
   7 C :   -0.127440
   8 N :   -0.012021
   9 H :    0.240883
  10 H :    0.147124
  11 H :    0.147125
  12 H :    0.143469
  13 H :    0.172463
Sum of atomic charges:    0.0000000

LOEWDIN ATOMIC CHARGES
----------------------
   0 N :   -0.051298
   1 C :   -0.430550
   2 O :    0.235216
   3 C :   -0.209925
   4 C :   -0.294370
   5 N :    0.113808
   6 C :   -0.229858
   7 C :   -0.185546
   8 N :    0.306080
   9 H :    0.178784
  10 H :    0.142568
  11 H :    0.142568
  12 H :    0.136071
  13 H :    0.146451

  Mayer bond orders larger than 0.1
B(  0-N ,  1-C ) :   1.9897 B(  0-N ,  9-H ) :   0.8459 B(  1-C ,  2-O ) :   1.0960
B(  1-C ,  8-N ) :   0.9577 B(  2-O ,  3-C ) :   0.8816 B(  3-C ,  4-C ) :   0.9661
B(  3-C , 10-H ) :   0.9170 B(  3-C , 11-H ) :   0.9170 B(  4-C ,  5-N ) :   1.6596
B(  4-C ,  8-N ) :   1.1148 B(  5-N ,  6-C ) :   1.2066 B(  6-C ,  7-C ) :   1.5245
B(  6-C , 12-H ) :   0.9373 B(  7-C ,  8-N ) :   1.0785 B(  7-C , 13-H ) :   0.9159

MP2 TOTAL ENERGY:     -432.189275743 Eh
FINAL SINGLE POINT ENERGY      -432.189275742806

DIPOLE MOMENT
-------------
                                X             Y             Z
Electronic contribution:      0.40626       0.28390      -0.00046
Nuclear contribution   :      0.06306      -0.27750      -0.00169
                        -----------------------------------------
Total Dipole Moment    :      0.46931       0.00640      -0.00215
                        -----------------------------------------
Magnitude (a.u.)       :      0.46936
Magnitude (Debye)      :      1.19303

                             ****ORCA TERMINATED NORMALLY****
TOTAL RUN TIME: 0 days 0 hours 14 minutes 35 seconds 667 msec
