                         Program Version 3.0.3 - RELEASE   -
|  1> ! RI-MP2 RIJK def2-TZVP def2-TZVP/C def2-TZVP/JK TIGHTSCF
|  2> % maxcore 2000
|  3> % mp2 density relaxed end
|  4> *xyz 0 1
|  5>  C       -0.6103669763     1.2828213833     0.1446990910
|  6>  C        0.4993400689     0.2461724267    -0.1101100491
|  7>  C        1.0461115146    -0.3270276066     1.1155067646
|  8>  C        1.4757215253    -0.7851946620     2.1454006846
|  9>  C        2.0346466634    -1.3418409676     3.3532819638
| 10>  C        3.4711980684    -0.9589865532     3.6558357533
| 11>  C        1.0914775915    -1.6460541973     4.4739281944
| 12>  N        1.6813661539    -2.7449193788     3.6985874790
| 13>  H       -0.2335703436     2.1151710147     0.7451644852
| 14>  H       -0.9848331727     1.6819275576    -0.8027313528
| 15>  H       -1.4478489799     0.8311562911     0.6834064417
| 16>  H        0.1093426901    -0.5593066114    -0.7460037708
| 17>  H        1.3112040683     0.7119317031    -0.6834985591
| 18>  H        3.5640106020     0.1234288572     3.7874614571
| 19>  H        3.8054991781    -1.4588076633     4.5682698637
| 20>  H        4.1299185936    -1.2616286288     2.8363561002
| 21>  H        1.4487100632    -1.5652808349     5.4974250735
| 22>  H        0.0422627339    -1.4044584135     4.3332652991
| 23>  H        1.0007696872    -3.0908159963     3.0265708506
| 24> *
| 25>
| 26>                          ****END OF INPUT****

CARTESIAN COORDINATES (ANGSTROEM)
---------------------------------
  C     -0.610367    1.282821    0.144699
  C      0.499340    0.246172   -0.110110
  C      1.046112   -0.327028    1.115507
  C      1.475722   -0.785195    2.145401
  C      2.034647   -1.341841    3.353282
  C      3.471198   -0.958987    3.655836
  C      1.091478   -1.646054    4.473928
  N      1.681366   -2.744919    3.698587
  H     -0.233570    2.115171    0.745164
  H     -0.984833    1.681928   -0.802731
  H     -1.447849    0.831156    0.683406
  H      0.109343   -0.559307   -0.746004
  H      1.311204    0.711932   -0.683499
  H      3.564011    0.123429    3.787461
  H      3.805499   -1.458808    4.568270
  H      4.129919   -1.261629    2.836356
  H      1.448710   -1.565281    5.497425
  H      0.042263   -1.404458    4.333265
  H      1.000770   -3.090816    3.026571

 Total Charge           Charge          ....    0
 Multiplicity           Mult            ....    1
 Number of Electrons    NEL             ....   60
 Basis Dimension        Dim             ....  314

ORBITAL ENERGIES
----------------

  NO   OCC          E(Eh)            E(eV)
   0   2.0000     -15.560178      -423.4140
   1   2.0000     -11.284891      -307.0775
   2   2.0000     -11.258335      -306.3549
   3   2.0000     -11.252931      -306.2078
   4   2.0000     -11.226519      -305.4891
   5   2.0000     -11.226240      -305.4815
   6   2.0000     -11.220150      -305.3158
   7   2.0000     -11.218848      -305.2804
   8   2.0000      -1.267249       -34.4836
   9   2.0000      -1.079666       -29.3792
  10   2.0000      -1.019852       -27.7516
  11   2.0000      -0.975799       -26.5528
  12   2.0000      -0.885490       -24.0954
  13   2.0000      -0.877851       -23.8875
  14   2.0000      -0.819966       -22.3124
  15   2.0000      -0.720665       -19.6103
  16   2.0000      -0.650409       -17.6985
  17   2.0000      -0.627447       -17.0737
  18   2.0000      -0.620144       -16.8750
  19   2.0000      -0.578940       -15.7537
  20   2.0000      -0.559685       -15.2298
  21   2.0000      -0.553454       -15.0603
  22   2.0000      -0.537021       -14.6131
  23   2.0000      -0.523393       -14.2422
  24   2.0000      -0.513656       -13.9773
  25   2.0000      -0.487598       -13.2682
  26   2.0000      -0.469077       -12.7642
  27   2.0000      -0.425343       -11.5742
  28   2.0000      -0.373300       -10.1580
  29   2.0000      -0.345998        -9.4151
  30   0.0000       0.127466         3.4685
  31   0.0000       0.155265         4.2250
  32   0.0000       0.163225         4.4416
  33   0.0000       0.173750         4.7280
  34   0.0000       0.181560         4.9405

MULLIKEN ATOMIC CHARGES
-----------------------
   0 C :   -0.358894
   1 C :   -0.305824
   2 C :    0.070171
   3 C :    0.011186
   4 C :   -0.060819
   5 C :   -0.394673
   6 C :   -0.156585
   7 N :   -0.360991
   8 H :    0.131239
   9 H :    0.132788
  10 H :    0.127833
  11 H :    0.141667
  12 H :    0.143698
  13 H :    0.130315
  14 H :    0.138629
  15 H :    0.132487
  16 H :    0.123771
  17 H :    0.130519
  18 H :    0.223482
Sum of atomic charges:   -0.0000000

LOEWDIN ATOMIC CHARGES
----------------------
   0 C :   -0.300016
   1 C :   -0.278572
   2 C :   -0.067559
   3 C :   -0.051603
   4 C :   -0.321904
   5 C :   -0.250751
   6 C :   -0.232199
   7 N :    0.013101
   8 H :    0.124293
   9 H :    0.121069
  10 H :    0.123472
  11 H :    0.153290
  12 H :    0.154081
  13 H :    0.129172
  14 H :    0.132010
  15 H :    0.130883
  16 H :    0.126565
  17 H :    0.125274
  18 H :    0.169394

  Mayer bond orders larger than 0.1
B(  0-C ,  1-C ) :   0.9392 B(  0-C ,  8-H ) :   0.9352 B(  0-C ,  9-H ) :   0.9394
B(  0-C , 10-H ) :   0.9356 B(  1-C ,  2-C ) :   0.9374 B(  1-C , 11-H ) :   0.9385
B(  1-C , 12-H ) :   0.9450 B(  2-C ,  3-C ) :   2.5705 B(  2-C ,  4-C ) :  -0.1706
B(  3-C ,  4-C ) :   1.1674 B(  4-C ,  5-C ) :   0.9260 B(  4-C ,  6-C ) :   0.9375
B(  4-C ,  7-N ) :   0.9311 B(  5-C , 13-H ) :   0.9373 B(  5-C , 14-H ) :   0.9357
B(  5-C , 15-H ) :   0.9356 B(  6-C ,  7-N ) :   0.9235 B(  6-C , 16-H ) :   0.9167
B(  6-C , 17-H ) :   0.9127 B(  7-N , 18-H ) :   0.8768

MP2 TOTAL ENERGY:     -327.281140006 Eh
FINAL SINGLE POINT ENERGY      -327.281140005783

DIPOLE MOMENT
-------------
                                X             Y             Z
Electronic contribution:      1.24496      -3.84337       1.72940
Nuclear contribution   :     -1.70898       4.36406      -2.07540
                        -----------------------------------------
Total Dipole Moment    :     -0.46402       0.52069      -0.34600
                        -----------------------------------------
Magnitude (a.u.)       :      0.77856
Magnitude (Debye)      :      1.97894

                             ****ORCA TERMINATED NORMALLY****
TOTAL RUN TIME: 0 days 0 hours 12 minutes 21 seconds 380 msec
