                         Program Version 3.0.3 - RELEASE   -
|  1> ! RI-MP2 RIJK def2-TZVP def2-TZVP/C def2-TZVP/JK TIGHTSCF
|  2> % maxcore 2000
|  3> % mp2 density relaxed end
|  4> *xyz 0 1
|  5>  C       -0.1209088561     1.5361827165     0.0355395741
|  6>  C        0.0446029848     0.0427395744    -0.0672099312
|  7>  C        0.0090314598    -0.6047725762    -1.2553568709
|  8>  C        0.0649419056    -2.0370846889    -1.4507747517
|  9>  C        0.7335075461    -2.8913270388    -0.6606964138
| 10>  C        1.6243949751    -2.4206585066     0.4575446485
| 11>  C        0.8144284544    -1.7503805929     1.5578630905
| 12>  O        0.7419375737    -2.1495486726     2.7000419093
| 13>  N        0.1587182624    -0.5868164407     1.1738397121
| 14>  H        0.7640665982     2.0031284887     0.4836793195
| 15>  H       -0.2882726531     1.9802836122    -0.9467251909
| 16>  H       -0.9774646450     1.7947678806     0.6717117867
| 17>  H       -0.1473600199     0.0136534656    -2.1337121461
| 18>  H       -0.4841393223    -2.4285651586    -2.3043715068
| 19>  H        0.6533437650    -3.9611313914    -0.8247412685
| 20>  H        2.1725409942    -3.2418348524     0.9186374458
| 21>  H        2.3452666092    -1.6861066963     0.0724826517
| 22>  H       -0.2200702322    -0.0910522326     1.9699185115
| 23> *
| 24>
| 25>                          ****END OF INPUT****

CARTESIAN COORDINATES (ANGSTROEM)
---------------------------------
  C     -0.120909    1.536183    0.035540
  C      0.044603    0.042740   -0.067210
  C      0.009031   -0.604773   -1.255357
  C      0.064942   -2.037085   -1.450775
  C      0.733508   -2.891327   -0.660696
  C      1.624395   -2.420659    0.457545
  C      0.814428   -1.750381    1.557863
  O      0.741938   -2.149549    2.700042
  N      0.158718   -0.586816    1.173840
  H      0.764067    2.003128    0.483679
  H     -0.288273    1.980284   -0.946725
  H     -0.977465    1.794768    0.671712
  H     -0.147360    0.013653   -2.133712
  H     -0.484139   -2.428565   -2.304372
  H      0.653344   -3.961131   -0.824741
  H      2.172541   -3.241835    0.918637
  H      2.345267   -1.686107    0.072483
  H     -0.220070   -0.091052    1.969919

 Total Charge           Charge          ....    0
 Multiplicity           Mult            ....    1
 Number of Electrons    NEL             ....   66
 Basis Dimension        Dim             ....  333

ORBITAL ENERGIES
----------------

  NO   OCC          E(Eh)            E(eV)
   0   2.0000     -20.524394      -558.4972
   1   2.0000     -15.598499      -424.4567
   2   2.0000     -11.357114      -309.0428
   3   2.0000     -11.299045      -307.4626
   4   2.0000     -11.244795      -305.9864
   5   2.0000     -11.243917      -305.9625
   6   2.0000     -11.240680      -305.8745
   7   2.0000     -11.238434      -305.8133
   8   2.0000     -11.230104      -305.5867
   9   2.0000      -1.390796       -37.8455
  10   2.0000      -1.257261       -34.2118
  11   2.0000      -1.105031       -30.0694
  12   2.0000      -1.068632       -29.0789
  13   2.0000      -0.988887       -26.9090
  14   2.0000      -0.933339       -25.3975
  15   2.0000      -0.854319       -23.2472
  16   2.0000      -0.771148       -20.9840
  17   2.0000      -0.756112       -20.5748
  18   2.0000      -0.686296       -18.6751
  19   2.0000      -0.651455       -17.7270
  20   2.0000      -0.648539       -17.6476
  21   2.0000      -0.614098       -16.7105
  22   2.0000      -0.606322       -16.4989
  23   2.0000      -0.587669       -15.9913
  24   2.0000      -0.578949       -15.7540
  25   2.0000      -0.565923       -15.3996
  26   2.0000      -0.543850       -14.7989
  27   2.0000      -0.526274       -14.3206
  28   2.0000      -0.492891       -13.4122
  29   2.0000      -0.465332       -12.6623
  30   2.0000      -0.436908       -11.8889
  31   2.0000      -0.392582       -10.6827
  32   2.0000      -0.308573        -8.3967
  33   0.0000       0.106632         2.9016
  34   0.0000       0.125807         3.4234
  35   0.0000       0.156831         4.2676
  36   0.0000       0.160995         4.3809
  37   0.0000       0.177140         4.8202

MULLIKEN ATOMIC CHARGES
-----------------------
   0 C :   -0.433436
   1 C :    0.175396
   2 C :   -0.208166
   3 C :   -0.131548
   4 C :   -0.194173
   5 C :   -0.169501
   6 C :    0.233365
   7 O :   -0.332764
   8 N :   -0.289068
   9 H :    0.149670
  10 H :    0.140675
  11 H :    0.142533
  12 H :    0.127426
  13 H :    0.126470
  14 H :    0.135499
  15 H :    0.144641
  16 H :    0.141063
  17 H :    0.241919
Sum of atomic charges:   -0.0000000

LOEWDIN ATOMIC CHARGES
----------------------
   0 C :   -0.268925
   1 C :   -0.239703
   2 C :   -0.165341
   3 C :   -0.172229
   4 C :   -0.153078
   5 C :   -0.213058
   6 C :   -0.424240
   7 O :    0.096027
   8 N :    0.176464
   9 H :    0.132640
  10 H :    0.133903
  11 H :    0.131170
  12 H :    0.153179
  13 H :    0.150485
  14 H :    0.144332
  15 H :    0.154066
  16 H :    0.160920
  17 H :    0.203389

  Mayer bond orders larger than 0.1
B(  0-C ,  1-C ) :   0.8934 B(  0-C ,  9-H ) :   0.9250 B(  0-C , 10-H ) :   0.9432
B(  0-C , 11-H ) :   0.9284 B(  1-C ,  2-C ) :   1.6395 B(  1-C ,  8-N ) :   0.9940
B(  2-C ,  3-C ) :   1.0289 B(  2-C , 12-H ) :   0.9191 B(  3-C ,  4-C ) :   1.7157
B(  3-C , 13-H ) :   0.9235 B(  4-C ,  5-C ) :   0.9088 B(  4-C , 14-H ) :   0.9226
B(  5-C ,  6-C ) :   0.9070 B(  5-C , 15-H ) :   0.9286 B(  5-C , 16-H ) :   0.9062
B(  6-C ,  7-O ) :   1.9992 B(  6-C ,  8-N ) :   1.0787 B(  8-N , 17-H ) :   0.8564

MP2 TOTAL ENERGY:     -401.304801371 Eh
FINAL SINGLE POINT ENERGY      -401.304801371339

DIPOLE MOMENT
-------------
                                X             Y             Z
Electronic contribution:      0.16589      -3.84141       3.79979
Nuclear contribution   :     -0.25605       4.72001      -4.72941
                        -----------------------------------------
Total Dipole Moment    :     -0.09016       0.87860      -0.92963
                        -----------------------------------------
Magnitude (a.u.)       :      1.28229
Magnitude (Debye)      :      3.25933

                             ****ORCA TERMINATED NORMALLY****
TOTAL RUN TIME: 0 days 0 hours 18 minutes 5 seconds 162 msec
