                         Program Version 3.0.3 - RELEASE   -
|  1> ! RI-MP2 RIJK def2-TZVP def2-TZVP/C def2-TZVP/JK TIGHTSCF
|  2> % maxcore 2000
|  3> % mp2 density relaxed end
|  4> *xyz 0 1
|  5>  C        0.0855183025     1.5424914733     0.0655167274
|  6>  C       -0.0208748979     0.0167579526     0.0504556571
|  7>  O        0.6320793207    -0.5358805739     1.1926279073
|  8>  C       -1.4707440830    -0.5112360014    -0.0688914822
|  9>  C       -2.1950333985     0.0656721749    -1.2944618412
| 10>  C       -1.4607419752    -2.0516205085    -0.0798942987
| 11>  C       -2.8424450031    -2.6760611419     0.2021299247
| 12>  C       -2.8025229269    -4.1369979182     0.2049645617
| 13>  N       -2.7567864578    -5.2917472492     0.2019711278
| 14>  H        1.1233554569     1.8317075026     0.2503921315
| 15>  H       -0.2301960798     1.9881352760    -0.8809438638
| 16>  H       -0.5367453384     1.9707384616     0.8623995756
| 17>  H        0.5539997209    -0.3709024832    -0.8013942715
| 18>  H        0.2512877717    -0.1226419211     1.9758159036
| 19>  H       -2.0028740984    -0.1785712395     0.8377392921
| 20>  H       -3.1926406318    -0.3671996851    -1.4140263315
| 21>  H       -2.3244085041     1.1481755962    -1.2214374918
| 22>  H       -1.6340384132    -0.1457754354    -2.2126456663
| 23>  H       -1.0978037108    -2.4097097871    -1.0510420618
| 24>  H       -0.7522575303    -2.4037140831     0.6730312334
| 25>  H       -3.2167363093    -2.3402119575     1.1768374054
| 26>  H       -3.5818020842    -2.3601771219    -0.5419137891
| 27> *
| 28>
| 29>                          ****END OF INPUT****

CARTESIAN COORDINATES (ANGSTROEM)
---------------------------------
  C      0.085518    1.542491    0.065517
  C     -0.020875    0.016758    0.050456
  O      0.632079   -0.535881    1.192628
  C     -1.470744   -0.511236   -0.068891
  C     -2.195033    0.065672   -1.294462
  C     -1.460742   -2.051621   -0.079894
  C     -2.842445   -2.676061    0.202130
  C     -2.802523   -4.136998    0.204965
  N     -2.756786   -5.291747    0.201971
  H      1.123355    1.831708    0.250392
  H     -0.230196    1.988135   -0.880944
  H     -0.536745    1.970738    0.862400
  H      0.554000   -0.370902   -0.801394
  H      0.251288   -0.122642    1.975816
  H     -2.002874   -0.178571    0.837739
  H     -3.192641   -0.367200   -1.414026
  H     -2.324409    1.148176   -1.221437
  H     -1.634038   -0.145775   -2.212646
  H     -1.097804   -2.409710   -1.051042
  H     -0.752258   -2.403714    0.673031
  H     -3.216736   -2.340212    1.176837
  H     -3.581802   -2.360177   -0.541914

 Total Charge           Charge          ....    0
 Multiplicity           Mult            ....    1
 Number of Electrons    NEL             ....   70
 Basis Dimension        Dim             ....  357

ORBITAL ENERGIES
----------------

  NO   OCC          E(Eh)            E(eV)
   0   2.0000     -20.563340      -559.5569
   1   2.0000     -15.563270      -423.4981
   2   2.0000     -11.292168      -307.2755
   3   2.0000     -11.279919      -306.9422
   4   2.0000     -11.268318      -306.6265
   5   2.0000     -11.248565      -306.0890
   6   2.0000     -11.243421      -305.9490
   7   2.0000     -11.233284      -305.6732
   8   2.0000     -11.229387      -305.5672
   9   2.0000      -1.370701       -37.2987
  10   2.0000      -1.213678       -33.0259
  11   2.0000      -1.117038       -30.3962
  12   2.0000      -1.052376       -28.6366
  13   2.0000      -0.993032       -27.0218
  14   2.0000      -0.927183       -25.2299
  15   2.0000      -0.859934       -23.4000
  16   2.0000      -0.799461       -21.7544
  17   2.0000      -0.705529       -19.1984
  18   2.0000      -0.671081       -18.2610
  19   2.0000      -0.658415       -17.9164
  20   2.0000      -0.649433       -17.6720
  21   2.0000      -0.622365       -16.9354
  22   2.0000      -0.608307       -16.5529
  23   2.0000      -0.579100       -15.7581
  24   2.0000      -0.555533       -15.1168
  25   2.0000      -0.553097       -15.0505
  26   2.0000      -0.549137       -14.9428
  27   2.0000      -0.536766       -14.6061
  28   2.0000      -0.524952       -14.2847
  29   2.0000      -0.505479       -13.7548
  30   2.0000      -0.490722       -13.3532
  31   2.0000      -0.469986       -12.7890
  32   2.0000      -0.457921       -12.4607
  33   2.0000      -0.451899       -12.2968
  34   2.0000      -0.435222       -11.8430
  35   0.0000       0.115626         3.1463
  36   0.0000       0.133653         3.6369
  37   0.0000       0.140063         3.8113
  38   0.0000       0.159116         4.3298
  39   0.0000       0.172598         4.6966

MULLIKEN ATOMIC CHARGES
-----------------------
   0 C :   -0.416539
   1 C :    0.114982
   2 O :   -0.467089
   3 C :   -0.078751
   4 C :   -0.444910
   5 C :   -0.230182
   6 C :   -0.132395
   7 C :   -0.185734
   8 N :   -0.058613
   9 H :    0.156665
  10 H :    0.137552
  11 H :    0.119603
  12 H :    0.094676
  13 H :    0.311275
  14 H :    0.075465
  15 H :    0.133858
  16 H :    0.145110
  17 H :    0.135402
  18 H :    0.126400
  19 H :    0.161714
  20 H :    0.153444
  21 H :    0.148066
Sum of atomic charges:   -0.0000000

LOEWDIN ATOMIC CHARGES
----------------------
   0 C :   -0.303686
   1 C :   -0.348490
   2 O :   -0.020046
   3 C :   -0.273488
   4 C :   -0.288771
   5 C :   -0.226022
   6 C :   -0.246081
   7 C :   -0.193842
   8 N :    0.052800
   9 H :    0.129329
  10 H :    0.126437
  11 H :    0.122464
  12 H :    0.147989
  13 H :    0.174043
  14 H :    0.149862
  15 H :    0.122657
  16 H :    0.124696
  17 H :    0.128397
  18 H :    0.146619
  19 H :    0.152508
  20 H :    0.162788
  21 H :    0.159837

  Mayer bond orders larger than 0.1
B(  0-C ,  1-C ) :   0.9270 B(  0-C ,  9-H ) :   0.9420 B(  0-C , 10-H ) :   0.9343
B(  0-C , 11-H ) :   0.9203 B(  1-C ,  2-O ) :   0.8988 B(  1-C ,  3-C ) :   0.9325
B(  1-C , 12-H ) :   0.9145 B(  2-O , 13-H ) :   0.8423 B(  3-C ,  4-C ) :   0.8942
B(  3-C ,  5-C ) :   0.8992 B(  3-C , 14-H ) :   0.9172 B(  4-C , 15-H ) :   0.9375
B(  4-C , 16-H ) :   0.9411 B(  4-C , 17-H ) :   0.9304 B(  5-C ,  6-C ) :   0.9144
B(  5-C , 18-H ) :   0.9206 B(  5-C , 19-H ) :   0.9258 B(  6-C ,  7-C ) :   0.9490
B(  6-C , 20-H ) :   0.9062 B(  6-C , 21-H ) :   0.9087 B(  7-C ,  8-N ) :   2.8882

MP2 TOTAL ENERGY:     -403.686193718 Eh
FINAL SINGLE POINT ENERGY      -403.686193717994

DIPOLE MOMENT
-------------
                                X             Y             Z
Electronic contribution:     -1.38491     -11.53977       2.97813
Nuclear contribution   :      1.08323      13.68454      -2.99896
                        -----------------------------------------
Total Dipole Moment    :     -0.30167       2.14478      -0.02083
                        -----------------------------------------
Magnitude (a.u.)       :      2.16599
Magnitude (Debye)      :      5.50551

                             ****ORCA TERMINATED NORMALLY****
TOTAL RUN TIME: 0 days 0 hours 19 minutes 35 seconds 964 msec
