                         Program Version 3.0.3 - RELEASE   -
|  1> ! RI-MP2 RIJK def2-TZVP def2-TZVP/C def2-TZVP/JK TIGHTSCF
|  2> % maxcore 2000
|  3> % mp2 density relaxed end
|  4> *xyz 0 1
|  5>  C       -0.1234924913     1.4119755274     0.6407078014
|  6>  O       -0.1602693250     0.1191473133     0.0897730975
|  7>  C       -1.3726816877    -0.5578278501     0.3606308097
|  8>  C       -1.2774276477    -1.9498177494    -0.2653546347
|  9>  C       -0.1320503152    -2.7656099544     0.3676683808
| 10>  C       -2.5818561710    -2.7131093841    -0.2047080493
| 11>  C       -2.7406388647    -3.9643899985    -1.0286680487
| 12>  N       -3.4957409427    -2.2541112945     0.5616999963
| 13>  O       -4.6458620006    -3.0631622854     0.5440863219
| 14>  H        0.8406524411     1.8546549775     0.3776906858
| 15>  H       -0.9279589737     2.0502588781     0.2412569270
| 16>  H       -0.2183978300     1.3932285512     1.7383138973
| 17>  H       -1.5418064261    -0.6333702971     1.4460305189
| 18>  H       -2.2263746925    -0.0055375721    -0.0600360194
| 19>  H       -1.0345997933    -1.8055354124    -1.3281092885
| 20>  H       -0.0028133029    -3.7328903403    -0.1263252878
| 21>  H        0.8028547566    -2.2074347228     0.2885001341
| 22>  H       -0.3367665867    -2.9512644177     1.4276449635
| 23>  H       -1.8866933274    -4.1182285694    -1.6908050826
| 24>  H       -2.8494196068    -4.8425095140    -0.3833090412
| 25>  H       -3.6546594618    -3.9050703956    -1.6270963325
| 26>  H       -5.2342855704    -2.5887259897     1.1404300905
| 27> *
| 28>
| 29>                          ****END OF INPUT****

CARTESIAN COORDINATES (ANGSTROEM)
---------------------------------
  C     -0.123492    1.411976    0.640708
  O     -0.160269    0.119147    0.089773
  C     -1.372682   -0.557828    0.360631
  C     -1.277428   -1.949818   -0.265355
  C     -0.132050   -2.765610    0.367668
  C     -2.581856   -2.713109   -0.204708
  C     -2.740639   -3.964390   -1.028668
  N     -3.495741   -2.254111    0.561700
  O     -4.645862   -3.063162    0.544086
  H      0.840652    1.854655    0.377691
  H     -0.927959    2.050259    0.241257
  H     -0.218398    1.393229    1.738314
  H     -1.541806   -0.633370    1.446031
  H     -2.226375   -0.005538   -0.060036
  H     -1.034600   -1.805535   -1.328109
  H     -0.002813   -3.732890   -0.126325
  H      0.802855   -2.207435    0.288500
  H     -0.336767   -2.951264    1.427645
  H     -1.886693   -4.118229   -1.690805
  H     -2.849420   -4.842510   -0.383309
  H     -3.654659   -3.905070   -1.627096
  H     -5.234286   -2.588726    1.140430

 Total Charge           Charge          ....    0
 Multiplicity           Mult            ....    1
 Number of Electrons    NEL             ....   72
 Basis Dimension        Dim             ....  357

ORBITAL ENERGIES
----------------

  NO   OCC          E(Eh)            E(eV)
   0   2.0000     -20.586241      -560.1801
   1   2.0000     -20.551807      -559.2431
   2   2.0000     -15.606217      -424.6668
   3   2.0000     -11.276305      -306.8439
   4   2.0000     -11.268239      -306.6244
   5   2.0000     -11.268201      -306.6233
   6   2.0000     -11.238581      -305.8173
   7   2.0000     -11.228103      -305.5322
   8   2.0000     -11.215935      -305.2011
   9   2.0000      -1.413082       -38.4519
  10   2.0000      -1.373410       -37.3724
  11   2.0000      -1.171300       -31.8727
  12   2.0000      -1.052759       -28.6470
  13   2.0000      -0.983015       -26.7492
  14   2.0000      -0.945597       -25.7310
  15   2.0000      -0.890325       -24.2270
  16   2.0000      -0.828053       -22.5325
  17   2.0000      -0.728110       -19.8129
  18   2.0000      -0.693417       -18.8688
  19   2.0000      -0.669102       -18.2072
  20   2.0000      -0.656308       -17.8590
  21   2.0000      -0.645461       -17.5639
  22   2.0000      -0.617019       -16.7899
  23   2.0000      -0.602368       -16.3913
  24   2.0000      -0.585913       -15.9435
  25   2.0000      -0.572604       -15.5813
  26   2.0000      -0.552774       -15.0417
  27   2.0000      -0.548968       -14.9382
  28   2.0000      -0.539741       -14.6871
  29   2.0000      -0.507086       -13.7985
  30   2.0000      -0.492035       -13.3889
  31   2.0000      -0.488307       -13.2875
  32   2.0000      -0.469235       -12.7685
  33   2.0000      -0.426039       -11.5931
  34   2.0000      -0.419064       -11.4033
  35   2.0000      -0.377333       -10.2678
  36   0.0000       0.134339         3.6555
  37   0.0000       0.153092         4.1658
  38   0.0000       0.157050         4.2736
  39   0.0000       0.162965         4.4345
  40   0.0000       0.179906         4.8955

MULLIKEN ATOMIC CHARGES
-----------------------
   0 C :   -0.212657
   1 O :   -0.307868
   2 C :   -0.063683
   3 C :   -0.006442
   4 C :   -0.415348
   5 C :    0.074384
   6 C :   -0.425788
   7 N :   -0.125805
   8 O :   -0.375834
   9 H :    0.136628
  10 H :    0.110191
  11 H :    0.110114
  12 H :    0.100957
  13 H :    0.106310
  14 H :    0.098441
  15 H :    0.130620
  16 H :    0.155891
  17 H :    0.125584
  18 H :    0.139444
  19 H :    0.152600
  20 H :    0.158536
  21 H :    0.333724
Sum of atomic charges:    0.0000000

LOEWDIN ATOMIC CHARGES
----------------------
   0 C :   -0.364096
   1 O :    0.134158
   2 C :   -0.304886
   3 C :   -0.253801
   4 C :   -0.280289
   5 C :   -0.281130
   6 C :   -0.283197
   7 N :    0.022978
   8 O :   -0.074076
   9 H :    0.112381
  10 H :    0.101428
  11 H :    0.100998
  12 H :    0.124413
  13 H :    0.125044
  14 H :    0.164681
  15 H :    0.122034
  16 H :    0.129974
  17 H :    0.126187
  18 H :    0.130019
  19 H :    0.139485
  20 H :    0.139303
  21 H :    0.168394

  Mayer bond orders larger than 0.1
B(  0-C ,  1-O ) :   0.9225 B(  0-C ,  9-H ) :   0.9400 B(  0-C , 10-H ) :   0.9372
B(  0-C , 11-H ) :   0.9368 B(  1-O ,  2-C ) :   0.9443 B(  2-C ,  3-C ) :   0.9593
B(  2-C , 12-H ) :   0.9169 B(  2-C , 13-H ) :   0.9265 B(  3-C ,  4-C ) :   0.8900
B(  3-C ,  5-C ) :   0.9444 B(  3-C , 14-H ) :   0.9149 B(  4-C , 15-H ) :   0.9343
B(  4-C , 16-H ) :   0.9307 B(  4-C , 17-H ) :   0.9323 B(  5-C ,  6-C ) :   0.9271
B(  5-C ,  7-N ) :   1.8061 B(  6-C , 18-H ) :   0.9369 B(  6-C , 19-H ) :   0.9201
B(  6-C , 20-H ) :   0.9220 B(  7-N ,  8-O ) :   0.8077 B(  8-O , 21-H ) :   0.8472

MP2 TOTAL ENERGY:     -440.716150406 Eh
FINAL SINGLE POINT ENERGY      -440.716150405702

DIPOLE MOMENT
-------------
                                X             Y             Z
Electronic contribution:     -5.59296      -0.83059       0.39625
Nuclear contribution   :      5.43700       0.93948      -0.30232
                        -----------------------------------------
Total Dipole Moment    :     -0.15596       0.10889       0.09394
                        -----------------------------------------
Magnitude (a.u.)       :      0.21214
Magnitude (Debye)      :      0.53923

                             ****ORCA TERMINATED NORMALLY****
TOTAL RUN TIME: 0 days 0 hours 17 minutes 43 seconds 2 msec
