                         Program Version 3.0.3 - RELEASE   -
|  1> ! RI-MP2 RIJK def2-TZVP def2-TZVP/C def2-TZVP/JK TIGHTSCF
|  2> % maxcore 2000
|  3> % mp2 density relaxed end
|  4> *xyz 0 1
|  5>  C       -0.0847483736     1.4299994390     0.1469456240
|  6>  N        0.1084752662    -0.0124376177     0.1116686184
|  7>  C        0.4463725454    -0.5597614730    -0.9744555902
|  8>  C        0.6948994421    -2.0529256597    -1.0592793237
|  9>  N        0.2607002208    -2.7055803156    -2.2994546462
| 10>  C       -0.9224250989    -2.1515205571    -2.9711448959
| 11>  C        0.4439743879    -1.8800586251    -3.4907632801
| 12>  C        1.0815566342    -0.5235619212    -3.2890616460
| 13>  O        0.5798489998     0.1546336765    -2.1372431191
| 14>  H        0.6344708126     1.9804024900    -0.4717195778
| 15>  H       -1.0897728834     1.6923374614    -0.2089033854
| 16>  H       -0.0024852895     1.7729127772     1.1817107732
| 17>  H        1.7707955952    -2.2466188859    -0.9571467868
| 18>  H        0.2018789118    -2.5171577029    -0.2036346793
| 19>  H       -1.5517384350    -2.8868394811    -3.4632448776
| 20>  H       -1.4593105313    -1.3335730765    -2.4983893020
| 21>  H        0.8018856328    -2.4084596288    -4.3734531464
| 22>  H        2.1726860188    -0.6355119141    -3.2071555274
| 23>  H        0.8797345340     0.1403634446    -4.1347372517
| 24> *
| 25>
| 26>                          ****END OF INPUT****

CARTESIAN COORDINATES (ANGSTROEM)
---------------------------------
  C     -0.084748    1.429999    0.146946
  N      0.108475   -0.012438    0.111669
  C      0.446373   -0.559761   -0.974456
  C      0.694899   -2.052926   -1.059279
  N      0.260700   -2.705580   -2.299455
  C     -0.922425   -2.151521   -2.971145
  C      0.443974   -1.880059   -3.490763
  C      1.081557   -0.523562   -3.289062
  O      0.579849    0.154634   -2.137243
  H      0.634471    1.980402   -0.471720
  H     -1.089773    1.692337   -0.208903
  H     -0.002485    1.772913    1.181711
  H      1.770796   -2.246619   -0.957147
  H      0.201879   -2.517158   -0.203635
  H     -1.551738   -2.886839   -3.463245
  H     -1.459311   -1.333573   -2.498389
  H      0.801886   -2.408460   -4.373453
  H      2.172686   -0.635512   -3.207156
  H      0.879735    0.140363   -4.134737

 Total Charge           Charge          ....    0
 Multiplicity           Mult            ....    1
 Number of Electrons    NEL             ....   68
 Basis Dimension        Dim             ....  339

ORBITAL ENERGIES
----------------

  NO   OCC          E(Eh)            E(eV)
   0   2.0000     -20.595236      -560.4249
   1   2.0000     -15.573060      -423.7645
   2   2.0000     -15.534599      -422.7179
   3   2.0000     -11.329689      -308.2965
   4   2.0000     -11.304683      -307.6161
   5   2.0000     -11.274048      -306.7824
   6   2.0000     -11.267715      -306.6101
   7   2.0000     -11.263954      -306.5078
   8   2.0000     -11.234766      -305.7135
   9   2.0000      -1.429213       -38.8909
  10   2.0000      -1.286265       -35.0011
  11   2.0000      -1.212433       -32.9920
  12   2.0000      -1.040937       -28.3253
  13   2.0000      -0.980582       -26.6830
  14   2.0000      -0.934909       -25.4402
  15   2.0000      -0.847245       -23.0547
  16   2.0000      -0.833138       -22.6708
  17   2.0000      -0.733577       -19.9616
  18   2.0000      -0.710821       -19.3424
  19   2.0000      -0.697644       -18.9839
  20   2.0000      -0.671727       -18.2786
  21   2.0000      -0.623857       -16.9760
  22   2.0000      -0.607176       -16.5221
  23   2.0000      -0.595455       -16.2032
  24   2.0000      -0.579288       -15.7632
  25   2.0000      -0.568740       -15.4762
  26   2.0000      -0.544696       -14.8219
  27   2.0000      -0.525971       -14.3124
  28   2.0000      -0.511145       -13.9090
  29   2.0000      -0.476938       -12.9781
  30   2.0000      -0.455732       -12.4011
  31   2.0000      -0.412675       -11.2295
  32   2.0000      -0.381492       -10.3809
  33   2.0000      -0.372728       -10.1425
  34   0.0000       0.134692         3.6652
  35   0.0000       0.153400         4.1742
  36   0.0000       0.166386         4.5276
  37   0.0000       0.171798         4.6749
  38   0.0000       0.182790         4.9740

MULLIKEN ATOMIC CHARGES
-----------------------
   0 C :   -0.281713
   1 N :   -0.239068
   2 C :    0.105470
   3 C :   -0.109862
   4 N :   -0.215549
   5 C :   -0.207868
   6 C :   -0.055716
   7 C :   -0.066158
   8 O :   -0.270684
   9 H :    0.125080
  10 H :    0.130963
  11 H :    0.139197
  12 H :    0.136768
  13 H :    0.148233
  14 H :    0.133238
  15 H :    0.147130
  16 H :    0.127097
  17 H :    0.117986
  18 H :    0.135454
Sum of atomic charges:   -0.0000000

LOEWDIN ATOMIC CHARGES
----------------------
   0 C :   -0.335731
   1 N :    0.071593
   2 C :   -0.390534
   3 C :   -0.249492
   4 N :    0.113214
   5 C :   -0.233482
   6 C :   -0.267372
   7 C :   -0.274229
   8 O :    0.243668
   9 H :    0.110189
  10 H :    0.117456
  11 H :    0.114136
  12 H :    0.148188
  13 H :    0.153361
  14 H :    0.128149
  15 H :    0.134048
  16 H :    0.145527
  17 H :    0.132635
  18 H :    0.138677

  Mayer bond orders larger than 0.1
B(  0-C ,  1-N ) :   0.8709 B(  0-C ,  9-H ) :   0.9289 B(  0-C , 10-H ) :   0.9299
B(  0-C , 11-H ) :   0.9437 B(  1-N ,  2-C ) :   2.0034 B(  2-C ,  3-C ) :   0.9007
B(  2-C ,  8-O ) :   1.0136 B(  3-C ,  4-N ) :   0.9328 B(  3-C , 12-H ) :   0.9211
B(  3-C , 13-H ) :   0.9252 B(  4-N ,  5-C ) :   0.8906 B(  4-N ,  6-C ) :   0.8969
B(  5-C ,  6-C ) :   0.9366 B(  5-C , 14-H ) :   0.9261 B(  5-C , 15-H ) :   0.9106
B(  6-C ,  7-C ) :   0.9454 B(  6-C , 16-H ) :   0.9074 B(  7-C ,  8-O ) :   0.9000
B(  7-C , 17-H ) :   0.9306 B(  7-C , 18-H ) :   0.9240

MP2 TOTAL ENERGY:     -418.472292819 Eh
FINAL SINGLE POINT ENERGY      -418.472292818994

DIPOLE MOMENT
-------------
                                X             Y             Z
Electronic contribution:      0.71879      -2.01250      -0.36028
Nuclear contribution   :     -0.51811       2.22122      -0.61013
                        -----------------------------------------
Total Dipole Moment    :      0.20068       0.20872      -0.97041
                        -----------------------------------------
Magnitude (a.u.)       :      1.01269
Magnitude (Debye)      :      2.57404

                             ****ORCA TERMINATED NORMALLY****
TOTAL RUN TIME: 0 days 0 hours 18 minutes 10 seconds 352 msec
