                         Program Version 3.0.3 - RELEASE   -
|  1> ! RI-MP2 RIJK def2-TZVP def2-TZVP/C def2-TZVP/JK TIGHTSCF
|  2> % maxcore 2000
|  3> % mp2 density relaxed end
|  4> *xyz 0 1
|  5>  N       -0.1022352661     1.2633290619     0.3436125231
|  6>  C        0.0151698490     0.0129961637    -0.1701011657
|  7>  O        0.9925117978    -0.4164335906    -0.7563950389
|  8>  C       -1.2180488300    -0.8404032785     0.0528289287
|  9>  C       -2.0965153004    -1.1256878475    -1.1908773593
| 10>  C       -3.2846136830    -0.5470291124    -0.3757462993
| 11>  N       -2.4005802370    -0.2349339746     0.7968209369
| 12>  C       -2.3338847672    -1.3558814907     1.7932955993
| 13>  C       -1.0933743840    -1.9779805549     1.0968722298
| 14>  H        0.6593488663     1.9143224715     0.2540014775
| 15>  H       -0.9586539977     1.5143203671     0.8141969564
| 16>  H       -1.8191057650    -0.5486509400    -2.0747544980
| 17>  H       -2.1697119654    -2.1782615052    -1.4723612361
| 18>  H       -3.7346743210     0.3571541099    -0.7951029609
| 19>  H       -4.0884219961    -1.2521726688    -0.1394921569
| 20>  H       -2.1566185043    -0.9860849403     2.8070957143
| 21>  H       -3.2340892195    -1.9792303946     1.8082328230
| 22>  H       -1.2175665532    -2.9866628780     0.6973066966
| 23>  H       -0.1723947432    -1.9475454681     1.6817124993
| 24> *
| 25>
| 26>                          ****END OF INPUT****

CARTESIAN COORDINATES (ANGSTROEM)
---------------------------------
  N     -0.102235    1.263329    0.343613
  C      0.015170    0.012996   -0.170101
  O      0.992512   -0.416434   -0.756395
  C     -1.218049   -0.840403    0.052829
  C     -2.096515   -1.125688   -1.190877
  C     -3.284614   -0.547029   -0.375746
  N     -2.400580   -0.234934    0.796821
  C     -2.333885   -1.355881    1.793296
  C     -1.093374   -1.977981    1.096872
  H      0.659349    1.914322    0.254001
  H     -0.958654    1.514320    0.814197
  H     -1.819106   -0.548651   -2.074754
  H     -2.169712   -2.178262   -1.472361
  H     -3.734674    0.357154   -0.795103
  H     -4.088422   -1.252173   -0.139492
  H     -2.156619   -0.986085    2.807096
  H     -3.234089   -1.979230    1.808233
  H     -1.217567   -2.986663    0.697307
  H     -0.172395   -1.947545    1.681712

 Total Charge           Charge          ....    0
 Multiplicity           Mult            ....    1
 Number of Electrons    NEL             ....   68
 Basis Dimension        Dim             ....  339

ORBITAL ENERGIES
----------------

  NO   OCC          E(Eh)            E(eV)
   0   2.0000     -20.509803      -558.1001
   1   2.0000     -15.575045      -423.8185
   2   2.0000     -15.556122      -423.3036
   3   2.0000     -11.341607      -308.6208
   4   2.0000     -11.275601      -306.8247
   5   2.0000     -11.262164      -306.4591
   6   2.0000     -11.262147      -306.4586
   7   2.0000     -11.237297      -305.7824
   8   2.0000     -11.237265      -305.7815
   9   2.0000      -1.373639       -37.3786
  10   2.0000      -1.274272       -34.6747
  11   2.0000      -1.203428       -32.7469
  12   2.0000      -1.041622       -28.3440
  13   2.0000      -0.997004       -27.1299
  14   2.0000      -0.914565       -24.8866
  15   2.0000      -0.842640       -22.9294
  16   2.0000      -0.818598       -22.2752
  17   2.0000      -0.740672       -20.1547
  18   2.0000      -0.701996       -19.1023
  19   2.0000      -0.674329       -18.3494
  20   2.0000      -0.662284       -18.0217
  21   2.0000      -0.651280       -17.7222
  22   2.0000      -0.602513       -16.3952
  23   2.0000      -0.594037       -16.1646
  24   2.0000      -0.567394       -15.4396
  25   2.0000      -0.558706       -15.2032
  26   2.0000      -0.516701       -14.0601
  27   2.0000      -0.513178       -13.9643
  28   2.0000      -0.486851       -13.2479
  29   2.0000      -0.483938       -13.1686
  30   2.0000      -0.442127       -12.0309
  31   2.0000      -0.408460       -11.1148
  32   2.0000      -0.404341       -11.0027
  33   2.0000      -0.372991       -10.1496
  34   0.0000       0.132836         3.6147
  35   0.0000       0.151845         4.1319
  36   0.0000       0.161314         4.3896
  37   0.0000       0.161499         4.3946
  38   0.0000       0.168821         4.5938

MULLIKEN ATOMIC CHARGES
-----------------------
   0 N :   -0.462612
   1 C :    0.169872
   2 O :   -0.359267
   3 C :    0.265803
   4 C :   -0.276077
   5 C :   -0.151034
   6 N :   -0.268331
   7 C :   -0.151051
   8 C :   -0.276085
   9 H :    0.252481
  10 H :    0.276645
  11 H :    0.138979
  12 H :    0.120352
  13 H :    0.118702
  14 H :    0.111802
  15 H :    0.118698
  16 H :    0.111764
  17 H :    0.120359
  18 H :    0.138998
Sum of atomic charges:   -0.0000000

LOEWDIN ATOMIC CHARGES
----------------------
   0 N :    0.000621
   1 C :   -0.462294
   2 O :    0.078050
   3 C :   -0.215903
   4 C :   -0.192378
   5 C :   -0.245783
   6 N :    0.090820
   7 C :   -0.245738
   8 C :   -0.192409
   9 H :    0.170819
  10 H :    0.176234
  11 H :    0.139805
  12 H :    0.134078
  13 H :    0.124022
  14 H :    0.121077
  15 H :    0.124008
  16 H :    0.121086
  17 H :    0.134073
  18 H :    0.139811

  Mayer bond orders larger than 0.1
B(  0-N ,  1-C ) :   1.2028 B(  0-N ,  9-H ) :   0.8617 B(  0-N , 10-H ) :   0.8375
B(  1-C ,  2-O ) :   2.0014 B(  1-C ,  3-C ) :   0.8724 B(  3-C ,  4-C ) :   0.8996
B(  3-C ,  6-N ) :   0.8196 B(  3-C ,  8-C ) :   0.8997 B(  4-C ,  5-C ) :   0.9664
B(  4-C , 11-H ) :   0.9161 B(  4-C , 12-H ) :   0.9126 B(  5-C ,  6-N ) :   0.8854
B(  5-C , 13-H ) :   0.9245 B(  5-C , 14-H ) :   0.9295 B(  6-N ,  7-C ) :   0.8856
B(  7-C ,  8-C ) :   0.9663 B(  7-C , 15-H ) :   0.9245 B(  7-C , 16-H ) :   0.9294
B(  8-C , 17-H ) :   0.9126 B(  8-C , 18-H ) :   0.9161

MP2 TOTAL ENERGY:     -418.495906501 Eh
FINAL SINGLE POINT ENERGY      -418.495906500968

DIPOLE MOMENT
-------------
                                X             Y             Z
Electronic contribution:      4.82986       2.47964      -1.19132
Nuclear contribution   :     -5.90635      -2.33680       1.71623
                        -----------------------------------------
Total Dipole Moment    :     -1.07649       0.14284       0.52491
                        -----------------------------------------
Magnitude (a.u.)       :      1.20613
Magnitude (Debye)      :      3.06575

                             ****ORCA TERMINATED NORMALLY****
TOTAL RUN TIME: 0 days 0 hours 20 minutes 9 seconds 372 msec
