                         Program Version 3.0.3 - RELEASE   -
|  1> ! RI-MP2 RIJK def2-TZVP def2-TZVP/C def2-TZVP/JK TIGHTSCF
|  2> % maxcore 2000
|  3> % mp2 density relaxed end
|  4> *xyz 0 1
|  5>  C        0.0978323363    -1.1795386716     0.0092916803
|  6>  C       -0.0188219972     0.0199895456    -0.0124398755
|  7>  C       -0.0850115171     1.4227966411    -0.0600963330
|  8>  C       -1.1323171352     2.2642713792    -0.0158291979
|  9>  C       -0.5201545688     3.6532451928     0.0383519806
| 10>  C        0.1425970899     3.7772188555     1.4489166285
| 11>  O        1.2282007236     2.8485085611     1.3381382278
| 12>  C        1.1346073538     2.3701076614    -0.0174593223
| 13>  O        0.6797265593     3.4840537976    -0.7417880575
| 14>  H        0.1839594139    -2.2374358549     0.0371312563
| 15>  H       -2.1794283586     2.0253002815     0.1009035354
| 16>  H       -1.1072819440     4.5012775608    -0.3056357836
| 17>  H        0.5355205877     4.7860496214     1.6123280535
| 18>  H       -0.5247730489     3.4959652094     2.2690169879
| 19>  H        2.1018928554     2.0059076691    -0.3538301004
| 20> *
| 21>
| 22>                          ****END OF INPUT****

CARTESIAN COORDINATES (ANGSTROEM)
---------------------------------
  C      0.097832   -1.179539    0.009292
  C     -0.018822    0.019990   -0.012440
  C     -0.085012    1.422797   -0.060096
  C     -1.132317    2.264271   -0.015829
  C     -0.520155    3.653245    0.038352
  C      0.142597    3.777219    1.448917
  O      1.228201    2.848509    1.338138
  C      1.134607    2.370108   -0.017459
  O      0.679727    3.484054   -0.741788
  H      0.183959   -2.237436    0.037131
  H     -2.179428    2.025300    0.100904
  H     -1.107282    4.501278   -0.305636
  H      0.535521    4.786050    1.612328
  H     -0.524773    3.495965    2.269017
  H      2.101893    2.005908   -0.353830

 Total Charge           Charge          ....    0
 Multiplicity           Mult            ....    1
 Number of Electrons    NEL             ....   64
 Basis Dimension        Dim             ....  315

ORBITAL ENERGIES
----------------

  NO   OCC          E(Eh)            E(eV)
   0   2.0000     -20.576810      -559.9235
   1   2.0000     -20.566832      -559.6519
   2   2.0000     -11.350346      -308.8586
   3   2.0000     -11.308640      -307.7237
   4   2.0000     -11.289703      -307.2084
   5   2.0000     -11.266668      -306.5816
   6   2.0000     -11.257626      -306.3356
   7   2.0000     -11.247878      -306.0703
   8   2.0000     -11.239627      -305.8458
   9   2.0000      -1.459943       -39.7271
  10   2.0000      -1.336822       -36.3768
  11   2.0000      -1.117307       -30.4035
  12   2.0000      -1.051009       -28.5994
  13   2.0000      -1.014403       -27.6033
  14   2.0000      -0.876038       -23.8382
  15   2.0000      -0.851838       -23.1797
  16   2.0000      -0.811345       -22.0778
  17   2.0000      -0.759973       -20.6799
  18   2.0000      -0.718054       -19.5392
  19   2.0000      -0.704365       -19.1668
  20   2.0000      -0.648802       -17.6548
  21   2.0000      -0.633604       -17.2413
  22   2.0000      -0.591458       -16.0944
  23   2.0000      -0.572720       -15.5845
  24   2.0000      -0.565101       -15.3772
  25   2.0000      -0.528763       -14.3884
  26   2.0000      -0.506845       -13.7919
  27   2.0000      -0.473882       -12.8950
  28   2.0000      -0.464730       -12.6460
  29   2.0000      -0.439420       -11.9572
  30   2.0000      -0.395450       -10.7607
  31   2.0000      -0.341580        -9.2949
  32   0.0000       0.088478         2.4076
  33   0.0000       0.149230         4.0608
  34   0.0000       0.159348         4.3361
  35   0.0000       0.167010         4.5446
  36   0.0000       0.177923         4.8415

MULLIKEN ATOMIC CHARGES
-----------------------
   0 C :   -0.112553
   1 C :    0.013555
   2 C :   -0.133362
   3 C :   -0.209316
   4 C :    0.032734
   5 C :   -0.033858
   6 O :   -0.312004
   7 C :    0.171799
   8 O :   -0.288055
   9 H :    0.197514
  10 H :    0.150148
  11 H :    0.151876
  12 H :    0.117116
  13 H :    0.109374
  14 H :    0.145033
Sum of atomic charges:   -0.0000000

LOEWDIN ATOMIC CHARGES
----------------------
   0 C :   -0.062954
   1 C :   -0.074744
   2 C :   -0.129953
   3 C :   -0.078726
   4 C :   -0.266082
   5 C :   -0.263916
   6 O :    0.159518
   7 C :   -0.311087
   8 O :    0.215593
   9 H :    0.129414
  10 H :    0.144263
  11 H :    0.143407
  12 H :    0.126074
  13 H :    0.125990
  14 H :    0.143204

  Mayer bond orders larger than 0.1
B(  0-C ,  1-C ) :   2.5904 B(  0-C ,  2-C ) :  -0.1632 B(  0-C ,  9-H ) :   0.8698
B(  1-C ,  2-C ) :   1.1977 B(  2-C ,  3-C ) :   1.6580 B(  2-C ,  7-C ) :   0.9276
B(  3-C ,  4-C ) :   0.9724 B(  3-C , 10-H ) :   0.9241 B(  4-C ,  5-C ) :   0.9327
B(  4-C ,  8-O ) :   0.9164 B(  4-C , 11-H ) :   0.9061 B(  5-C ,  6-O ) :   0.9372
B(  5-C , 12-H ) :   0.9255 B(  5-C , 13-H ) :   0.9062 B(  6-O ,  7-C ) :   0.9450
B(  7-C ,  8-O ) :   1.0179 B(  7-C , 14-H ) :   0.9066

MP2 TOTAL ENERGY:     -419.866673687 Eh
FINAL SINGLE POINT ENERGY      -419.866673686553

DIPOLE MOMENT
-------------
                                X             Y             Z
Electronic contribution:      1.36444      -1.50325      -1.63597
Nuclear contribution   :     -2.05664       1.53317       1.78800
                        -----------------------------------------
Total Dipole Moment    :     -0.69220       0.02992       0.15203
                        -----------------------------------------
Magnitude (a.u.)       :      0.70933
Magnitude (Debye)      :      1.80297

                             ****ORCA TERMINATED NORMALLY****
TOTAL RUN TIME: 0 days 0 hours 17 minutes 1 seconds 663 msec
