                         Program Version 3.0.3 - RELEASE   -
|  1> ! RI-MP2 RIJK def2-TZVP def2-TZVP/C def2-TZVP/JK TIGHTSCF
|  2> % maxcore 2000
|  3> % mp2 density relaxed end
|  4> *xyz 0 1
|  5>  C       -0.0101720931     1.4214011498     0.1338945798
|  6>  N        0.0095797370    -0.0339076167     0.1987442014
|  7>  C       -1.0517981226    -0.6588949386    -0.0808802894
|  8>  O       -2.2030005823    -0.0052291359    -0.4383280200
|  9>  C       -3.3855482441    -0.7659947964    -0.7471774504
| 10>  C       -3.1689092904    -2.2680833026    -0.6238253260
| 11>  C       -2.4409325853    -2.5623830214     0.7144339608
| 12>  C       -1.1410092251    -2.1576789754    -0.0455625159
| 13>  C       -1.8487799707    -2.6461991838    -1.3461733650
| 14>  H        0.9777405326     1.8033959880     0.4027920766
| 15>  H       -0.2607538926     1.7849199692    -0.8713478968
| 16>  H       -0.7483582011     1.8538240705     0.8220323676
| 17>  H       -4.1728425230    -0.4275844742    -0.0624255301
| 18>  H       -3.6826789288    -0.4969710957    -1.7682443524
| 19>  H       -4.0898147558    -2.8039051568    -0.8666692595
| 20>  H       -2.7229264126    -1.9833232699     1.5980958690
| 21>  H       -2.4443680491    -3.6277483417     0.9554034688
| 22>  H       -0.1811859720    -2.5773461791     0.2473315243
| 23>  H       -1.7469287632    -3.7264675296    -1.4715853545
| 24>  H       -1.6069178777    -2.1412908696    -2.2854598681
| 25> *
| 26>
| 27>                          ****END OF INPUT****

CARTESIAN COORDINATES (ANGSTROEM)
---------------------------------
  C     -0.010172    1.421401    0.133895
  N      0.009580   -0.033908    0.198744
  C     -1.051798   -0.658895   -0.080880
  O     -2.203001   -0.005229   -0.438328
  C     -3.385548   -0.765995   -0.747177
  C     -3.168909   -2.268083   -0.623825
  C     -2.440933   -2.562383    0.714434
  C     -1.141009   -2.157679   -0.045563
  C     -1.848780   -2.646199   -1.346173
  H      0.977741    1.803396    0.402792
  H     -0.260754    1.784920   -0.871348
  H     -0.748358    1.853824    0.822032
  H     -4.172843   -0.427584   -0.062426
  H     -3.682679   -0.496971   -1.768244
  H     -4.089815   -2.803905   -0.866669
  H     -2.722926   -1.983323    1.598096
  H     -2.444368   -3.627748    0.955403
  H     -0.181186   -2.577346    0.247332
  H     -1.746929   -3.726468   -1.471585
  H     -1.606918   -2.141291   -2.285460

 Total Charge           Charge          ....    0
 Multiplicity           Mult            ....    1
 Number of Electrons    NEL             ....   68
 Basis Dimension        Dim             ....  345

ORBITAL ENERGIES
----------------

  NO   OCC          E(Eh)            E(eV)
   0   2.0000     -20.583479      -560.1049
   1   2.0000     -15.523541      -422.4170
   2   2.0000     -11.321191      -308.0653
   3   2.0000     -11.293652      -307.3159
   4   2.0000     -11.248522      -306.0878
   5   2.0000     -11.244344      -305.9742
   6   2.0000     -11.238102      -305.8043
   7   2.0000     -11.238063      -305.8032
   8   2.0000     -11.226969      -305.5013
   9   2.0000      -1.414960       -38.5030
  10   2.0000      -1.201213       -32.6867
  11   2.0000      -1.161601       -31.6088
  12   2.0000      -1.007938       -27.4274
  13   2.0000      -0.924606       -25.1598
  14   2.0000      -0.915212       -24.9042
  15   2.0000      -0.871743       -23.7213
  16   2.0000      -0.808336       -21.9959
  17   2.0000      -0.702200       -19.1078
  18   2.0000      -0.697262       -18.9735
  19   2.0000      -0.665118       -18.0988
  20   2.0000      -0.651698       -17.7336
  21   2.0000      -0.631504       -17.1841
  22   2.0000      -0.589639       -16.0449
  23   2.0000      -0.584401       -15.9023
  24   2.0000      -0.566345       -15.4110
  25   2.0000      -0.550493       -14.9797
  26   2.0000      -0.532039       -14.4775
  27   2.0000      -0.531098       -14.4519
  28   2.0000      -0.468277       -12.7425
  29   2.0000      -0.457380       -12.4459
  30   2.0000      -0.457041       -12.4367
  31   2.0000      -0.450155       -12.2493
  32   2.0000      -0.394815       -10.7435
  33   2.0000      -0.365818        -9.9544
  34   0.0000       0.129778         3.5315
  35   0.0000       0.153900         4.1878
  36   0.0000       0.159399         4.3375
  37   0.0000       0.162003         4.4083
  38   0.0000       0.185268         5.0414

MULLIKEN ATOMIC CHARGES
-----------------------
   0 C :   -0.282480
   1 N :   -0.230575
   2 C :    0.026138
   3 O :   -0.274440
   4 C :   -0.093558
   5 C :   -0.048645
   6 C :   -0.294118
   7 C :    0.099561
   8 C :   -0.294119
   9 H :    0.136802
  10 H :    0.124879
  11 H :    0.124873
  12 H :    0.119431
  13 H :    0.119433
  14 H :    0.122488
  15 H :    0.128410
  16 H :    0.129872
  17 H :    0.127766
  18 H :    0.129872
  19 H :    0.128411
Sum of atomic charges:   -0.0000000

LOEWDIN ATOMIC CHARGES
----------------------
   0 C :   -0.337613
   1 N :    0.069917
   2 C :   -0.363502
   3 O :    0.243000
   4 C :   -0.258067
   5 C :   -0.235272
   6 C :   -0.186528
   7 C :   -0.182320
   8 C :   -0.186528
   9 H :    0.111607
  10 H :    0.112751
  11 H :    0.112741
  12 H :    0.131017
  13 H :    0.131018
  14 H :    0.142413
  15 H :    0.131848
  16 H :    0.140167
  17 H :    0.151338
  18 H :    0.140167
  19 H :    0.131848

  Mayer bond orders larger than 0.1
B(  0-C ,  1-N ) :   0.8753 B(  0-C ,  9-H ) :   0.9456 B(  0-C , 10-H ) :   0.9311
B(  0-C , 11-H ) :   0.9311 B(  1-N ,  2-C ) :   2.0084 B(  2-C ,  3-O ) :   1.0494
B(  2-C ,  7-C ) :   0.9010 B(  3-O ,  4-C ) :   0.9007 B(  4-C ,  5-C ) :   0.9259
B(  4-C , 12-H ) :   0.9307 B(  4-C , 13-H ) :   0.9307 B(  5-C ,  6-C ) :   0.9069
B(  5-C ,  8-C ) :   0.9069 B(  5-C , 14-H ) :   0.9119 B(  6-C ,  7-C ) :   0.8669
B(  6-C , 15-H ) :   0.9216 B(  6-C , 16-H ) :   0.9269 B(  7-C ,  8-C ) :   0.8669
B(  7-C , 17-H ) :   0.9284 B(  8-C , 18-H ) :   0.9269 B(  8-C , 19-H ) :   0.9216

MP2 TOTAL ENERGY:     -402.455997255 Eh
FINAL SINGLE POINT ENERGY      -402.455997255308

DIPOLE MOMENT
-------------
                                X             Y             Z
Electronic contribution:      0.82901       0.37146       0.22304
Nuclear contribution   :     -1.86506      -0.94300      -0.49754
                        -----------------------------------------
Total Dipole Moment    :     -1.03605      -0.57154      -0.27450
                        -----------------------------------------
Magnitude (a.u.)       :      1.21467
Magnitude (Debye)      :      3.08743

                             ****ORCA TERMINATED NORMALLY****
TOTAL RUN TIME: 0 days 0 hours 19 minutes 23 seconds 20 msec
