                         Program Version 3.0.3 - RELEASE   -
|  1> ! RI-MP2 RIJK def2-TZVP def2-TZVP/C def2-TZVP/JK TIGHTSCF
|  2> % maxcore 2000
|  3> % mp2 density relaxed end
|  4> *xyz 0 1
|  5>  C        0.0344282701     1.5211083993     0.0118453230
|  6>  C        1.3205181553     0.7246045359    -0.0173119784
|  7>  C       -0.0086143288     0.0191787481     0.0072332669
|  8>  C       -0.4534674035    -0.8130304921     1.2313119109
|  9>  C       -1.1613366028    -2.0210551521     0.5720797410
| 10>  C       -2.5015073127    -1.5369224457    -0.0298871089
| 11>  C       -2.0503574894    -0.6748505279    -1.2542474398
| 12>  C       -0.5072684771    -0.7772090324    -1.2021718582
| 13>  C       -0.3077540745    -2.2245647302    -0.7003845599
| 14>  H       -0.2229070712     2.0415077570     0.9292604191
| 15>  H       -0.2562448831     2.0487483402    -0.8917438651
| 16>  H        1.8940003352     0.7172433070    -0.9392606032
| 17>  H        1.9267292893     0.7024032174     0.8833263331
| 18>  H        0.4091408163    -1.1392258811     1.8230816131
| 19>  H       -1.1214426694    -0.2603351506     1.9007128072
| 20>  H       -1.2606800681    -2.8852720134     1.2319856195
| 21>  H       -3.1127037542    -2.3865339416    -0.3497238282
| 22>  H       -3.0927920106    -0.9668305361     0.6928694783
| 23>  H       -2.4354849532    -1.0879214563    -2.1918146688
| 24>  H       -2.3915980587     0.3618927577    -1.1900113537
| 25>  H       -0.0116130725    -0.5095173194    -2.1382334913
| 26>  H        0.7382505037    -2.4654540755    -0.4880713977
| 27>  H       -0.7178156300    -2.9798959581    -1.3785079090
| 28> *
| 29>
| 30>                          ****END OF INPUT****

CARTESIAN COORDINATES (ANGSTROEM)
---------------------------------
  C      0.034428    1.521108    0.011845
  C      1.320518    0.724605   -0.017312
  C     -0.008614    0.019179    0.007233
  C     -0.453467   -0.813030    1.231312
  C     -1.161337   -2.021055    0.572080
  C     -2.501507   -1.536922   -0.029887
  C     -2.050357   -0.674851   -1.254247
  C     -0.507268   -0.777209   -1.202172
  C     -0.307754   -2.224565   -0.700385
  H     -0.222907    2.041508    0.929260
  H     -0.256245    2.048748   -0.891744
  H      1.894000    0.717243   -0.939261
  H      1.926729    0.702403    0.883326
  H      0.409141   -1.139226    1.823082
  H     -1.121443   -0.260335    1.900713
  H     -1.260680   -2.885272    1.231986
  H     -3.112704   -2.386534   -0.349724
  H     -3.092792   -0.966831    0.692869
  H     -2.435485   -1.087921   -2.191815
  H     -2.391598    0.361893   -1.190011
  H     -0.011613   -0.509517   -2.138233
  H      0.738251   -2.465454   -0.488071
  H     -0.717816   -2.979896   -1.378508

 Total Charge           Charge          ....    0
 Multiplicity           Mult            ....    1
 Number of Electrons    NEL             ....   68
 Basis Dimension        Dim             ....  363

ORBITAL ENERGIES
----------------

  NO   OCC          E(Eh)            E(eV)
   0   2.0000     -11.226388      -305.4856
   1   2.0000     -11.219718      -305.3040
   2   2.0000     -11.219583      -305.3004
   3   2.0000     -11.216089      -305.2053
   4   2.0000     -11.215380      -305.1860
   5   2.0000     -11.214131      -305.1520
   6   2.0000     -11.212286      -305.1018
   7   2.0000     -11.211279      -305.0744
   8   2.0000     -11.211100      -305.0695
   9   2.0000      -1.175338       -31.9826
  10   2.0000      -1.104514       -30.0554
  11   2.0000      -0.984971       -26.8024
  12   2.0000      -0.957414       -26.0526
  13   2.0000      -0.909352       -24.7447
  14   2.0000      -0.817042       -22.2328
  15   2.0000      -0.793679       -21.5971
  16   2.0000      -0.753023       -20.4908
  17   2.0000      -0.709622       -19.3098
  18   2.0000      -0.674749       -18.3609
  19   2.0000      -0.648143       -17.6369
  20   2.0000      -0.614250       -16.7146
  21   2.0000      -0.606813       -16.5122
  22   2.0000      -0.565933       -15.3998
  23   2.0000      -0.547024       -14.8853
  24   2.0000      -0.509623       -13.8675
  25   2.0000      -0.503672       -13.7056
  26   2.0000      -0.485147       -13.2015
  27   2.0000      -0.476493       -12.9660
  28   2.0000      -0.469326       -12.7710
  29   2.0000      -0.455264       -12.3884
  30   2.0000      -0.443402       -12.0656
  31   2.0000      -0.431966       -11.7544
  32   2.0000      -0.397673       -10.8212
  33   2.0000      -0.378282       -10.2936
  34   0.0000       0.135864         3.6971
  35   0.0000       0.157170         4.2768
  36   0.0000       0.161920         4.4061
  37   0.0000       0.166138         4.5208
  38   0.0000       0.187704         5.1077

MULLIKEN ATOMIC CHARGES
-----------------------
   0 C :   -0.294633
   1 C :   -0.294823
   2 C :   -0.004516
   3 C :   -0.280068
   4 C :    0.005762
   5 C :   -0.269755
   6 C :   -0.275388
   7 C :    0.070771
   8 C :   -0.291047
   9 H :    0.124756
  10 H :    0.124427
  11 H :    0.122136
  12 H :    0.123010
  13 H :    0.117973
  14 H :    0.109811
  15 H :    0.114255
  16 H :    0.116278
  17 H :    0.108841
  18 H :    0.117237
  19 H :    0.111992
  20 H :    0.110386
  21 H :    0.115963
  22 H :    0.116633
Sum of atomic charges:    0.0000000

LOEWDIN ATOMIC CHARGES
----------------------
   0 C :   -0.212710
   1 C :   -0.210148
   2 C :   -0.216896
   3 C :   -0.180566
   4 C :   -0.229381
   5 C :   -0.226147
   6 C :   -0.220146
   7 C :   -0.195926
   8 C :   -0.201520
   9 H :    0.131680
  10 H :    0.133146
  11 H :    0.131501
  12 H :    0.130887
  13 H :    0.138400
  14 H :    0.136509
  15 H :    0.139866
  16 H :    0.132932
  17 H :    0.132054
  18 H :    0.132460
  19 H :    0.134001
  20 H :    0.145172
  21 H :    0.138583
  22 H :    0.136250

  Mayer bond orders larger than 0.1
B(  0-C ,  1-C ) :   0.9421 B(  0-C ,  2-C ) :   0.8422 B(  0-C ,  9-H ) :   0.9244
B(  0-C , 10-H ) :   0.9232 B(  1-C ,  2-C ) :   0.8503 B(  1-C , 11-H ) :   0.9208
B(  1-C , 12-H ) :   0.9260 B(  2-C ,  3-C ) :   0.9294 B(  2-C ,  7-C ) :   0.8845
B(  3-C ,  4-C ) :   0.9221 B(  3-C , 13-H ) :   0.9179 B(  3-C , 14-H ) :   0.9223
B(  4-C ,  5-C ) :   0.9057 B(  4-C ,  8-C ) :   0.9371 B(  4-C , 15-H ) :   0.9248
B(  5-C ,  6-C ) :   0.9792 B(  5-C , 16-H ) :   0.9270 B(  5-C , 17-H ) :   0.9271
B(  6-C ,  7-C ) :   0.8977 B(  6-C , 18-H ) :   0.9272 B(  6-C , 19-H ) :   0.9262
B(  7-C ,  8-C ) :   0.9135 B(  7-C , 20-H ) :   0.9108 B(  8-C , 21-H ) :   0.9213
B(  8-C , 22-H ) :   0.9267

MP2 TOTAL ENERGY:     -350.527419795 Eh
FINAL SINGLE POINT ENERGY      -350.527419794547

DIPOLE MOMENT
-------------
                                X             Y             Z
Electronic contribution:      0.71210      -0.24112      -0.04373
Nuclear contribution   :     -0.73777       0.15450       0.03562
                        -----------------------------------------
Total Dipole Moment    :     -0.02567      -0.08662      -0.00811
                        -----------------------------------------
Magnitude (a.u.)       :      0.09071
Magnitude (Debye)      :      0.23056

                             ****ORCA TERMINATED NORMALLY****
TOTAL RUN TIME: 0 days 0 hours 22 minutes 49 seconds 728 msec
