                         Program Version 3.0.3 - RELEASE   -
|  1> ! RI-MP2 RIJK def2-TZVP def2-TZVP/C def2-TZVP/JK TIGHTSCF
|  2> % maxcore 2000
|  3> % mp2 density relaxed end
|  4> *xyz 0 1
|  5>  N        0.0216624148     1.0523490794     0.6152889949
|  6>  C       -0.0261556445    -0.0500124354     0.0338599147
|  7>  C       -1.1376196147    -1.0032034148    -0.3600275343
|  8>  C        0.0397784176    -1.8353677002    -0.9457275294
|  9>  O        0.9840096006    -0.8397991991    -0.5052137819
| 10>  C        0.2711257672    -3.1805493310    -0.2886561627
| 11>  O        1.0516443286    -3.3946706773     0.5975791151
| 12>  C       -0.6011776382    -4.2476005995    -0.8282446740
| 13>  N       -1.2989339591    -5.0593912979    -1.2654490030
| 14>  H        0.9766679596     1.4027070488     0.7005293126
| 15>  H       -1.6746634224    -1.4535271502     0.4762045170
| 16>  H       -1.8473398266    -0.6155139277    -1.0904972936
| 17>  H        0.0351712071    -1.9433190451    -2.0354156855
| 18> *
| 19>
| 20>                          ****END OF INPUT****

CARTESIAN COORDINATES (ANGSTROEM)
---------------------------------
  N      0.021662    1.052349    0.615289
  C     -0.026156   -0.050012    0.033860
  C     -1.137620   -1.003203   -0.360028
  C      0.039778   -1.835368   -0.945728
  O      0.984010   -0.839799   -0.505214
  C      0.271126   -3.180549   -0.288656
  O      1.051644   -3.394671    0.597579
  C     -0.601178   -4.247601   -0.828245
  N     -1.298934   -5.059391   -1.265449
  H      0.976668    1.402707    0.700529
  H     -1.674663   -1.453527    0.476205
  H     -1.847340   -0.615514   -1.090497
  H      0.035171   -1.943319   -2.035416

 Total Charge           Charge          ....    0
 Multiplicity           Mult            ....    1
 Number of Electrons    NEL             ....   64
 Basis Dimension        Dim             ....  303

ORBITAL ENERGIES
----------------

  NO   OCC          E(Eh)            E(eV)
   0   2.0000     -20.626783      -561.2833
   1   2.0000     -20.622262      -561.1603
   2   2.0000     -15.629558      -425.3019
   3   2.0000     -15.563483      -423.5039
   4   2.0000     -11.416685      -310.6638
   5   2.0000     -11.369661      -309.3842
   6   2.0000     -11.358011      -309.0672
   7   2.0000     -11.315711      -307.9162
   8   2.0000     -11.293077      -307.3002
   9   2.0000      -1.480104       -40.2757
  10   2.0000      -1.455745       -39.6128
  11   2.0000      -1.264651       -34.4129
  12   2.0000      -1.226876       -33.3850
  13   2.0000      -1.096769       -29.8446
  14   2.0000      -1.014635       -27.6096
  15   2.0000      -0.903479       -24.5849
  16   2.0000      -0.784061       -21.3354
  17   2.0000      -0.774679       -21.0801
  18   2.0000      -0.736549       -20.0425
  19   2.0000      -0.722040       -19.6477
  20   2.0000      -0.702333       -19.1115
  21   2.0000      -0.630605       -17.1596
  22   2.0000      -0.619075       -16.8459
  23   2.0000      -0.611270       -16.6335
  24   2.0000      -0.584693       -15.9103
  25   2.0000      -0.555449       -15.1145
  26   2.0000      -0.537394       -14.6232
  27   2.0000      -0.518179       -14.1004
  28   2.0000      -0.507140       -13.8000
  29   2.0000      -0.498797       -13.5730
  30   2.0000      -0.463511       -12.6128
  31   2.0000      -0.433117       -11.7857
  32   0.0000       0.040549         1.1034
  33   0.0000       0.111038         3.0215
  34   0.0000       0.132488         3.6052
  35   0.0000       0.140533         3.8241
  36   0.0000       0.148854         4.0505

MULLIKEN ATOMIC CHARGES
-----------------------
   0 N :   -0.348025
   1 C :    0.138508
   2 C :   -0.231202
   3 C :    0.113440
   4 O :   -0.253524
   5 C :    0.279734
   6 O :   -0.201162
   7 C :   -0.180063
   8 N :   -0.029742
   9 H :    0.241582
  10 H :    0.156029
  11 H :    0.160175
  12 H :    0.154250
Sum of atomic charges:   -0.0000000

LOEWDIN ATOMIC CHARGES
----------------------
   0 N :   -0.032250
   1 C :   -0.385222
   2 C :   -0.155711
   3 C :   -0.228374
   4 O :    0.252066
   5 C :   -0.310093
   6 O :    0.235017
   7 C :   -0.132255
   8 N :    0.111485
   9 H :    0.180233
  10 H :    0.154372
  11 H :    0.152326
  12 H :    0.158407

  Mayer bond orders larger than 0.1
B(  0-N ,  1-C ) :   2.0937 B(  0-N ,  9-H ) :   0.8408 B(  1-C ,  2-C ) :   0.9132
B(  1-C ,  4-O ) :   1.0248 B(  2-C ,  3-C ) :   0.9166 B(  2-C , 10-H ) :   0.8947
B(  2-C , 11-H ) :   0.9068 B(  3-C ,  4-O ) :   0.9377 B(  3-C ,  5-C ) :   0.8926
B(  3-C , 12-H ) :   0.8918 B(  5-C ,  6-O ) :   2.0163 B(  5-C ,  7-C ) :   0.8745
B(  7-C ,  8-N ) :   2.7705

MP2 TOTAL ENERGY:     -452.004950637 Eh
FINAL SINGLE POINT ENERGY      -452.004950637473

DIPOLE MOMENT
-------------
                                X             Y             Z
Electronic contribution:      2.04592      -4.60538       0.07763
Nuclear contribution   :     -2.16938       5.12147      -0.66062
                        -----------------------------------------
Total Dipole Moment    :     -0.12346       0.51609      -0.58299
                        -----------------------------------------
Magnitude (a.u.)       :      0.78833
Magnitude (Debye)      :      2.00378

                             ****ORCA TERMINATED NORMALLY****
TOTAL RUN TIME: 0 days 0 hours 13 minutes 10 seconds 0 msec
