                         Program Version 3.0.3 - RELEASE   -
|  1> ! RI-MP2 RIJK def2-TZVP def2-TZVP/C def2-TZVP/JK TIGHTSCF
|  2> % maxcore 2000
|  3> % mp2 density relaxed end
|  4> *xyz 0 1
|  5>  C       -0.1201188376     1.5807569255    -0.1546061641
|  6>  C       -0.0124605013     0.0524852946     0.0046744946
|  7>  C        0.7605541825    -0.5586644048    -1.1464119345
|  8>  C        1.9785999536    -0.9575780288    -0.7847598836
|  9>  C        2.2336633562    -0.7279521361     0.6852130638
| 10>  C        0.8113997981    -0.4474438217     1.2358821494
| 11>  C        0.7680030372     0.4585207732     2.4800815516
| 12>  C        1.4658646054    -0.1191987247     3.6237673389
| 13>  C        2.0422047986    -0.6151428663     4.5550960751
| 14>  H        0.8684792371     2.0505338498    -0.1876023470
| 15>  H       -0.6309002895     1.8287687788    -1.0908037940
| 16>  H       -0.6906903334     2.0364172227     0.6612258966
| 17>  H       -1.0340122042    -0.3459557490     0.0576263618
| 18>  H        0.3613057150    -0.5915452000    -2.1549920058
| 19>  H        2.7256316784    -1.3741635774    -1.4517692156
| 20>  H        2.7063319522    -1.5790380239     1.1856694282
| 21>  H        2.9094577308     0.1270427610     0.8380307297
| 22>  H        0.3858325254    -1.4155760414     1.5223799914
| 23>  H        1.2070302687     1.4364295347     2.2464379393
| 24>  H       -0.2764122533     0.6519214738     2.7585760629
| 25>  H        2.5503310901    -1.0428183500     5.3832584210
| 26> *
| 27>
| 28>                          ****END OF INPUT****

CARTESIAN COORDINATES (ANGSTROEM)
---------------------------------
  C     -0.120119    1.580757   -0.154606
  C     -0.012461    0.052485    0.004674
  C      0.760554   -0.558664   -1.146412
  C      1.978600   -0.957578   -0.784760
  C      2.233663   -0.727952    0.685213
  C      0.811400   -0.447444    1.235882
  C      0.768003    0.458521    2.480082
  C      1.465865   -0.119199    3.623767
  C      2.042205   -0.615143    4.555096
  H      0.868479    2.050534   -0.187602
  H     -0.630900    1.828769   -1.090804
  H     -0.690690    2.036417    0.661226
  H     -1.034012   -0.345956    0.057626
  H      0.361306   -0.591545   -2.154992
  H      2.725632   -1.374164   -1.451769
  H      2.706332   -1.579038    1.185669
  H      2.909458    0.127043    0.838031
  H      0.385833   -1.415576    1.522380
  H      1.207030    1.436430    2.246438
  H     -0.276412    0.651921    2.758576
  H      2.550331   -1.042818    5.383258

 Total Charge           Charge          ....    0
 Multiplicity           Mult            ....    1
 Number of Electrons    NEL             ....   66
 Basis Dimension        Dim             ....  351

ORBITAL ENERGIES
----------------

  NO   OCC          E(Eh)            E(eV)
   0   2.0000     -11.249152      -306.1050
   1   2.0000     -11.234310      -305.7011
   2   2.0000     -11.233068      -305.6673
   3   2.0000     -11.230601      -305.6002
   4   2.0000     -11.223265      -305.4006
   5   2.0000     -11.221609      -305.3555
   6   2.0000     -11.220196      -305.3171
   7   2.0000     -11.217479      -305.2431
   8   2.0000     -11.216290      -305.2108
   9   2.0000      -1.146900       -31.2087
  10   2.0000      -1.065516       -28.9942
  11   2.0000      -1.008244       -27.4357
  12   2.0000      -0.988445       -26.8969
  13   2.0000      -0.918702       -24.9991
  14   2.0000      -0.884493       -24.0683
  15   2.0000      -0.760603       -20.6971
  16   2.0000      -0.726897       -19.7799
  17   2.0000      -0.714561       -19.4442
  18   2.0000      -0.680753       -18.5242
  19   2.0000      -0.644931       -17.5495
  20   2.0000      -0.613528       -16.6950
  21   2.0000      -0.586160       -15.9502
  22   2.0000      -0.572194       -15.5702
  23   2.0000      -0.557052       -15.1582
  24   2.0000      -0.536246       -14.5920
  25   2.0000      -0.520102       -14.1527
  26   2.0000      -0.491532       -13.3753
  27   2.0000      -0.476663       -12.9707
  28   2.0000      -0.467759       -12.7284
  29   2.0000      -0.452592       -12.3157
  30   2.0000      -0.382013       -10.3951
  31   2.0000      -0.380618       -10.3571
  32   2.0000      -0.345621        -9.4048
  33   0.0000       0.127515         3.4699
  34   0.0000       0.153710         4.1827
  35   0.0000       0.158431         4.3111
  36   0.0000       0.167606         4.5608
  37   0.0000       0.172369         4.6904

MULLIKEN ATOMIC CHARGES
-----------------------
   0 C :   -0.458635
   1 C :    0.088893
   2 C :   -0.208934
   3 C :   -0.165801
   4 C :   -0.210382
   5 C :   -0.095316
   6 C :   -0.428176
   7 C :    0.009887
   8 C :   -0.120590
   9 H :    0.138114
  10 H :    0.137667
  11 H :    0.133538
  12 H :    0.099192
  13 H :    0.124564
  14 H :    0.123511
  15 H :    0.133888
  16 H :    0.111105
  17 H :    0.105203
  18 H :    0.149904
  19 H :    0.144106
  20 H :    0.188260
Sum of atomic charges:   -0.0000000

LOEWDIN ATOMIC CHARGES
----------------------
   0 C :   -0.289732
   1 C :   -0.233313
   2 C :   -0.143797
   3 C :   -0.156323
   4 C :   -0.215993
   5 C :   -0.195038
   6 C :   -0.232760
   7 C :   -0.107688
   8 C :   -0.110874
   9 H :    0.125254
  10 H :    0.125493
  11 H :    0.121140
  12 H :    0.150736
  13 H :    0.136891
  14 H :    0.135598
  15 H :    0.141239
  16 H :    0.143663
  17 H :    0.161573
  18 H :    0.159354
  19 H :    0.159185
  20 H :    0.125392

  Mayer bond orders larger than 0.1
B(  0-C ,  1-C ) :   0.8478 B(  0-C ,  9-H ) :   0.9418 B(  0-C , 10-H ) :   0.9359
B(  0-C , 11-H ) :   0.9325 B(  1-C ,  2-C ) :   0.9191 B(  1-C ,  5-C ) :   0.9039
B(  1-C , 12-H ) :   0.9204 B(  2-C ,  3-C ) :   1.7930 B(  2-C , 13-H ) :   0.9274
B(  3-C ,  4-C ) :   0.9399 B(  3-C , 14-H ) :   0.9330 B(  4-C ,  5-C ) :   0.9585
B(  4-C , 15-H ) :   0.9292 B(  4-C , 16-H ) :   0.8980 B(  5-C ,  6-C ) :   0.9074
B(  5-C , 17-H ) :   0.9271 B(  6-C ,  7-C ) :   1.1302 B(  6-C ,  8-C ) :  -0.1299
B(  6-C , 18-H ) :   0.9232 B(  6-C , 19-H ) :   0.9235 B(  7-C ,  8-C ) :   2.6032
B(  8-C , 20-H ) :   0.8953

MP2 TOTAL ENERGY:     -349.277532741 Eh
FINAL SINGLE POINT ENERGY      -349.277532740513

DIPOLE MOMENT
-------------
                                X             Y             Z
Electronic contribution:      1.70106      -2.92063       3.35754
Nuclear contribution   :     -1.81794       3.00461      -3.56957
                        -----------------------------------------
Total Dipole Moment    :     -0.11687       0.08398      -0.21203
                        -----------------------------------------
Magnitude (a.u.)       :      0.25626
Magnitude (Debye)      :      0.65135

                             ****ORCA TERMINATED NORMALLY****
TOTAL RUN TIME: 0 days 0 hours 19 minutes 31 seconds 45 msec
