                         Program Version 3.0.3 - RELEASE   -
|  1> ! RI-MP2 RIJK def2-TZVP def2-TZVP/C def2-TZVP/JK TIGHTSCF
|  2> % maxcore 2000
|  3> % mp2 density relaxed end
|  4> *xyz 0 1
|  5>  N       -0.1133302479     1.2914640011    -0.1162092503
|  6>  C       -0.1346581881     0.0396463484    -0.2605874385
|  7>  O       -1.0945327442    -0.6893914359     0.3591357484
|  8>  C       -1.0071540221    -2.0796753271     0.2230759820
|  9>  C       -1.2380675761    -2.7580313835    -1.1002455131
| 10>  C       -2.2454265282    -2.9044170519     0.0232839295
| 11>  C       -2.0780495920    -4.1058679136     0.9329875123
| 12>  O       -0.6811706204    -4.1617415695     1.2338979306
| 13>  C       -0.1744271623    -2.8352003190     1.2497892850
| 14>  H        0.6554417427     1.6894095952    -0.6516815067
| 15>  H        0.5506890140    -0.5703459297    -0.8621040837
| 16>  H       -1.5370494785    -2.1237136484    -1.9270928180
| 17>  H       -0.6140418785    -3.6061599916    -1.3646381328
| 18>  H       -3.2120395201    -2.4261857041    -0.0733866513
| 19>  H       -2.6774617070    -3.9740652393     1.8474593703
| 20>  H       -2.3457492297    -5.0636495310     0.4763363609
| 21>  H        0.8952097114    -2.8903123931     1.0214862876
| 22>  H       -0.3028359732    -2.3481476770     2.2297598679
| 23> *
| 24>
| 25>                          ****END OF INPUT****

CARTESIAN COORDINATES (ANGSTROEM)
---------------------------------
  N     -0.113330    1.291464   -0.116209
  C     -0.134658    0.039646   -0.260587
  O     -1.094533   -0.689391    0.359136
  C     -1.007154   -2.079675    0.223076
  C     -1.238068   -2.758031   -1.100246
  C     -2.245427   -2.904417    0.023284
  C     -2.078050   -4.105868    0.932988
  O     -0.681171   -4.161742    1.233898
  C     -0.174427   -2.835200    1.249789
  H      0.655442    1.689410   -0.651682
  H      0.550689   -0.570346   -0.862104
  H     -1.537049   -2.123714   -1.927093
  H     -0.614042   -3.606160   -1.364638
  H     -3.212040   -2.426186   -0.073387
  H     -2.677462   -3.974065    1.847459
  H     -2.345749   -5.063650    0.476336
  H      0.895210   -2.890312    1.021486
  H     -0.302836   -2.348148    2.229760

 Total Charge           Charge          ....    0
 Multiplicity           Mult            ....    1
 Number of Electrons    NEL             ....   68
 Basis Dimension        Dim             ....  333

ORBITAL ENERGIES
----------------

  NO   OCC          E(Eh)            E(eV)
   0   2.0000     -20.603428      -560.6478
   1   2.0000     -20.566273      -559.6367
   2   2.0000     -15.545615      -423.0177
   3   2.0000     -11.342961      -308.6577
   4   2.0000     -11.307199      -307.6845
   5   2.0000     -11.288666      -307.1802
   6   2.0000     -11.287674      -307.1532
   7   2.0000     -11.247213      -306.0522
   8   2.0000     -11.246206      -306.0248
   9   2.0000      -1.441873       -39.2354
  10   2.0000      -1.390945       -37.8495
  11   2.0000      -1.209715       -32.9180
  12   2.0000      -1.153573       -31.3903
  13   2.0000      -1.004301       -27.3284
  14   2.0000      -0.920250       -25.0413
  15   2.0000      -0.864768       -23.5315
  16   2.0000      -0.808197       -21.9922
  17   2.0000      -0.783722       -21.3262
  18   2.0000      -0.743605       -20.2345
  19   2.0000      -0.686432       -18.6788
  20   2.0000      -0.670014       -18.2320
  21   2.0000      -0.659879       -17.9562
  22   2.0000      -0.634252       -17.2589
  23   2.0000      -0.613916       -16.7055
  24   2.0000      -0.592706       -16.1283
  25   2.0000      -0.567020       -15.4294
  26   2.0000      -0.565438       -15.3864
  27   2.0000      -0.538291       -14.6477
  28   2.0000      -0.498533       -13.5658
  29   2.0000      -0.451396       -12.2831
  30   2.0000      -0.441971       -12.0266
  31   2.0000      -0.439336       -11.9550
  32   2.0000      -0.412084       -11.2134
  33   2.0000      -0.398888       -10.8543
  34   0.0000       0.136837         3.7235
  35   0.0000       0.147198         4.0055
  36   0.0000       0.152386         4.1466
  37   0.0000       0.167822         4.5667
  38   0.0000       0.178638         4.8610

MULLIKEN ATOMIC CHARGES
-----------------------
   0 N :   -0.332173
   1 C :    0.055785
   2 O :   -0.205245
   3 C :    0.097379
   4 C :   -0.322042
   5 C :   -0.131543
   6 C :   -0.042819
   7 O :   -0.323539
   8 C :   -0.028051
   9 H :    0.228123
  10 H :    0.099921
  11 H :    0.155053
  12 H :    0.148415
  13 H :    0.149408
  14 H :    0.106061
  15 H :    0.119528
  16 H :    0.115084
  17 H :    0.110656
Sum of atomic charges:    0.0000000

LOEWDIN ATOMIC CHARGES
----------------------
   0 N :   -0.075593
   1 C :   -0.385046
   2 O :    0.295786
   3 C :   -0.325132
   4 C :   -0.183116
   5 C :   -0.183914
   6 C :   -0.274987
   7 O :    0.153067
   8 C :   -0.264970
   9 H :    0.169335
  10 H :    0.113313
  11 H :    0.144293
  12 H :    0.142732
  13 H :    0.154048
  14 H :    0.127137
  15 H :    0.130114
  16 H :    0.130710
  17 H :    0.132224

  Mayer bond orders larger than 0.1
B(  0-N ,  1-C ) :   1.9687 B(  0-N ,  9-H ) :   0.8484 B(  1-C ,  2-O ) :   1.0109
B(  1-C , 10-H ) :   0.9259 B(  2-O ,  3-C ) :   0.9570 B(  3-C ,  4-C ) :   0.8988
B(  3-C ,  5-C ) :   0.8621 B(  3-C ,  8-C ) :   0.9559 B(  4-C ,  5-C ) :   0.8851
B(  4-C , 11-H ) :   0.9232 B(  4-C , 12-H ) :   0.9000 B(  5-C ,  6-C ) :   0.9666
B(  5-C , 13-H ) :   0.9063 B(  6-C ,  7-O ) :   0.9206 B(  6-C , 14-H ) :   0.9333
B(  6-C , 15-H ) :   0.9210 B(  7-O ,  8-C ) :   0.9370 B(  8-C , 16-H ) :   0.9173
B(  8-C , 17-H ) :   0.9173

MP2 TOTAL ENERGY:     -438.340211346 Eh
FINAL SINGLE POINT ENERGY      -438.340211345611

DIPOLE MOMENT
-------------
                                X             Y             Z
Electronic contribution:      0.24524       2.33127       1.08225
Nuclear contribution   :      0.00273      -2.92908      -1.81753
                        -----------------------------------------
Total Dipole Moment    :      0.24798      -0.59781      -0.73527
                        -----------------------------------------
Magnitude (a.u.)       :      0.97954
Magnitude (Debye)      :      2.48979

                             ****ORCA TERMINATED NORMALLY****
TOTAL RUN TIME: 0 days 0 hours 15 minutes 46 seconds 958 msec
