                         Program Version 3.0.3 - RELEASE   -
|  1> ! RI-MP2 RIJK def2-TZVP def2-TZVP/C def2-TZVP/JK TIGHTSCF
|  2> % maxcore 2000
|  3> % mp2 density relaxed end
|  4> *xyz 0 1
|  5>  C       -0.2801681621     1.5217989258     0.0313202958
|  6>  C        0.0118643664     0.0393991259     0.1051881927
|  7>  C        1.4119505549    -0.5519344199    -0.1817438956
|  8>  C        2.5967014924     0.2959874969    -0.4905588297
|  9>  C        3.5761168869    -0.3026181601    -1.4863019132
| 10>  O        2.7938830914     1.3919537535     0.0001943302
| 11>  C        0.7791722256    -0.6229517774     1.2055963711
| 12>  C        1.3416979090     0.1309217271     2.3873588037
| 13>  O        0.4029138528    -1.9473731592     1.5086516034
| 14>  H        0.5750874896     2.1229712651     0.3391545711
| 15>  H       -0.5355107502     1.8096463283    -0.9941384602
| 16>  H       -1.1364489443     1.7727227730     0.6674905963
| 17>  H       -0.7728321081    -0.5953039045    -0.2991987425
| 18>  H        1.3933950363    -1.5050863155    -0.6985807265
| 19>  H        3.0728285389    -0.5073341032    -2.4382496941
| 20>  H        4.4074116451     0.3842920997    -1.6478940321
| 21>  H        3.9531289392    -1.2625935685    -1.1151556386
| 22>  H        1.7552553703     1.0956617111     2.0964335104
| 23>  H        0.5564169736     0.2948829796     3.1360494965
| 24>  H        2.1342935338    -0.4604090305     2.8558002117
| 25>  H       -0.3293902917    -1.9042748370     2.1342824597
| 26> *
| 27>
| 28>                          ****END OF INPUT****

CARTESIAN COORDINATES (ANGSTROEM)
---------------------------------
  C     -0.280168    1.521799    0.031320
  C      0.011864    0.039399    0.105188
  C      1.411951   -0.551934   -0.181744
  C      2.596701    0.295987   -0.490559
  C      3.576117   -0.302618   -1.486302
  O      2.793883    1.391954    0.000194
  C      0.779172   -0.622952    1.205596
  C      1.341698    0.130922    2.387359
  O      0.402914   -1.947373    1.508652
  H      0.575087    2.122971    0.339155
  H     -0.535511    1.809646   -0.994138
  H     -1.136449    1.772723    0.667491
  H     -0.772832   -0.595304   -0.299199
  H      1.393395   -1.505086   -0.698581
  H      3.072829   -0.507334   -2.438250
  H      4.407412    0.384292   -1.647894
  H      3.953129   -1.262594   -1.115156
  H      1.755255    1.095662    2.096434
  H      0.556417    0.294883    3.136049
  H      2.134294   -0.460409    2.855800
  H     -0.329390   -1.904275    2.134282

 Total Charge           Charge          ....    0
 Multiplicity           Mult            ....    1
 Number of Electrons    NEL             ....   70
 Basis Dimension        Dim             ....  351

ORBITAL ENERGIES
----------------

  NO   OCC          E(Eh)            E(eV)
   0   2.0000     -20.566141      -559.6331
   1   2.0000     -20.536102      -558.8157
   2   2.0000     -11.330678      -308.3234
   3   2.0000     -11.300477      -307.5016
   4   2.0000     -11.244775      -305.9859
   5   2.0000     -11.235933      -305.7453
   6   2.0000     -11.231289      -305.6189
   7   2.0000     -11.216790      -305.2244
   8   2.0000     -11.216312      -305.2114
   9   2.0000      -1.382844       -37.6291
  10   2.0000      -1.376312       -37.4514
  11   2.0000      -1.147230       -31.2177
  12   2.0000      -1.018441       -27.7132
  13   2.0000      -0.983684       -26.7674
  14   2.0000      -0.956506       -26.0279
  15   2.0000      -0.860937       -23.4273
  16   2.0000      -0.772167       -21.0117
  17   2.0000      -0.721560       -19.6347
  18   2.0000      -0.703710       -19.1489
  19   2.0000      -0.646910       -17.6033
  20   2.0000      -0.637911       -17.3584
  21   2.0000      -0.606712       -16.5095
  22   2.0000      -0.603711       -16.4278
  23   2.0000      -0.599651       -16.3173
  24   2.0000      -0.569654       -15.5011
  25   2.0000      -0.562023       -15.2934
  26   2.0000      -0.551722       -15.0131
  27   2.0000      -0.543023       -14.7764
  28   2.0000      -0.537259       -14.6196
  29   2.0000      -0.507160       -13.8005
  30   2.0000      -0.494882       -13.4664
  31   2.0000      -0.490961       -13.3597
  32   2.0000      -0.421194       -11.4613
  33   2.0000      -0.404100       -10.9961
  34   2.0000      -0.386967       -10.5299
  35   0.0000       0.122805         3.3417
  36   0.0000       0.137569         3.7434
  37   0.0000       0.150253         4.0886
  38   0.0000       0.164666         4.4808
  39   0.0000       0.178364         4.8535

MULLIKEN ATOMIC CHARGES
-----------------------
   0 C :   -0.417306
   1 C :   -0.126417
   2 C :   -0.177254
   3 C :    0.257842
   4 C :   -0.430270
   5 O :   -0.339300
   6 C :    0.218549
   7 C :   -0.421882
   8 O :   -0.458244
   9 H :    0.167363
  10 H :    0.132296
  11 H :    0.130174
  12 H :    0.131745
  13 H :    0.138215
  14 H :    0.147042
  15 H :    0.151671
  16 H :    0.149482
  17 H :    0.166863
  18 H :    0.119429
  19 H :    0.142585
  20 H :    0.317417
Sum of atomic charges:   -0.0000000

LOEWDIN ATOMIC CHARGES
----------------------
   0 C :   -0.289775
   1 C :   -0.185480
   2 C :   -0.142778
   3 C :   -0.335729
   4 C :   -0.276267
   5 O :    0.129242
   6 C :   -0.339754
   7 C :   -0.269989
   8 O :    0.019280
   9 H :    0.133584
  10 H :    0.128000
  11 H :    0.126673
  12 H :    0.156058
  13 H :    0.162955
  14 H :    0.136607
  15 H :    0.131314
  16 H :    0.137772
  17 H :    0.138267
  18 H :    0.126265
  19 H :    0.132863
  20 H :    0.180894

  Mayer bond orders larger than 0.1
B(  0-C ,  1-C ) :   0.8841 B(  0-C ,  9-H ) :   0.9287 B(  0-C , 10-H ) :   0.9324
B(  0-C , 11-H ) :   0.9347 B(  1-C ,  2-C ) :   0.8475 B(  1-C ,  6-C ) :   0.9135
B(  1-C , 12-H ) :   0.9302 B(  2-C ,  3-C ) :   0.9189 B(  2-C ,  6-C ) :   0.7924
B(  2-C , 13-H ) :   0.9147 B(  3-C ,  4-C ) :   0.9148 B(  3-C ,  5-O ) :   1.8777
B(  4-C , 14-H ) :   0.9190 B(  4-C , 15-H ) :   0.9441 B(  4-C , 16-H ) :   0.9171
B(  6-C ,  7-C ) :   0.9468 B(  6-C ,  8-O ) :   0.9964 B(  7-C , 17-H ) :   0.9193
B(  7-C , 18-H ) :   0.9201 B(  7-C , 19-H ) :   0.9373 B(  8-O , 20-H ) :   0.8416

MP2 TOTAL ENERGY:     -423.531918643 Eh
FINAL SINGLE POINT ENERGY      -423.531918642678

DIPOLE MOMENT
-------------
                                X             Y             Z
Electronic contribution:      1.02756      -1.68958       0.28526
Nuclear contribution   :     -1.63598       1.29192      -0.33707
                        -----------------------------------------
Total Dipole Moment    :     -0.60842      -0.39766      -0.05180
                        -----------------------------------------
Magnitude (a.u.)       :      0.72869
Magnitude (Debye)      :      1.85217

                             ****ORCA TERMINATED NORMALLY****
TOTAL RUN TIME: 0 days 0 hours 19 minutes 6 seconds 528 msec
