                         Program Version 3.0.3 - RELEASE   -
|  1> ! RI-MP2 RIJK def2-TZVP def2-TZVP/C def2-TZVP/JK TIGHTSCF
|  2> % maxcore 2000
|  3> % mp2 density relaxed end
|  4> *xyz 0 1
|  5>  N       -0.1403392321     1.1975847052    -0.4630639718
|  6>  C       -0.0105468600     0.0504018926     0.0561264661
|  7>  N       -1.1269368928    -0.6229776875     0.5431398931
|  8>  C       -1.0914489780    -1.9855086645     0.8322845867
|  9>  C        0.0805351760    -2.5806268769     1.0964191772
| 10>  C        1.2887760301    -1.6997752642     1.0913570075
| 11>  O        1.1623046797    -0.6252041458     0.1369668555
| 12>  C       -2.3421700433    -2.6766364094     0.8315283277
| 13>  N       -3.3662561790    -3.2151816239     0.8367732208
| 14>  H        0.7680620744     1.5662473369    -0.7353585649
| 15>  H       -2.0052770329    -0.1742998902     0.3365836592
| 16>  H        0.1527416323    -3.6375073014     1.3058593788
| 17>  H        1.4673173094    -1.2648665013     2.0868847564
| 18>  H        2.1901020763    -2.2404409696     0.7954706976
| 19> *
| 20>
| 21>                          ****END OF INPUT****

CARTESIAN COORDINATES (ANGSTROEM)
---------------------------------
  N     -0.140339    1.197585   -0.463064
  C     -0.010547    0.050402    0.056126
  N     -1.126937   -0.622978    0.543140
  C     -1.091449   -1.985509    0.832285
  C      0.080535   -2.580627    1.096419
  C      1.288776   -1.699775    1.091357
  O      1.162305   -0.625204    0.136967
  C     -2.342170   -2.676636    0.831528
  N     -3.366256   -3.215182    0.836773
  H      0.768062    1.566247   -0.735359
  H     -2.005277   -0.174300    0.336584
  H      0.152742   -3.637507    1.305859
  H      1.467317   -1.264867    2.086885
  H      2.190102   -2.240441    0.795471

 Total Charge           Charge          ....    0
 Multiplicity           Mult            ....    1
 Number of Electrons    NEL             ....   64
 Basis Dimension        Dim             ....  309

ORBITAL ENERGIES
----------------

  NO   OCC          E(Eh)            E(eV)
   0   2.0000     -20.621020      -561.1265
   1   2.0000     -15.624032      -425.1515
   2   2.0000     -15.601809      -424.5468
   3   2.0000     -15.534336      -422.7108
   4   2.0000     -11.391403      -309.9758
   5   2.0000     -11.347514      -308.7815
   6   2.0000     -11.331530      -308.3466
   7   2.0000     -11.300965      -307.5149
   8   2.0000     -11.278123      -306.8933
   9   2.0000      -1.462276       -39.7906
  10   2.0000      -1.302310       -35.4376
  11   2.0000      -1.243336       -33.8329
  12   2.0000      -1.205287       -32.7975
  13   2.0000      -1.097869       -29.8745
  14   2.0000      -0.997531       -27.1442
  15   2.0000      -0.914025       -24.8719
  16   2.0000      -0.801038       -21.7974
  17   2.0000      -0.782862       -21.3028
  18   2.0000      -0.750123       -20.4119
  19   2.0000      -0.704126       -19.1602
  20   2.0000      -0.673221       -18.3193
  21   2.0000      -0.651643       -17.7321
  22   2.0000      -0.623745       -16.9730
  23   2.0000      -0.594967       -16.1899
  24   2.0000      -0.585357       -15.9284
  25   2.0000      -0.565901       -15.3989
  26   2.0000      -0.536021       -14.5859
  27   2.0000      -0.498603       -13.5677
  28   2.0000      -0.492075       -13.3900
  29   2.0000      -0.456484       -12.4216
  30   2.0000      -0.416622       -11.3369
  31   2.0000      -0.351848        -9.5743
  32   0.0000       0.072834         1.9819
  33   0.0000       0.119139         3.2419
  34   0.0000       0.145302         3.9539
  35   0.0000       0.149753         4.0750
  36   0.0000       0.172140         4.6842

MULLIKEN ATOMIC CHARGES
-----------------------
   0 N :   -0.421719
   1 C :    0.272890
   2 N :   -0.335490
   3 C :    0.311062
   4 C :   -0.263275
   5 C :   -0.028659
   6 O :   -0.256224
   7 C :   -0.200697
   8 N :   -0.034368
   9 H :    0.233172
  10 H :    0.272120
  11 H :    0.169653
  12 H :    0.131703
  13 H :    0.149830
Sum of atomic charges:   -0.0000000

LOEWDIN ATOMIC CHARGES
----------------------
   0 N :   -0.083685
   1 C :   -0.491110
   2 N :    0.173531
   3 C :   -0.229585
   4 C :   -0.136420
   5 C :   -0.254948
   6 O :    0.244252
   7 C :   -0.140690
   8 N :    0.094337
   9 H :    0.172200
  10 H :    0.212716
  11 H :    0.157215
  12 H :    0.139416
  13 H :    0.142773

  Mayer bond orders larger than 0.1
B(  0-N ,  1-C ) :   1.9526 B(  0-N ,  9-H ) :   0.8550 B(  1-C ,  2-N ) :   1.0287
B(  1-C ,  6-O ) :   1.1120 B(  2-N ,  3-C ) :   1.0449 B(  2-N , 10-H ) :   0.8601
B(  3-C ,  4-C ) :   1.6499 B(  3-C ,  7-C ) :   0.8924 B(  4-C ,  5-C ) :   0.9546
B(  4-C , 11-H ) :   0.9131 B(  5-C ,  6-O ) :   0.8488 B(  5-C , 12-H ) :   0.9151
B(  5-C , 13-H ) :   0.9341 B(  7-C ,  8-N ) :   2.8306

MP2 TOTAL ENERGY:     -432.167287284 Eh
FINAL SINGLE POINT ENERGY      -432.167287284250

DIPOLE MOMENT
-------------
                                X             Y             Z
Electronic contribution:     -3.70548      -0.98324      -0.53977
Nuclear contribution   :      5.03806       0.70209       1.03884
                        -----------------------------------------
Total Dipole Moment    :      1.33259      -0.28115       0.49907
                        -----------------------------------------
Magnitude (a.u.)       :      1.45048
Magnitude (Debye)      :      3.68684

                             ****ORCA TERMINATED NORMALLY****
TOTAL RUN TIME: 0 days 0 hours 14 minutes 28 seconds 522 msec
