                         Program Version 3.0.3 - RELEASE   -
|  1> ! RI-MP2 RIJK def2-TZVP def2-TZVP/C def2-TZVP/JK TIGHTSCF
|  2> % maxcore 2000
|  3> % mp2 density relaxed end
|  4> *xyz 0 1
|  5>  C       -0.1187497201     1.6802937332     0.2918093121
|  6>  C        0.0205944880     0.1615077027     0.1381188889
|  7>  C       -1.3180074117    -0.5582969234    -0.0524291025
|  8>  C       -2.0617671801    -0.2115510695    -1.3739582135
|  9>  C       -2.9248280702    -1.4535189753    -1.7148139376
| 10>  C       -2.6830561459    -2.4566598204    -0.5627432542
| 11>  O       -2.9027406326    -3.8128814623    -0.9030364515
| 12>  C       -1.2704041097    -2.1046436339    -0.0328058178
| 13>  C       -0.1574517480    -2.7234388403    -0.8881644272
| 14>  H        0.8560140547     2.1533333030     0.4466757530
| 15>  H       -0.5692015298     2.1351537715    -0.5965054022
| 16>  H       -0.7517264015     1.9340045677     1.1497627607
| 17>  H        0.6788381510    -0.0559254913    -0.7125515633
| 18>  H        0.5231830701    -0.2448069023     1.0258636107
| 19>  H       -1.9707350508    -0.2589782034     0.7809417984
| 20>  H       -2.6641828190     0.6944470682    -1.2691412538
| 21>  H       -1.3389981210    -0.0110409496    -2.1729281019
| 22>  H       -3.9868078361    -1.2235294463    -1.8312346127
| 23>  H       -2.6015066262    -1.9070857972    -2.6598356723
| 24>  H       -3.4012271744    -2.2602556930     0.2419508160
| 25>  H       -2.3854216137    -4.0075313312    -1.6914656116
| 26>  H       -1.1530680405    -2.4726549907     0.9929060736
| 27>  H       -0.1809090794    -2.3718386045    -1.9263956471
| 28>  H        0.8311610488    -2.4850735424    -0.4868062975
| 29>  H       -0.2501886220    -3.8142825291    -0.8982112266
| 30> *
| 31>
| 32>                          ****END OF INPUT****

CARTESIAN COORDINATES (ANGSTROEM)
---------------------------------
  C     -0.118750    1.680294    0.291809
  C      0.020594    0.161508    0.138119
  C     -1.318007   -0.558297   -0.052429
  C     -2.061767   -0.211551   -1.373958
  C     -2.924828   -1.453519   -1.714814
  C     -2.683056   -2.456660   -0.562743
  O     -2.902741   -3.812881   -0.903036
  C     -1.270404   -2.104644   -0.032806
  C     -0.157452   -2.723439   -0.888164
  H      0.856014    2.153333    0.446676
  H     -0.569202    2.135154   -0.596505
  H     -0.751726    1.934005    1.149763
  H      0.678838   -0.055925   -0.712552
  H      0.523183   -0.244807    1.025864
  H     -1.970735   -0.258978    0.780942
  H     -2.664183    0.694447   -1.269141
  H     -1.338998   -0.011041   -2.172928
  H     -3.986808   -1.223529   -1.831235
  H     -2.601507   -1.907086   -2.659836
  H     -3.401227   -2.260256    0.241951
  H     -2.385422   -4.007531   -1.691466
  H     -1.153068   -2.472655    0.992906
  H     -0.180909   -2.371839   -1.926396
  H      0.831161   -2.485074   -0.486806
  H     -0.250189   -3.814283   -0.898211

 Total Charge           Charge          ....    0
 Multiplicity           Mult            ....    1
 Number of Electrons    NEL             ....   72
 Basis Dimension        Dim             ....  375

ORBITAL ENERGIES
----------------

  NO   OCC          E(Eh)            E(eV)
   0   2.0000     -20.549577      -559.1824
   1   2.0000     -11.270321      -306.6810
   2   2.0000     -11.223244      -305.4000
   3   2.0000     -11.220508      -305.3256
   4   2.0000     -11.219188      -305.2896
   5   2.0000     -11.218563      -305.2726
   6   2.0000     -11.217589      -305.2461
   7   2.0000     -11.215210      -305.1814
   8   2.0000     -11.213213      -305.1270
   9   2.0000      -1.356608       -36.9152
  10   2.0000      -1.127784       -30.6886
  11   2.0000      -1.034466       -28.1493
  12   2.0000      -1.003282       -27.3007
  13   2.0000      -0.933249       -25.3950
  14   2.0000      -0.907573       -24.6963
  15   2.0000      -0.837687       -22.7946
  16   2.0000      -0.779777       -21.2188
  17   2.0000      -0.740396       -20.1472
  18   2.0000      -0.684989       -18.6395
  19   2.0000      -0.647294       -17.6138
  20   2.0000      -0.631426       -17.1820
  21   2.0000      -0.606641       -16.5075
  22   2.0000      -0.582643       -15.8545
  23   2.0000      -0.573932       -15.6175
  24   2.0000      -0.564294       -15.3552
  25   2.0000      -0.551153       -14.9976
  26   2.0000      -0.532778       -14.4976
  27   2.0000      -0.528475       -14.3805
  28   2.0000      -0.510953       -13.9037
  29   2.0000      -0.489514       -13.3204
  30   2.0000      -0.486503       -13.2384
  31   2.0000      -0.459256       -12.4970
  32   2.0000      -0.447565       -12.1789
  33   2.0000      -0.443862       -12.0781
  34   2.0000      -0.442054       -12.0289
  35   2.0000      -0.407226       -11.0812
  36   0.0000       0.127565         3.4712
  37   0.0000       0.140455         3.8220
  38   0.0000       0.152449         4.1483
  39   0.0000       0.161025         4.3817
  40   0.0000       0.177933         4.8418

MULLIKEN ATOMIC CHARGES
-----------------------
   0 C :   -0.396328
   1 C :   -0.218566
   2 C :   -0.101611
   3 C :   -0.302631
   4 C :   -0.240417
   5 C :    0.032935
   6 O :   -0.461613
   7 C :    0.101858
   8 C :   -0.545723
   9 H :    0.134579
  10 H :    0.130363
  11 H :    0.123858
  12 H :    0.113086
  13 H :    0.114266
  14 H :    0.090796
  15 H :    0.127037
  16 H :    0.117737
  17 H :    0.126714
  18 H :    0.110632
  19 H :    0.099020
  20 H :    0.314933
  21 H :    0.099775
  22 H :    0.137693
  23 H :    0.146089
  24 H :    0.145518
Sum of atomic charges:    0.0000000

LOEWDIN ATOMIC CHARGES
----------------------
   0 C :   -0.316876
   1 C :   -0.275856
   2 C :   -0.232549
   3 C :   -0.229567
   4 C :   -0.240843
   5 C :   -0.322570
   6 O :   -0.015056
   7 C :   -0.239891
   8 C :   -0.299041
   9 H :    0.120527
  10 H :    0.120888
  11 H :    0.120861
  12 H :    0.136982
  13 H :    0.138354
  14 H :    0.156104
  15 H :    0.133285
  16 H :    0.136302
  17 H :    0.134266
  18 H :    0.132741
  19 H :    0.146628
  20 H :    0.170296
  21 H :    0.150382
  22 H :    0.123759
  23 H :    0.126620
  24 H :    0.124254

  Mayer bond orders larger than 0.1
B(  0-C ,  1-C ) :   0.9143 B(  0-C ,  9-H ) :   0.9424 B(  0-C , 10-H ) :   0.9396
B(  0-C , 11-H ) :   0.9399 B(  1-C ,  2-C ) :   0.8856 B(  1-C , 12-H ) :   0.9325
B(  1-C , 13-H ) :   0.9398 B(  2-C ,  3-C ) :   0.9205 B(  2-C ,  7-C ) :   0.8861
B(  2-C , 14-H ) :   0.9292 B(  3-C ,  4-C ) :   0.9151 B(  3-C , 15-H ) :   0.9280
B(  3-C , 16-H ) :   0.9287 B(  4-C ,  5-C ) :   0.9601 B(  4-C , 17-H ) :   0.9322
B(  4-C , 18-H ) :   0.9256 B(  5-C ,  6-O ) :   0.9651 B(  5-C ,  7-C ) :   0.8814
B(  5-C , 19-H ) :   0.9291 B(  6-O , 20-H ) :   0.8404 B(  7-C ,  8-C ) :   0.8354
B(  7-C , 21-H ) :   0.9192 B(  8-C , 22-H ) :   0.9363 B(  8-C , 23-H ) :   0.9387
B(  8-C , 24-H ) :   0.9399

MP2 TOTAL ENERGY:     -388.843852870 Eh
FINAL SINGLE POINT ENERGY      -388.843852869607

DIPOLE MOMENT
-------------
                                X             Y             Z
Electronic contribution:     -4.71836      -5.78913       0.05324
Nuclear contribution   :      5.13833       6.24198      -0.29363
                        -----------------------------------------
Total Dipole Moment    :      0.41997       0.45285      -0.24039
                        -----------------------------------------
Magnitude (a.u.)       :      0.66275
Magnitude (Debye)      :      1.68457

                             ****ORCA TERMINATED NORMALLY****
TOTAL RUN TIME: 0 days 0 hours 35 minutes 51 seconds 90 msec
