                         Program Version 3.0.3 - RELEASE   -
|  1> ! RI-MP2 RIJK def2-TZVP def2-TZVP/C def2-TZVP/JK TIGHTSCF
|  2> % maxcore 2000
|  3> % mp2 density relaxed end
|  4> *xyz 0 1
|  5>  C        0.3586479068     1.5169661624     0.0928617363
|  6>  C       -0.0141637276     0.0721898193     0.1582044438
|  7>  C       -1.3831361367    -0.5836477989    -0.1044488979
|  8>  C       -0.9769404451    -1.7358706919     0.8711433275
|  9>  C       -1.7892147040    -2.0556706191     2.1529113612
| 10>  C       -1.3482882272    -3.5392187869     2.0110388953
| 11>  C       -0.9677933916    -3.2448819426     0.5331370205
| 12>  C        0.3688419104    -1.0210410952     1.0688859572
| 13>  O        0.9725747239    -0.9019267908    -0.2282757906
| 14>  H        1.3668045462     1.6698110951     0.4872695471
| 15>  H        0.3400054746     1.8766774020    -0.9424132728
| 16>  H       -0.3429128779     2.1266283170     0.6715600018
| 17>  H       -2.2260337910     0.0002913919     0.2780957836
| 18>  H       -1.5714470769    -0.8610462672    -1.1455235238
| 19>  H       -1.5167290788    -1.5224009449     3.0688202605
| 20>  H       -2.8639038477    -1.9308757444     1.9869473484
| 21>  H       -0.4706456222    -3.7652485145     2.6229115573
| 22>  H       -2.1035706620    -4.3061653110     2.1957856110
| 23>  H       -1.7787964666    -3.5067322136    -0.1537910996
| 24>  H       -0.0340773882    -3.6563027301     0.1427734839
| 25>  H        1.0347145214    -1.0392515266     1.9266479791
| 26> *
| 27>
| 28>                          ****END OF INPUT****

CARTESIAN COORDINATES (ANGSTROEM)
---------------------------------
  C      0.358648    1.516966    0.092862
  C     -0.014164    0.072190    0.158204
  C     -1.383136   -0.583648   -0.104449
  C     -0.976940   -1.735871    0.871143
  C     -1.789215   -2.055671    2.152911
  C     -1.348288   -3.539219    2.011039
  C     -0.967793   -3.244882    0.533137
  C      0.368842   -1.021041    1.068886
  O      0.972575   -0.901927   -0.228276
  H      1.366805    1.669811    0.487270
  H      0.340005    1.876677   -0.942413
  H     -0.342913    2.126628    0.671560
  H     -2.226034    0.000291    0.278096
  H     -1.571447   -0.861046   -1.145524
  H     -1.516729   -1.522401    3.068820
  H     -2.863904   -1.930876    1.986947
  H     -0.470646   -3.765249    2.622912
  H     -2.103571   -4.306165    2.195786
  H     -1.778796   -3.506732   -0.153791
  H     -0.034077   -3.656303    0.142773
  H      1.034715   -1.039252    1.926648

 Total Charge           Charge          ....    0
 Multiplicity           Mult            ....    1
 Number of Electrons    NEL             ....   68
 Basis Dimension        Dim             ....  351

ORBITAL ENERGIES
----------------

  NO   OCC          E(Eh)            E(eV)
   0   2.0000     -20.556644      -559.3747
   1   2.0000     -11.285286      -307.0882
   2   2.0000     -11.274779      -306.8023
   3   2.0000     -11.237969      -305.8007
   4   2.0000     -11.225610      -305.4644
   5   2.0000     -11.224845      -305.4436
   6   2.0000     -11.223522      -305.4075
   7   2.0000     -11.221035      -305.3399
   8   2.0000     -11.215849      -305.1988
   9   2.0000      -1.408161       -38.3180
  10   2.0000      -1.138748       -30.9869
  11   2.0000      -1.046211       -28.4689
  12   2.0000      -0.988999       -26.9120
  13   2.0000      -0.899582       -24.4789
  14   2.0000      -0.886962       -24.1355
  15   2.0000      -0.844781       -22.9877
  16   2.0000      -0.760078       -20.6828
  17   2.0000      -0.724713       -19.7205
  18   2.0000      -0.671726       -18.2786
  19   2.0000      -0.649626       -17.6772
  20   2.0000      -0.612124       -16.6567
  21   2.0000      -0.604768       -16.4566
  22   2.0000      -0.596764       -16.2388
  23   2.0000      -0.560871       -15.2621
  24   2.0000      -0.545765       -14.8510
  25   2.0000      -0.538064       -14.6415
  26   2.0000      -0.519948       -14.1485
  27   2.0000      -0.499994       -13.6055
  28   2.0000      -0.475048       -12.9267
  29   2.0000      -0.468126       -12.7383
  30   2.0000      -0.440283       -11.9807
  31   2.0000      -0.429222       -11.6797
  32   2.0000      -0.412546       -11.2259
  33   2.0000      -0.380921       -10.3654
  34   0.0000       0.137186         3.7330
  35   0.0000       0.145698         3.9646
  36   0.0000       0.164605         4.4791
  37   0.0000       0.170904         4.6505
  38   0.0000       0.186420         5.0727

MULLIKEN ATOMIC CHARGES
-----------------------
   0 C :   -0.420361
   1 C :    0.140402
   2 C :   -0.217100
   3 C :    0.185257
   4 C :   -0.276988
   5 C :   -0.229801
   6 C :   -0.261370
   7 C :   -0.076443
   8 O :   -0.329321
   9 H :    0.143843
  10 H :    0.139199
  11 H :    0.132010
  12 H :    0.120250
  13 H :    0.112747
  14 H :    0.119153
  15 H :    0.113559
  16 H :    0.115726
  17 H :    0.116223
  18 H :    0.113333
  19 H :    0.128323
  20 H :    0.131358
Sum of atomic charges:    0.0000000

LOEWDIN ATOMIC CHARGES
----------------------
   0 C :   -0.273925
   1 C :   -0.297840
   2 C :   -0.159115
   3 C :   -0.210788
   4 C :   -0.200789
   5 C :   -0.238800
   6 C :   -0.201553
   7 C :   -0.192464
   8 O :    0.185899
   9 H :    0.135435
  10 H :    0.132841
  11 H :    0.131815
  12 H :    0.138772
  13 H :    0.134207
  14 H :    0.126206
  15 H :    0.136272
  16 H :    0.132478
  17 H :    0.122075
  18 H :    0.136455
  19 H :    0.130700
  20 H :    0.132118

  Mayer bond orders larger than 0.1
B(  0-C ,  1-C ) :   0.8842 B(  0-C ,  9-H ) :   0.9391 B(  0-C , 10-H ) :   0.9392
B(  0-C , 11-H ) :   0.9338 B(  1-C ,  2-C ) :   0.9498 B(  1-C ,  7-C ) :   0.9088
B(  1-C ,  8-O ) :   0.9042 B(  2-C ,  3-C ) :   0.9212 B(  2-C , 12-H ) :   0.9138
B(  2-C , 13-H ) :   0.8894 B(  3-C ,  4-C ) :   0.8852 B(  3-C ,  6-C ) :   0.8863
B(  3-C ,  7-C ) :   0.8422 B(  4-C ,  5-C ) :   0.9536 B(  4-C , 14-H ) :   0.9262
B(  4-C , 15-H ) :   0.9197 B(  5-C ,  6-C ) :   0.9518 B(  5-C , 16-H ) :   0.9263
B(  5-C , 17-H ) :   0.9287 B(  6-C , 18-H ) :   0.9273 B(  6-C , 19-H ) :   0.9294
B(  7-C ,  8-O ) :   0.9228 B(  7-C , 20-H ) :   0.9209

MP2 TOTAL ENERGY:     -386.367185803 Eh
FINAL SINGLE POINT ENERGY      -386.367185802822

DIPOLE MOMENT
-------------
                                X             Y             Z
Electronic contribution:      3.23154       0.08479      -1.88985
Nuclear contribution   :     -3.73435       0.21649       2.36290
                        -----------------------------------------
Total Dipole Moment    :     -0.50281       0.30128       0.47305
                        -----------------------------------------
Magnitude (a.u.)       :      0.75324
Magnitude (Debye)      :      1.91458

                             ****ORCA TERMINATED NORMALLY****
TOTAL RUN TIME: 0 days 0 hours 19 minutes 0 seconds 77 msec
