                         Program Version 3.0.3 - RELEASE   -
|  1> ! RI-MP2 RIJK def2-TZVP def2-TZVP/C def2-TZVP/JK TIGHTSCF
|  2> % maxcore 2000
|  3> % mp2 density relaxed end
|  4> *xyz 0 1
|  5>  O       -0.0162684696     0.0188012201     0.2494342553
|  6>  C       -0.0492797891     1.1983000988     0.0303279846
|  7>  C       -1.2718519808     2.1021057671    -0.0765614876
|  8>  C       -0.7918108238     3.3479410595    -0.8588097688
|  9>  C        0.6977039904     3.4667342989    -0.5463393330
| 10>  C        1.6039265992     4.4864512866    -1.1301314227
| 11>  N        1.2567130602     4.5666044324     0.2903546639
| 12>  C        1.2035077963     2.0970659264    -0.1906531937
| 13>  O        2.3447249524     1.7360825055    -0.0879826010
| 14>  H       -2.1186627239     1.5802464045    -0.5259595959
| 15>  H       -1.5616027945     2.3762894040     0.9465398948
| 16>  H       -0.9364695107     3.1893794577    -1.9333529256
| 17>  H       -1.3452013995     4.2522860873    -0.5900392619
| 18>  H        2.6337172336     4.2028375796    -1.3276999040
| 19>  H        1.1691047148     5.2033565956    -1.8226273701
| 20>  H        0.5282257251     5.2670146759     0.4229461259
| 21> *
| 22>
| 23>                          ****END OF INPUT****

CARTESIAN COORDINATES (ANGSTROEM)
---------------------------------
  O     -0.016268    0.018801    0.249434
  C     -0.049280    1.198300    0.030328
  C     -1.271852    2.102106   -0.076561
  C     -0.791811    3.347941   -0.858810
  C      0.697704    3.466734   -0.546339
  C      1.603927    4.486451   -1.130131
  N      1.256713    4.566604    0.290355
  C      1.203508    2.097066   -0.190653
  O      2.344725    1.736083   -0.087983
  H     -2.118663    1.580246   -0.525960
  H     -1.561603    2.376289    0.946540
  H     -0.936470    3.189379   -1.933353
  H     -1.345201    4.252286   -0.590039
  H      2.633717    4.202838   -1.327700
  H      1.169105    5.203357   -1.822627
  H      0.528226    5.267015    0.422946

 Total Charge           Charge          ....    0
 Multiplicity           Mult            ....    1
 Number of Electrons    NEL             ....   66
 Basis Dimension        Dim             ....  321

ORBITAL ENERGIES
----------------

  NO   OCC          E(Eh)            E(eV)
   0   2.0000     -20.577538      -559.9433
   1   2.0000     -20.575860      -559.8976
   2   2.0000     -15.590945      -424.2512
   3   2.0000     -11.350486      -308.8624
   4   2.0000     -11.346230      -308.7466
   5   2.0000     -11.294218      -307.3313
   6   2.0000     -11.282655      -307.0167
   7   2.0000     -11.269165      -306.6496
   8   2.0000     -11.264018      -306.5095
   9   2.0000      -1.426190       -38.8086
  10   2.0000      -1.401966       -38.1494
  11   2.0000      -1.291137       -35.1336
  12   2.0000      -1.125516       -30.6268
  13   2.0000      -0.959803       -26.1176
  14   2.0000      -0.943580       -25.6761
  15   2.0000      -0.902201       -24.5501
  16   2.0000      -0.809730       -22.0339
  17   2.0000      -0.728342       -19.8192
  18   2.0000      -0.703607       -19.1461
  19   2.0000      -0.686287       -18.6748
  20   2.0000      -0.675130       -18.3712
  21   2.0000      -0.658283       -17.9128
  22   2.0000      -0.626839       -17.0572
  23   2.0000      -0.581239       -15.8163
  24   2.0000      -0.573515       -15.6061
  25   2.0000      -0.569197       -15.4886
  26   2.0000      -0.561366       -15.2755
  27   2.0000      -0.510255       -13.8848
  28   2.0000      -0.505877       -13.7656
  29   2.0000      -0.495421       -13.4811
  30   2.0000      -0.479791       -13.0558
  31   2.0000      -0.422602       -11.4996
  32   2.0000      -0.389270       -10.5926
  33   0.0000       0.049188         1.3385
  34   0.0000       0.111905         3.0451
  35   0.0000       0.141559         3.8520
  36   0.0000       0.148336         4.0364
  37   0.0000       0.183814         5.0018

MULLIKEN ATOMIC CHARGES
-----------------------
   0 O :   -0.225823
   1 C :    0.145514
   2 C :   -0.217291
   3 C :   -0.218493
   4 C :    0.104273
   5 C :   -0.201921
   6 N :   -0.371660
   7 C :    0.155214
   8 O :   -0.236850
   9 H :    0.153009
  10 H :    0.145722
  11 H :    0.137045
  12 H :    0.128158
  13 H :    0.147812
  14 H :    0.137033
  15 H :    0.218258
Sum of atomic charges:    0.0000000

LOEWDIN ATOMIC CHARGES
----------------------
   0 O :    0.196186
   1 C :   -0.282208
   2 C :   -0.214978
   3 C :   -0.208782
   4 C :   -0.271964
   5 C :   -0.228420
   6 N :    0.024668
   7 C :   -0.254712
   8 O :    0.209000
   9 H :    0.148778
  10 H :    0.160784
  11 H :    0.148207
  12 H :    0.140081
  13 H :    0.137558
  14 H :    0.126984
  15 H :    0.168818

  Mayer bond orders larger than 0.1
B(  0-O ,  1-C ) :   2.0318 B(  1-C ,  2-C ) :   0.9209 B(  1-C ,  7-C ) :   0.8698
B(  2-C ,  3-C ) :   0.9131 B(  2-C ,  9-H ) :   0.9129 B(  2-C , 10-H ) :   0.9029
B(  3-C ,  4-C ) :   0.9021 B(  3-C , 11-H ) :   0.9169 B(  3-C , 12-H ) :   0.9128
B(  4-C ,  5-C ) :   0.8660 B(  4-C ,  6-N ) :   0.8025 B(  4-C ,  7-C ) :   0.8443
B(  5-C ,  6-N ) :   0.9920 B(  5-C , 13-H ) :   0.9100 B(  5-C , 14-H ) :   0.9225
B(  6-N , 15-H ) :   0.8645 B(  7-C ,  8-O ) :   2.0061

MP2 TOTAL ENERGY:     -437.161352404 Eh
FINAL SINGLE POINT ENERGY      -437.161352404418

DIPOLE MOMENT
-------------
                                X             Y             Z
Electronic contribution:      3.73763      -6.13127       2.07841
Nuclear contribution   :     -5.17874       7.68459      -2.86468
                        -----------------------------------------
Total Dipole Moment    :     -1.44111       1.55332      -0.78627
                        -----------------------------------------
Magnitude (a.u.)       :      2.26005
Magnitude (Debye)      :      5.74460

                             ****ORCA TERMINATED NORMALLY****
TOTAL RUN TIME: 0 days 0 hours 17 minutes 41 seconds 645 msec
