                         Program Version 3.0.3 - RELEASE   -
|  1> ! RI-MP2 RIJK def2-TZVP def2-TZVP/C def2-TZVP/JK TIGHTSCF
|  2> % maxcore 2000
|  3> % mp2 density relaxed end
|  4> *xyz 0 1
|  5>  C        0.2149576571     1.5964737258     0.0088870545
|  6>  C        0.0860082114     0.0816100144     0.0392592017
|  7>  C        0.9232346851    -0.7636254298    -0.9756272946
|  8>  C        1.3919988338    -1.6842409893     0.1961046466
|  9>  N        2.7759750233    -1.6439812220     0.5878660102
| 10>  C        3.0478039894    -0.5775437649     1.4194644144
| 11>  O        4.1164996059    -0.1714087930     1.7779297317
| 12>  O        1.8558083449    -0.0232604384     1.8200802163
| 13>  C        0.7510970907    -0.6952257969     1.2101188538
| 14>  H        1.2580282817     1.9054554228     0.1178627246
| 15>  H       -0.1642810200     1.9941504218    -0.9382051371
| 16>  H       -0.3546830597     2.0600149939     0.8209330571
| 17>  H       -0.9699878265    -0.2051404271    -0.0113468070
| 18>  H        0.3598099444    -1.2511592976    -1.7741403559
| 19>  H        1.7537455854    -0.2079388692    -1.4198967759
| 20>  H        0.9915362978    -2.6997937646     0.1782899649
| 21>  H        3.5277325741    -1.9986528108     0.0199267478
| 22>  H        0.1010274111    -1.0769402752     2.0004281670
| 23> *
| 24>
| 25>                          ****END OF INPUT****

CARTESIAN COORDINATES (ANGSTROEM)
---------------------------------
  C      0.214958    1.596474    0.008887
  C      0.086008    0.081610    0.039259
  C      0.923235   -0.763625   -0.975627
  C      1.391999   -1.684241    0.196105
  N      2.775975   -1.643981    0.587866
  C      3.047804   -0.577544    1.419464
  O      4.116500   -0.171409    1.777930
  O      1.855808   -0.023260    1.820080
  C      0.751097   -0.695226    1.210119
  H      1.258028    1.905455    0.117863
  H     -0.164281    1.994150   -0.938205
  H     -0.354683    2.060015    0.820933
  H     -0.969988   -0.205140   -0.011347
  H      0.359810   -1.251159   -1.774140
  H      1.753746   -0.207939   -1.419897
  H      0.991536   -2.699794    0.178290
  H      3.527733   -1.998653    0.019927
  H      0.101027   -1.076940    2.000428

 Total Charge           Charge          ....    0
 Multiplicity           Mult            ....    1
 Number of Electrons    NEL             ....   68
 Basis Dimension        Dim             ....  333

ORBITAL ENERGIES
----------------

  NO   OCC          E(Eh)            E(eV)
   0   2.0000     -20.599639      -560.5447
   1   2.0000     -20.524721      -558.5061
   2   2.0000     -15.592547      -424.2948
   3   2.0000     -11.399303      -310.1908
   4   2.0000     -11.303885      -307.5943
   5   2.0000     -11.289503      -307.2030
   6   2.0000     -11.248839      -306.0965
   7   2.0000     -11.241059      -305.8848
   8   2.0000     -11.223144      -305.3973
   9   2.0000      -1.465448       -39.8769
  10   2.0000      -1.363967       -37.1154
  11   2.0000      -1.246126       -33.9088
  12   2.0000      -1.133860       -30.8539
  13   2.0000      -0.993597       -27.0372
  14   2.0000      -0.929739       -25.2995
  15   2.0000      -0.873844       -23.7785
  16   2.0000      -0.834120       -22.6976
  17   2.0000      -0.782002       -21.2794
  18   2.0000      -0.725141       -19.7321
  19   2.0000      -0.696801       -18.9609
  20   2.0000      -0.657272       -17.8853
  21   2.0000      -0.633946       -17.2506
  22   2.0000      -0.623273       -16.9601
  23   2.0000      -0.593908       -16.1611
  24   2.0000      -0.589134       -16.0311
  25   2.0000      -0.576171       -15.6784
  26   2.0000      -0.562757       -15.3134
  27   2.0000      -0.524287       -14.2666
  28   2.0000      -0.501209       -13.6386
  29   2.0000      -0.496423       -13.5084
  30   2.0000      -0.460319       -12.5259
  31   2.0000      -0.447418       -12.1749
  32   2.0000      -0.436148       -11.8682
  33   2.0000      -0.399306       -10.8657
  34   0.0000       0.122953         3.3457
  35   0.0000       0.141189         3.8419
  36   0.0000       0.148890         4.0515
  37   0.0000       0.169438         4.6106
  38   0.0000       0.185286         5.0419

MULLIKEN ATOMIC CHARGES
-----------------------
   0 C :   -0.422410
   1 C :   -0.042545
   2 C :   -0.242243
   3 C :   -0.063390
   4 N :   -0.347789
   5 C :    0.317391
   6 O :   -0.319142
   7 O :   -0.259805
   8 C :    0.105000
   9 H :    0.145674
  10 H :    0.134797
  11 H :    0.134675
  12 H :    0.103693
  13 H :    0.128146
  14 H :    0.120289
  15 H :    0.127594
  16 H :    0.252968
  17 H :    0.127096
Sum of atomic charges:   -0.0000000

LOEWDIN ATOMIC CHARGES
----------------------
   0 C :   -0.295125
   1 C :   -0.237273
   2 C :   -0.197538
   3 C :   -0.238255
   4 N :    0.109836
   5 C :   -0.565377
   6 O :    0.102541
   7 O :    0.263374
   8 C :   -0.212608
   9 H :    0.129627
  10 H :    0.126350
  11 H :    0.128123
  12 H :    0.152564
  13 H :    0.128794
  14 H :    0.138819
  15 H :    0.141676
  16 H :    0.190469
  17 H :    0.134003

  Mayer bond orders larger than 0.1
B(  0-C ,  1-C ) :   0.8865 B(  0-C ,  9-H ) :   0.9322 B(  0-C , 10-H ) :   0.9375
B(  0-C , 11-H ) :   0.9359 B(  1-C ,  2-C ) :   0.9281 B(  1-C ,  8-C ) :   0.9129
B(  1-C , 12-H ) :   0.9186 B(  2-C ,  3-C ) :   0.9290 B(  2-C , 13-H ) :   0.9199
B(  2-C , 14-H ) :   0.9088 B(  3-C ,  4-N ) :   0.9610 B(  3-C ,  8-C ) :   0.8920
B(  3-C , 15-H ) :   0.9237 B(  4-N ,  5-C ) :   1.1236 B(  4-N , 16-H ) :   0.8615
B(  5-C ,  6-O ) :   2.0426 B(  5-C ,  7-O ) :   1.0527 B(  7-O ,  8-C ) :   0.9100
B(  8-C , 17-H ) :   0.9419

MP2 TOTAL ENERGY:     -438.410805994 Eh
FINAL SINGLE POINT ENERGY      -438.410805994072

DIPOLE MOMENT
-------------
                                X             Y             Z
Electronic contribution:      6.97147      -2.91609       5.51375
Nuclear contribution   :     -8.33579       2.07836      -6.72813
                        -----------------------------------------
Total Dipole Moment    :     -1.36431      -0.83774      -1.21438
                        -----------------------------------------
Magnitude (a.u.)       :      2.00945
Magnitude (Debye)      :      5.10761

                             ****ORCA TERMINATED NORMALLY****
TOTAL RUN TIME: 0 days 0 hours 17 minutes 4 seconds 889 msec
