                         Program Version 3.0.3 - RELEASE   -
|  1> ! RI-MP2 RIJK def2-TZVP def2-TZVP/C def2-TZVP/JK TIGHTSCF
|  2> % maxcore 2000
|  3> % mp2 density relaxed end
|  4> *xyz 0 1
|  5>  C       -0.7020934873     1.2688139337     0.0985213753
|  6>  C        0.2525861696     0.0822704296    -0.0521055124
|  7>  C        0.5889939403    -0.5779391212     1.2848920160
|  8>  N        1.5343350176    -1.6768244178     1.0901721797
|  9>  C        1.9066703439    -2.3848315958     2.3082425046
| 10>  C        0.8518131642    -3.4103332257     2.8013967028
| 11>  O        0.5658676679    -4.3664994108     1.8009406251
| 12>  C        3.1719460497    -3.1127058544     2.0855844966
| 13>  N        4.1209210760    -3.7508550738     1.9180333580
| 14>  H       -0.2669805182     2.0513854777     0.7298770196
| 15>  H       -0.9304743833     1.7161081488    -0.8731459662
| 16>  H       -1.6502329480     0.9637137043     0.5547997010
| 17>  H       -0.1957277755    -0.6679183954    -0.7173687619
| 18>  H        1.1866364564     0.3994097867    -0.5288165192
| 19>  H        1.0641118422     0.1582098889     1.9472926539
| 20>  H       -0.3494297865    -0.8862517508     1.7810913592
| 21>  H        1.1519449538    -2.3580342589     0.4393878341
| 22>  H        2.0814014356    -1.6470220316     3.1015371725
| 23>  H        1.1883343597    -3.8758666187     3.7386139931
| 24>  H       -0.0847271418    -2.8821136649     3.0013044561
| 25>  H        1.3374850537    -4.9376002401     1.7048471723
| 26> *
| 27>
| 28>                          ****END OF INPUT****

CARTESIAN COORDINATES (ANGSTROEM)
---------------------------------
  C     -0.702093    1.268814    0.098521
  C      0.252586    0.082270   -0.052106
  C      0.588994   -0.577939    1.284892
  N      1.534335   -1.676824    1.090172
  C      1.906670   -2.384832    2.308243
  C      0.851813   -3.410333    2.801397
  O      0.565868   -4.366499    1.800941
  C      3.171946   -3.112706    2.085584
  N      4.120921   -3.750855    1.918033
  H     -0.266981    2.051385    0.729877
  H     -0.930474    1.716108   -0.873146
  H     -1.650233    0.963714    0.554800
  H     -0.195728   -0.667918   -0.717369
  H      1.186636    0.399410   -0.528817
  H      1.064112    0.158210    1.947293
  H     -0.349430   -0.886252    1.781091
  H      1.151945   -2.358034    0.439388
  H      2.081401   -1.647022    3.101537
  H      1.188334   -3.875867    3.738614
  H     -0.084727   -2.882114    3.001304
  H      1.337485   -4.937600    1.704847

 Total Charge           Charge          ....    0
 Multiplicity           Mult            ....    1
 Number of Electrons    NEL             ....   70
 Basis Dimension        Dim             ....  351

ORBITAL ENERGIES
----------------

  NO   OCC          E(Eh)            E(eV)
   0   2.0000     -20.580242      -560.0169
   1   2.0000     -15.575588      -423.8333
   2   2.0000     -15.565731      -423.5651
   3   2.0000     -11.316373      -307.9342
   4   2.0000     -11.305955      -307.6507
   5   2.0000     -11.275888      -306.8325
   6   2.0000     -11.264948      -306.5348
   7   2.0000     -11.230399      -305.5947
   8   2.0000     -11.223184      -305.3984
   9   2.0000      -1.388270       -37.7767
  10   2.0000      -1.246055       -33.9069
  11   2.0000      -1.214589       -33.0507
  12   2.0000      -1.072567       -29.1860
  13   2.0000      -1.017738       -27.6940
  14   2.0000      -0.925500       -25.1841
  15   2.0000      -0.882080       -24.0026
  16   2.0000      -0.820401       -22.3242
  17   2.0000      -0.725912       -19.7531
  18   2.0000      -0.715826       -19.4786
  19   2.0000      -0.685792       -18.6613
  20   2.0000      -0.649937       -17.6857
  21   2.0000      -0.631418       -17.1818
  22   2.0000      -0.620872       -16.8948
  23   2.0000      -0.594155       -16.1678
  24   2.0000      -0.571312       -15.5462
  25   2.0000      -0.560845       -15.2614
  26   2.0000      -0.546170       -14.8620
  27   2.0000      -0.528714       -14.3870
  28   2.0000      -0.507796       -13.8178
  29   2.0000      -0.496843       -13.5198
  30   2.0000      -0.490635       -13.3509
  31   2.0000      -0.483868       -13.1667
  32   2.0000      -0.466968       -12.7068
  33   2.0000      -0.460347       -12.5267
  34   2.0000      -0.393869       -10.7177
  35   0.0000       0.123385         3.3575
  36   0.0000       0.136164         3.7052
  37   0.0000       0.141726         3.8565
  38   0.0000       0.161783         4.4023
  39   0.0000       0.164717         4.4822

MULLIKEN ATOMIC CHARGES
-----------------------
   0 C :   -0.400342
   1 C :   -0.187321
   2 C :   -0.153900
   3 N :   -0.298398
   4 C :    0.023806
   5 C :   -0.038289
   6 O :   -0.475449
   7 C :   -0.175012
   8 N :   -0.052680
   9 H :    0.124918
  10 H :    0.139946
  11 H :    0.124076
  12 H :    0.106791
  13 H :    0.123781
  14 H :    0.110217
  15 H :    0.088377
  16 H :    0.219193
  17 H :    0.130344
  18 H :    0.128664
  19 H :    0.129940
  20 H :    0.331338
Sum of atomic charges:    0.0000000

LOEWDIN ATOMIC CHARGES
----------------------
   0 C :   -0.319165
   1 C :   -0.296005
   2 C :   -0.310659
   3 N :    0.019593
   4 C :   -0.311190
   5 C :   -0.319327
   6 O :   -0.033554
   7 C :   -0.174916
   8 N :    0.061593
   9 H :    0.121426
  10 H :    0.123496
  11 H :    0.120652
  12 H :    0.135163
  13 H :    0.139264
  14 H :    0.132614
  15 H :    0.117274
  16 H :    0.179321
  17 H :    0.172061
  18 H :    0.126712
  19 H :    0.132466
  20 H :    0.183179

  Mayer bond orders larger than 0.1
B(  0-C ,  1-C ) :   0.9216 B(  0-C ,  9-H ) :   0.9385 B(  0-C , 10-H ) :   0.9409
B(  0-C , 11-H ) :   0.9362 B(  1-C ,  2-C ) :   0.9496 B(  1-C , 12-H ) :   0.9296
B(  1-C , 13-H ) :   0.9321 B(  2-C ,  3-N ) :   0.9491 B(  2-C , 14-H ) :   0.9217
B(  2-C , 15-H ) :   0.9140 B(  3-N ,  4-C ) :   0.9623 B(  3-N , 16-H ) :   0.8660
B(  4-C ,  5-C ) :   0.9091 B(  4-C ,  7-C ) :   0.9138 B(  4-C , 17-H ) :   0.8966
B(  5-C ,  6-O ) :   0.9088 B(  5-C , 18-H ) :   0.9258 B(  5-C , 19-H ) :   0.9252
B(  6-O , 20-H ) :   0.8355 B(  7-C ,  8-N ) :   2.8643

MP2 TOTAL ENERGY:     -419.706274778 Eh
FINAL SINGLE POINT ENERGY      -419.706274777713

DIPOLE MOMENT
-------------
                                X             Y             Z
Electronic contribution:      9.15076     -10.50247       3.07436
Nuclear contribution   :    -10.29939      11.18581      -2.57958
                        -----------------------------------------
Total Dipole Moment    :     -1.14863       0.68335       0.49478
                        -----------------------------------------
Magnitude (a.u.)       :      1.42517
Magnitude (Debye)      :      3.62250

                             ****ORCA TERMINATED NORMALLY****
TOTAL RUN TIME: 0 days 0 hours 16 minutes 48 seconds 524 msec
