                         Program Version 3.0.3 - RELEASE   -
|  1> ! RI-MP2 RIJK def2-TZVP def2-TZVP/C def2-TZVP/JK TIGHTSCF
|  2> % maxcore 2000
|  3> % mp2 density relaxed end
|  4> *xyz 0 1
|  5>  O       -0.4976967564     0.2087077026    -0.5757170774
|  6>  C       -0.2563587764     1.2929629376    -0.1270323863
|  7>  C       -1.0731230717     2.3428593520     0.6400510484
|  8>  C        0.0978589217     3.3434170819     0.3949562448
|  9>  C        0.9908358548     2.1934254347    -0.1853044515
| 10>  C        2.1560509623     1.7286291333     0.7427184914
| 11>  C        3.3972664324     2.1176576412    -0.0228102774
| 12>  C        3.1229165080     2.4800825503    -1.2729538492
| 13>  C        1.6464287071     2.4039121049    -1.5742241724
| 14>  H       -2.0504992665     2.5849258471     0.2145131757
| 15>  H       -1.2160259451     2.0656593242     1.6897511277
| 16>  H       -0.1462062055     4.1044300453    -0.3499776896
| 17>  H        0.4908706432     3.8380507900     1.2851092647
| 18>  H        2.0949400287     2.1914525819     1.7347658959
| 19>  H        2.1266234129     0.6416298342     0.9029299877
| 20>  H        4.3881504820     2.0542958796     0.4131227253
| 21>  H        3.8548247801     2.7629140659    -2.0213979187
| 22>  H        1.4238666311     1.5554407376    -2.2367028947
| 23>  H        1.2595100274     3.2998897756    -2.0738623844
| 24> *
| 25>
| 26>                          ****END OF INPUT****

CARTESIAN COORDINATES (ANGSTROEM)
---------------------------------
  O     -0.497697    0.208708   -0.575717
  C     -0.256359    1.292963   -0.127032
  C     -1.073123    2.342859    0.640051
  C      0.097859    3.343417    0.394956
  C      0.990836    2.193425   -0.185304
  C      2.156051    1.728629    0.742718
  C      3.397266    2.117658   -0.022810
  C      3.122917    2.480083   -1.272954
  C      1.646429    2.403912   -1.574224
  H     -2.050499    2.584926    0.214513
  H     -1.216026    2.065659    1.689751
  H     -0.146206    4.104430   -0.349978
  H      0.490871    3.838051    1.285109
  H      2.094940    2.191453    1.734766
  H      2.126623    0.641630    0.902930
  H      4.388150    2.054296    0.413123
  H      3.854825    2.762914   -2.021398
  H      1.423867    1.555441   -2.236703
  H      1.259510    3.299890   -2.073862

 Total Charge           Charge          ....    0
 Multiplicity           Mult            ....    1
 Number of Electrons    NEL             ....   66
 Basis Dimension        Dim             ....  339

ORBITAL ENERGIES
----------------

  NO   OCC          E(Eh)            E(eV)
   0   2.0000     -20.549272      -559.1741
   1   2.0000     -11.325327      -308.1778
   2   2.0000     -11.248076      -306.0757
   3   2.0000     -11.239149      -305.8328
   4   2.0000     -11.238495      -305.8150
   5   2.0000     -11.236872      -305.7708
   6   2.0000     -11.234031      -305.6935
   7   2.0000     -11.231071      -305.6130
   8   2.0000     -11.229321      -305.5654
   9   2.0000      -1.391455       -37.8634
  10   2.0000      -1.163806       -31.6688
  11   2.0000      -1.095793       -29.8180
  12   2.0000      -0.969851       -26.3910
  13   2.0000      -0.953848       -25.9555
  14   2.0000      -0.869449       -23.6589
  15   2.0000      -0.825532       -22.4639
  16   2.0000      -0.741500       -20.1773
  17   2.0000      -0.710450       -19.3323
  18   2.0000      -0.673681       -18.3318
  19   2.0000      -0.645729       -17.5712
  20   2.0000      -0.639661       -17.4061
  21   2.0000      -0.621092       -16.9008
  22   2.0000      -0.573971       -15.6186
  23   2.0000      -0.566987       -15.4285
  24   2.0000      -0.544160       -14.8073
  25   2.0000      -0.526409       -14.3243
  26   2.0000      -0.519024       -14.1234
  27   2.0000      -0.500859       -13.6291
  28   2.0000      -0.495344       -13.4790
  29   2.0000      -0.460164       -12.5217
  30   2.0000      -0.459973       -12.5165
  31   2.0000      -0.389366       -10.5952
  32   2.0000      -0.352298        -9.5865
  33   0.0000       0.127743         3.4761
  34   0.0000       0.136070         3.7027
  35   0.0000       0.157474         4.2851
  36   0.0000       0.157678         4.2906
  37   0.0000       0.164854         4.4859

MULLIKEN ATOMIC CHARGES
-----------------------
   0 O :   -0.255653
   1 C :    0.060023
   2 C :   -0.206288
   3 C :   -0.314181
   4 C :    0.218440
   5 C :   -0.233012
   6 C :   -0.177515
   7 C :   -0.176619
   8 C :   -0.207974
   9 H :    0.135782
  10 H :    0.136558
  11 H :    0.122767
  12 H :    0.126911
  13 H :    0.120291
  14 H :    0.135686
  15 H :    0.128955
  16 H :    0.128802
  17 H :    0.138442
  18 H :    0.118586
Sum of atomic charges:    0.0000000

LOEWDIN ATOMIC CHARGES
----------------------
   0 O :    0.162824
   1 C :   -0.287182
   2 C :   -0.207357
   3 C :   -0.191226
   4 C :   -0.182685
   5 C :   -0.187798
   6 C :   -0.160638
   7 C :   -0.158463
   8 C :   -0.193479
   9 H :    0.139363
  10 H :    0.147132
  11 H :    0.133531
  12 H :    0.129385
  13 H :    0.140347
  14 H :    0.149678
  15 H :    0.137370
  16 H :    0.137284
  17 H :    0.151587
  18 H :    0.140328

  Mayer bond orders larger than 0.1
B(  0-O ,  1-C ) :   2.0467 B(  1-C ,  2-C ) :   0.9223 B(  1-C ,  4-C ) :   0.7803
B(  2-C ,  3-C ) :   0.9545 B(  2-C ,  4-C ) :  -0.1368 B(  2-C ,  9-H ) :   0.9048
B(  2-C , 10-H ) :   0.8961 B(  3-C ,  4-C ) :   0.9013 B(  3-C , 11-H ) :   0.9183
B(  3-C , 12-H ) :   0.9271 B(  4-C ,  5-C ) :   0.8983 B(  4-C ,  8-C ) :   0.9023
B(  5-C ,  6-C ) :   0.9539 B(  5-C , 13-H ) :   0.9154 B(  5-C , 14-H ) :   0.9056
B(  6-C ,  7-C ) :   1.8115 B(  6-C , 15-H ) :   0.9285 B(  7-C ,  8-C ) :   0.9543
B(  7-C , 16-H ) :   0.9286 B(  8-C , 17-H ) :   0.9014 B(  8-C , 18-H ) :   0.9197

MP2 TOTAL ENERGY:     -385.222592264 Eh
FINAL SINGLE POINT ENERGY      -385.222592264470

DIPOLE MOMENT
-------------
                                X             Y             Z
Electronic contribution:     -1.51836      -3.90525      -1.26701
Nuclear contribution   :      1.81341       4.80798       1.61737
                        -----------------------------------------
Total Dipole Moment    :      0.29505       0.90273       0.35036
                        -----------------------------------------
Magnitude (a.u.)       :      1.01229
Magnitude (Debye)      :      2.57304

                             ****ORCA TERMINATED NORMALLY****
TOTAL RUN TIME: 0 days 0 hours 18 minutes 12 seconds 634 msec
