                         Program Version 3.0.3 - RELEASE   -
|  1> ! RI-MP2 RIJK def2-TZVP def2-TZVP/C def2-TZVP/JK TIGHTSCF
|  2> % maxcore 2000
|  3> % mp2 density relaxed end
|  4> *xyz 0 1
|  5>  C        0.0564464657     1.5138986421    -0.3502814393
|  6>  O       -0.2439892994     0.1748141107    -0.6703890443
|  7>  C        0.8123383054    -0.5483322841    -1.2886187542
|  8>  C        1.8878493553    -0.9769517736    -0.2862149793
|  9>  C        0.1958318457    -1.7510745224    -1.9832692492
| 10>  C       -0.9726329939    -2.4527245256    -1.4017052985
| 11>  N       -1.1152098138    -1.6434164961    -2.6304623879
| 12>  H        0.8200098313     1.5973111316     0.4357876779
| 13>  H        0.4053428757     2.0724984845    -1.2324249903
| 14>  H       -0.8664928523     1.9714408656     0.0144890885
| 15>  H        1.2746012197     0.0940935059    -2.0588911508
| 16>  H        1.4439520659    -1.5907012024     0.5028765734
| 17>  H        2.6610972508    -1.5660544952    -0.7897279361
| 18>  H        2.3782637169    -0.1150064510     0.1751647236
| 19>  H        0.9221516844    -2.3317688335    -2.5489790247
| 20>  H       -1.0881779171    -3.5239448406    -1.5402240213
| 21>  H       -1.3889384450    -2.0553150222    -0.4815281328
| 22>  H       -1.5137387153    -0.7455174436    -2.3603446548
| 23> *
| 24>
| 25>                          ****END OF INPUT****

CARTESIAN COORDINATES (ANGSTROEM)
---------------------------------
  C      0.056446    1.513899   -0.350281
  O     -0.243989    0.174814   -0.670389
  C      0.812338   -0.548332   -1.288619
  C      1.887849   -0.976952   -0.286215
  C      0.195832   -1.751075   -1.983269
  C     -0.972633   -2.452725   -1.401705
  N     -1.115210   -1.643416   -2.630462
  H      0.820010    1.597311    0.435788
  H      0.405343    2.072498   -1.232425
  H     -0.866493    1.971441    0.014489
  H      1.274601    0.094094   -2.058891
  H      1.443952   -1.590701    0.502877
  H      2.661097   -1.566054   -0.789728
  H      2.378264   -0.115006    0.175165
  H      0.922152   -2.331769   -2.548979
  H     -1.088178   -3.523945   -1.540224
  H     -1.388938   -2.055315   -0.481528
  H     -1.513739   -0.745517   -2.360345

 Total Charge           Charge          ....    0
 Multiplicity           Mult            ....    1
 Number of Electrons    NEL             ....   56
 Basis Dimension        Dim             ....  283

ORBITAL ENERGIES
----------------

  NO   OCC          E(Eh)            E(eV)
   0   2.0000     -20.562340      -559.5297
   1   2.0000     -15.543980      -422.9732
   2   2.0000     -11.289229      -307.1955
   3   2.0000     -11.277851      -306.8859
   4   2.0000     -11.251791      -306.1768
   5   2.0000     -11.242427      -305.9220
   6   2.0000     -11.222016      -305.3666
   7   2.0000      -1.384858       -37.6839
   8   2.0000      -1.248279       -33.9674
   9   2.0000      -1.040592       -28.3159
  10   2.0000      -0.937745       -25.5173
  11   2.0000      -0.886524       -24.1235
  12   2.0000      -0.862876       -23.4801
  13   2.0000      -0.777071       -21.1452
  14   2.0000      -0.699586       -19.0367
  15   2.0000      -0.677541       -18.4368
  16   2.0000      -0.645740       -17.5715
  17   2.0000      -0.611624       -16.6431
  18   2.0000      -0.594688       -16.1823
  19   2.0000      -0.579338       -15.7646
  20   2.0000      -0.552145       -15.0246
  21   2.0000      -0.535023       -14.5587
  22   2.0000      -0.501458       -13.6454
  23   2.0000      -0.489796       -13.3280
  24   2.0000      -0.466828       -12.7030
  25   2.0000      -0.452899       -12.3240
  26   2.0000      -0.426022       -11.5926
  27   2.0000      -0.379503       -10.3268
  28   0.0000       0.136375         3.7110
  29   0.0000       0.157044         4.2734
  30   0.0000       0.168432         4.5833
  31   0.0000       0.176711         4.8086
  32   0.0000       0.195766         5.3271

MULLIKEN ATOMIC CHARGES
-----------------------
   0 C :   -0.223297
   1 O :   -0.327776
   2 C :    0.100578
   3 C :   -0.410943
   4 C :   -0.033676
   5 C :   -0.187242
   6 N :   -0.373852
   7 H :    0.116522
   8 H :    0.116571
   9 H :    0.141662
  10 H :    0.075275
  11 H :    0.135513
  12 H :    0.132770
  13 H :    0.130037
  14 H :    0.122997
  15 H :    0.119386
  16 H :    0.138253
  17 H :    0.227223
Sum of atomic charges:   -0.0000000

LOEWDIN ATOMIC CHARGES
----------------------
   0 C :   -0.356947
   1 O :    0.152916
   2 C :   -0.342906
   3 C :   -0.290713
   4 C :   -0.272253
   5 C :   -0.266982
   6 N :   -0.018937
   7 H :    0.102495
   8 H :    0.103543
   9 H :    0.114670
  10 H :    0.139123
  11 H :    0.128468
  12 H :    0.129326
  13 H :    0.120856
  14 H :    0.144487
  15 H :    0.121316
  16 H :    0.124753
  17 H :    0.166786

  Mayer bond orders larger than 0.1
B(  0-C ,  1-O ) :   0.9139 B(  0-C ,  7-H ) :   0.9343 B(  0-C ,  8-H ) :   0.9363
B(  0-C ,  9-H ) :   0.9397 B(  1-O ,  2-C ) :   0.8978 B(  2-C ,  3-C ) :   0.9060
B(  2-C ,  4-C ) :   0.9293 B(  2-C , 10-H ) :   0.9345 B(  3-C , 11-H ) :   0.9337
B(  3-C , 12-H ) :   0.9327 B(  3-C , 13-H ) :   0.9330 B(  4-C ,  5-C ) :   0.9590
B(  4-C ,  6-N ) :   0.9586 B(  4-C , 14-H ) :   0.9118 B(  5-C ,  6-N ) :   0.9154
B(  5-C , 15-H ) :   0.9233 B(  5-C , 16-H ) :   0.9113 B(  6-N , 17-H ) :   0.8723

MP2 TOTAL ENERGY:     -326.390451692 Eh
FINAL SINGLE POINT ENERGY      -326.390451692256

DIPOLE MOMENT
-------------
                                X             Y             Z
Electronic contribution:     -3.12348      -1.50272      -2.48328
Nuclear contribution   :      3.77103       2.06455       3.10439
                        -----------------------------------------
Total Dipole Moment    :      0.64754       0.56182       0.62111
                        -----------------------------------------
Magnitude (a.u.)       :      1.05865
Magnitude (Debye)      :      2.69087

                             ****ORCA TERMINATED NORMALLY****
TOTAL RUN TIME: 0 days 0 hours 9 minutes 2 seconds 472 msec
