                         Program Version 3.0.3 - RELEASE   -
|  1> ! RI-MP2 RIJK def2-TZVP def2-TZVP/C def2-TZVP/JK TIGHTSCF
|  2> % maxcore 2000
|  3> % mp2 density relaxed end
|  4> *xyz 0 1
|  5>  C        0.4103565799     1.2679275416    -0.1789371713
|  6>  O        0.1997094594    -0.0832051046     0.1925157614
|  7>  C       -1.1275901988    -0.5358897694     0.0031469126
|  8>  C       -1.3814051613    -0.7784203878    -1.4857003335
|  9>  O       -2.2351769185    -0.2304588900    -2.1313929222
| 10>  C       -1.2849985676    -1.8516529532     0.7826437088
| 11>  C       -1.2063150326    -1.6438181159     2.2906786267
| 12>  O       -2.4776543451    -2.5116707372     0.3765833428
| 13>  H        1.4604210665     1.4908902403     0.0216716910
| 14>  H        0.2049743118     1.4437001341    -1.2437019537
| 15>  H       -0.2215599791     1.9474370662     0.4112454179
| 16>  H       -1.8592469571     0.2111034992     0.3539876885
| 17>  H       -0.6600664460    -1.4923205631    -1.9445411059
| 18>  H       -0.4727470623    -2.5154770503     0.4638045818
| 19>  H       -2.0307773287    -1.0080496831     2.6373275758
| 20>  H       -1.2717902320    -2.6037996965     2.8092859817
| 21>  H       -0.2659266044    -1.1557584206     2.5587654588
| 22>  H       -3.2296346940    -1.9835373697     0.6683748788
| 23> *
| 24>
| 25>                          ****END OF INPUT****

CARTESIAN COORDINATES (ANGSTROEM)
---------------------------------
  C      0.410357    1.267928   -0.178937
  O      0.199709   -0.083205    0.192516
  C     -1.127590   -0.535890    0.003147
  C     -1.381405   -0.778420   -1.485700
  O     -2.235177   -0.230459   -2.131393
  C     -1.284999   -1.851653    0.782644
  C     -1.206315   -1.643818    2.290679
  O     -2.477654   -2.511671    0.376583
  H      1.460421    1.490890    0.021672
  H      0.204974    1.443700   -1.243702
  H     -0.221560    1.947437    0.411245
  H     -1.859247    0.211103    0.353988
  H     -0.660066   -1.492321   -1.944541
  H     -0.472747   -2.515477    0.463805
  H     -2.030777   -1.008050    2.637328
  H     -1.271790   -2.603800    2.809286
  H     -0.265927   -1.155758    2.558765
  H     -3.229635   -1.983537    0.668375

 Total Charge           Charge          ....    0
 Multiplicity           Mult            ....    1
 Number of Electrons    NEL             ....   64
 Basis Dimension        Dim             ....  308

ORBITAL ENERGIES
----------------

  NO   OCC          E(Eh)            E(eV)
   0   2.0000     -20.580928      -560.0355
   1   2.0000     -20.569881      -559.7349
   2   2.0000     -20.563557      -559.5628
   3   2.0000     -11.332943      -308.3851
   4   2.0000     -11.299970      -307.4878
   5   2.0000     -11.297186      -307.4121
   6   2.0000     -11.286336      -307.1168
   7   2.0000     -11.227647      -305.5198
   8   2.0000      -1.410412       -38.3793
   9   2.0000      -1.392518       -37.8923
  10   2.0000      -1.375397       -37.4265
  11   2.0000      -1.064035       -28.9539
  12   2.0000      -0.985443       -26.8153
  13   2.0000      -0.921729       -25.0815
  14   2.0000      -0.847509       -23.0619
  15   2.0000      -0.809058       -22.0156
  16   2.0000      -0.705331       -19.1930
  17   2.0000      -0.694041       -18.8858
  18   2.0000      -0.674959       -18.3666
  19   2.0000      -0.648894       -17.6573
  20   2.0000      -0.646672       -17.5968
  21   2.0000      -0.618466       -16.8293
  22   2.0000      -0.598170       -16.2770
  23   2.0000      -0.582243       -15.8436
  24   2.0000      -0.556354       -15.1392
  25   2.0000      -0.538820       -14.6620
  26   2.0000      -0.524158       -14.2631
  27   2.0000      -0.510332       -13.8868
  28   2.0000      -0.485540       -13.2122
  29   2.0000      -0.474658       -12.9161
  30   2.0000      -0.460921       -12.5423
  31   2.0000      -0.407327       -11.0839
  32   0.0000       0.127594         3.4720
  33   0.0000       0.129746         3.5306
  34   0.0000       0.156834         4.2677
  35   0.0000       0.159020         4.3272
  36   0.0000       0.175264         4.7692

MULLIKEN ATOMIC CHARGES
-----------------------
   0 C :   -0.232920
   1 O :   -0.312268
   2 C :    0.099601
   3 C :    0.085889
   4 O :   -0.253095
   5 C :    0.107915
   6 C :   -0.402914
   7 O :   -0.464879
   8 H :    0.143990
   9 H :    0.130102
  10 H :    0.121556
  11 H :    0.065552
  12 H :    0.077265
  13 H :    0.102848
  14 H :    0.113482
  15 H :    0.149762
  16 H :    0.149445
  17 H :    0.318669
Sum of atomic charges:   -0.0000000

LOEWDIN ATOMIC CHARGES
----------------------
   0 C :   -0.344174
   1 O :    0.164828
   2 C :   -0.327765
   3 C :   -0.274600
   4 O :    0.141029
   5 C :   -0.353442
   6 C :   -0.299100
   7 O :   -0.006581
   8 H :    0.115857
   9 H :    0.107779
  10 H :    0.105566
  11 H :    0.140776
  12 H :    0.115691
  13 H :    0.151682
  14 H :    0.121791
  15 H :    0.128386
  16 H :    0.133195
  17 H :    0.179081

  Mayer bond orders larger than 0.1
B(  0-C ,  1-O ) :   0.8973 B(  0-C ,  8-H ) :   0.9379 B(  0-C ,  9-H ) :   0.9321
B(  0-C , 10-H ) :   0.9373 B(  1-O ,  2-C ) :   0.9349 B(  2-C ,  3-C ) :   0.8534
B(  2-C ,  5-C ) :   0.9269 B(  2-C , 11-H ) :   0.8930 B(  3-C ,  4-O ) :   1.9913
B(  3-C , 12-H ) :   0.9305 B(  5-C ,  6-C ) :   0.9446 B(  5-C ,  7-O ) :   0.8914
B(  5-C , 13-H ) :   0.9070 B(  6-C , 14-H ) :   0.9206 B(  6-C , 15-H ) :   0.9398
B(  6-C , 16-H ) :   0.9322 B(  7-O , 17-H ) :   0.8385

MP2 TOTAL ENERGY:     -421.405830371 Eh
FINAL SINGLE POINT ENERGY      -421.405830370860

DIPOLE MOMENT
-------------
                                X             Y             Z
Electronic contribution:     -2.53444      -1.60468      -5.54008
Nuclear contribution   :      2.93471       2.09975       6.39620
                        -----------------------------------------
Total Dipole Moment    :      0.40027       0.49507       0.85613
                        -----------------------------------------
Magnitude (a.u.)       :      1.06690
Magnitude (Debye)      :      2.71183

                             ****ORCA TERMINATED NORMALLY****
TOTAL RUN TIME: 0 days 0 hours 12 minutes 23 seconds 217 msec
