                         Program Version 3.0.3 - RELEASE   -
|  1> ! RI-MP2 RIJK def2-TZVP def2-TZVP/C def2-TZVP/JK TIGHTSCF
|  2> % maxcore 2000
|  3> % mp2 density relaxed end
|  4> *xyz 0 1
|  5>  C        0.0317506344    -1.2102564148     0.0405219159
|  6>  C        0.0306371697    -0.0071116925     0.0155797537
|  7>  C        0.0163685021     1.4140622294    -0.0398071724
|  8>  C       -0.7270872762     2.2741622456    -1.0819562233
|  9>  C        0.4625221869     3.2884568678    -1.0750021102
| 10>  C        1.1760905077     2.4269560889    -0.0305121538
| 11>  C        0.3218882554     2.2536754420     1.2036092527
| 12>  C       -0.5810040827     3.2711988416     1.6715119349
| 13>  N       -1.3144858603     4.0933058894     2.0250648691
| 14>  H        0.0319908415    -2.2718777812     0.0668733471
| 15>  H       -0.8268257352     1.7534873755    -2.0346371241
| 16>  H       -1.7045448354     2.6487838190    -0.7698562885
| 17>  H        0.9925659186     3.3090589532    -2.0281878549
| 18>  H        0.2354647212     4.3129043370    -0.7700184264
| 19>  H        2.2387782624     2.2249455688     0.0238092058
| 20>  H        0.7946530599     1.6828014704     1.9959534545
| 21> *
| 22>
| 23>                          ****END OF INPUT****

CARTESIAN COORDINATES (ANGSTROEM)
---------------------------------
  C      0.031751   -1.210256    0.040522
  C      0.030637   -0.007112    0.015580
  C      0.016369    1.414062   -0.039807
  C     -0.727087    2.274162   -1.081956
  C      0.462522    3.288457   -1.075002
  C      1.176091    2.426956   -0.030512
  C      0.321888    2.253675    1.203609
  C     -0.581004    3.271199    1.671512
  N     -1.314486    4.093306    2.025065
  H      0.031991   -2.271878    0.066873
  H     -0.826826    1.753487   -2.034637
  H     -1.704545    2.648784   -0.769856
  H      0.992566    3.309059   -2.028188
  H      0.235465    4.312904   -0.770018
  H      2.238778    2.224946    0.023809
  H      0.794653    1.682801    1.995953

 Total Charge           Charge          ....    0
 Multiplicity           Mult            ....    1
 Number of Electrons    NEL             ....   62
 Basis Dimension        Dim             ....  321

ORBITAL ENERGIES
----------------

  NO   OCC          E(Eh)            E(eV)
   0   2.0000     -15.572142      -423.7395
   1   2.0000     -11.296550      -307.3948
   2   2.0000     -11.294367      -307.3353
   3   2.0000     -11.278747      -306.9103
   4   2.0000     -11.276766      -306.8564
   5   2.0000     -11.252351      -306.1920
   6   2.0000     -11.251063      -306.1570
   7   2.0000     -11.250461      -306.1406
   8   2.0000     -11.240789      -305.8774
   9   2.0000      -1.245834       -33.9009
  10   2.0000      -1.209699       -32.9176
  11   2.0000      -1.051655       -28.6170
  12   2.0000      -1.030002       -28.0278
  13   2.0000      -0.932606       -25.3775
  14   2.0000      -0.901847       -24.5405
  15   2.0000      -0.806096       -21.9350
  16   2.0000      -0.743861       -20.2415
  17   2.0000      -0.716453       -19.4957
  18   2.0000      -0.699464       -19.0334
  19   2.0000      -0.652782       -17.7631
  20   2.0000      -0.588748       -16.0206
  21   2.0000      -0.576873       -15.6975
  22   2.0000      -0.562885       -15.3169
  23   2.0000      -0.526622       -14.3301
  24   2.0000      -0.507200       -13.8016
  25   2.0000      -0.501001       -13.6329
  26   2.0000      -0.478365       -13.0170
  27   2.0000      -0.461835       -12.5672
  28   2.0000      -0.441281       -12.0079
  29   2.0000      -0.392612       -10.6835
  30   2.0000      -0.370189       -10.0733
  31   0.0000       0.130364         3.5474
  32   0.0000       0.138654         3.7730
  33   0.0000       0.143574         3.9069
  34   0.0000       0.149897         4.0789
  35   0.0000       0.160075         4.3559

MULLIKEN ATOMIC CHARGES
-----------------------
   0 C :   -0.099048
   1 C :   -0.011981
   2 C :   -0.090312
   3 C :   -0.228021
   4 C :   -0.251432
   5 C :   -0.074060
   6 C :   -0.081226
   7 C :   -0.183136
   8 N :   -0.054387
   9 H :    0.197727
  10 H :    0.134681
  11 H :    0.144818
  12 H :    0.134341
  13 H :    0.142268
  14 H :    0.152269
  15 H :    0.167497
Sum of atomic charges:   -0.0000000

LOEWDIN ATOMIC CHARGES
----------------------
   0 C :   -0.074788
   1 C :   -0.074328
   2 C :   -0.156051
   3 C :   -0.160854
   4 C :   -0.200830
   5 C :   -0.103258
   6 C :   -0.144047
   7 C :   -0.169788
   8 N :    0.066782
   9 H :    0.129420
  10 H :    0.143520
  11 H :    0.139092
  12 H :    0.139965
  13 H :    0.137307
  14 H :    0.145043
  15 H :    0.182815

  Mayer bond orders larger than 0.1
B(  0-C ,  1-C ) :   2.6014 B(  0-C ,  2-C ) :  -0.1598 B(  0-C ,  9-H ) :   0.8706
B(  1-C ,  2-C ) :   1.1664 B(  2-C ,  3-C ) :   0.9379 B(  2-C ,  5-C ) :   0.7616
B(  2-C ,  6-C ) :   0.8272 B(  3-C ,  4-C ) :   0.9780 B(  3-C , 10-H ) :   0.9212
B(  3-C , 11-H ) :   0.9102 B(  4-C ,  5-C ) :   0.9649 B(  4-C , 12-H ) :   0.9269
B(  4-C , 13-H ) :   0.9162 B(  5-C ,  6-C ) :   0.8674 B(  5-C , 14-H ) :   0.9041
B(  6-C ,  7-C ) :   0.9724 B(  6-C , 15-H ) :   0.9121 B(  7-C ,  8-N ) :   2.8241

MP2 TOTAL ENERGY:     -362.894075590 Eh
FINAL SINGLE POINT ENERGY      -362.894075590465

DIPOLE MOMENT
-------------
                                X             Y             Z
Electronic contribution:     -1.11564      -0.48447       4.34828
Nuclear contribution   :      2.08654      -0.39078      -5.15448
                        -----------------------------------------
Total Dipole Moment    :      0.97090      -0.87525      -0.80620
                        -----------------------------------------
Magnitude (a.u.)       :      1.53579
Magnitude (Debye)      :      3.90368

                             ****ORCA TERMINATED NORMALLY****
TOTAL RUN TIME: 0 days 0 hours 16 minutes 5 seconds 81 msec
