                         Program Version 3.0.3 - RELEASE   -
|  1> ! RI-MP2 RIJK def2-TZVP def2-TZVP/C def2-TZVP/JK TIGHTSCF
|  2> % maxcore 2000
|  3> % mp2 density relaxed end
|  4> *xyz 0 1
|  5>  C        0.3603160051     1.4232542626     0.1310337338
|  6>  C        0.2214102580    -0.1060988720     0.1520013081
|  7>  C       -1.2153685499    -0.6446332161     0.1215698572
|  8>  C       -2.0551453066    -0.0425550101     1.2554105128
|  9>  C       -2.0195188541    -0.5889157924    -1.2364218298
| 10>  C       -1.2539762703    -0.3279423103    -2.5321370488
| 11>  C       -2.4216179341    -2.0784887192    -1.0283139371
| 12>  C       -1.3822330243    -2.2137092048     0.1211759458
| 13>  C       -0.1671383063    -3.0754600769    -0.2161198694
| 14>  H        1.4140183775     1.7112725767     0.0595885944
| 15>  H       -0.1612791180     1.8675299239    -0.7228533250
| 16>  H       -0.0425873215     1.8829192854     1.0381343099
| 17>  H        0.7878978622    -0.5213452135    -0.6879349162
| 18>  H        0.7116754714    -0.4893095630     1.0577480389
| 19>  H       -2.1858387980     1.0375588364     1.1352339348
| 20>  H       -3.0541997327    -0.4905310673     1.2831474165
| 21>  H       -1.5857438411    -0.2204191602     2.2306650486
| 22>  H       -2.8648131376     0.1064804953    -1.1888831531
| 23>  H       -0.4043506070    -1.0071775834    -2.6563670280
| 24>  H       -1.9164036998    -0.4807823198    -3.3919871587
| 25>  H       -0.8720284996     0.6963816443    -2.5892642524
| 26>  H       -3.4568606445    -2.2161857670    -0.7063992341
| 27>  H       -2.2472271915    -2.7297859610    -1.8908009751
| 28>  H       -1.8096105527    -2.5793599983     1.0616012462
| 29>  H        0.2873816424    -2.7997541661    -1.1731518204
| 30>  H        0.6092609333    -3.0060660242     0.5531640783
| 31>  H       -0.4647560306    -4.1275789392    -0.2910923572
| 32> *
| 33>
| 34>                          ****END OF INPUT****

CARTESIAN COORDINATES (ANGSTROEM)
---------------------------------
  C      0.360316    1.423254    0.131034
  C      0.221410   -0.106099    0.152001
  C     -1.215369   -0.644633    0.121570
  C     -2.055145   -0.042555    1.255411
  C     -2.019519   -0.588916   -1.236422
  C     -1.253976   -0.327942   -2.532137
  C     -2.421618   -2.078489   -1.028314
  C     -1.382233   -2.213709    0.121176
  C     -0.167138   -3.075460   -0.216120
  H      1.414018    1.711273    0.059589
  H     -0.161279    1.867530   -0.722853
  H     -0.042587    1.882919    1.038134
  H      0.787898   -0.521345   -0.687935
  H      0.711675   -0.489310    1.057748
  H     -2.185839    1.037559    1.135234
  H     -3.054200   -0.490531    1.283147
  H     -1.585744   -0.220419    2.230665
  H     -2.864813    0.106480   -1.188883
  H     -0.404351   -1.007178   -2.656367
  H     -1.916404   -0.480782   -3.391987
  H     -0.872028    0.696382   -2.589264
  H     -3.456861   -2.216186   -0.706399
  H     -2.247227   -2.729786   -1.890801
  H     -1.809611   -2.579360    1.061601
  H      0.287382   -2.799754   -1.173152
  H      0.609261   -3.006066    0.553164
  H     -0.464756   -4.127579   -0.291092

 Total Charge           Charge          ....    0
 Multiplicity           Mult            ....    1
 Number of Electrons    NEL             ....   72
 Basis Dimension        Dim             ....  387

ORBITAL ENERGIES
----------------

  NO   OCC          E(Eh)            E(eV)
   0   2.0000     -11.224175      -305.4253
   1   2.0000     -11.217545      -305.2449
   2   2.0000     -11.216811      -305.2249
   3   2.0000     -11.212400      -305.1049
   4   2.0000     -11.209247      -305.0191
   5   2.0000     -11.208769      -305.0061
   6   2.0000     -11.208682      -305.0037
   7   2.0000     -11.208493      -304.9986
   8   2.0000     -11.207038      -304.9590
   9   2.0000      -1.141144       -31.0521
  10   2.0000      -1.030371       -28.0378
  11   2.0000      -0.998940       -27.1825
  12   2.0000      -0.968538       -26.3553
  13   2.0000      -0.921366       -25.0717
  14   2.0000      -0.869160       -23.6511
  15   2.0000      -0.806667       -21.9505
  16   2.0000      -0.798241       -21.7212
  17   2.0000      -0.688049       -18.7228
  18   2.0000      -0.646726       -17.5983
  19   2.0000      -0.618416       -16.8279
  20   2.0000      -0.615076       -16.7371
  21   2.0000      -0.579339       -15.7646
  22   2.0000      -0.563554       -15.3351
  23   2.0000      -0.557242       -15.1633
  24   2.0000      -0.548726       -14.9316
  25   2.0000      -0.541375       -14.7316
  26   2.0000      -0.527710       -14.3597
  27   2.0000      -0.523871       -14.2552
  28   2.0000      -0.508472       -13.8362
  29   2.0000      -0.495139       -13.4734
  30   2.0000      -0.487636       -13.2693
  31   2.0000      -0.474332       -12.9072
  32   2.0000      -0.433041       -11.7836
  33   2.0000      -0.428378       -11.6568
  34   2.0000      -0.398065       -10.8319
  35   2.0000      -0.397182       -10.8079
  36   0.0000       0.132148         3.5959
  37   0.0000       0.153995         4.1904
  38   0.0000       0.158314         4.3079
  39   0.0000       0.164055         4.4642
  40   0.0000       0.189929         5.1682

MULLIKEN ATOMIC CHARGES
-----------------------
   0 C :   -0.417595
   1 C :   -0.202988
   2 C :    0.220081
   3 C :   -0.477797
   4 C :   -0.106422
   5 C :   -0.449210
   6 C :   -0.223013
   7 C :   -0.103838
   8 C :   -0.443234
   9 H :    0.135708
  10 H :    0.122809
  11 H :    0.133542
  12 H :    0.108512
  13 H :    0.112347
  14 H :    0.136872
  15 H :    0.136750
  16 H :    0.128724
  17 H :    0.094001
  18 H :    0.125959
  19 H :    0.136384
  20 H :    0.126977
  21 H :    0.120710
  22 H :    0.100847
  23 H :    0.093423
  24 H :    0.124262
  25 H :    0.129905
  26 H :    0.136285
Sum of atomic charges:    0.0000000

LOEWDIN ATOMIC CHARGES
----------------------
   0 C :   -0.314843
   1 C :   -0.254499
   2 C :   -0.236618
   3 C :   -0.272123
   4 C :   -0.211002
   5 C :   -0.298260
   6 C :   -0.199498
   7 C :   -0.211964
   8 C :   -0.299370
   9 H :    0.121458
  10 H :    0.119105
  11 H :    0.120057
  12 H :    0.139256
  13 H :    0.141101
  14 H :    0.123546
  15 H :    0.128192
  16 H :    0.125248
  17 H :    0.142904
  18 H :    0.120725
  19 H :    0.125669
  20 H :    0.120412
  21 H :    0.129760
  22 H :    0.130206
  23 H :    0.142955
  24 H :    0.119904
  25 H :    0.122548
  26 H :    0.125129

  Mayer bond orders larger than 0.1
B(  0-C ,  1-C ) :   0.9055 B(  0-C ,  9-H ) :   0.9416 B(  0-C , 10-H ) :   0.9399
B(  0-C , 11-H ) :   0.9434 B(  1-C ,  2-C ) :   0.8914 B(  1-C , 12-H ) :   0.9306
B(  1-C , 13-H ) :   0.9371 B(  2-C ,  3-C ) :   0.8701 B(  2-C ,  4-C ) :   0.8774
B(  2-C ,  7-C ) :   0.8654 B(  3-C , 14-H ) :   0.9453 B(  3-C , 15-H ) :   0.9329
B(  3-C , 16-H ) :   0.9407 B(  4-C ,  5-C ) :   0.8927 B(  4-C ,  6-C ) :   0.9277
B(  4-C , 17-H ) :   0.9223 B(  5-C , 18-H ) :   0.9395 B(  5-C , 19-H ) :   0.9395
B(  5-C , 20-H ) :   0.9425 B(  6-C ,  7-C ) :   0.9281 B(  6-C , 21-H ) :   0.9183
B(  6-C , 22-H ) :   0.9130 B(  7-C ,  8-C ) :   0.8970 B(  7-C , 23-H ) :   0.9251
B(  8-C , 24-H ) :   0.9400 B(  8-C , 25-H ) :   0.9423 B(  8-C , 26-H ) :   0.9390

MP2 TOTAL ENERGY:     -352.913511596 Eh
FINAL SINGLE POINT ENERGY      -352.913511596074

DIPOLE MOMENT
-------------
                                X             Y             Z
Electronic contribution:     -2.08467      -1.55773       0.35356
Nuclear contribution   :      2.09758       1.56084      -0.33407
                        -----------------------------------------
Total Dipole Moment    :      0.01291       0.00311       0.01950
                        -----------------------------------------
Magnitude (a.u.)       :      0.02359
Magnitude (Debye)      :      0.05997

                             ****ORCA TERMINATED NORMALLY****
TOTAL RUN TIME: 0 days 0 hours 23 minutes 36 seconds 233 msec
