                         Program Version 3.0.3 - RELEASE   -
|  1> ! RI-MP2 RIJK def2-TZVP def2-TZVP/C def2-TZVP/JK TIGHTSCF
|  2> % maxcore 2000
|  3> % mp2 density relaxed end
|  4> *xyz 0 1
|  5>  C       -0.0545531197     1.5734460907    -0.0192513147
|  6>  C        0.0030276271     0.0437451565    -0.0020262002
|  7>  C        0.7160724519    -0.5062566322     1.2360615102
|  8>  C        0.8144969748    -2.0379080945     1.2456934201
|  9>  N        1.6818661610    -2.5511961120     0.1654450412
| 10>  C        2.5777135021    -3.2541922985     0.7373426462
| 11>  N        2.4859816735    -3.3498204669     2.1210093057
| 12>  C        1.4007083713    -2.5843085469     2.5507430892
| 13>  N        0.9624494675    -2.3549215125     3.7203167338
| 14>  H        0.9516033418     2.0076206147    -0.0201442396
| 15>  H       -0.5752861338     1.9418451958    -0.9087204287
| 16>  H       -0.5801897945     1.9625539801     0.8600722075
| 17>  H       -1.0166167098    -0.3626168276    -0.0396010586
| 18>  H        0.5129082584    -0.3234664760    -0.8991525320
| 19>  H        1.7299677284    -0.0904170436     1.2993225040
| 20>  H        0.1943225884    -0.2063329352     2.1522172806
| 21>  H       -0.1917652826    -2.4549798420     1.1064849386
| 22>  H        3.3796445359    -3.7713324978     0.2193097086
| 23>  H        3.1401458104    -3.8210319495     2.7229607598
| 24>  H        1.5172817478    -2.8221221825     4.4393556281
| 25> *
| 26>
| 27>                          ****END OF INPUT****

CARTESIAN COORDINATES (ANGSTROEM)
---------------------------------
  C     -0.054553    1.573446   -0.019251
  C      0.003028    0.043745   -0.002026
  C      0.716072   -0.506257    1.236062
  C      0.814497   -2.037908    1.245693
  N      1.681866   -2.551196    0.165445
  C      2.577714   -3.254192    0.737343
  N      2.485982   -3.349820    2.121009
  C      1.400708   -2.584309    2.550743
  N      0.962449   -2.354922    3.720317
  H      0.951603    2.007621   -0.020144
  H     -0.575286    1.941845   -0.908720
  H     -0.580190    1.962554    0.860072
  H     -1.016617   -0.362617   -0.039601
  H      0.512908   -0.323466   -0.899153
  H      1.729968   -0.090417    1.299323
  H      0.194323   -0.206333    2.152217
  H     -0.191765   -2.454980    1.106485
  H      3.379645   -3.771332    0.219310
  H      3.140146   -3.821032    2.722961
  H      1.517282   -2.822122    4.439356

 Total Charge           Charge          ....    0
 Multiplicity           Mult            ....    1
 Number of Electrons    NEL             ....   68
 Basis Dimension        Dim             ....  345

ORBITAL ENERGIES
----------------

  NO   OCC          E(Eh)            E(eV)
   0   2.0000     -15.609336      -424.7516
   1   2.0000     -15.549878      -423.1337
   2   2.0000     -15.533659      -422.6923
   3   2.0000     -11.324463      -308.1543
   4   2.0000     -11.323834      -308.1372
   5   2.0000     -11.264784      -306.5304
   6   2.0000     -11.218074      -305.2593
   7   2.0000     -11.211195      -305.0721
   8   2.0000     -11.206363      -304.9406
   9   2.0000      -1.339968       -36.4624
  10   2.0000      -1.208365       -32.8813
  11   2.0000      -1.159761       -31.5587
  12   2.0000      -1.062730       -28.9183
  13   2.0000      -0.991286       -26.9743
  14   2.0000      -0.904790       -24.6206
  15   2.0000      -0.828819       -22.5533
  16   2.0000      -0.808414       -21.9981
  17   2.0000      -0.779816       -21.2199
  18   2.0000      -0.733190       -19.9511
  19   2.0000      -0.664253       -18.0752
  20   2.0000      -0.644156       -17.5284
  21   2.0000      -0.618407       -16.8277
  22   2.0000      -0.598524       -16.2867
  23   2.0000      -0.570427       -15.5221
  24   2.0000      -0.561390       -15.2762
  25   2.0000      -0.528746       -14.3879
  26   2.0000      -0.507843       -13.8191
  27   2.0000      -0.480924       -13.0866
  28   2.0000      -0.472077       -12.8459
  29   2.0000      -0.468996       -12.7620
  30   2.0000      -0.455418       -12.3925
  31   2.0000      -0.447432       -12.1753
  32   2.0000      -0.408558       -11.1174
  33   2.0000      -0.349672        -9.5151
  34   0.0000       0.118659         3.2289
  35   0.0000       0.131878         3.5886
  36   0.0000       0.154928         4.2158
  37   0.0000       0.165879         4.5138
  38   0.0000       0.177976         4.8430

MULLIKEN ATOMIC CHARGES
-----------------------
   0 C :   -0.384031
   1 C :   -0.192391
   2 C :   -0.250962
   3 C :    0.150328
   4 N :   -0.291973
   5 C :    0.069332
   6 N :   -0.309689
   7 C :    0.014502
   8 N :   -0.367580
   9 H :    0.121772
  10 H :    0.132620
  11 H :    0.121486
  12 H :    0.099732
  13 H :    0.131139
  14 H :    0.104616
  15 H :    0.136688
  16 H :    0.122129
  17 H :    0.147068
  18 H :    0.241260
  19 H :    0.203955
Sum of atomic charges:   -0.0000000

LOEWDIN ATOMIC CHARGES
----------------------
   0 C :   -0.321380
   1 C :   -0.292996
   2 C :   -0.236460
   3 C :   -0.231209
   4 N :    0.089484
   5 C :   -0.294985
   6 N :    0.125662
   7 C :   -0.334271
   8 N :   -0.071239
   9 H :    0.119994
  10 H :    0.120346
  11 H :    0.119921
  12 H :    0.134663
  13 H :    0.140268
  14 H :    0.141942
  15 H :    0.148917
  16 H :    0.165648
  17 H :    0.133521
  18 H :    0.183797
  19 H :    0.158375

  Mayer bond orders larger than 0.1
B(  0-C ,  1-C ) :   0.9157 B(  0-C ,  9-H ) :   0.9406 B(  0-C , 10-H ) :   0.9434
B(  0-C , 11-H ) :   0.9382 B(  1-C ,  2-C ) :   0.9350 B(  1-C , 12-H ) :   0.9302
B(  1-C , 13-H ) :   0.9344 B(  2-C ,  3-C ) :   0.9270 B(  2-C , 14-H ) :   0.9158
B(  2-C , 15-H ) :   0.9243 B(  3-C ,  4-N ) :   0.9332 B(  3-C ,  7-C ) :   0.8656
B(  3-C , 16-H ) :   0.8997 B(  4-N ,  5-C ) :   1.8102 B(  5-C ,  6-N ) :   1.0342
B(  5-C , 17-H ) :   0.9176 B(  6-N ,  7-C ) :   1.0640 B(  6-N , 18-H ) :   0.8661
B(  7-C ,  8-N ) :   2.0774 B(  8-N , 19-H ) :   0.8515

MP2 TOTAL ENERGY:     -398.664673327 Eh
FINAL SINGLE POINT ENERGY      -398.664673326703

DIPOLE MOMENT
-------------
                                X             Y             Z
Electronic contribution:      4.62518     -10.16540       3.59724
Nuclear contribution   :     -3.57103       9.42539      -3.26987
                        -----------------------------------------
Total Dipole Moment    :      1.05415      -0.74000       0.32737
                        -----------------------------------------
Magnitude (a.u.)       :      1.32892
Magnitude (Debye)      :      3.37784

                             ****ORCA TERMINATED NORMALLY****
TOTAL RUN TIME: 0 days 0 hours 17 minutes 19 seconds 979 msec
