                         Program Version 3.0.3 - RELEASE   -
|  1> ! RI-MP2 RIJK def2-TZVP def2-TZVP/C def2-TZVP/JK TIGHTSCF
|  2> % maxcore 2000
|  3> % mp2 density relaxed end
|  4> *xyz 0 1
|  5>  O       -0.1017052140     1.4513950250     0.0181243638
|  6>  C        0.0265909328     0.0411085005    -0.0098785273
|  7>  C       -1.3412516310    -0.6160054290     0.1483079386
|  8>  O       -2.1969973672    -0.1287578930    -0.9041273937
|  9>  C       -2.7667413607    -1.2258152868    -1.6143356871
| 10>  C       -2.7243952434    -2.3968559379    -0.6307790227
| 11>  C       -1.3778245285    -2.1518279504     0.0696089253
| 12>  O       -0.2821629392    -2.5958360896    -0.7230109383
| 13>  H       -0.7717863916     1.6635091105    -0.6427013759
| 14>  H        0.4932165697    -0.3084024902    -0.9390352291
| 15>  H        0.6793674868    -0.2395736753     0.8232621200
| 16>  H       -1.7762699221    -0.2881034098     1.1026419375
| 17>  H       -3.7781376071    -0.9471894950    -1.9245244129
| 18>  H       -2.1747122496    -1.4539895377    -2.5118513032
| 19>  H       -3.5438590295    -2.3230570299     0.0922293475
| 20>  H       -2.7750219996    -3.3778990857    -1.1120359319
| 21>  H       -1.3344607446    -2.5970667715     1.0721687295
| 22>  H       -0.3305305814    -3.5545987941    -0.7863435599
| 23> *
| 24>
| 25>                          ****END OF INPUT****

CARTESIAN COORDINATES (ANGSTROEM)
---------------------------------
  O     -0.101705    1.451395    0.018124
  C      0.026591    0.041109   -0.009879
  C     -1.341252   -0.616005    0.148308
  O     -2.196997   -0.128758   -0.904127
  C     -2.766741   -1.225815   -1.614336
  C     -2.724395   -2.396856   -0.630779
  C     -1.377825   -2.151828    0.069609
  O     -0.282163   -2.595836   -0.723011
  H     -0.771786    1.663509   -0.642701
  H      0.493217   -0.308402   -0.939035
  H      0.679367   -0.239574    0.823262
  H     -1.776270   -0.288103    1.102642
  H     -3.778138   -0.947189   -1.924524
  H     -2.174712   -1.453990   -2.511851
  H     -3.543859   -2.323057    0.092229
  H     -2.775022   -3.377899   -1.112036
  H     -1.334461   -2.597067    1.072169
  H     -0.330531   -3.554599   -0.786344

 Total Charge           Charge          ....    0
 Multiplicity           Mult            ....    1
 Number of Electrons    NEL             ....   64
 Basis Dimension        Dim             ....  308

ORBITAL ENERGIES
----------------

  NO   OCC          E(Eh)            E(eV)
   0   2.0000     -20.569584      -559.7268
   1   2.0000     -20.555035      -559.3309
   2   2.0000     -20.539396      -558.9054
   3   2.0000     -11.295679      -307.3711
   4   2.0000     -11.278914      -306.9149
   5   2.0000     -11.278792      -306.9115
   6   2.0000     -11.262390      -306.4652
   7   2.0000     -11.237291      -305.7822
   8   2.0000      -1.391936       -37.8765
   9   2.0000      -1.366890       -37.1950
  10   2.0000      -1.341479       -36.5035
  11   2.0000      -1.056459       -28.7477
  12   2.0000      -1.023780       -27.8585
  13   2.0000      -0.903659       -24.5898
  14   2.0000      -0.827414       -22.5151
  15   2.0000      -0.786540       -21.4028
  16   2.0000      -0.729651       -19.8548
  17   2.0000      -0.694371       -18.8948
  18   2.0000      -0.671569       -18.2743
  19   2.0000      -0.660467       -17.9722
  20   2.0000      -0.608632       -16.5617
  21   2.0000      -0.597389       -16.2558
  22   2.0000      -0.583170       -15.8689
  23   2.0000      -0.571533       -15.5522
  24   2.0000      -0.548815       -14.9340
  25   2.0000      -0.536161       -14.5897
  26   2.0000      -0.514650       -14.0043
  27   2.0000      -0.482625       -13.1329
  28   2.0000      -0.474130       -12.9017
  29   2.0000      -0.454511       -12.3679
  30   2.0000      -0.436915       -11.8891
  31   2.0000      -0.410124       -11.1600
  32   0.0000       0.120495         3.2788
  33   0.0000       0.156795         4.2666
  34   0.0000       0.163980         4.4621
  35   0.0000       0.169332         4.6078
  36   0.0000       0.191634         5.2146

MULLIKEN ATOMIC CHARGES
-----------------------
   0 O :   -0.482223
   1 C :   -0.017257
   2 C :    0.057476
   3 O :   -0.352638
   4 C :   -0.010917
   5 C :   -0.265997
   6 C :    0.030406
   7 O :   -0.468437
   8 H :    0.326747
   9 H :    0.117436
  10 H :    0.100616
  11 H :    0.091494
  12 H :    0.118394
  13 H :    0.090629
  14 H :    0.116803
  15 H :    0.123870
  16 H :    0.108066
  17 H :    0.315534
Sum of atomic charges:   -0.0000000

LOEWDIN ATOMIC CHARGES
----------------------
   0 O :   -0.049774
   1 C :   -0.327901
   2 C :   -0.293603
   3 O :    0.147814
   4 C :   -0.303114
   5 C :   -0.252583
   6 C :   -0.322674
   7 O :   -0.011921
   8 H :    0.176684
   9 H :    0.123683
  10 H :    0.131099
  11 H :    0.144579
  12 H :    0.124828
  13 H :    0.122310
  14 H :    0.143039
  15 H :    0.136099
  16 H :    0.135676
  17 H :    0.175757

  Mayer bond orders larger than 0.1
B(  0-O ,  1-C ) :   0.9207 B(  0-O ,  8-H ) :   0.8327 B(  1-C ,  2-C ) :   0.9564
B(  1-C ,  9-H ) :   0.9157 B(  1-C , 10-H ) :   0.9235 B(  2-C ,  3-O ) :   0.8800
B(  2-C ,  6-C ) :   0.9097 B(  2-C , 11-H ) :   0.9178 B(  3-O ,  4-C ) :   0.9357
B(  4-C ,  5-C ) :   0.9640 B(  4-C , 12-H ) :   0.9287 B(  4-C , 13-H ) :   0.9193
B(  5-C ,  6-C ) :   0.9133 B(  5-C , 14-H ) :   0.9153 B(  5-C , 15-H ) :   0.9205
B(  6-C ,  7-O ) :   0.9869 B(  6-C , 16-H ) :   0.9370 B(  7-O , 17-H ) :   0.8436

MP2 TOTAL ENERGY:     -421.420439730 Eh
FINAL SINGLE POINT ENERGY      -421.420439729709

DIPOLE MOMENT
-------------
                                X             Y             Z
Electronic contribution:      1.31044       2.28842       0.09384
Nuclear contribution   :     -2.03421      -3.82461      -0.15702
                        -----------------------------------------
Total Dipole Moment    :     -0.72377      -1.53620      -0.06319
                        -----------------------------------------
Magnitude (a.u.)       :      1.69933
Magnitude (Debye)      :      4.31936

                             ****ORCA TERMINATED NORMALLY****
TOTAL RUN TIME: 0 days 0 hours 11 minutes 24 seconds 447 msec
