                         Program Version 3.0.3 - RELEASE   -
|  1> ! RI-MP2 RIJK def2-TZVP def2-TZVP/C def2-TZVP/JK TIGHTSCF
|  2> % maxcore 2000
|  3> % mp2 density relaxed end
|  4> *xyz 0 1
|  5>  C       -1.0187324717     1.0968293979    -0.0627671261
|  6>  C       -0.0449228123    -0.0702039420    -0.0561112908
|  7>  C        1.2993388721     0.0561633985    -0.8372439591
|  8>  C        2.0348806633    -0.6684451679     0.3399604423
|  9>  C        3.3208206133    -0.1578643485     0.7772429516
| 10>  N        4.3299787374     0.2757054080     1.1396724946
| 11>  C        0.7872310712    -0.3597417311     1.1993678637
| 12>  C        0.7475761964     0.2612457970     2.5222302191
| 13>  O        0.3802608134    -1.1161068298     2.3088857575
| 14>  H       -0.5218972372     2.0288900806     0.2264821202
| 15>  H       -1.4489052043     1.2405087412    -1.0592221265
| 16>  H       -1.8465490168     0.9224891036     0.6326794312
| 17>  H       -0.5574523206    -0.9937818839    -0.3506704594
| 18>  H        1.3656882057    -0.4277411097    -1.8116571270
| 19>  H        1.6231054475     1.0953641353    -0.9262545114
| 20>  H        2.1067129296    -1.7454159284     0.1602212842
| 21>  H        1.6750857122     0.4158413952     3.0702332411
| 22>  H       -0.0748003491     0.9233346740     2.7860068148
| 23> *
| 24>
| 25>                          ****END OF INPUT****

CARTESIAN COORDINATES (ANGSTROEM)
---------------------------------
  C     -1.018732    1.096829   -0.062767
  C     -0.044923   -0.070204   -0.056111
  C      1.299339    0.056163   -0.837244
  C      2.034881   -0.668445    0.339960
  C      3.320821   -0.157864    0.777243
  N      4.329979    0.275705    1.139672
  C      0.787231   -0.359742    1.199368
  C      0.747576    0.261246    2.522230
  O      0.380261   -1.116107    2.308886
  H     -0.521897    2.028890    0.226482
  H     -1.448905    1.240509   -1.059222
  H     -1.846549    0.922489    0.632679
  H     -0.557452   -0.993782   -0.350670
  H      1.365688   -0.427741   -1.811657
  H      1.623105    1.095364   -0.926255
  H      2.106713   -1.745416    0.160221
  H      1.675086    0.415841    3.070233
  H     -0.074800    0.923335    2.786007

 Total Charge           Charge          ....    0
 Multiplicity           Mult            ....    1
 Number of Electrons    NEL             ....   66
 Basis Dimension        Dim             ....  333

ORBITAL ENERGIES
----------------

  NO   OCC          E(Eh)            E(eV)
   0   2.0000     -20.585680      -560.1648
   1   2.0000     -15.572586      -423.7516
   2   2.0000     -11.316751      -307.9444
   3   2.0000     -11.298138      -307.4380
   4   2.0000     -11.289826      -307.2118
   5   2.0000     -11.275774      -306.8294
   6   2.0000     -11.260151      -306.4043
   7   2.0000     -11.258478      -306.3588
   8   2.0000     -11.236486      -305.7603
   9   2.0000      -1.434097       -39.0238
  10   2.0000      -1.223054       -33.2810
  11   2.0000      -1.163676       -31.6652
  12   2.0000      -1.027580       -27.9619
  13   2.0000      -0.938425       -25.5358
  14   2.0000      -0.920756       -25.0550
  15   2.0000      -0.884612       -24.0715
  16   2.0000      -0.770559       -20.9680
  17   2.0000      -0.721811       -19.6415
  18   2.0000      -0.697280       -18.9739
  19   2.0000      -0.693801       -18.8793
  20   2.0000      -0.614925       -16.7330
  21   2.0000      -0.604184       -16.4407
  22   2.0000      -0.585885       -15.9427
  23   2.0000      -0.574213       -15.6251
  24   2.0000      -0.552680       -15.0392
  25   2.0000      -0.542944       -14.7743
  26   2.0000      -0.521198       -14.1825
  27   2.0000      -0.510784       -13.8991
  28   2.0000      -0.491180       -13.3657
  29   2.0000      -0.476235       -12.9590
  30   2.0000      -0.448918       -12.2157
  31   2.0000      -0.446638       -12.1536
  32   2.0000      -0.430758       -11.7215
  33   0.0000       0.119298         3.2463
  34   0.0000       0.137643         3.7455
  35   0.0000       0.149927         4.0797
  36   0.0000       0.159225         4.3327
  37   0.0000       0.168792         4.5931

MULLIKEN ATOMIC CHARGES
-----------------------
   0 C :   -0.455981
   1 C :    0.082138
   2 C :   -0.339842
   3 C :    0.178744
   4 C :   -0.253170
   5 N :   -0.052709
   6 C :   -0.004006
   7 C :   -0.079356
   8 O :   -0.323094
   9 H :    0.133770
  10 H :    0.144497
  11 H :    0.147838
  12 H :    0.114773
  13 H :    0.140089
  14 H :    0.145878
  15 H :    0.150115
  16 H :    0.142977
  17 H :    0.127338
Sum of atomic charges:    0.0000000

LOEWDIN ATOMIC CHARGES
----------------------
   0 C :   -0.292406
   1 C :   -0.211994
   2 C :   -0.160594
   3 C :   -0.173488
   4 C :   -0.172552
   5 N :    0.062063
   6 C :   -0.280787
   7 C :   -0.214229
   8 O :    0.184176
   9 H :    0.126344
  10 H :    0.128920
  11 H :    0.130119
  12 H :    0.160886
  13 H :    0.132437
  14 H :    0.145836
  15 H :    0.180754
  16 H :    0.129968
  17 H :    0.124550

  Mayer bond orders larger than 0.1
B(  0-C ,  1-C ) :   0.8768 B(  0-C ,  9-H ) :   0.9377 B(  0-C , 10-H ) :   0.9370
B(  0-C , 11-H ) :   0.9397 B(  1-C ,  2-C ) :   0.9106 B(  1-C ,  6-C ) :   0.8541
B(  1-C , 12-H ) :   0.9121 B(  2-C ,  3-C ) :   0.8863 B(  2-C , 13-H ) :   0.9333
B(  2-C , 14-H ) :   0.9109 B(  3-C ,  4-C ) :   0.9279 B(  3-C ,  6-C ) :   0.8384
B(  3-C , 15-H ) :   0.8826 B(  4-C ,  5-N ) :   2.8657 B(  6-C ,  7-C ) :   0.9977
B(  6-C ,  8-O ) :   0.9142 B(  7-C ,  8-O ) :   0.8916 B(  7-C , 16-H ) :   0.9035
B(  7-C , 17-H ) :   0.9149

MP2 TOTAL ENERGY:     -401.241158899 Eh
FINAL SINGLE POINT ENERGY      -401.241158899294

DIPOLE MOMENT
-------------
                                X             Y             Z
Electronic contribution:      7.09227      -3.62145       3.65449
Nuclear contribution   :     -8.42253       3.82235      -4.43018
                        -----------------------------------------
Total Dipole Moment    :     -1.33026       0.20090      -0.77568
                        -----------------------------------------
Magnitude (a.u.)       :      1.55294
Magnitude (Debye)      :      3.94727

                             ****ORCA TERMINATED NORMALLY****
TOTAL RUN TIME: 0 days 0 hours 17 minutes 50 seconds 739 msec
