                         Program Version 3.0.3 - RELEASE   -
|  1> ! RI-MP2 RIJK def2-TZVP def2-TZVP/C def2-TZVP/JK TIGHTSCF
|  2> % maxcore 2000
|  3> % mp2 density relaxed end
|  4> *xyz 0 1
|  5>  O       -0.0739600925     1.3459960889     0.1080992977
|  6>  C        0.0022858424    -0.0510210591    -0.0147265401
|  7>  C       -0.6349353500    -0.8907355039     1.0850910106
|  8>  C       -1.3266245036    -0.7398512327    -0.2443902705
|  9>  C       -2.5941822183     0.0940185271    -0.3733857271
| 10>  C       -3.7865764206    -0.6484259607     0.0234271114
| 11>  C       -4.7571950404    -1.2777821479     0.3495221385
| 12>  C        1.1802871845    -0.5427480505    -0.6819926250
| 13>  C        2.1830560746    -0.9343965638    -1.2188897372
| 14>  H        0.6640777960     1.6327892686     0.6574840848
| 15>  H       -0.1823364538    -1.8418628081     1.3388614145
| 16>  H       -1.0380882747    -0.3269554132     1.9198566603
| 17>  H       -1.2892856984    -1.6027393425    -0.9007926720
| 18>  H       -2.4942850792     1.0006066273     0.2313572475
| 19>  H       -2.7019088874     0.4334119888    -1.4114049652
| 20>  H       -5.6208652740    -1.8235740848     0.6379809443
| 21>  H        3.0611819853    -1.2812197235    -1.7049582724
| 22> *
| 23>
| 24>                          ****END OF INPUT****

CARTESIAN COORDINATES (ANGSTROEM)
---------------------------------
  O     -0.073960    1.345996    0.108099
  C      0.002286   -0.051021   -0.014727
  C     -0.634935   -0.890736    1.085091
  C     -1.326625   -0.739851   -0.244390
  C     -2.594182    0.094019   -0.373386
  C     -3.786576   -0.648426    0.023427
  C     -4.757195   -1.277782    0.349522
  C      1.180287   -0.542748   -0.681993
  C      2.183056   -0.934397   -1.218890
  H      0.664078    1.632789    0.657484
  H     -0.182336   -1.841863    1.338861
  H     -1.038088   -0.326955    1.919857
  H     -1.289286   -1.602739   -0.900793
  H     -2.494285    1.000607    0.231357
  H     -2.701909    0.433412   -1.411405
  H     -5.620865   -1.823574    0.637981
  H      3.061182   -1.281220   -1.704958

 Total Charge           Charge          ....    0
 Multiplicity           Mult            ....    1
 Number of Electrons    NEL             ....   64
 Basis Dimension        Dim             ....  327

ORBITAL ENERGIES
----------------

  NO   OCC          E(Eh)            E(eV)
   0   2.0000     -20.578377      -559.9661
   1   2.0000     -11.320768      -308.0538
   2   2.0000     -11.255708      -306.2834
   3   2.0000     -11.253663      -306.2277
   4   2.0000     -11.241994      -305.9102
   5   2.0000     -11.241148      -305.8872
   6   2.0000     -11.233515      -305.6795
   7   2.0000     -11.232659      -305.6562
   8   2.0000     -11.218520      -305.2714
   9   2.0000      -1.390786       -37.8452
  10   2.0000      -1.162764       -31.6404
  11   2.0000      -1.062954       -28.9245
  12   2.0000      -1.031080       -28.0571
  13   2.0000      -0.966705       -26.3054
  14   2.0000      -0.868132       -23.6231
  15   2.0000      -0.814675       -22.1684
  16   2.0000      -0.763786       -20.7837
  17   2.0000      -0.718094       -19.5403
  18   2.0000      -0.703448       -19.1418
  19   2.0000      -0.674338       -18.3497
  20   2.0000      -0.637458       -17.3461
  21   2.0000      -0.624880       -17.0039
  22   2.0000      -0.609153       -16.5759
  23   2.0000      -0.562652       -15.3105
  24   2.0000      -0.539991       -14.6939
  25   2.0000      -0.528449       -14.3798
  26   2.0000      -0.465223       -12.6594
  27   2.0000      -0.438080       -11.9208
  28   2.0000      -0.402097       -10.9416
  29   2.0000      -0.390429       -10.6241
  30   2.0000      -0.383643       -10.4395
  31   2.0000      -0.363693        -9.8966
  32   0.0000       0.132940         3.6175
  33   0.0000       0.155012         4.2181
  34   0.0000       0.159399         4.3375
  35   0.0000       0.165896         4.5142
  36   0.0000       0.166619         4.5339

MULLIKEN ATOMIC CHARGES
-----------------------
   0 O :   -0.467727
   1 C :    0.116999
   2 C :   -0.289946
   3 C :   -0.069787
   4 C :   -0.388765
   5 C :   -0.011876
   6 C :   -0.146696
   7 C :   -0.083749
   8 C :   -0.123042
   9 H :    0.329376
  10 H :    0.142150
  11 H :    0.140707
  12 H :    0.143257
  13 H :    0.174263
  14 H :    0.151083
  15 H :    0.188915
  16 H :    0.194839
Sum of atomic charges:    0.0000000

LOEWDIN ATOMIC CHARGES
----------------------
   0 O :    0.038282
   1 C :   -0.334765
   2 C :   -0.166924
   3 C :   -0.158413
   4 C :   -0.222025
   5 C :   -0.105052
   6 C :   -0.108128
   7 C :   -0.074182
   8 C :   -0.083647
   9 H :    0.187376
  10 H :    0.139619
  11 H :    0.143645
  12 H :    0.160324
  13 H :    0.166300
  14 H :    0.163526
  15 H :    0.125754
  16 H :    0.128309

  Mayer bond orders larger than 0.1
B(  0-O ,  1-C ) :   0.9117 B(  0-O ,  9-H ) :   0.8344 B(  1-C ,  2-C ) :   0.8553
B(  1-C ,  3-C ) :   0.8409 B(  1-C ,  7-C ) :   1.2165 B(  1-C ,  8-C ) :  -0.1166
B(  2-C ,  3-C ) :   0.9138 B(  2-C , 10-H ) :   0.9165 B(  2-C , 11-H ) :   0.9122
B(  3-C ,  4-C ) :   0.8748 B(  3-C , 12-H ) :   0.9258 B(  4-C ,  5-C ) :   1.0909
B(  4-C , 13-H ) :   0.9364 B(  4-C , 14-H ) :   0.9234 B(  5-C ,  6-C ) :   2.6110
B(  6-C , 15-H ) :   0.9019 B(  7-C ,  8-C ) :   2.5607 B(  8-C , 16-H ) :   0.8910

MP2 TOTAL ENERGY:     -383.909050840 Eh
FINAL SINGLE POINT ENERGY      -383.909050840165

DIPOLE MOMENT
-------------
                                X             Y             Z
Electronic contribution:      1.49322       0.74894      -1.06680
Nuclear contribution   :     -1.01160      -0.90961       1.37416
                        -----------------------------------------
Total Dipole Moment    :      0.48162      -0.16067       0.30736
                        -----------------------------------------
Magnitude (a.u.)       :      0.59350
Magnitude (Debye)      :      1.50855

                             ****ORCA TERMINATED NORMALLY****
TOTAL RUN TIME: 0 days 0 hours 14 minutes 50 seconds 153 msec
