                         Program Version 3.0.3 - RELEASE   -
|  1> ! RI-MP2 RIJK def2-TZVP def2-TZVP/C def2-TZVP/JK TIGHTSCF
|  2> % maxcore 2000
|  3> % mp2 density relaxed end
|  4> *xyz 0 1
|  5>  C        0.1052235164     1.2279093031     0.3828522348
|  6>  C        0.0939140150    -0.1938151139    -0.1874568408
|  7>  C        0.5831794640    -0.3653549595    -1.6512023326
|  8>  C       -0.2970654272     0.4433341082    -2.6235686529
|  9>  C        2.0490579977     0.0827928360    -1.7925115396
| 10>  N        0.3280566650    -1.7764259466    -1.9664591549
| 11>  C        1.2515029501    -2.5706521565    -2.2697514395
| 12>  O        0.9631474003    -3.8647560561    -2.5443046871
| 13>  C        2.0770464067    -4.6780051513    -2.8844099855
| 14>  H        1.1112175221     1.6588484914     0.4051172524
| 15>  H       -0.5365554824     1.9053147089    -0.1887700504
| 16>  H       -0.2665137321     1.2207749331     1.4124811040
| 17>  H        0.7122384449    -0.8434868866     0.4447352593
| 18>  H       -0.9207605013    -0.6031792374    -0.1382801166
| 19>  H       -0.2159146299     1.5183894244    -2.4389343875
| 20>  H        0.0094813084     0.2531961965    -3.6568966954
| 21>  H       -1.3440310324     0.1446811156    -2.5242981968
| 22>  H        2.7073084452    -0.4453978658    -1.0937938204
| 23>  H        2.4209775029    -0.0845197686    -2.8090987134
| 24>  H        2.1423818205     1.1522418203    -1.5872322401
| 25>  H        2.3205005407    -2.3334822018    -2.3446131477
| 26>  H        2.5787640769    -4.3190795860    -3.7920109902
| 27>  H        2.8073940571    -4.7276156991    -2.0668260021
| 28>  H        1.6834419514    -5.6784123783    -3.0691251572
| 29> *
| 30>
| 31>                          ****END OF INPUT****

CARTESIAN COORDINATES (ANGSTROEM)
---------------------------------
  C      0.105224    1.227909    0.382852
  C      0.093914   -0.193815   -0.187457
  C      0.583179   -0.365355   -1.651202
  C     -0.297065    0.443334   -2.623569
  C      2.049058    0.082793   -1.792512
  N      0.328057   -1.776426   -1.966459
  C      1.251503   -2.570652   -2.269751
  O      0.963147   -3.864756   -2.544305
  C      2.077046   -4.678005   -2.884410
  H      1.111218    1.658848    0.405117
  H     -0.536555    1.905315   -0.188770
  H     -0.266514    1.220775    1.412481
  H      0.712238   -0.843487    0.444735
  H     -0.920761   -0.603179   -0.138280
  H     -0.215915    1.518389   -2.438934
  H      0.009481    0.253196   -3.656897
  H     -1.344031    0.144681   -2.524298
  H      2.707308   -0.445398   -1.093794
  H      2.420978   -0.084520   -2.809099
  H      2.142382    1.152242   -1.587232
  H      2.320501   -2.333482   -2.344613
  H      2.578764   -4.319080   -3.792011
  H      2.807394   -4.727616   -2.066826
  H      1.683442   -5.678412   -3.069125

 Total Charge           Charge          ....    0
 Multiplicity           Mult            ....    1
 Number of Electrons    NEL             ....   72
 Basis Dimension        Dim             ....  369

ORBITAL ENERGIES
----------------

  NO   OCC          E(Eh)            E(eV)
   0   2.0000     -20.583823      -560.1143
   1   2.0000     -15.533582      -422.6903
   2   2.0000     -11.323044      -308.1157
   3   2.0000     -11.289380      -307.1996
   4   2.0000     -11.262012      -306.4549
   5   2.0000     -11.214903      -305.1730
   6   2.0000     -11.211423      -305.0783
   7   2.0000     -11.208950      -305.0110
   8   2.0000     -11.204060      -304.8780
   9   2.0000      -1.417263       -38.5657
  10   2.0000      -1.219335       -33.1798
  11   2.0000      -1.069994       -29.1160
  12   2.0000      -0.987930       -26.8829
  13   2.0000      -0.953564       -25.9478
  14   2.0000      -0.933477       -25.4012
  15   2.0000      -0.871086       -23.7034
  16   2.0000      -0.812424       -22.1072
  17   2.0000      -0.749275       -20.3888
  18   2.0000      -0.692356       -18.8400
  19   2.0000      -0.657928       -17.9031
  20   2.0000      -0.654676       -17.8146
  21   2.0000      -0.612821       -16.6757
  22   2.0000      -0.611115       -16.6293
  23   2.0000      -0.597827       -16.2677
  24   2.0000      -0.564655       -15.3650
  25   2.0000      -0.541803       -14.7432
  26   2.0000      -0.536466       -14.5980
  27   2.0000      -0.526419       -14.3246
  28   2.0000      -0.515283       -14.0216
  29   2.0000      -0.510640       -13.8952
  30   2.0000      -0.497378       -13.5343
  31   2.0000      -0.486220       -13.2307
  32   2.0000      -0.460083       -12.5195
  33   2.0000      -0.455844       -12.4042
  34   2.0000      -0.397211       -10.8087
  35   2.0000      -0.373837       -10.1726
  36   0.0000       0.127823         3.4782
  37   0.0000       0.145545         3.9605
  38   0.0000       0.155073         4.2198
  39   0.0000       0.177200         4.8218
  40   0.0000       0.180033         4.8990

MULLIKEN ATOMIC CHARGES
-----------------------
   0 C :   -0.430209
   1 C :   -0.183695
   2 C :    0.209453
   3 C :   -0.407315
   4 C :   -0.475332
   5 N :   -0.200945
   6 C :    0.051128
   7 O :   -0.232798
   8 C :   -0.244466
   9 H :    0.125684
  10 H :    0.131558
  11 H :    0.138693
  12 H :    0.105051
  13 H :    0.126667
  14 H :    0.122644
  15 H :    0.125957
  16 H :    0.139684
  17 H :    0.135529
  18 H :    0.137624
  19 H :    0.144694
  20 H :    0.070350
  21 H :    0.130125
  22 H :    0.129614
  23 H :    0.150303
Sum of atomic charges:    0.0000000

LOEWDIN ATOMIC CHARGES
----------------------
   0 C :   -0.319451
   1 C :   -0.252985
   2 C :   -0.367460
   3 C :   -0.268972
   4 C :   -0.285858
   5 N :    0.140021
   6 C :   -0.360739
   7 O :    0.210668
   8 C :   -0.340849
   9 H :    0.118477
  10 H :    0.120418
  11 H :    0.123621
  12 H :    0.138418
  13 H :    0.144106
  14 H :    0.121748
  15 H :    0.124986
  16 H :    0.129671
  17 H :    0.124009
  18 H :    0.124543
  19 H :    0.129020
  20 H :    0.115271
  21 H :    0.106431
  22 H :    0.106401
  23 H :    0.118505

  Mayer bond orders larger than 0.1
B(  0-C ,  1-C ) :   0.8945 B(  0-C ,  9-H ) :   0.9381 B(  0-C , 10-H ) :   0.9389
B(  0-C , 11-H ) :   0.9398 B(  1-C ,  2-C ) :   0.9003 B(  1-C , 12-H ) :   0.9297
B(  1-C , 13-H ) :   0.9335 B(  2-C ,  3-C ) :   0.8998 B(  2-C ,  4-C ) :   0.8798
B(  2-C ,  5-N ) :   0.8568 B(  3-C , 14-H ) :   0.9335 B(  3-C , 15-H ) :   0.9324
B(  3-C , 16-H ) :   0.9374 B(  4-C , 17-H ) :   0.9368 B(  4-C , 18-H ) :   0.9386
B(  4-C , 19-H ) :   0.9318 B(  5-N ,  6-C ) :   1.8858 B(  6-C ,  7-O ) :   1.0701
B(  6-C , 20-H ) :   0.9302 B(  7-O ,  8-C ) :   0.8786 B(  8-C , 21-H ) :   0.9361
B(  8-C , 22-H ) :   0.9358 B(  8-C , 23-H ) :   0.9392

MP2 TOTAL ENERGY:     -404.854751804 Eh
FINAL SINGLE POINT ENERGY      -404.854751804344

DIPOLE MOMENT
-------------
                                X             Y             Z
Electronic contribution:     -1.63921      -8.10892      -2.54334
Nuclear contribution   :      2.75033       8.06167       2.42148
                        -----------------------------------------
Total Dipole Moment    :      1.11112      -0.04725      -0.12187
                        -----------------------------------------
Magnitude (a.u.)       :      1.11879
Magnitude (Debye)      :      2.84373

                             ****ORCA TERMINATED NORMALLY****
TOTAL RUN TIME: 0 days 0 hours 20 minutes 8 seconds 547 msec
