                         Program Version 3.0.3 - RELEASE   -
|  1> ! RI-MP2 RIJK def2-TZVP def2-TZVP/C def2-TZVP/JK TIGHTSCF
|  2> % maxcore 2000
|  3> % mp2 density relaxed end
|  4> *xyz 0 1
|  5>  C        3.1254093430    -1.1515025541     1.2609274337
|  6>  N        1.8538870802    -1.1770697619     0.5462784019
|  7>  C        0.7657466596    -1.8907054672     1.2041576307
|  8>  C        0.7383451135    -0.3979722876     1.1034897157
|  9>  C        0.9247363625     0.5404798558     2.2666045581
| 10>  C       -0.2634420911     1.2509200105     2.8705727990
| 11>  C        0.5374289305     0.2930329813     3.7141310679
| 12>  C       -0.1047399458    -0.9741962281     4.2051531108
| 13>  O        0.9212749217    -1.9219127635     4.4949089385
| 14>  H        3.0278903073    -1.1566718157     2.3564718585
| 15>  H        3.7057172938    -2.0317004374     0.9659011277
| 16>  H        3.6929656605    -0.2629116335     0.9636351803
| 17>  H        0.1310190212    -2.4894052437     0.5542628099
| 18>  H        0.9704792492    -2.3187051712     2.1821613295
| 19>  H        0.1158913143     0.0262920222     0.3155125799
| 20>  H        1.8060366931     1.1696509662     2.1599325374
| 21>  H       -0.1987163403     2.3146315597     3.0702992187
| 22>  H       -1.2473147932     0.9196806466     2.5498817283
| 23>  H        1.2074175272     0.7366620489     4.4459798981
| 24>  H       -0.6889101834    -0.7535320182     5.1119267589
| 25>  H       -0.8030917482    -1.3629846721     3.4497033636
| 26>  H        0.5149132843    -2.6847593870     4.9178462528
| 27> *
| 28>
| 29>                          ****END OF INPUT****

CARTESIAN COORDINATES (ANGSTROEM)
---------------------------------
  C      3.125409   -1.151503    1.260927
  N      1.853887   -1.177070    0.546278
  C      0.765747   -1.890705    1.204158
  C      0.738345   -0.397972    1.103490
  C      0.924736    0.540480    2.266605
  C     -0.263442    1.250920    2.870573
  C      0.537429    0.293033    3.714131
  C     -0.104740   -0.974196    4.205153
  O      0.921275   -1.921913    4.494909
  H      3.027890   -1.156672    2.356472
  H      3.705717   -2.031700    0.965901
  H      3.692966   -0.262912    0.963635
  H      0.131019   -2.489405    0.554263
  H      0.970479   -2.318705    2.182161
  H      0.115891    0.026292    0.315513
  H      1.806037    1.169651    2.159933
  H     -0.198716    2.314632    3.070299
  H     -1.247315    0.919681    2.549882
  H      1.207418    0.736662    4.445980
  H     -0.688910   -0.753532    5.111927
  H     -0.803092   -1.362985    3.449703
  H      0.514913   -2.684759    4.917846

 Total Charge           Charge          ....    0
 Multiplicity           Mult            ....    1
 Number of Electrons    NEL             ....   70
 Basis Dimension        Dim             ....  357

ORBITAL ENERGIES
----------------

  NO   OCC          E(Eh)            E(eV)
   0   2.0000     -20.561109      -559.4962
   1   2.0000     -15.545168      -423.0055
   2   2.0000     -11.282174      -307.0036
   3   2.0000     -11.251376      -306.1655
   4   2.0000     -11.238362      -305.8114
   5   2.0000     -11.235004      -305.7200
   6   2.0000     -11.233864      -305.6890
   7   2.0000     -11.232267      -305.6455
   8   2.0000     -11.227736      -305.5222
   9   2.0000      -1.364135       -37.1200
  10   2.0000      -1.259528       -34.2735
  11   2.0000      -1.147410       -31.2226
  12   2.0000      -0.981210       -26.7001
  13   2.0000      -0.955363       -25.9967
  14   2.0000      -0.874170       -23.7874
  15   2.0000      -0.816266       -22.2117
  16   2.0000      -0.802876       -21.8474
  17   2.0000      -0.736700       -20.0466
  18   2.0000      -0.699473       -19.0336
  19   2.0000      -0.681782       -18.5522
  20   2.0000      -0.656607       -17.8672
  21   2.0000      -0.634463       -17.2646
  22   2.0000      -0.612842       -16.6763
  23   2.0000      -0.582814       -15.8592
  24   2.0000      -0.574491       -15.6327
  25   2.0000      -0.547832       -14.9073
  26   2.0000      -0.541322       -14.7301
  27   2.0000      -0.509469       -13.8634
  28   2.0000      -0.488153       -13.2833
  29   2.0000      -0.465923       -12.6784
  30   2.0000      -0.455218       -12.3871
  31   2.0000      -0.440974       -11.9995
  32   2.0000      -0.421154       -11.4602
  33   2.0000      -0.403427       -10.9778
  34   2.0000      -0.351378        -9.5615
  35   0.0000       0.132031         3.5928
  36   0.0000       0.150507         4.0955
  37   0.0000       0.156801         4.2668
  38   0.0000       0.171554         4.6682
  39   0.0000       0.194236         5.2854

MULLIKEN ATOMIC CHARGES
-----------------------
   0 C :   -0.317663
   1 N :   -0.208105
   2 C :   -0.183961
   3 C :   -0.095089
   4 C :   -0.108205
   5 C :   -0.309521
   6 C :   -0.025473
   7 C :   -0.118820
   8 O :   -0.469577
   9 H :    0.141288
  10 H :    0.137951
  11 H :    0.127721
  12 H :    0.119303
  13 H :    0.138940
  14 H :    0.117433
  15 H :    0.125601
  16 H :    0.135442
  17 H :    0.130017
  18 H :    0.114622
  19 H :    0.116133
  20 H :    0.115145
  21 H :    0.316819
Sum of atomic charges:   -0.0000000

LOEWDIN ATOMIC CHARGES
----------------------
   0 C :   -0.333757
   1 N :    0.084484
   2 C :   -0.252552
   3 C :   -0.243050
   4 C :   -0.195096
   5 C :   -0.198901
   6 C :   -0.211298
   7 C :   -0.334571
   8 O :   -0.052035
   9 H :    0.113634
  10 H :    0.118035
  11 H :    0.114926
  12 H :    0.120556
  13 H :    0.130084
  14 H :    0.145306
  15 H :    0.156866
  16 H :    0.131415
  17 H :    0.138054
  18 H :    0.151289
  19 H :    0.122677
  20 H :    0.122501
  21 H :    0.171433

  Mayer bond orders larger than 0.1
B(  0-C ,  1-N ) :   0.8840 B(  0-C ,  9-H ) :   0.9265 B(  0-C , 10-H ) :   0.9378
B(  0-C , 11-H ) :   0.9385 B(  1-N ,  2-C ) :   0.9034 B(  1-N ,  3-C ) :   0.9459
B(  2-C ,  3-C ) :   0.9359 B(  2-C , 12-H ) :   0.9194 B(  2-C , 13-H ) :   0.8983
B(  3-C ,  4-C ) :   0.9176 B(  3-C , 14-H ) :   0.9216 B(  4-C ,  5-C ) :   0.8702
B(  4-C ,  6-C ) :   0.8773 B(  4-C , 15-H ) :   0.9289 B(  5-C ,  6-C ) :   0.8960
B(  5-C , 16-H ) :   0.9266 B(  5-C , 17-H ) :   0.9243 B(  6-C ,  7-C ) :   0.9198
B(  6-C , 18-H ) :   0.9221 B(  7-C ,  8-O ) :   0.9830 B(  7-C , 19-H ) :   0.9215
B(  7-C , 20-H ) :   0.9360 B(  8-O , 21-H ) :   0.8454

MP2 TOTAL ENERGY:     -403.599364848 Eh
FINAL SINGLE POINT ENERGY      -403.599364847922

DIPOLE MOMENT
-------------
                                X             Y             Z
Electronic contribution:     -0.44064      -0.57001      -0.24418
Nuclear contribution   :     -0.19584       0.54877       1.04835
                        -----------------------------------------
Total Dipole Moment    :     -0.63648      -0.02124       0.80417
                        -----------------------------------------
Magnitude (a.u.)       :      1.02579
Magnitude (Debye)      :      2.60735

                             ****ORCA TERMINATED NORMALLY****
TOTAL RUN TIME: 0 days 0 hours 30 minutes 22 seconds 239 msec
