                         Program Version 3.0.3 - RELEASE   -
|  1> ! RI-MP2 RIJK def2-TZVP def2-TZVP/C def2-TZVP/JK TIGHTSCF
|  2> % maxcore 2000
|  3> % mp2 density relaxed end
|  4> *xyz 0 1
|  5>  O        0.0960780922     1.4706080415    -0.0206657541
|  6>  C        0.0259370590     0.0545312023     0.0012601610
|  7>  C        0.5899374556    -0.5639362895     1.2978074899
|  8>  O       -0.5357439860    -0.8443674108     2.1495937036
|  9>  C       -1.6893304893    -0.9151344596     1.4251038863
| 10>  O       -2.7386523580    -1.2296236965     1.9023545298
| 11>  C       -1.3927386236    -0.4905556562     0.0090419490
| 12>  C       -2.4755205635     0.0138248166    -0.8730258779
| 13>  N       -1.9612696513    -1.3443030678    -1.0579403702
| 14>  H       -0.4713024760     1.8164616702     0.6780256716
| 15>  H        0.5989502325    -0.2708058100    -0.8711603206
| 16>  H        1.1257742086    -1.4997804123     1.1044866750
| 17>  H        1.2512851435     0.1318821506     1.8173270658
| 18>  H       -3.4816406344     0.0610797210    -0.4676570945
| 19>  H       -2.2056235000     0.7892901290    -1.5842800349
| 20>  H       -1.3104339794    -1.3615512686    -1.8412956599
| 21> *
| 22>
| 23>                          ****END OF INPUT****

CARTESIAN COORDINATES (ANGSTROEM)
---------------------------------
  O      0.096078    1.470608   -0.020666
  C      0.025937    0.054531    0.001260
  C      0.589937   -0.563936    1.297807
  O     -0.535744   -0.844367    2.149594
  C     -1.689330   -0.915134    1.425104
  O     -2.738652   -1.229624    1.902355
  C     -1.392739   -0.490556    0.009042
  C     -2.475521    0.013825   -0.873026
  N     -1.961270   -1.344303   -1.057940
  H     -0.471302    1.816462    0.678026
  H      0.598950   -0.270806   -0.871160
  H      1.125774   -1.499780    1.104487
  H      1.251285    0.131882    1.817327
  H     -3.481641    0.061080   -0.467657
  H     -2.205624    0.789290   -1.584280
  H     -1.310434   -1.361551   -1.841296

 Total Charge           Charge          ....    0
 Multiplicity           Mult            ....    1
 Number of Electrons    NEL             ....   68
 Basis Dimension        Dim             ....  321

ORBITAL ENERGIES
----------------

  NO   OCC          E(Eh)            E(eV)
   0   2.0000     -20.611954      -560.8798
   1   2.0000     -20.588463      -560.2406
   2   2.0000     -20.547592      -559.1284
   3   2.0000     -15.595202      -424.3670
   4   2.0000     -11.385087      -309.8040
   5   2.0000     -11.322570      -308.1028
   6   2.0000     -11.311779      -307.8092
   7   2.0000     -11.296802      -307.4016
   8   2.0000     -11.285076      -307.0825
   9   2.0000      -1.468355       -39.9560
  10   2.0000      -1.396911       -38.0119
  11   2.0000      -1.373893       -37.3855
  12   2.0000      -1.293945       -35.2100
  13   2.0000      -1.053380       -28.6639
  14   2.0000      -0.979636       -26.6573
  15   2.0000      -0.910143       -24.7663
  16   2.0000      -0.862037       -23.4572
  17   2.0000      -0.773889       -21.0586
  18   2.0000      -0.747075       -20.3289
  19   2.0000      -0.713097       -19.4043
  20   2.0000      -0.696259       -18.9462
  21   2.0000      -0.679937       -18.5020
  22   2.0000      -0.643617       -17.5137
  23   2.0000      -0.627695       -17.0805
  24   2.0000      -0.610709       -16.6182
  25   2.0000      -0.590734       -16.0747
  26   2.0000      -0.563514       -15.3340
  27   2.0000      -0.545398       -14.8410
  28   2.0000      -0.519717       -14.1422
  29   2.0000      -0.506047       -13.7702
  30   2.0000      -0.477587       -12.9958
  31   2.0000      -0.459415       -12.5013
  32   2.0000      -0.449112       -12.2210
  33   2.0000      -0.416252       -11.3268
  34   0.0000       0.120243         3.2720
  35   0.0000       0.120868         3.2890
  36   0.0000       0.143285         3.8990
  37   0.0000       0.157349         4.2817
  38   0.0000       0.188674         5.1341

MULLIKEN ATOMIC CHARGES
-----------------------
   0 O :   -0.449534
   1 C :    0.089193
   2 C :   -0.049473
   3 O :   -0.219000
   4 C :    0.258832
   5 O :   -0.276240
   6 C :   -0.025629
   7 C :   -0.184948
   8 N :   -0.367738
   9 H :    0.323467
  10 H :    0.112624
  11 H :    0.118498
  12 H :    0.142719
  13 H :    0.152703
  14 H :    0.149637
  15 H :    0.224889
Sum of atomic charges:    0.0000000

LOEWDIN ATOMIC CHARGES
----------------------
   0 O :   -0.006291
   1 C :   -0.309130
   2 C :   -0.243763
   3 O :    0.252838
   4 C :   -0.437842
   5 O :    0.159150
   6 C :   -0.270013
   7 C :   -0.220421
   8 N :    0.035178
   9 H :    0.181674
  10 H :    0.149969
  11 H :    0.131744
  12 H :    0.135244
  13 H :    0.139050
  14 H :    0.131107
  15 H :    0.171506

  Mayer bond orders larger than 0.1
B(  0-O ,  1-C ) :   0.9602 B(  0-O ,  9-H ) :   0.8360 B(  1-C ,  2-C ) :   0.9241
B(  1-C ,  6-C ) :   0.9318 B(  1-C , 10-H ) :   0.9156 B(  2-C ,  3-O ) :   0.8678
B(  2-C , 11-H ) :   0.9143 B(  2-C , 12-H ) :   0.9297 B(  3-O ,  4-C ) :   1.1199
B(  4-C ,  5-O ) :   2.0539 B(  4-C ,  6-C ) :   0.8860 B(  6-C ,  7-C ) :   0.8744
B(  6-C ,  8-N ) :   0.8427 B(  7-C ,  8-N ) :   0.9819 B(  7-C , 13-H ) :   0.9123
B(  7-C , 14-H ) :   0.9187 B(  8-N , 15-H ) :   0.8658

MP2 TOTAL ENERGY:     -474.280969740 Eh
FINAL SINGLE POINT ENERGY      -474.280969740298

DIPOLE MOMENT
-------------
                                X             Y             Z
Electronic contribution:     -1.92837      -1.62412       3.72576
Nuclear contribution   :      3.01496       2.31819      -4.66964
                        -----------------------------------------
Total Dipole Moment    :      1.08659       0.69407      -0.94388
                        -----------------------------------------
Magnitude (a.u.)       :      1.59791
Magnitude (Debye)      :      4.06157

                             ****ORCA TERMINATED NORMALLY****
TOTAL RUN TIME: 0 days 0 hours 15 minutes 5 seconds 774 msec
