                         Program Version 3.0.3 - RELEASE   -
|  1> ! RI-MP2 RIJK def2-TZVP def2-TZVP/C def2-TZVP/JK TIGHTSCF
|  2> % maxcore 2000
|  3> % mp2 density relaxed end
|  4> *xyz 0 1
|  5>  C        0.3654284877     1.5182307459    -0.1665477370
|  6>  C       -0.0706511232     0.0704962555     0.0914009752
|  7>  C        0.3743261808    -0.8949605792    -1.0471774744
|  8>  C        1.6908253373    -1.5411658684    -0.5490290738
|  9>  N        1.5013021174    -1.5942046286     0.8965697681
| 10>  C        0.5994240779    -0.5090423455     1.3687746205
| 11>  C       -0.1452166578    -1.5561956735     2.2434781433
| 12>  C        0.7477419499    -2.5932969775     1.5296321753
| 13>  O        0.7873841726    -3.7885138145     1.4366617809
| 14>  H        1.4509724345     1.5876980973    -0.3028086030
| 15>  H       -0.1098375931     1.9171819379    -1.0680296258
| 16>  H        0.0955127298     2.1689615339     0.6717824567
| 17>  H       -1.1603728331     0.0491140599     0.1943355549
| 18>  H       -0.3722139817    -1.6832066660    -1.1887049397
| 19>  H        0.4898276018    -0.3776819694    -2.0037562687
| 20>  H        1.8548303160    -2.5484151049    -0.9375024850
| 21>  H        2.5670687686    -0.9305742033    -0.7930165296
| 22>  H        1.1204729145     0.2690863667     1.9340101566
| 23>  H       -0.0109368235    -1.4700890216     3.3236354982
| 24>  H       -1.2071590964    -1.6881276848     2.0219530074
| 25> *
| 26>
| 27>                          ****END OF INPUT****

CARTESIAN COORDINATES (ANGSTROEM)
---------------------------------
  C      0.365428    1.518231   -0.166548
  C     -0.070651    0.070496    0.091401
  C      0.374326   -0.894961   -1.047177
  C      1.690825   -1.541166   -0.549029
  N      1.501302   -1.594205    0.896570
  C      0.599424   -0.509042    1.368775
  C     -0.145217   -1.556196    2.243478
  C      0.747742   -2.593297    1.529632
  O      0.787384   -3.788514    1.436662
  H      1.450972    1.587698   -0.302809
  H     -0.109838    1.917182   -1.068030
  H      0.095513    2.168962    0.671782
  H     -1.160373    0.049114    0.194336
  H     -0.372214   -1.683207   -1.188705
  H      0.489828   -0.377682   -2.003756
  H      1.854830   -2.548415   -0.937502
  H      2.567069   -0.930574   -0.793017
  H      1.120473    0.269086    1.934010
  H     -0.010937   -1.470089    3.323635
  H     -1.207159   -1.688128    2.021953

 Total Charge           Charge          ....    0
 Multiplicity           Mult            ....    1
 Number of Electrons    NEL             ....   68
 Basis Dimension        Dim             ....  345

ORBITAL ENERGIES
----------------

  NO   OCC          E(Eh)            E(eV)
   0   2.0000     -20.533172      -558.7360
   1   2.0000     -15.571603      -423.7249
   2   2.0000     -11.348444      -308.8069
   3   2.0000     -11.272988      -306.7536
   4   2.0000     -11.265068      -306.5381
   5   2.0000     -11.246884      -306.0433
   6   2.0000     -11.244976      -305.9914
   7   2.0000     -11.234018      -305.6932
   8   2.0000     -11.228006      -305.5296
   9   2.0000      -1.392379       -37.8886
  10   2.0000      -1.280967       -34.8569
  11   2.0000      -1.084304       -29.5054
  12   2.0000      -1.053222       -28.6596
  13   2.0000      -0.956122       -26.0174
  14   2.0000      -0.899300       -24.4712
  15   2.0000      -0.865485       -23.5510
  16   2.0000      -0.779825       -21.2201
  17   2.0000      -0.712265       -19.3817
  18   2.0000      -0.682514       -18.5722
  19   2.0000      -0.673817       -18.3355
  20   2.0000      -0.659500       -17.9459
  21   2.0000      -0.617691       -16.8082
  22   2.0000      -0.597644       -16.2627
  23   2.0000      -0.578490       -15.7415
  24   2.0000      -0.568149       -15.4601
  25   2.0000      -0.555962       -15.1285
  26   2.0000      -0.522908       -14.2291
  27   2.0000      -0.510976       -13.9044
  28   2.0000      -0.504124       -13.7179
  29   2.0000      -0.480987       -13.0883
  30   2.0000      -0.473624       -12.8880
  31   2.0000      -0.469079       -12.7643
  32   2.0000      -0.419777       -11.4227
  33   2.0000      -0.380606       -10.3568
  34   0.0000       0.126455         3.4410
  35   0.0000       0.140294         3.8176
  36   0.0000       0.153457         4.1758
  37   0.0000       0.164222         4.4687
  38   0.0000       0.178789         4.8651

MULLIKEN ATOMIC CHARGES
-----------------------
   0 C :   -0.446434
   1 C :   -0.032027
   2 C :   -0.258947
   3 C :   -0.197309
   4 N :   -0.079689
   5 C :   -0.052767
   6 C :   -0.227907
   7 C :    0.154465
   8 O :   -0.298046
   9 H :    0.134019
  10 H :    0.138186
  11 H :    0.137311
  12 H :    0.105105
  13 H :    0.135542
  14 H :    0.125849
  15 H :    0.150554
  16 H :    0.130103
  17 H :    0.112868
  18 H :    0.141944
  19 H :    0.127179
Sum of atomic charges:    0.0000000

LOEWDIN ATOMIC CHARGES
----------------------
   0 C :   -0.295892
   1 C :   -0.249089
   2 C :   -0.230689
   3 C :   -0.257246
   4 N :    0.197719
   5 C :   -0.193418
   6 C :   -0.188208
   7 C :   -0.409347
   8 O :    0.122668
   9 H :    0.125517
  10 H :    0.124147
  11 H :    0.124303
  12 H :    0.150697
  13 H :    0.141048
  14 H :    0.137674
  15 H :    0.142175
  16 H :    0.131647
  17 H :    0.141326
  18 H :    0.140712
  19 H :    0.144256

  Mayer bond orders larger than 0.1
B(  0-C ,  1-C ) :   0.9033 B(  0-C ,  9-H ) :   0.9328 B(  0-C , 10-H ) :   0.9396
B(  0-C , 11-H ) :   0.9411 B(  1-C ,  2-C ) :   0.9010 B(  1-C ,  5-C ) :   0.8939
B(  1-C , 12-H ) :   0.9201 B(  2-C ,  3-C ) :   0.9401 B(  2-C , 13-H ) :   0.9283
B(  2-C , 14-H ) :   0.9289 B(  3-C ,  4-N ) :   0.8876 B(  3-C , 15-H ) :   0.9268
B(  3-C , 16-H ) :   0.9337 B(  4-N ,  5-C ) :   0.9313 B(  4-N ,  7-C ) :   1.0707
B(  5-C ,  6-C ) :   0.9215 B(  5-C , 17-H ) :   0.9207 B(  6-C ,  7-C ) :   0.9256
B(  6-C , 18-H ) :   0.9078 B(  6-C , 19-H ) :   0.8924 B(  7-C ,  8-O ) :   2.0220

MP2 TOTAL ENERGY:     -402.491074720 Eh
FINAL SINGLE POINT ENERGY      -402.491074720490

DIPOLE MOMENT
-------------
                                X             Y             Z
Electronic contribution:      1.87886      -8.51170       4.35501
Nuclear contribution   :     -2.25846       9.93663      -4.77033
                        -----------------------------------------
Total Dipole Moment    :     -0.37960       1.42493      -0.41532
                        -----------------------------------------
Magnitude (a.u.)       :      1.53199
Magnitude (Debye)      :      3.89401

                             ****ORCA TERMINATED NORMALLY****
TOTAL RUN TIME: 0 days 0 hours 26 minutes 0 seconds 971 msec
