                         Program Version 3.0.3 - RELEASE   -
|  1> ! RI-MP2 RIJK def2-TZVP def2-TZVP/C def2-TZVP/JK TIGHTSCF
|  2> % maxcore 2000
|  3> % mp2 density relaxed end
|  4> *xyz 0 1
|  5>  C       -0.1760945916     1.6219319430     0.0597136147
|  6>  C        0.0452843222     0.1184950525     0.0116028298
|  7>  C        0.7886067153    -0.5713588213    -1.1775306586
|  8>  C        2.0608035120     0.2086996026    -1.5629908198
|  9>  C        2.8670767273     0.5402058244    -0.3254196339
| 10>  C        2.4068286796     0.1660600968     0.8698509543
| 11>  C        1.1018775188    -0.5982233444     0.9244508395
| 12>  C        1.1674367740    -1.7115542478    -0.1796269823
| 13>  C        0.1681238503    -2.8568929856    -0.0597425798
| 14>  H        0.7578784512     2.1828121053    -0.0236380992
| 15>  H       -0.8377882504     1.9398283977    -0.7546255383
| 16>  H       -0.6550722029     1.9130154279     1.0018233872
| 17>  H       -0.9197204193    -0.3779377892     0.1471140688
| 18>  H        0.1994284139    -0.8378493268    -2.0607956190
| 19>  H        2.6648064913    -0.3862092527    -2.2629686561
| 20>  H        1.8027479017     1.1300759374    -2.1049526943
| 21>  H        3.7988948172     1.0868906779    -0.4404140209
| 22>  H        2.9405823870     0.3910927379     1.7882759207
| 23>  H        0.8079619302    -0.8814723543     1.9379063891
| 24>  H        2.1715640271    -2.1237686406    -0.3226710715
| 25>  H       -0.8599147129    -2.5122044717     0.0877294304
| 26>  H        0.1800388395    -3.4733820101    -0.9660148987
| 27>  H        0.4214459886    -3.5072267490     0.7850174579
| 28> *
| 29>
| 30>                          ****END OF INPUT****

CARTESIAN COORDINATES (ANGSTROEM)
---------------------------------
  C     -0.176095    1.621932    0.059714
  C      0.045284    0.118495    0.011603
  C      0.788607   -0.571359   -1.177531
  C      2.060804    0.208700   -1.562991
  C      2.867077    0.540206   -0.325420
  C      2.406829    0.166060    0.869851
  C      1.101878   -0.598223    0.924451
  C      1.167437   -1.711554   -0.179627
  C      0.168124   -2.856893   -0.059743
  H      0.757878    2.182812   -0.023638
  H     -0.837788    1.939828   -0.754626
  H     -0.655072    1.913015    1.001823
  H     -0.919720   -0.377938    0.147114
  H      0.199428   -0.837849   -2.060796
  H      2.664806   -0.386209   -2.262969
  H      1.802748    1.130076   -2.104953
  H      3.798895    1.086891   -0.440414
  H      2.940582    0.391093    1.788276
  H      0.807962   -0.881472    1.937906
  H      2.171564   -2.123769   -0.322671
  H     -0.859915   -2.512204    0.087729
  H      0.180039   -3.473382   -0.966015
  H      0.421446   -3.507227    0.785017

 Total Charge           Charge          ....    0
 Multiplicity           Mult            ....    1
 Number of Electrons    NEL             ....   68
 Basis Dimension        Dim             ....  363

ORBITAL ENERGIES
----------------

  NO   OCC          E(Eh)            E(eV)
   0   2.0000     -11.223820      -305.4157
   1   2.0000     -11.222645      -305.3837
   2   2.0000     -11.221674      -305.3573
   3   2.0000     -11.221500      -305.3525
   4   2.0000     -11.221269      -305.3463
   5   2.0000     -11.217672      -305.2484
   6   2.0000     -11.215927      -305.2009
   7   2.0000     -11.210584      -305.0555
   8   2.0000     -11.203927      -304.8743
   9   2.0000      -1.169290       -31.8180
  10   2.0000      -1.038604       -28.2618
  11   2.0000      -0.998260       -27.1640
  12   2.0000      -0.981138       -26.6981
  13   2.0000      -0.929678       -25.2978
  14   2.0000      -0.819170       -22.2907
  15   2.0000      -0.808480       -21.9999
  16   2.0000      -0.769773       -20.9466
  17   2.0000      -0.681971       -18.5574
  18   2.0000      -0.660750       -17.9799
  19   2.0000      -0.606448       -16.5023
  20   2.0000      -0.603928       -16.4337
  21   2.0000      -0.582097       -15.8397
  22   2.0000      -0.564840       -15.3701
  23   2.0000      -0.559408       -15.2223
  24   2.0000      -0.532816       -14.4987
  25   2.0000      -0.527678       -14.3588
  26   2.0000      -0.522183       -14.2093
  27   2.0000      -0.510979       -13.9045
  28   2.0000      -0.495248       -13.4764
  29   2.0000      -0.450223       -12.2512
  30   2.0000      -0.426610       -11.6086
  31   2.0000      -0.413937       -11.2638
  32   2.0000      -0.403608       -10.9827
  33   2.0000      -0.331999        -9.0341
  34   0.0000       0.134450         3.6586
  35   0.0000       0.145796         3.9673
  36   0.0000       0.157338         4.2814
  37   0.0000       0.168577         4.5872
  38   0.0000       0.177878         4.8403

MULLIKEN ATOMIC CHARGES
-----------------------
   0 C :   -0.435341
   1 C :   -0.180043
   2 C :    0.073493
   3 C :   -0.258976
   4 C :   -0.149693
   5 C :   -0.330216
   6 C :    0.162233
   7 C :   -0.147995
   8 C :   -0.437524
   9 H :    0.144467
  10 H :    0.129031
  11 H :    0.129144
  12 H :    0.100215
  13 H :    0.106549
  14 H :    0.123432
  15 H :    0.125597
  16 H :    0.118271
  17 H :    0.113912
  18 H :    0.116035
  19 H :    0.105352
  20 H :    0.128030
  21 H :    0.131341
  22 H :    0.132687
Sum of atomic charges:   -0.0000000

LOEWDIN ATOMIC CHARGES
----------------------
   0 C :   -0.298119
   1 C :   -0.211161
   2 C :   -0.172700
   3 C :   -0.227719
   4 C :   -0.169528
   5 C :   -0.145072
   6 C :   -0.165309
   7 C :   -0.200454
   8 C :   -0.295169
   9 H :    0.127738
  10 H :    0.124977
  11 H :    0.125087
  12 H :    0.150698
  13 H :    0.136909
  14 H :    0.144517
  15 H :    0.143679
  16 H :    0.137389
  17 H :    0.138365
  18 H :    0.138151
  19 H :    0.146245
  20 H :    0.122214
  21 H :    0.124890
  22 H :    0.124369

  Mayer bond orders larger than 0.1
B(  0-C ,  1-C ) :   0.8948 B(  0-C ,  9-H ) :   0.9374 B(  0-C , 10-H ) :   0.9376
B(  0-C , 11-H ) :   0.9387 B(  1-C ,  2-C ) :   0.9010 B(  1-C ,  6-C ) :   0.8864
B(  1-C , 12-H ) :   0.9264 B(  2-C ,  3-C ) :   0.8916 B(  2-C ,  7-C ) :   0.8534
B(  2-C , 13-H ) :   0.9272 B(  3-C ,  4-C ) :   0.9623 B(  3-C , 14-H ) :   0.9136
B(  3-C , 15-H ) :   0.9103 B(  4-C ,  5-C ) :   1.7736 B(  4-C , 16-H ) :   0.9382
B(  5-C ,  6-C ) :   0.8519 B(  5-C , 17-H ) :   0.9402 B(  6-C ,  7-C ) :   0.8420
B(  6-C , 18-H ) :   0.9232 B(  7-C ,  8-C ) :   0.8832 B(  7-C , 19-H ) :   0.9243
B(  8-C , 20-H ) :   0.9360 B(  8-C , 21-H ) :   0.9409 B(  8-C , 22-H ) :   0.9436

MP2 TOTAL ENERGY:     -350.511136408 Eh
FINAL SINGLE POINT ENERGY      -350.511136408258

DIPOLE MOMENT
-------------
                                X             Y             Z
Electronic contribution:      3.03445       0.49095       0.71800
Nuclear contribution   :     -3.11316      -0.54863      -0.78727
                        -----------------------------------------
Total Dipole Moment    :     -0.07871      -0.05767      -0.06926
                        -----------------------------------------
Magnitude (a.u.)       :      0.11966
Magnitude (Debye)      :      0.30416

                             ****ORCA TERMINATED NORMALLY****
TOTAL RUN TIME: 0 days 0 hours 22 minutes 19 seconds 955 msec
