                         Program Version 3.0.3 - RELEASE   -
|  1> ! RI-MP2 RIJK def2-TZVP def2-TZVP/C def2-TZVP/JK TIGHTSCF
|  2> % maxcore 2000
|  3> % mp2 density relaxed end
|  4> *xyz 0 1
|  5>  C       -0.4732033967     1.3044809482    -0.2058927558
|  6>  C       -0.0168752608    -0.1281671689    -0.0194181929
|  7>  C        1.3869927351    -0.6231080572    -0.2913466828
|  8>  C        2.5273352711     0.3824482287    -0.3823719704
|  9>  C        2.4951881512     1.1252049295     0.9418808068
| 10>  C        1.6182740678     0.4070704941     1.9476320245
| 11>  C        0.8408612115    -0.6142191991     1.1297131491
| 12>  N        3.1296700948     2.2168694481     1.0982701922
| 13>  O        2.9697729599     2.7168672776     2.4063382634
| 14>  H        0.2893051618     2.0356446846     0.0725465974
| 15>  H       -0.7385484606     1.4911211451    -1.2525085364
| 16>  H       -1.3622821898     1.5096581002     0.4008074331
| 17>  H       -0.7783813799    -0.8495233603    -0.3083674107
| 18>  H        1.4995600329    -1.5533870560    -0.8367992879
| 19>  H        3.4808842896    -0.1507793402    -0.4863450623
| 20>  H        2.4566451430     1.0706381256    -1.2303129337
| 21>  H        2.2448543968    -0.0907216715     2.6988029956
| 22>  H        0.9961907828     1.1224992359     2.4953091735
| 23>  H        0.5539773313    -1.5373975633     1.6207490530
| 24>  H        3.4663386181     3.5409473190     2.3680163742
| 25> *
| 26>
| 27>                          ****END OF INPUT****

CARTESIAN COORDINATES (ANGSTROEM)
---------------------------------
  C     -0.473203    1.304481   -0.205893
  C     -0.016875   -0.128167   -0.019418
  C      1.386993   -0.623108   -0.291347
  C      2.527335    0.382448   -0.382372
  C      2.495188    1.125205    0.941881
  C      1.618274    0.407070    1.947632
  C      0.840861   -0.614219    1.129713
  N      3.129670    2.216869    1.098270
  O      2.969773    2.716867    2.406338
  H      0.289305    2.035645    0.072547
  H     -0.738548    1.491121   -1.252509
  H     -1.362282    1.509658    0.400807
  H     -0.778381   -0.849523   -0.308367
  H      1.499560   -1.553387   -0.836799
  H      3.480884   -0.150779   -0.486345
  H      2.456645    1.070638   -1.230313
  H      2.244854   -0.090722    2.698803
  H      0.996191    1.122499    2.495309
  H      0.553977   -1.537398    1.620749
  H      3.466339    3.540947    2.368016

 Total Charge           Charge          ....    0
 Multiplicity           Mult            ....    1
 Number of Electrons    NEL             ....   68
 Basis Dimension        Dim             ....  345

ORBITAL ENERGIES
----------------

  NO   OCC          E(Eh)            E(eV)
   0   2.0000     -20.583881      -560.1159
   1   2.0000     -15.604534      -424.6210
   2   2.0000     -11.272724      -306.7464
   3   2.0000     -11.234152      -305.6968
   4   2.0000     -11.234009      -305.6929
   5   2.0000     -11.232893      -305.6626
   6   2.0000     -11.232249      -305.6450
   7   2.0000     -11.231763      -305.6318
   8   2.0000     -11.217484      -305.2433
   9   2.0000      -1.409050       -38.3422
  10   2.0000      -1.193241       -32.4697
  11   2.0000      -1.137866       -30.9629
  12   2.0000      -1.001813       -27.2607
  13   2.0000      -0.980357       -26.6769
  14   2.0000      -0.945745       -25.7350
  15   2.0000      -0.774555       -21.0767
  16   2.0000      -0.767404       -20.8821
  17   2.0000      -0.728167       -19.8144
  18   2.0000      -0.690820       -18.7982
  19   2.0000      -0.675662       -18.3857
  20   2.0000      -0.647899       -17.6302
  21   2.0000      -0.598589       -16.2884
  22   2.0000      -0.587919       -15.9981
  23   2.0000      -0.576561       -15.6890
  24   2.0000      -0.554509       -15.0890
  25   2.0000      -0.547544       -14.8994
  26   2.0000      -0.543468       -14.7885
  27   2.0000      -0.526040       -14.3143
  28   2.0000      -0.507175       -13.8009
  29   2.0000      -0.482498       -13.1294
  30   2.0000      -0.423684       -11.5290
  31   2.0000      -0.401561       -10.9270
  32   2.0000      -0.397286       -10.8107
  33   2.0000      -0.370748       -10.0886
  34   0.0000       0.131942         3.5903
  35   0.0000       0.142722         3.8837
  36   0.0000       0.158626         4.3164
  37   0.0000       0.171505         4.6669
  38   0.0000       0.177287         4.8242

MULLIKEN ATOMIC CHARGES
-----------------------
   0 C :   -0.416976
   1 C :   -0.097205
   2 C :   -0.120029
   3 C :   -0.175202
   4 C :   -0.104572
   5 C :   -0.212524
   6 C :   -0.101526
   7 N :   -0.065731
   8 O :   -0.370125
   9 H :    0.155884
  10 H :    0.132188
  11 H :    0.131942
  12 H :    0.114778
  13 H :    0.126573
  14 H :    0.130187
  15 H :    0.130910
  16 H :    0.137806
  17 H :    0.143064
  18 H :    0.126357
  19 H :    0.334200
Sum of atomic charges:   -0.0000000

LOEWDIN ATOMIC CHARGES
----------------------
   0 C :   -0.288789
   1 C :   -0.213110
   2 C :   -0.179655
   3 C :   -0.196288
   4 C :   -0.278730
   5 C :   -0.207081
   6 C :   -0.178364
   7 N :    0.019153
   8 O :   -0.077410
   9 H :    0.133345
  10 H :    0.127156
  11 H :    0.127150
  12 H :    0.151991
  13 H :    0.142400
  14 H :    0.152219
  15 H :    0.148657
  16 H :    0.155706
  17 H :    0.151746
  18 H :    0.142145
  19 H :    0.167758

  Mayer bond orders larger than 0.1
B(  0-C ,  1-C ) :   0.9136 B(  0-C ,  9-H ) :   0.9349 B(  0-C , 10-H ) :   0.9359
B(  0-C , 11-H ) :   0.9358 B(  1-C ,  2-C ) :   0.8730 B(  1-C ,  6-C ) :   0.8757
B(  1-C , 12-H ) :   0.9307 B(  2-C ,  3-C ) :   0.9545 B(  2-C ,  6-C ) :   0.8392
B(  2-C , 13-H ) :   0.9290 B(  3-C ,  4-C ) :   0.9432 B(  3-C , 14-H ) :   0.9124
B(  3-C , 15-H ) :   0.9100 B(  4-C ,  5-C ) :   0.9761 B(  4-C ,  7-N ) :   1.9009
B(  5-C ,  6-C ) :   0.9472 B(  5-C , 16-H ) :   0.9075 B(  5-C , 17-H ) :   0.9102
B(  6-C , 18-H ) :   0.9269 B(  7-N ,  8-O ) :   0.7978 B(  8-O , 19-H ) :   0.8452

MP2 TOTAL ENERGY:     -402.419281472 Eh
FINAL SINGLE POINT ENERGY      -402.419281471982

DIPOLE MOMENT
-------------
                                X             Y             Z
Electronic contribution:      5.24948       2.05913       2.70086
Nuclear contribution   :     -5.44690      -2.31009      -2.76764
                        -----------------------------------------
Total Dipole Moment    :     -0.19742      -0.25096      -0.06677
                        -----------------------------------------
Magnitude (a.u.)       :      0.32621
Magnitude (Debye)      :      0.82916

                             ****ORCA TERMINATED NORMALLY****
TOTAL RUN TIME: 0 days 0 hours 18 minutes 58 seconds 101 msec
