                         Program Version 3.0.3 - RELEASE   -
|  1> ! RI-MP2 RIJK def2-TZVP def2-TZVP/C def2-TZVP/JK TIGHTSCF
|  2> % maxcore 2000
|  3> % mp2 density relaxed end
|  4> *xyz 0 1
|  5>  C       -0.1385775444     1.5258744062    -0.0890933389
|  6>  C        0.0494896149     0.0165133892    -0.1274027710
|  7>  C        1.2720296143    -0.5799761590    -0.9234616916
|  8>  C        1.7376772615    -1.2559851317     0.3686617551
|  9>  N        1.9655902628    -0.1560026582     1.3435375522
| 10>  C        0.5985127194    -0.6837861437     1.1348939644
| 11>  C       -0.2099806618    -1.2720656477     2.2626311338
| 12>  C       -0.7779906738    -0.2553416512     3.1547420618
| 13>  N       -1.2279347960     0.5503775113     3.8497932574
| 14>  H        0.7730461523     2.0127766696     0.2662638446
| 15>  H       -0.3716647036     1.9133023831    -1.0866402537
| 16>  H       -0.9587710732     1.8062928480     0.5800364551
| 17>  H       -0.8722782443    -0.4806169938    -0.4485664595
| 18>  H        0.9692514453    -1.2809454338    -1.7039094210
| 19>  H        1.9760708632     0.1480214657    -1.3339538406
| 20>  H        2.2454955262    -2.2062175982     0.4856552078
| 21>  H        2.3321207077    -0.5759015853     2.1981931700
| 22>  H       -1.0357734824    -1.8718237267     1.8605098537
| 23>  H        0.4100762118    -1.9515530139     2.8604471004
| 24> *
| 25>
| 26>                          ****END OF INPUT****

CARTESIAN COORDINATES (ANGSTROEM)
---------------------------------
  C     -0.138578    1.525874   -0.089093
  C      0.049490    0.016513   -0.127403
  C      1.272030   -0.579976   -0.923462
  C      1.737677   -1.255985    0.368662
  N      1.965590   -0.156003    1.343538
  C      0.598513   -0.683786    1.134894
  C     -0.209981   -1.272066    2.262631
  C     -0.777991   -0.255342    3.154742
  N     -1.227935    0.550378    3.849793
  H      0.773046    2.012777    0.266264
  H     -0.371665    1.913302   -1.086640
  H     -0.958771    1.806293    0.580036
  H     -0.872278   -0.480617   -0.448566
  H      0.969251   -1.280945   -1.703909
  H      1.976071    0.148021   -1.333954
  H      2.245496   -2.206218    0.485655
  H      2.332121   -0.575902    2.198193
  H     -1.035773   -1.871824    1.860510
  H      0.410076   -1.951553    2.860447

 Total Charge           Charge          ....    0
 Multiplicity           Mult            ....    1
 Number of Electrons    NEL             ....   66
 Basis Dimension        Dim             ....  339

ORBITAL ENERGIES
----------------

  NO   OCC          E(Eh)            E(eV)
   0   2.0000     -15.572502      -423.7493
   1   2.0000     -15.571953      -423.7344
   2   2.0000     -11.296407      -307.3909
   3   2.0000     -11.285788      -307.1019
   4   2.0000     -11.276490      -306.8489
   5   2.0000     -11.274520      -306.7953
   6   2.0000     -11.245005      -305.9921
   7   2.0000     -11.235272      -305.7273
   8   2.0000     -11.210327      -305.0485
   9   2.0000      -1.298192       -35.3256
  10   2.0000      -1.220730       -33.2178
  11   2.0000      -1.075374       -29.2624
  12   2.0000      -1.061857       -28.8946
  13   2.0000      -0.969199       -26.3732
  14   2.0000      -0.870239       -23.6804
  15   2.0000      -0.832307       -22.6482
  16   2.0000      -0.742847       -20.2139
  17   2.0000      -0.733155       -19.9502
  18   2.0000      -0.684326       -18.6215
  19   2.0000      -0.650631       -17.7046
  20   2.0000      -0.614866       -16.7314
  21   2.0000      -0.600944       -16.3525
  22   2.0000      -0.576842       -15.6967
  23   2.0000      -0.559203       -15.2167
  24   2.0000      -0.556265       -15.1367
  25   2.0000      -0.524148       -14.2628
  26   2.0000      -0.510588       -13.8938
  27   2.0000      -0.490295       -13.3416
  28   2.0000      -0.464870       -12.6498
  29   2.0000      -0.462995       -12.5987
  30   2.0000      -0.447105       -12.1663
  31   2.0000      -0.438807       -11.9405
  32   2.0000      -0.374883       -10.2011
  33   0.0000       0.110463         3.0059
  34   0.0000       0.144321         3.9272
  35   0.0000       0.154620         4.2074
  36   0.0000       0.158878         4.3233
  37   0.0000       0.170901         4.6504

MULLIKEN ATOMIC CHARGES
-----------------------
   0 C :   -0.444150
   1 C :   -0.074660
   2 C :   -0.153232
   3 C :   -0.172428
   4 N :   -0.387977
   5 C :    0.158495
   6 C :   -0.142001
   7 C :   -0.161420
   8 N :   -0.058967
   9 H :    0.152569
  10 H :    0.130302
  11 H :    0.140969
  12 H :    0.100043
  13 H :    0.118954
  14 H :    0.115153
  15 H :    0.142041
  16 H :    0.213115
  17 H :    0.162620
  18 H :    0.160575
Sum of atomic charges:   -0.0000000

LOEWDIN ATOMIC CHARGES
----------------------
   0 C :   -0.294631
   1 C :   -0.202793
   2 C :   -0.189506
   3 C :   -0.211253
   4 N :    0.031444
   5 C :   -0.244979
   6 C :   -0.216560
   7 C :   -0.182824
   8 N :    0.061825
   9 H :    0.132051
  10 H :    0.124333
  11 H :    0.127990
  12 H :    0.151216
  13 H :    0.133648
  14 H :    0.135288
  15 H :    0.129862
  16 H :    0.172439
  17 H :    0.172457
  18 H :    0.169995

  Mayer bond orders larger than 0.1
B(  0-C ,  1-C ) :   0.8928 B(  0-C ,  9-H ) :   0.9381 B(  0-C , 10-H ) :   0.9370
B(  0-C , 11-H ) :   0.9310 B(  1-C ,  2-C ) :   0.9872 B(  1-C ,  5-C ) :   0.9257
B(  1-C , 12-H ) :   0.9311 B(  2-C ,  3-C ) :   0.9363 B(  2-C , 13-H ) :   0.9249
B(  2-C , 14-H ) :   0.8940 B(  3-C ,  4-N ) :   0.9875 B(  3-C ,  5-C ) :   0.8293
B(  3-C , 15-H ) :   0.9149 B(  4-N ,  5-C ) :   0.8601 B(  4-N , 16-H ) :   0.8663
B(  5-C ,  6-C ) :   0.9082 B(  6-C ,  7-C ) :   0.9272 B(  6-C , 17-H ) :   0.9018
B(  6-C , 18-H ) :   0.9103 B(  7-C ,  8-N ) :   2.8571

MP2 TOTAL ENERGY:     -381.368956523 Eh
FINAL SINGLE POINT ENERGY      -381.368956523419

DIPOLE MOMENT
-------------
                                X             Y             Z
Electronic contribution:     -1.18081      -1.28334       6.84546
Nuclear contribution   :      1.57816      -0.24976      -7.73677
                        -----------------------------------------
Total Dipole Moment    :      0.39735      -1.53310      -0.89131
                        -----------------------------------------
Magnitude (a.u.)       :      1.81734
Magnitude (Debye)      :      4.61932

                             ****ORCA TERMINATED NORMALLY****
TOTAL RUN TIME: 0 days 0 hours 17 minutes 22 seconds 298 msec
