                         Program Version 3.0.3 - RELEASE   -
|  1> ! RI-MP2 RIJK def2-TZVP def2-TZVP/C def2-TZVP/JK TIGHTSCF
|  2> % maxcore 2000
|  3> % mp2 density relaxed end
|  4> *xyz 0 1
|  5>  C        0.2742842439     0.8834233765    -0.4062061198
|  6>  O       -0.4091218565    -0.0609219078     0.3938947021
|  7>  C        0.4074194278    -0.6646121818     1.3333427456
|  8>  C        0.1049736113    -2.0303942618     1.8401291033
|  9>  O       -0.4791683006    -2.8651928916     0.8424999408
| 10>  C        0.7079340248    -2.7445242668     0.0423315423
| 11>  C        1.2886040350    -3.9344715976    -0.6439813743
| 12>  C        0.6659031391    -2.7958731726    -1.4451595636
| 13>  C        1.3719482782    -1.7941310560     1.0085370371
| 14>  H        1.1050443693     0.4204459653    -0.9569281987
| 15>  H       -0.4503182340     1.2842376512    -1.1183890193
| 16>  H        0.6762143570     1.7116609351     0.1974383588
| 17>  H        0.8000998805     0.0078170449     2.1020131083
| 18>  H       -0.0631386666    -2.2985030871     2.8771016265
| 19>  H        2.3678789126    -4.0492649594    -0.6548089469
| 20>  H        0.7310703927    -4.8621187912    -0.5747275003
| 21>  H       -0.3026311214    -2.9780408889    -1.8974753783
| 22>  H        1.3166925798    -2.1384109954    -2.0119841485
| 23>  H        2.4198294471    -1.7984928451     1.2796440948
| 24> *
| 25>
| 26>                          ****END OF INPUT****

CARTESIAN COORDINATES (ANGSTROEM)
---------------------------------
  C      0.274284    0.883423   -0.406206
  O     -0.409122   -0.060922    0.393895
  C      0.407419   -0.664612    1.333343
  C      0.104974   -2.030394    1.840129
  O     -0.479168   -2.865193    0.842500
  C      0.707934   -2.744524    0.042332
  C      1.288604   -3.934472   -0.643981
  C      0.665903   -2.795873   -1.445160
  C      1.371948   -1.794131    1.008537
  H      1.105044    0.420446   -0.956928
  H     -0.450318    1.284238   -1.118389
  H      0.676214    1.711661    0.197438
  H      0.800100    0.007817    2.102013
  H     -0.063139   -2.298503    2.877102
  H      2.367879   -4.049265   -0.654809
  H      0.731070   -4.862119   -0.574728
  H     -0.302631   -2.978041   -1.897475
  H      1.316693   -2.138411   -2.011984
  H      2.419829   -1.798493    1.279644

 Total Charge           Charge          ....    0
 Multiplicity           Mult            ....    1
 Number of Electrons    NEL             ....   68
 Basis Dimension        Dim             ....  339

ORBITAL ENERGIES
----------------

  NO   OCC          E(Eh)            E(eV)
   0   2.0000     -20.562343      -559.5298
   1   2.0000     -20.556624      -559.3742
   2   2.0000     -11.294114      -307.3285
   3   2.0000     -11.292820      -307.2933
   4   2.0000     -11.291598      -307.2600
   5   2.0000     -11.273472      -306.7668
   6   2.0000     -11.242147      -305.9144
   7   2.0000     -11.226023      -305.4756
   8   2.0000     -11.224064      -305.4223
   9   2.0000      -1.409428       -38.3525
  10   2.0000      -1.376461       -37.4554
  11   2.0000      -1.130948       -30.7746
  12   2.0000      -1.114771       -30.3344
  13   2.0000      -0.940809       -25.6007
  14   2.0000      -0.874119       -23.7860
  15   2.0000      -0.832674       -22.6582
  16   2.0000      -0.803331       -21.8598
  17   2.0000      -0.731601       -19.9079
  18   2.0000      -0.714369       -19.4390
  19   2.0000      -0.690433       -18.7877
  20   2.0000      -0.655338       -17.8327
  21   2.0000      -0.640761       -17.4360
  22   2.0000      -0.627020       -17.0621
  23   2.0000      -0.598975       -16.2989
  24   2.0000      -0.568014       -15.4564
  25   2.0000      -0.555560       -15.1176
  26   2.0000      -0.523241       -14.2381
  27   2.0000      -0.516849       -14.0642
  28   2.0000      -0.496053       -13.4983
  29   2.0000      -0.466908       -12.7052
  30   2.0000      -0.446912       -12.1611
  31   2.0000      -0.420431       -11.4405
  32   2.0000      -0.384140       -10.4530
  33   2.0000      -0.364247        -9.9117
  34   0.0000       0.138391         3.7658
  35   0.0000       0.158947         4.3252
  36   0.0000       0.163154         4.4396
  37   0.0000       0.184777         5.0280
  38   0.0000       0.190798         5.1919

MULLIKEN ATOMIC CHARGES
-----------------------
   0 C :   -0.210833
   1 O :   -0.287127
   2 C :    0.025203
   3 C :    0.068184
   4 O :   -0.313585
   5 C :    0.216003
   6 C :   -0.290279
   7 C :   -0.262010
   8 C :   -0.216887
   9 H :    0.112758
  10 H :    0.142283
  11 H :    0.114173
  12 H :    0.100348
  13 H :    0.136133
  14 H :    0.124998
  15 H :    0.139283
  16 H :    0.137365
  17 H :    0.125021
  18 H :    0.138968
Sum of atomic charges:   -0.0000000

LOEWDIN ATOMIC CHARGES
----------------------
   0 C :   -0.344371
   1 O :    0.184810
   2 C :   -0.297955
   3 C :   -0.209641
   4 O :    0.211375
   5 C :   -0.284947
   6 C :   -0.200377
   7 C :   -0.202669
   8 C :   -0.142304
   9 H :    0.102760
  10 H :    0.114802
  11 H :    0.102673
  12 H :    0.145485
  13 H :    0.131672
  14 H :    0.134107
  15 H :    0.140168
  16 H :    0.142425
  17 H :    0.132818
  18 H :    0.139169

  Mayer bond orders larger than 0.1
B(  0-C ,  1-O ) :   0.8966 B(  0-C ,  9-H ) :   0.9356 B(  0-C , 10-H ) :   0.9404
B(  0-C , 11-H ) :   0.9356 B(  1-O ,  2-C ) :   1.0209 B(  2-C ,  3-C ) :   0.8515
B(  2-C ,  8-C ) :   0.8907 B(  2-C , 12-H ) :   0.9372 B(  3-C ,  4-O ) :   0.9702
B(  3-C ,  8-C ) :   0.8903 B(  3-C , 13-H ) :   0.9256 B(  4-O ,  5-C ) :   0.9327
B(  5-C ,  6-C ) :   0.8757 B(  5-C ,  7-C ) :   0.8682 B(  5-C ,  8-C ) :   0.8935
B(  6-C ,  7-C ) :   0.9238 B(  6-C , 14-H ) :   0.9117 B(  6-C , 15-H ) :   0.9176
B(  7-C , 16-H ) :   0.9146 B(  7-C , 17-H ) :   0.9145 B(  8-C , 18-H ) :   0.9068

MP2 TOTAL ENERGY:     -422.226710621 Eh
FINAL SINGLE POINT ENERGY      -422.226710621137

DIPOLE MOMENT
-------------
                                X             Y             Z
Electronic contribution:     -3.15462      -2.07667       3.69745
Nuclear contribution   :      4.14947       2.48352      -3.66089
                        -----------------------------------------
Total Dipole Moment    :      0.99485       0.40686       0.03656
                        -----------------------------------------
Magnitude (a.u.)       :      1.07545
Magnitude (Debye)      :      2.73359

                             ****ORCA TERMINATED NORMALLY****
TOTAL RUN TIME: 0 days 0 hours 26 minutes 22 seconds 227 msec
