                         Program Version 3.0.3 - RELEASE   -
|  1> ! RI-MP2 RIJK def2-TZVP def2-TZVP/C def2-TZVP/JK TIGHTSCF
|  2> % maxcore 2000
|  3> % mp2 density relaxed end
|  4> *xyz 0 1
|  5>  O       -0.0211497361    -0.0583122224    -0.0638246776
|  6>  C       -0.0477917547     1.1450165347     0.0194713683
|  7>  C       -1.3331630620     1.9645641021     0.0536061879
|  8>  O       -1.1705534135     3.2214679670     0.6713651353
|  9>  C       -0.1625442640     3.9981499712     0.0642779760
| 10>  C        1.1918579048     3.2985234826     0.0309242278
| 11>  O        2.2461475864     3.8804419639    -0.0431848178
| 12>  N        1.1134083651     1.9099225512     0.0646278002
| 13>  H       -1.6998483441     2.0646841717    -0.9828042504
| 14>  H       -2.0768564117     1.4061297375     0.6238525720
| 15>  H       -0.4285326147     4.2730574853    -0.9712447571
| 16>  H       -0.0557955796     4.9172139534     0.6422344500
| 17>  H        1.9920128941     1.4043141318     0.0357911554
| 18> *
| 19>
| 20>                          ****END OF INPUT****

CARTESIAN COORDINATES (ANGSTROEM)
---------------------------------
  O     -0.021150   -0.058312   -0.063825
  C     -0.047792    1.145017    0.019471
  C     -1.333163    1.964564    0.053606
  O     -1.170553    3.221468    0.671365
  C     -0.162544    3.998150    0.064278
  C      1.191858    3.298523    0.030924
  O      2.246148    3.880442   -0.043185
  N      1.113408    1.909923    0.064628
  H     -1.699848    2.064684   -0.982804
  H     -2.076856    1.406130    0.623853
  H     -0.428533    4.273057   -0.971245
  H     -0.055796    4.917214    0.642234
  H      1.992013    1.404314    0.035791

 Total Charge           Charge          ....    0
 Multiplicity           Mult            ....    1
 Number of Electrons    NEL             ....   60
 Basis Dimension        Dim             ....  278

ORBITAL ENERGIES
----------------

  NO   OCC          E(Eh)            E(eV)
   0   2.0000     -20.606058      -560.7193
   1   2.0000     -20.562393      -559.5311
   2   2.0000     -20.562392      -559.5311
   3   2.0000     -15.631381      -425.3515
   4   2.0000     -11.390335      -309.9468
   5   2.0000     -11.390322      -309.9464
   6   2.0000     -11.323726      -308.1342
   7   2.0000     -11.323705      -308.1337
   8   2.0000      -1.448236       -39.4085
   9   2.0000      -1.417782       -38.5798
  10   2.0000      -1.417751       -38.5790
  11   2.0000      -1.265041       -34.4235
  12   2.0000      -1.053109       -28.6566
  13   2.0000      -0.976845       -26.5813
  14   2.0000      -0.888078       -24.1658
  15   2.0000      -0.805889       -21.9293
  16   2.0000      -0.743645       -20.2356
  17   2.0000      -0.729337       -19.8463
  18   2.0000      -0.686572       -18.6826
  19   2.0000      -0.663136       -18.0448
  20   2.0000      -0.661422       -17.9982
  21   2.0000      -0.639200       -17.3935
  22   2.0000      -0.625544       -17.0219
  23   2.0000      -0.591716       -16.1014
  24   2.0000      -0.566418       -15.4130
  25   2.0000      -0.534510       -14.5448
  26   2.0000      -0.505647       -13.7594
  27   2.0000      -0.456154       -12.4126
  28   2.0000      -0.449567       -12.2334
  29   2.0000      -0.439339       -11.9550
  30   0.0000       0.118548         3.2259
  31   0.0000       0.119206         3.2438
  32   0.0000       0.156798         4.2667
  33   0.0000       0.167513         4.5583
  34   0.0000       0.167993         4.5713

MULLIKEN ATOMIC CHARGES
-----------------------
   0 O :   -0.296975
   1 C :    0.220195
   2 C :   -0.055655
   3 O :   -0.302963
   4 C :   -0.055646
   5 C :    0.220190
   6 O :   -0.296974
   7 N :   -0.266383
   8 H :    0.126268
   9 H :    0.162227
  10 H :    0.126274
  11 H :    0.162222
  12 H :    0.257220
Sum of atomic charges:   -0.0000000

LOEWDIN ATOMIC CHARGES
----------------------
   0 O :    0.131637
   1 C :   -0.420927
   2 C :   -0.277863
   3 O :    0.171243
   4 C :   -0.277862
   5 C :   -0.420928
   6 O :    0.131639
   7 N :    0.173555
   8 H :    0.140163
   9 H :    0.150946
  10 H :    0.140167
  11 H :    0.150944
  12 H :    0.207287

  Mayer bond orders larger than 0.1
B(  0-O ,  1-C ) :   2.0020 B(  1-C ,  2-C ) :   0.9000 B(  1-C ,  7-N ) :   1.0512
B(  2-C ,  3-O ) :   0.9223 B(  2-C ,  8-H ) :   0.9166 B(  2-C ,  9-H ) :   0.9189
B(  3-O ,  4-C ) :   0.9223 B(  4-C ,  5-C ) :   0.9001 B(  4-C , 10-H ) :   0.9166
B(  4-C , 11-H ) :   0.9189 B(  5-C ,  6-O ) :   2.0020 B(  5-C ,  7-N ) :   1.0512
B(  7-N , 12-H ) :   0.8422

MP2 TOTAL ENERGY:     -435.118375978 Eh
FINAL SINGLE POINT ENERGY      -435.118375977752

DIPOLE MOMENT
-------------
                                X             Y             Z
Electronic contribution:      2.59476      -1.49767       0.78010
Nuclear contribution   :     -3.17616       1.83387      -1.06855
                        -----------------------------------------
Total Dipole Moment    :     -0.58140       0.33621      -0.28845
                        -----------------------------------------
Magnitude (a.u.)       :      0.73094
Magnitude (Debye)      :      1.85790

                             ****ORCA TERMINATED NORMALLY****
TOTAL RUN TIME: 0 days 0 hours 9 minutes 4 seconds 385 msec
