                         Program Version 3.0.3 - RELEASE   -
|  1> ! RI-MP2 RIJK def2-TZVP def2-TZVP/C def2-TZVP/JK TIGHTSCF
|  2> % maxcore 2000
|  3> % mp2 density relaxed end
|  4> *xyz 0 1
|  5>  C       -0.1319469604     1.5180303494     0.0449063314
|  6>  C        0.1155666222     0.0483119942     0.0064456749
|  7>  O       -0.7981917418    -0.8368737235     0.6844468814
|  8>  C        0.5994871987    -0.9221369674     0.9815304980
|  9>  C        1.3237400838    -1.7592232129    -0.1348989326
| 10>  C        0.3401845220    -2.1721382755    -1.2126756598
| 11>  C        0.7852753478    -0.7432259636    -1.1666754155
| 12>  C        2.6360339551    -2.2750814009     0.0080193621
| 13>  C        3.7505863522    -2.7036522828     0.1673254408
| 14>  H        0.7757093984     2.0676686426    -0.2249448571
| 15>  H       -0.9189945937     1.7987675120    -0.6641522676
| 16>  H       -0.4443986514     1.8244152860     1.0463862623
| 17>  H        0.9148290924    -0.8367880229     2.0147246748
| 18>  H        0.7804226828    -2.7653596248    -2.0066202005
| 19>  H       -0.6706606992    -2.4363115545    -0.9298289699
| 20>  H        1.3575854700    -0.2716289655    -1.9543287748
| 21>  H        4.7320370511    -3.0859150098     0.2988419121
| 22> *
| 23>
| 24>                          ****END OF INPUT****

CARTESIAN COORDINATES (ANGSTROEM)
---------------------------------
  C     -0.131947    1.518030    0.044906
  C      0.115567    0.048312    0.006446
  O     -0.798192   -0.836874    0.684447
  C      0.599487   -0.922137    0.981530
  C      1.323740   -1.759223   -0.134899
  C      0.340185   -2.172138   -1.212676
  C      0.785275   -0.743226   -1.166675
  C      2.636034   -2.275081    0.008019
  C      3.750586   -2.703652    0.167325
  H      0.775709    2.067669   -0.224945
  H     -0.918995    1.798768   -0.664152
  H     -0.444399    1.824415    1.046386
  H      0.914829   -0.836788    2.014725
  H      0.780423   -2.765360   -2.006620
  H     -0.670661   -2.436312   -0.929829
  H      1.357585   -0.271629   -1.954329
  H      4.732037   -3.085915    0.298842

 Total Charge           Charge          ....    0
 Multiplicity           Mult            ....    1
 Number of Electrons    NEL             ....   64
 Basis Dimension        Dim             ....  327

ORBITAL ENERGIES
----------------

  NO   OCC          E(Eh)            E(eV)
   0   2.0000     -20.572130      -559.7961
   1   2.0000     -11.302360      -307.5529
   2   2.0000     -11.296104      -307.3826
   3   2.0000     -11.267760      -306.6113
   4   2.0000     -11.253707      -306.2289
   5   2.0000     -11.245485      -306.0052
   6   2.0000     -11.239091      -305.8312
   7   2.0000     -11.235294      -305.7279
   8   2.0000     -11.224667      -305.4387
   9   2.0000      -1.425958       -38.8023
  10   2.0000      -1.178160       -32.0594
  11   2.0000      -1.034314       -28.1451
  12   2.0000      -1.017877       -27.6978
  13   2.0000      -0.941454       -25.6183
  14   2.0000      -0.881331       -23.9822
  15   2.0000      -0.820312       -22.3218
  16   2.0000      -0.755810       -20.5666
  17   2.0000      -0.735608       -20.0169
  18   2.0000      -0.697954       -18.9923
  19   2.0000      -0.669382       -18.2148
  20   2.0000      -0.629235       -17.1224
  21   2.0000      -0.593492       -16.1497
  22   2.0000      -0.579348       -15.7649
  23   2.0000      -0.555910       -15.1271
  24   2.0000      -0.538365       -14.6497
  25   2.0000      -0.514668       -14.0048
  26   2.0000      -0.500681       -13.6242
  27   2.0000      -0.468265       -12.7422
  28   2.0000      -0.455290       -12.3891
  29   2.0000      -0.403003       -10.9663
  30   2.0000      -0.380523       -10.3546
  31   2.0000      -0.332644        -9.0517
  32   0.0000       0.138885         3.7792
  33   0.0000       0.157020         4.2727
  34   0.0000       0.159498         4.3402
  35   0.0000       0.161244         4.3877
  36   0.0000       0.174075         4.7368

MULLIKEN ATOMIC CHARGES
-----------------------
   0 C :   -0.416908
   1 C :    0.168931
   2 O :   -0.323294
   3 C :   -0.062839
   4 C :   -0.050652
   5 C :   -0.250603
   6 C :   -0.137595
   7 C :   -0.021548
   8 C :   -0.135126
   9 H :    0.140423
  10 H :    0.143256
  11 H :    0.148911
  12 H :    0.148423
  13 H :    0.143011
  14 H :    0.162253
  15 H :    0.151745
  16 H :    0.191612
Sum of atomic charges:    0.0000000

LOEWDIN ATOMIC CHARGES
----------------------
   0 C :   -0.266880
   1 C :   -0.273796
   2 O :    0.196917
   3 C :   -0.164973
   4 C :   -0.167469
   5 C :   -0.155001
   6 C :   -0.104084
   7 C :   -0.082561
   8 C :   -0.092729
   9 H :    0.135910
  10 H :    0.134831
  11 H :    0.137567
  12 H :    0.138523
  13 H :    0.148603
  14 H :    0.143651
  15 H :    0.144872
  16 H :    0.126620

  Mayer bond orders larger than 0.1
B(  0-C ,  1-C ) :   0.8656 B(  0-C ,  9-H ) :   0.9350 B(  0-C , 10-H ) :   0.9384
B(  0-C , 11-H ) :   0.9396 B(  1-C ,  2-O ) :   0.8953 B(  1-C ,  3-C ) :   0.9897
B(  1-C ,  6-C ) :   0.8786 B(  2-O ,  3-C ) :   0.9278 B(  3-C ,  4-C ) :   0.8381
B(  3-C , 12-H ) :   0.9221 B(  4-C ,  5-C ) :   0.8508 B(  4-C ,  6-C ) :   0.7774
B(  4-C ,  7-C ) :   1.2358 B(  4-C ,  8-C ) :  -0.1585 B(  5-C ,  6-C ) :   0.9315
B(  5-C , 13-H ) :   0.9274 B(  5-C , 14-H ) :   0.8875 B(  6-C , 15-H ) :   0.9057
B(  7-C ,  8-C ) :   2.5923 B(  8-C , 16-H ) :   0.8745

MP2 TOTAL ENERGY:     -383.895494897 Eh
FINAL SINGLE POINT ENERGY      -383.895494896554

DIPOLE MOMENT
-------------
                                X             Y             Z
Electronic contribution:      0.95296      -3.84150       1.58720
Nuclear contribution   :     -0.58205       4.35604      -1.81108
                        -----------------------------------------
Total Dipole Moment    :      0.37091       0.51454      -0.22388
                        -----------------------------------------
Magnitude (a.u.)       :      0.67264
Magnitude (Debye)      :      1.70973

                             ****ORCA TERMINATED NORMALLY****
TOTAL RUN TIME: 0 days 0 hours 17 minutes 11 seconds 890 msec
