                         Program Version 3.0.3 - RELEASE   -
|  1> ! RI-MP2 RIJK def2-TZVP def2-TZVP/C def2-TZVP/JK TIGHTSCF
|  2> % maxcore 2000
|  3> % mp2 density relaxed end
|  4> *xyz 0 1
|  5>  O       -0.0191723628     1.4528056106    -0.0206092061
|  6>  C       -0.0051858529     0.0411303501     0.0118841686
|  7>  C       -1.4206563200    -0.5062791401    -0.1467484709
|  8>  C       -2.3560048121     0.2393826642    -1.0205034620
|  9>  N       -1.6488746685    -0.9351284782    -1.5502676885
| 10>  C       -0.4213515455    -0.6128395100    -2.3071956624
| 11>  C        0.7028135658    -0.5774390498    -1.2386466751
| 12>  C        1.9025604015     0.1526689911    -1.6219503625
| 13>  N        2.8399287014     0.7764334811    -1.8864995384
| 14>  H        0.8927794050     1.7685005221    -0.0220944713
| 15>  H        0.4589531913    -0.3250075690     0.9364799806
| 16>  H       -1.7909559990    -1.1744190249     0.6244384077
| 17>  H       -3.4268124097     0.1073129132    -0.8954142257
| 18>  H       -2.0444262346     1.2252950156    -1.3512996193
| 19>  H       -0.2370337463    -1.3881883524    -3.0539747946
| 20>  H       -0.4943882805     0.3491154548    -2.8251639195
| 21>  H        0.9811913772    -1.6086008484    -0.9938902405
| 22> *
| 23>
| 24>                          ****END OF INPUT****

CARTESIAN COORDINATES (ANGSTROEM)
---------------------------------
  O     -0.019172    1.452806   -0.020609
  C     -0.005186    0.041130    0.011884
  C     -1.420656   -0.506279   -0.146748
  C     -2.356005    0.239383   -1.020503
  N     -1.648875   -0.935128   -1.550268
  C     -0.421352   -0.612840   -2.307196
  C      0.702814   -0.577439   -1.238647
  C      1.902560    0.152669   -1.621950
  N      2.839929    0.776433   -1.886500
  H      0.892779    1.768501   -0.022094
  H      0.458953   -0.325008    0.936480
  H     -1.790956   -1.174419    0.624438
  H     -3.426812    0.107313   -0.895414
  H     -2.044426    1.225295   -1.351300
  H     -0.237034   -1.388188   -3.053975
  H     -0.494388    0.349115   -2.825164
  H      0.981191   -1.608601   -0.993890

 Total Charge           Charge          ....    0
 Multiplicity           Mult            ....    1
 Number of Electrons    NEL             ....   66
 Basis Dimension        Dim             ....  327

ORBITAL ENERGIES
----------------

  NO   OCC          E(Eh)            E(eV)
   0   2.0000     -20.580647      -560.0279
   1   2.0000     -15.582788      -424.0292
   2   2.0000     -15.575581      -423.8331
   3   2.0000     -11.320526      -308.0472
   4   2.0000     -11.292836      -307.2937
   5   2.0000     -11.284987      -307.0801
   6   2.0000     -11.280123      -306.9477
   7   2.0000     -11.274597      -306.7974
   8   2.0000     -11.267518      -306.6047
   9   2.0000      -1.394065       -37.9344
  10   2.0000      -1.295114       -35.2418
  11   2.0000      -1.231428       -33.5089
  12   2.0000      -1.096413       -29.8349
  13   2.0000      -1.009505       -27.4700
  14   2.0000      -0.914205       -24.8768
  15   2.0000      -0.839337       -22.8395
  16   2.0000      -0.801890       -21.8205
  17   2.0000      -0.736341       -20.0369
  18   2.0000      -0.722005       -19.6467
  19   2.0000      -0.694221       -18.8907
  20   2.0000      -0.648679       -17.6514
  21   2.0000      -0.632801       -17.2194
  22   2.0000      -0.586825       -15.9683
  23   2.0000      -0.582581       -15.8528
  24   2.0000      -0.568713       -15.4755
  25   2.0000      -0.553319       -15.0566
  26   2.0000      -0.518916       -14.1204
  27   2.0000      -0.510001       -13.8778
  28   2.0000      -0.478656       -13.0249
  29   2.0000      -0.474870       -12.9219
  30   2.0000      -0.455507       -12.3950
  31   2.0000      -0.448022       -12.1913
  32   2.0000      -0.392281       -10.6745
  33   0.0000       0.120055         3.2669
  34   0.0000       0.147663         4.0181
  35   0.0000       0.152015         4.1365
  36   0.0000       0.165787         4.5113
  37   0.0000       0.167288         4.5521

MULLIKEN ATOMIC CHARGES
-----------------------
   0 O :   -0.442541
   1 C :    0.000040
   2 C :   -0.051901
   3 C :   -0.186941
   4 N :   -0.216615
   5 C :   -0.179087
   6 C :    0.095459
   7 C :   -0.274956
   8 N :   -0.044118
   9 H :    0.330703
  10 H :    0.108819
  11 H :    0.141047
  12 H :    0.132152
  13 H :    0.151929
  14 H :    0.142145
  15 H :    0.143354
  16 H :    0.150510
Sum of atomic charges:    0.0000000

LOEWDIN ATOMIC CHARGES
----------------------
   0 O :    0.007998
   1 C :   -0.290883
   2 C :   -0.218363
   3 C :   -0.229128
   4 N :    0.109871
   5 C :   -0.228226
   6 C :   -0.218823
   7 C :   -0.183460
   8 N :    0.064292
   9 H :    0.183447
  10 H :    0.141599
  11 H :    0.141682
  12 H :    0.128687
  13 H :    0.133777
  14 H :    0.137792
  15 H :    0.138512
  16 H :    0.181225

  Mayer bond orders larger than 0.1
B(  0-O ,  1-C ) :   1.1231 B(  0-O ,  9-H ) :   0.8271 B(  1-C ,  2-C ) :   0.8972
B(  1-C ,  6-C ) :   0.8754 B(  1-C , 10-H ) :   0.9417 B(  2-C ,  3-C ) :   0.9605
B(  2-C ,  4-N ) :   0.9080 B(  2-C , 11-H ) :   0.9039 B(  3-C ,  4-N ) :   0.8817
B(  3-C , 12-H ) :   0.9285 B(  3-C , 13-H ) :   0.9014 B(  4-N ,  5-C ) :   0.9089
B(  5-C ,  6-C ) :   0.8821 B(  5-C , 14-H ) :   0.9206 B(  5-C , 15-H ) :   0.9340
B(  6-C ,  7-C ) :   0.8850 B(  6-C , 16-H ) :   0.8929 B(  7-C ,  8-N ) :   2.8614

MP2 TOTAL ENERGY:     -417.295067585 Eh
FINAL SINGLE POINT ENERGY      -417.295067584828

DIPOLE MOMENT
-------------
                                X             Y             Z
Electronic contribution:      4.23488       0.75647      -0.33762
Nuclear contribution   :     -4.78752      -1.25141       0.87989
                        -----------------------------------------
Total Dipole Moment    :     -0.55264      -0.49495       0.54227
                        -----------------------------------------
Magnitude (a.u.)       :      0.91893
Magnitude (Debye)      :      2.33574

                             ****ORCA TERMINATED NORMALLY****
TOTAL RUN TIME: 0 days 0 hours 17 minutes 21 seconds 69 msec
