                         Program Version 3.0.3 - RELEASE   -
|  1> ! RI-MP2 RIJK def2-TZVP def2-TZVP/C def2-TZVP/JK TIGHTSCF
|  2> % maxcore 2000
|  3> % mp2 density relaxed end
|  4> *xyz 0 1
|  5>  O        0.1279509313     1.5604359147    -0.0433789838
|  6>  C        0.0542275723     0.1418515719    -0.0033804142
|  7>  C        0.6149018369    -0.4815867172    -1.2049505828
|  8>  C        1.1321768435    -0.9806767813    -2.1690016586
|  9>  C        0.7393331171    -0.4023393508     1.2623619532
| 10>  C        0.0206169398    -0.0946355241     2.6062118411
| 11>  C       -0.1457804180    -1.6303864203     2.7368370287
| 12>  O       -0.6140907877    -2.3903666881     3.5381222917
| 13>  N        0.4939647453    -1.8193318611     1.5302145979
| 14>  H        1.0128661877     1.8022863297    -0.3385740394
| 15>  H       -1.0143302089    -0.0968857421     0.0631612884
| 16>  H        1.5636120690    -1.4199193014    -3.0349904543
| 17>  H        1.8026088049    -0.1340061964     1.2426043140
| 18>  H        0.6434686595     0.3539690358     3.3811391425
| 19>  H       -0.9118105707     0.4649819070     2.5156285832
| 20>  H        0.7565955081    -2.6523169963     1.0242122226
| 21> *
| 22>
| 23>                          ****END OF INPUT****

CARTESIAN COORDINATES (ANGSTROEM)
---------------------------------
  O      0.127951    1.560436   -0.043379
  C      0.054228    0.141852   -0.003380
  C      0.614902   -0.481587   -1.204951
  C      1.132177   -0.980677   -2.169002
  C      0.739333   -0.402339    1.262362
  C      0.020617   -0.094636    2.606212
  C     -0.145780   -1.630386    2.736837
  O     -0.614091   -2.390367    3.538122
  N      0.493965   -1.819332    1.530215
  H      1.012866    1.802286   -0.338574
  H     -1.014330   -0.096886    0.063161
  H      1.563612   -1.419919   -3.034990
  H      1.802609   -0.134006    1.242604
  H      0.643469    0.353969    3.381139
  H     -0.911811    0.464982    2.515629
  H      0.756596   -2.652317    1.024212

 Total Charge           Charge          ....    0
 Multiplicity           Mult            ....    1
 Number of Electrons    NEL             ....   66
 Basis Dimension        Dim             ....  321

ORBITAL ENERGIES
----------------

  NO   OCC          E(Eh)            E(eV)
   0   2.0000     -20.585447      -560.1585
   1   2.0000     -20.529811      -558.6446
   2   2.0000     -15.591348      -424.2622
   3   2.0000     -11.357234      -309.0460
   4   2.0000     -11.329624      -308.2947
   5   2.0000     -11.298598      -307.4505
   6   2.0000     -11.256083      -306.2936
   7   2.0000     -11.254051      -306.2383
   8   2.0000     -11.251274      -306.1627
   9   2.0000      -1.395379       -37.9702
  10   2.0000      -1.390986       -37.8507
  11   2.0000      -1.278153       -34.7803
  12   2.0000      -1.077911       -29.3314
  13   2.0000      -1.023146       -27.8412
  14   2.0000      -0.980907       -26.6918
  15   2.0000      -0.868234       -23.6259
  16   2.0000      -0.793102       -21.5814
  17   2.0000      -0.771654       -20.9978
  18   2.0000      -0.714981       -19.4556
  19   2.0000      -0.701906       -19.0998
  20   2.0000      -0.686824       -18.6894
  21   2.0000      -0.655957       -17.8495
  22   2.0000      -0.628614       -17.1054
  23   2.0000      -0.589349       -16.0370
  24   2.0000      -0.566682       -15.4202
  25   2.0000      -0.555624       -15.1193
  26   2.0000      -0.538161       -14.6441
  27   2.0000      -0.519015       -14.1231
  28   2.0000      -0.495716       -13.4891
  29   2.0000      -0.429395       -11.6844
  30   2.0000      -0.421055       -11.4575
  31   2.0000      -0.415053       -11.2942
  32   2.0000      -0.397601       -10.8193
  33   0.0000       0.117445         3.1958
  34   0.0000       0.141713         3.8562
  35   0.0000       0.147304         4.0084
  36   0.0000       0.155001         4.2178
  37   0.0000       0.155990         4.2447

MULLIKEN ATOMIC CHARGES
-----------------------
   0 O :   -0.451535
   1 C :   -0.002116
   2 C :   -0.125608
   3 C :   -0.124231
   4 C :    0.101164
   5 C :   -0.245501
   6 C :    0.212478
   7 O :   -0.305775
   8 N :   -0.346805
   9 H :    0.325068
  10 H :    0.126264
  11 H :    0.200392
  12 H :    0.110775
  13 H :    0.136461
  14 H :    0.145054
  15 H :    0.243914
Sum of atomic charges:    0.0000000

LOEWDIN ATOMIC CHARGES
----------------------
   0 O :    0.005884
   1 C :   -0.327195
   2 C :   -0.097057
   3 C :   -0.079751
   4 C :   -0.230441
   5 C :   -0.175277
   6 C :   -0.436190
   7 O :    0.107410
   8 N :    0.145385
   9 H :    0.182241
  10 H :    0.166997
  11 H :    0.130717
  12 H :    0.142318
  13 H :    0.143259
  14 H :    0.146871
  15 H :    0.174829

  Mayer bond orders larger than 0.1
B(  0-O ,  1-C ) :   0.9258 B(  0-O ,  9-H ) :   0.8356 B(  1-C ,  2-C ) :   1.1284
B(  1-C ,  4-C ) :   0.9173 B(  1-C , 10-H ) :   0.9090 B(  2-C ,  3-C ) :   2.5738
B(  3-C , 11-H ) :   0.8957 B(  4-C ,  5-C ) :   0.8929 B(  4-C ,  8-N ) :   0.8854
B(  4-C , 12-H ) :   0.8974 B(  5-C ,  6-C ) :   0.8960 B(  5-C , 13-H ) :   0.9060
B(  5-C , 14-H ) :   0.9023 B(  6-C ,  7-O ) :   2.0341 B(  6-C ,  8-N ) :   1.1300
B(  8-N , 15-H ) :   0.8576

MP2 TOTAL ENERGY:     -437.138154811 Eh
FINAL SINGLE POINT ENERGY      -437.138154810594

DIPOLE MOMENT
-------------
                                X             Y             Z
Electronic contribution:     -0.80548      -2.30804       0.57060
Nuclear contribution   :      1.91989       2.71956      -1.77187
                        -----------------------------------------
Total Dipole Moment    :      1.11441       0.41152      -1.20127
                        -----------------------------------------
Magnitude (a.u.)       :      1.68946
Magnitude (Debye)      :      4.29427

                             ****ORCA TERMINATED NORMALLY****
TOTAL RUN TIME: 0 days 0 hours 16 minutes 34 seconds 23 msec
