                         Program Version 3.0.3 - RELEASE   -
|  1> ! RI-MP2 RIJK def2-TZVP def2-TZVP/C def2-TZVP/JK TIGHTSCF
|  2> % maxcore 2000
|  3> % mp2 density relaxed end
|  4> *xyz 0 1
|  5>  O       -0.1545297270     1.3790901865    -0.0203267351
|  6>  C        0.0157823148    -0.0245357238     0.0179450508
|  7>  C        0.6126539048    -0.5696439345     1.3385131662
|  8>  C        0.1693986621    -2.0249260128     1.3210400829
|  9>  C       -1.0514267859    -2.1138450136     0.4538241072
| 10>  C       -1.3575980358    -0.7158116588    -0.0602767637
| 11>  N        0.2131964064    -2.7159898574     0.0329377949
| 12>  C        0.9560675851    -2.0994707878    -1.0717617759
| 13>  C        0.8760029853    -0.5434585140    -1.1410879776
| 14>  H        0.7180215883     1.7832799296    -0.0792189372
| 15>  H        1.7007708092    -0.4408620134     1.3881771930
| 16>  H        0.1704271941    -0.0484576325     2.1950721036
| 17>  H        0.3241014036    -2.6472005635     2.1980579196
| 18>  H       -1.8657058408    -2.8077441793     0.6417031064
| 19>  H       -2.0700960685    -0.2137524961     0.6036587207
| 20>  H       -1.7700674540    -0.6942711592    -1.0744547644
| 21>  H        1.9963053389    -2.4266987888    -0.9770695914
| 22>  H        0.5758569521    -2.5415867910    -1.9980313546
| 23>  H        0.4377076345    -0.2097122874    -2.0872416522
| 24>  H        1.8799374227    -0.1035885623    -1.0761455530
| 25> *
| 26>
| 27>                          ****END OF INPUT****

CARTESIAN COORDINATES (ANGSTROEM)
---------------------------------
  O     -0.154530    1.379090   -0.020327
  C      0.015782   -0.024536    0.017945
  C      0.612654   -0.569644    1.338513
  C      0.169399   -2.024926    1.321040
  C     -1.051427   -2.113845    0.453824
  C     -1.357598   -0.715812   -0.060277
  N      0.213196   -2.715990    0.032938
  C      0.956068   -2.099471   -1.071762
  C      0.876003   -0.543459   -1.141088
  H      0.718022    1.783280   -0.079219
  H      1.700771   -0.440862    1.388177
  H      0.170427   -0.048458    2.195072
  H      0.324101   -2.647201    2.198058
  H     -1.865706   -2.807744    0.641703
  H     -2.070096   -0.213752    0.603659
  H     -1.770067   -0.694271   -1.074455
  H      1.996305   -2.426699   -0.977070
  H      0.575857   -2.541587   -1.998031
  H      0.437708   -0.209712   -2.087242
  H      1.879937   -0.103589   -1.076146

 Total Charge           Charge          ....    0
 Multiplicity           Mult            ....    1
 Number of Electrons    NEL             ....   68
 Basis Dimension        Dim             ....  345

ORBITAL ENERGIES
----------------

  NO   OCC          E(Eh)            E(eV)
   0   2.0000     -20.558177      -559.4164
   1   2.0000     -15.553287      -423.2265
   2   2.0000     -11.286788      -307.1291
   3   2.0000     -11.253664      -306.2278
   4   2.0000     -11.252533      -306.1970
   5   2.0000     -11.252518      -306.1966
   6   2.0000     -11.225146      -305.4517
   7   2.0000     -11.224389      -305.4311
   8   2.0000     -11.222241      -305.3727
   9   2.0000      -1.368206       -37.2308
  10   2.0000      -1.282897       -34.9094
  11   2.0000      -1.072389       -29.1812
  12   2.0000      -1.041783       -28.3483
  13   2.0000      -0.975870       -26.5548
  14   2.0000      -0.884698       -24.0739
  15   2.0000      -0.829603       -22.5746
  16   2.0000      -0.777507       -21.1570
  17   2.0000      -0.731217       -19.8974
  18   2.0000      -0.704698       -19.1758
  19   2.0000      -0.655946       -17.8492
  20   2.0000      -0.646040       -17.5796
  21   2.0000      -0.611298       -16.6343
  22   2.0000      -0.595749       -16.2112
  23   2.0000      -0.572054       -15.5664
  24   2.0000      -0.555331       -15.1113
  25   2.0000      -0.547464       -14.8973
  26   2.0000      -0.528471       -14.3804
  27   2.0000      -0.521849       -14.2002
  28   2.0000      -0.510421       -13.8893
  29   2.0000      -0.459808       -12.5120
  30   2.0000      -0.438630       -11.9357
  31   2.0000      -0.419572       -11.4171
  32   2.0000      -0.411360       -11.1937
  33   2.0000      -0.365087        -9.9345
  34   0.0000       0.125846         3.4244
  35   0.0000       0.150806         4.1036
  36   0.0000       0.171791         4.6747
  37   0.0000       0.175151         4.7661
  38   0.0000       0.185979         5.0607

MULLIKEN ATOMIC CHARGES
-----------------------
   0 O :   -0.452029
   1 C :    0.275488
   2 C :   -0.258732
   3 C :   -0.073422
   4 C :   -0.081461
   5 C :   -0.236039
   6 N :   -0.220201
   7 C :   -0.137225
   8 C :   -0.323329
   9 H :    0.313269
  10 H :    0.110070
  11 H :    0.119390
  12 H :    0.123077
  13 H :    0.123574
  14 H :    0.122232
  15 H :    0.119891
  16 H :    0.119325
  17 H :    0.121966
  18 H :    0.127790
  19 H :    0.106365
Sum of atomic charges:   -0.0000000

LOEWDIN ATOMIC CHARGES
----------------------
   0 O :    0.014308
   1 C :   -0.376549
   2 C :   -0.202720
   3 C :   -0.224016
   4 C :   -0.222180
   5 C :   -0.189854
   6 N :    0.133544
   7 C :   -0.267659
   8 C :   -0.233830
   9 H :    0.175591
  10 H :    0.137478
  11 H :    0.147588
  12 H :    0.136203
  13 H :    0.136769
  14 H :    0.150270
  15 H :    0.142110
  16 H :    0.134081
  17 H :    0.134913
  18 H :    0.139882
  19 H :    0.134069

  Mayer bond orders larger than 0.1
B(  0-O ,  1-C ) :   1.0085 B(  0-O ,  9-H ) :   0.8415 B(  1-C ,  2-C ) :   0.9183
B(  1-C ,  5-C ) :   0.8853 B(  1-C ,  8-C ) :   0.9224 B(  2-C ,  3-C ) :   0.9461
B(  2-C , 10-H ) :   0.9140 B(  2-C , 11-H ) :   0.9037 B(  3-C ,  4-C ) :   0.8538
B(  3-C ,  6-N ) :   0.9153 B(  3-C , 12-H ) :   0.9263 B(  4-C ,  5-C ) :   0.9697
B(  4-C ,  6-N ) :   0.9117 B(  4-C , 13-H ) :   0.9324 B(  5-C , 14-H ) :   0.9040
B(  5-C , 15-H ) :   0.9230 B(  6-N ,  7-C ) :   0.9412 B(  7-C ,  8-C ) :   0.9022
B(  7-C , 16-H ) :   0.9307 B(  7-C , 17-H ) :   0.9334 B(  8-C , 18-H ) :   0.9305
B(  8-C , 19-H ) :   0.9129

MP2 TOTAL ENERGY:     -402.467508222 Eh
FINAL SINGLE POINT ENERGY      -402.467508221786

DIPOLE MOMENT
-------------
                                X             Y             Z
Electronic contribution:     -1.06996      -0.23557       1.07450
Nuclear contribution   :      1.53023       0.50534      -1.08985
                        -----------------------------------------
Total Dipole Moment    :      0.46027       0.26977      -0.01536
                        -----------------------------------------
Magnitude (a.u.)       :      0.53372
Magnitude (Debye)      :      1.35662

                             ****ORCA TERMINATED NORMALLY****
TOTAL RUN TIME: 0 days 0 hours 20 minutes 5 seconds 227 msec
