                         Program Version 3.0.3 - RELEASE   -
|  1> ! RI-MP2 RIJK def2-TZVP def2-TZVP/C def2-TZVP/JK TIGHTSCF
|  2> % maxcore 2000
|  3> % mp2 density relaxed end
|  4> *xyz 0 1
|  5>  O       -0.2664649474    -0.0870660596     0.1466039258
|  6>  C       -0.1127145537     1.0929686101    -0.0283862579
|  7>  C        1.2291230985     1.7983207334    -0.0206310555
|  8>  C        1.3700292146     2.7700039643    -1.1871957444
|  9>  C        2.7202689828     3.4916713253    -1.4614210603
| 10>  C        2.6549962246     2.8668777686    -2.8540847123
| 11>  C        2.5695514350     1.3996208449    -2.7648675398
| 12>  N        1.3273613306     2.1763828843    -2.5773529241
| 13>  H       -0.9839837209     1.7673463642    -0.2003439218
| 14>  H        1.2870649233     2.3787353789     0.9126835319
| 15>  H        2.0200256177     1.0445676760     0.0134760551
| 16>  H        0.5521376026     3.4959827802    -1.1387610683
| 17>  H        2.6301055889     4.5789872247    -1.4502841341
| 18>  H        3.5824464970     3.2038208344    -0.8516931149
| 19>  H        2.8359793310     3.3896591167    -3.7872706551
| 20>  H        2.5585681968     0.8333413118    -3.6906419520
| 21>  H        3.0235767386     0.8774635418    -1.9263858626
| 22> *
| 23>
| 24>                          ****END OF INPUT****

CARTESIAN COORDINATES (ANGSTROEM)
---------------------------------
  O     -0.266465   -0.087066    0.146604
  C     -0.112715    1.092969   -0.028386
  C      1.229123    1.798321   -0.020631
  C      1.370029    2.770004   -1.187196
  C      2.720269    3.491671   -1.461421
  C      2.654996    2.866878   -2.854085
  C      2.569551    1.399621   -2.764868
  N      1.327361    2.176383   -2.577353
  H     -0.983984    1.767346   -0.200344
  H      1.287065    2.378735    0.912684
  H      2.020026    1.044568    0.013476
  H      0.552138    3.495983   -1.138761
  H      2.630106    4.578987   -1.450284
  H      3.582446    3.203821   -0.851693
  H      2.835979    3.389659   -3.787271
  H      2.558568    0.833341   -3.690642
  H      3.023577    0.877464   -1.926386

 Total Charge           Charge          ....    0
 Multiplicity           Mult            ....    1
 Number of Electrons    NEL             ....   60
 Basis Dimension        Dim             ....  302

ORBITAL ENERGIES
----------------

  NO   OCC          E(Eh)            E(eV)
   0   2.0000     -20.555008      -559.3302
   1   2.0000     -15.567156      -423.6038
   2   2.0000     -11.331524      -308.3464
   3   2.0000     -11.279322      -306.9260
   4   2.0000     -11.271277      -306.7070
   5   2.0000     -11.261821      -306.4497
   6   2.0000     -11.245333      -306.0011
   7   2.0000     -11.244542      -305.9795
   8   2.0000      -1.394425       -37.9442
   9   2.0000      -1.297847       -35.3162
  10   2.0000      -1.069028       -29.0897
  11   2.0000      -0.994188       -27.0532
  12   2.0000      -0.928079       -25.2543
  13   2.0000      -0.833545       -22.6819
  14   2.0000      -0.791801       -21.5460
  15   2.0000      -0.757093       -20.6015
  16   2.0000      -0.697932       -18.9917
  17   2.0000      -0.670132       -18.2352
  18   2.0000      -0.639462       -17.4007
  19   2.0000      -0.630021       -17.1438
  20   2.0000      -0.615324       -16.7438
  21   2.0000      -0.575038       -15.6476
  22   2.0000      -0.557446       -15.1689
  23   2.0000      -0.530175       -14.4268
  24   2.0000      -0.514921       -14.0117
  25   2.0000      -0.493829       -13.4378
  26   2.0000      -0.459258       -12.4970
  27   2.0000      -0.432421       -11.7668
  28   2.0000      -0.415551       -11.3077
  29   2.0000      -0.379279       -10.3207
  30   0.0000       0.131837         3.5875
  31   0.0000       0.137100         3.7307
  32   0.0000       0.149086         4.0568
  33   0.0000       0.158425         4.3110
  34   0.0000       0.175365         4.7719

MULLIKEN ATOMIC CHARGES
-----------------------
   0 O :   -0.261323
   1 C :    0.107910
   2 C :   -0.164403
   3 C :   -0.051208
   4 C :   -0.227688
   5 C :   -0.064264
   6 C :   -0.166792
   7 N :   -0.251841
   8 H :    0.073046
   9 H :    0.136660
  10 H :    0.110914
  11 H :    0.111920
  12 H :    0.132758
  13 H :    0.121070
  14 H :    0.131736
  15 H :    0.136324
  16 H :    0.125179
Sum of atomic charges:    0.0000000

LOEWDIN ATOMIC CHARGES
----------------------
   0 O :    0.134844
   1 C :   -0.287948
   2 C :   -0.250809
   3 C :   -0.253511
   4 C :   -0.211715
   5 C :   -0.217558
   6 C :   -0.250395
   7 N :    0.109830
   8 H :    0.111644
   9 H :    0.159528
  10 H :    0.144815
  11 H :    0.149158
  12 H :    0.136784
  13 H :    0.132728
  14 H :    0.131922
  15 H :    0.134949
  16 H :    0.125732

  Mayer bond orders larger than 0.1
B(  0-O ,  1-C ) :   2.0036 B(  1-C ,  2-C ) :   0.8759 B(  1-C ,  8-H ) :   0.9330
B(  2-C ,  3-C ) :   0.9311 B(  2-C ,  9-H ) :   0.9095 B(  2-C , 10-H ) :   0.8917
B(  3-C ,  4-C ) :   0.9463 B(  3-C ,  7-N ) :   0.9143 B(  3-C , 11-H ) :   0.9164
B(  4-C ,  5-C ) :   0.9346 B(  4-C , 12-H ) :   0.9338 B(  4-C , 13-H ) :   0.9171
B(  5-C ,  6-C ) :   0.9451 B(  5-C ,  7-N ) :   0.8768 B(  5-C , 14-H ) :   0.9081
B(  6-C ,  7-N ) :   0.8724 B(  6-C , 15-H ) :   0.9326 B(  6-C , 16-H ) :   0.9103

MP2 TOTAL ENERGY:     -363.195072133 Eh
FINAL SINGLE POINT ENERGY      -363.195072133107

DIPOLE MOMENT
-------------
                                X             Y             Z
Electronic contribution:     -3.55220      -2.96390       0.42888
Nuclear contribution   :      4.45091       4.10160      -0.27424
                        -----------------------------------------
Total Dipole Moment    :      0.89871       1.13770       0.15464
                        -----------------------------------------
Magnitude (a.u.)       :      1.45806
Magnitude (Debye)      :      3.70610

                             ****ORCA TERMINATED NORMALLY****
TOTAL RUN TIME: 0 days 0 hours 11 minutes 45 seconds 468 msec
