                         Program Version 3.0.3 - RELEASE   -
|  1> ! RI-MP2 RIJK def2-TZVP def2-TZVP/C def2-TZVP/JK TIGHTSCF
|  2> % maxcore 2000
|  3> % mp2 density relaxed end
|  4> *xyz 0 1
|  5>  O        0.0132370443     1.4656590275    -0.0715133973
|  6>  C        0.0616350309     0.0706120414    -0.0587657184
|  7>  C       -1.2390836845    -0.5906861145     0.1978576581
|  8>  N       -2.3696844171     0.2496540185     0.4104625360
|  9>  C       -3.5888589631    -0.2576064202     0.7502911127
| 10>  O       -3.8484796152    -1.4383652784     0.8180232211
| 11>  C       -0.5904201283    -0.7271673923    -1.1988070274
| 12>  C       -1.1626514663    -0.0288765127    -2.3706069677
| 13>  O       -1.0846941826    -0.4486954733    -3.5006847452
| 14>  H        0.6699739367     1.7979685982    -0.6925812436
| 15>  H        0.9602911354    -0.3593908318     0.3798444872
| 16>  H       -1.2712876712    -1.5020931832     0.7830607974
| 17>  H       -2.2066770630     1.2442581397     0.4567614391
| 18>  H       -4.3212904594     0.5450037763     0.9627385748
| 19>  H       -0.1452258820    -1.6884255592    -1.4313130533
| 20>  H       -1.6804704347     0.9271512639    -2.1501969436
| 21> *
| 22>
| 23>                          ****END OF INPUT****

CARTESIAN COORDINATES (ANGSTROEM)
---------------------------------
  O      0.013237    1.465659   -0.071513
  C      0.061635    0.070612   -0.058766
  C     -1.239084   -0.590686    0.197858
  N     -2.369684    0.249654    0.410463
  C     -3.588859   -0.257606    0.750291
  O     -3.848480   -1.438365    0.818023
  C     -0.590420   -0.727167   -1.198807
  C     -1.162651   -0.028877   -2.370607
  O     -1.084694   -0.448695   -3.500685
  H      0.669974    1.797969   -0.692581
  H      0.960291   -0.359391    0.379844
  H     -1.271288   -1.502093    0.783061
  H     -2.206677    1.244258    0.456761
  H     -4.321290    0.545004    0.962739
  H     -0.145226   -1.688426   -1.431313
  H     -1.680470    0.927151   -2.150197

 Total Charge           Charge          ....    0
 Multiplicity           Mult            ....    1
 Number of Electrons    NEL             ....   68
 Basis Dimension        Dim             ....  321

ORBITAL ENERGIES
----------------

  NO   OCC          E(Eh)            E(eV)
   0   2.0000     -20.607754      -560.7655
   1   2.0000     -20.557614      -559.4011
   2   2.0000     -20.535357      -558.7955
   3   2.0000     -15.606576      -424.6765
   4   2.0000     -11.361101      -309.1513
   5   2.0000     -11.338677      -308.5411
   6   2.0000     -11.328088      -308.2530
   7   2.0000     -11.304666      -307.6156
   8   2.0000     -11.259413      -306.3842
   9   2.0000      -1.420649       -38.6578
  10   2.0000      -1.396433       -37.9989
  11   2.0000      -1.395608       -37.9764
  12   2.0000      -1.263706       -34.3872
  13   2.0000      -1.147956       -31.2375
  14   2.0000      -0.940877       -25.6026
  15   2.0000      -0.888570       -24.1792
  16   2.0000      -0.835270       -22.7289
  17   2.0000      -0.786110       -21.3911
  18   2.0000      -0.757110       -20.6020
  19   2.0000      -0.733312       -19.9544
  20   2.0000      -0.706789       -19.2327
  21   2.0000      -0.672880       -18.3100
  22   2.0000      -0.639467       -17.4008
  23   2.0000      -0.633706       -17.2440
  24   2.0000      -0.612571       -16.6689
  25   2.0000      -0.606057       -16.4917
  26   2.0000      -0.580867       -15.8062
  27   2.0000      -0.558506       -15.1977
  28   2.0000      -0.532962       -14.5026
  29   2.0000      -0.489325       -13.3152
  30   2.0000      -0.453467       -12.3395
  31   2.0000      -0.445364       -12.1190
  32   2.0000      -0.422257       -11.4902
  33   2.0000      -0.384290       -10.4571
  34   0.0000       0.103594         2.8189
  35   0.0000       0.127214         3.4617
  36   0.0000       0.137426         3.7396
  37   0.0000       0.153500         4.1770
  38   0.0000       0.167129         4.5478

MULLIKEN ATOMIC CHARGES
-----------------------
   0 O :   -0.482984
   1 C :    0.011276
   2 C :    0.035205
   3 N :   -0.353392
   4 C :    0.194911
   5 O :   -0.353349
   6 C :   -0.067700
   7 C :    0.048131
   8 O :   -0.264997
   9 H :    0.341393
  10 H :    0.137158
  11 H :    0.166583
  12 H :    0.267658
  13 H :    0.089881
  14 H :    0.146087
  15 H :    0.084139
Sum of atomic charges:   -0.0000000

LOEWDIN ATOMIC CHARGES
----------------------
   0 O :    0.006508
   1 C :   -0.289085
   2 C :   -0.205567
   3 N :    0.112788
   4 C :   -0.424524
   5 O :    0.069418
   6 C :   -0.181937
   7 C :   -0.290991
   8 O :    0.130117
   9 H :    0.190613
  10 H :    0.140018
  11 H :    0.161332
  12 H :    0.194081
  13 H :    0.112898
  14 H :    0.160387
  15 H :    0.113944

  Mayer bond orders larger than 0.1
B(  0-O ,  1-C ) :   1.0234 B(  0-O ,  9-H ) :   0.8324 B(  1-C ,  2-C ) :   0.8478
B(  1-C ,  6-C ) :   0.8033 B(  1-C , 10-H ) :   0.9470 B(  2-C ,  3-N ) :   0.8681
B(  2-C ,  6-C ) :   0.8151 B(  2-C , 11-H ) :   0.9240 B(  3-N ,  4-C ) :   1.1288
B(  3-N , 12-H ) :   0.8517 B(  4-C ,  5-O ) :   1.8944 B(  4-C , 13-H ) :   0.9285
B(  6-C ,  7-C ) :   0.9089 B(  6-C , 14-H ) :   0.9065 B(  7-C ,  8-O ) :   1.9755
B(  7-C , 15-H ) :   0.9477

MP2 TOTAL ENERGY:     -474.275008143 Eh
FINAL SINGLE POINT ENERGY      -474.275008142581

DIPOLE MOMENT
-------------
                                X             Y             Z
Electronic contribution:     -1.32280      -0.70284      -1.35479
Nuclear contribution   :      2.57500       1.96057       2.07516
                        -----------------------------------------
Total Dipole Moment    :      1.25221       1.25773       0.72037
                        -----------------------------------------
Magnitude (a.u.)       :      1.91542
Magnitude (Debye)      :      4.86862

                             ****ORCA TERMINATED NORMALLY****
TOTAL RUN TIME: 0 days 0 hours 13 minutes 11 seconds 592 msec
