                         Program Version 3.0.3 - RELEASE   -
|  1> ! RI-MP2 RIJK def2-TZVP def2-TZVP/C def2-TZVP/JK TIGHTSCF
|  2> % maxcore 2000
|  3> % mp2 density relaxed end
|  4> *xyz 0 1
|  5>  N        0.0120336928     1.2577847236     0.0149881656
|  6>  C        0.0154617625     0.0022294794    -0.0802792745
|  7>  O       -1.1084590400    -0.6873568060     0.2443245341
|  8>  C       -1.0841864565    -2.0818909955     0.0426194951
|  9>  C       -2.3199311822    -2.7554377162     0.6425651591
| 10>  O       -2.4929724956    -3.9403120095    -0.1330119579
| 11>  C       -2.2225067947    -3.6218649211    -1.4871420202
| 12>  C       -1.2112818341    -2.4805403673    -1.4453577087
| 13>  O       -0.6498738128    -1.9519888444    -2.3651356544
| 14>  H        0.9248986394     1.6286809381    -0.2398209505
| 15>  H        0.8478510890    -0.6369475216    -0.3940160646
| 16>  H       -0.1650983041    -2.5317446329     0.4459880785
| 17>  H       -2.2059231145    -3.0550109812     1.6848232885
| 18>  H       -3.1806862763    -2.0756935838     0.5541224467
| 19>  H       -1.8328178074    -4.5052302162    -2.0006331200
| 20>  H       -3.1225790455    -3.2787787955    -2.0239114467
| 21> *
| 22>
| 23>                          ****END OF INPUT****

CARTESIAN COORDINATES (ANGSTROEM)
---------------------------------
  N      0.012034    1.257785    0.014988
  C      0.015462    0.002229   -0.080279
  O     -1.108459   -0.687357    0.244325
  C     -1.084186   -2.081891    0.042619
  C     -2.319931   -2.755438    0.642565
  O     -2.492972   -3.940312   -0.133012
  C     -2.222507   -3.621865   -1.487142
  C     -1.211282   -2.480540   -1.445358
  O     -0.649874   -1.951989   -2.365136
  H      0.924899    1.628681   -0.239821
  H      0.847851   -0.636948   -0.394016
  H     -0.165098   -2.531745    0.445988
  H     -2.205923   -3.055011    1.684823
  H     -3.180686   -2.075694    0.554122
  H     -1.832818   -4.505230   -2.000633
  H     -3.122579   -3.278779   -2.023911

 Total Charge           Charge          ....    0
 Multiplicity           Mult            ....    1
 Number of Electrons    NEL             ....   68
 Basis Dimension        Dim             ....  321

ORBITAL ENERGIES
----------------

  NO   OCC          E(Eh)            E(eV)
   0   2.0000     -20.610737      -560.8467
   1   2.0000     -20.590516      -560.2964
   2   2.0000     -20.580068      -560.0121
   3   2.0000     -15.545337      -423.0101
   4   2.0000     -11.356907      -309.0371
   5   2.0000     -11.344735      -308.7059
   6   2.0000     -11.325765      -308.1897
   7   2.0000     -11.310400      -307.7716
   8   2.0000     -11.307767      -307.7000
   9   2.0000      -1.453009       -39.5384
  10   2.0000      -1.423045       -38.7230
  11   2.0000      -1.409578       -38.3566
  12   2.0000      -1.207420       -32.8556
  13   2.0000      -1.060600       -28.8604
  14   2.0000      -1.019029       -27.7292
  15   2.0000      -0.873112       -23.7586
  16   2.0000      -0.854241       -23.2451
  17   2.0000      -0.791813       -21.5463
  18   2.0000      -0.738175       -20.0868
  19   2.0000      -0.720823       -19.6146
  20   2.0000      -0.689763       -18.7694
  21   2.0000      -0.672304       -18.2943
  22   2.0000      -0.664740       -18.0885
  23   2.0000      -0.645361       -17.5612
  24   2.0000      -0.600830       -16.3494
  25   2.0000      -0.586982       -15.9726
  26   2.0000      -0.574920       -15.6444
  27   2.0000      -0.560120       -15.2416
  28   2.0000      -0.553697       -15.0668
  29   2.0000      -0.509948       -13.8764
  30   2.0000      -0.465405       -12.6643
  31   2.0000      -0.446617       -12.1531
  32   2.0000      -0.437259       -11.8984
  33   2.0000      -0.395789       -10.7700
  34   0.0000       0.098848         2.6898
  35   0.0000       0.134071         3.6483
  36   0.0000       0.147452         4.0124
  37   0.0000       0.157775         4.2933
  38   0.0000       0.168803         4.5934

MULLIKEN ATOMIC CHARGES
-----------------------
   0 N :   -0.332756
   1 C :    0.073533
   2 O :   -0.220155
   3 C :    0.039952
   4 C :   -0.050641
   5 O :   -0.310975
   6 C :   -0.037714
   7 C :    0.121019
   8 O :   -0.259501
   9 H :    0.229489
  10 H :    0.092268
  11 H :    0.119939
  12 H :    0.135121
  13 H :    0.124721
  14 H :    0.149337
  15 H :    0.126365
Sum of atomic charges:   -0.0000000

LOEWDIN ATOMIC CHARGES
----------------------
   0 N :   -0.072467
   1 C :   -0.383988
   2 O :    0.268857
   3 C :   -0.293540
   4 C :   -0.267565
   5 O :    0.155928
   6 C :   -0.274848
   7 C :   -0.300033
   8 O :    0.179799
   9 H :    0.170817
  10 H :    0.112811
  11 H :    0.153374
  12 H :    0.133564
  13 H :    0.133135
  14 H :    0.143072
  15 H :    0.141085

  Mayer bond orders larger than 0.1
B(  0-N ,  1-C ) :   1.9638 B(  0-N ,  9-H ) :   0.8493 B(  1-C ,  2-O ) :   1.0145
B(  1-C , 10-H ) :   0.9270 B(  2-O ,  3-C ) :   0.9152 B(  3-C ,  4-C ) :   0.9389
B(  3-C ,  7-C ) :   0.8408 B(  3-C , 11-H ) :   0.9010 B(  4-C ,  5-O ) :   0.9061
B(  4-C , 12-H ) :   0.9205 B(  4-C , 13-H ) :   0.9318 B(  5-O ,  6-C ) :   0.9468
B(  6-C ,  7-C ) :   0.9433 B(  6-C , 14-H ) :   0.9076 B(  6-C , 15-H ) :   0.9090
B(  7-C ,  8-O ) :   1.9979

MP2 TOTAL ENERGY:     -474.266312960 Eh
FINAL SINGLE POINT ENERGY      -474.266312960189

DIPOLE MOMENT
-------------
                                X             Y             Z
Electronic contribution:      0.57010       0.66942      -1.31784
Nuclear contribution   :     -0.12914      -1.67999       1.48728
                        -----------------------------------------
Total Dipole Moment    :      0.44096      -1.01057       0.16944
                        -----------------------------------------
Magnitude (a.u.)       :      1.11553
Magnitude (Debye)      :      2.83545

                             ****ORCA TERMINATED NORMALLY****
TOTAL RUN TIME: 0 days 0 hours 14 minutes 13 seconds 758 msec
