                         Program Version 3.0.3 - RELEASE   -
|  1> ! RI-MP2 RIJK def2-TZVP def2-TZVP/C def2-TZVP/JK TIGHTSCF
|  2> % maxcore 2000
|  3> % mp2 density relaxed end
|  4> *xyz 0 1
|  5>  O       -0.3464611284     1.6127509813    -0.6643572713
|  6>  C       -0.1648274475     0.2922573315    -0.1902263010
|  7>  C       -1.4604876969    -0.4885700478    -0.2940940932
|  8>  O       -1.9650678400    -0.5907160840    -1.6676239498
|  9>  C       -2.2423247429    -1.9797733881    -1.4641358707
| 10>  C       -0.9729370554    -2.7771213563    -1.3240084337
| 11>  C        0.2625910335    -2.4744945620    -2.0944550400
| 12>  O        1.1396138329    -3.2842330235    -2.2796881725
| 13>  C       -1.5605547170    -1.9999453272    -0.1276253559
| 14>  H       -0.6612878049     1.5431855374    -1.5731780240
| 15>  H        0.6493016229    -0.2220122694    -0.7187969471
| 16>  H        0.1231813875     0.3688722977     0.8643305935
| 17>  H       -2.2279350932     0.0129695631     0.3090586897
| 18>  H       -3.1864872772    -2.3697481904    -1.8250912170
| 19>  H       -1.1280846710    -3.8446120858    -1.1893391757
| 20>  H        0.3121217404    -1.4595339951    -2.5349282439
| 21>  H       -1.8116825227    -2.5245781614     0.7833220726
| 22> *
| 23>
| 24>                          ****END OF INPUT****

CARTESIAN COORDINATES (ANGSTROEM)
---------------------------------
  O     -0.346461    1.612751   -0.664357
  C     -0.164827    0.292257   -0.190226
  C     -1.460488   -0.488570   -0.294094
  O     -1.965068   -0.590716   -1.667624
  C     -2.242325   -1.979773   -1.464136
  C     -0.972937   -2.777121   -1.324008
  C      0.262591   -2.474495   -2.094455
  O      1.139614   -3.284233   -2.279688
  C     -1.560555   -1.999945   -0.127625
  H     -0.661288    1.543186   -1.573178
  H      0.649302   -0.222012   -0.718797
  H      0.123181    0.368872    0.864331
  H     -2.227935    0.012970    0.309059
  H     -3.186487   -2.369748   -1.825091
  H     -1.128085   -3.844612   -1.189339
  H      0.312122   -1.459534   -2.534928
  H     -1.811683   -2.524578    0.783322

 Total Charge           Charge          ....    0
 Multiplicity           Mult            ....    1
 Number of Electrons    NEL             ....   68
 Basis Dimension        Dim             ....  327

ORBITAL ENERGIES
----------------

  NO   OCC          E(Eh)            E(eV)
   0   2.0000     -20.584360      -560.1289
   1   2.0000     -20.567737      -559.6766
   2   2.0000     -20.558810      -559.4337
   3   2.0000     -11.337554      -308.5105
   4   2.0000     -11.321951      -308.0859
   5   2.0000     -11.313346      -307.8518
   6   2.0000     -11.292165      -307.2754
   7   2.0000     -11.276190      -306.8407
   8   2.0000     -11.268041      -306.6190
   9   2.0000      -1.424952       -38.7749
  10   2.0000      -1.396505       -38.0008
  11   2.0000      -1.371893       -37.3311
  12   2.0000      -1.151121       -31.3236
  13   2.0000      -1.028824       -27.9957
  14   2.0000      -0.941127       -25.6094
  15   2.0000      -0.880608       -23.9626
  16   2.0000      -0.796126       -21.6637
  17   2.0000      -0.776486       -21.1293
  18   2.0000      -0.744540       -20.2600
  19   2.0000      -0.714425       -19.4405
  20   2.0000      -0.690106       -18.7787
  21   2.0000      -0.658342       -17.9144
  22   2.0000      -0.635780       -17.3005
  23   2.0000      -0.620364       -16.8810
  24   2.0000      -0.586093       -15.9484
  25   2.0000      -0.578358       -15.7379
  26   2.0000      -0.561385       -15.2761
  27   2.0000      -0.550349       -14.9758
  28   2.0000      -0.512960       -13.9583
  29   2.0000      -0.499943       -13.6041
  30   2.0000      -0.472561       -12.8590
  31   2.0000      -0.453485       -12.3400
  32   2.0000      -0.420887       -11.4529
  33   2.0000      -0.400026       -10.8853
  34   0.0000       0.116440         3.1685
  35   0.0000       0.140028         3.8104
  36   0.0000       0.141162         3.8412
  37   0.0000       0.154831         4.2132
  38   0.0000       0.174163         4.7392

MULLIKEN ATOMIC CHARGES
-----------------------
   0 O :   -0.469598
   1 C :   -0.018635
   2 C :    0.030083
   3 O :   -0.352592
   4 C :    0.083342
   5 C :   -0.111192
   6 C :    0.059574
   7 O :   -0.267734
   8 C :   -0.191361
   9 H :    0.329461
  10 H :    0.113406
  11 H :    0.118585
  12 H :    0.111931
  13 H :    0.149157
  14 H :    0.141757
  15 H :    0.116590
  16 H :    0.157227
Sum of atomic charges:   -0.0000000

LOEWDIN ATOMIC CHARGES
----------------------
   0 O :   -0.035820
   1 C :   -0.330024
   2 C :   -0.258942
   3 O :    0.158903
   4 C :   -0.214903
   5 C :   -0.181103
   6 C :   -0.289292
   7 O :    0.128928
   8 C :   -0.142652
   9 H :    0.181059
  10 H :    0.122884
  11 H :    0.137529
  12 H :    0.152342
  13 H :    0.136834
  14 H :    0.170551
  15 H :    0.118268
  16 H :    0.145438

  Mayer bond orders larger than 0.1
B(  0-O ,  1-C ) :   0.9199 B(  0-O ,  9-H ) :   0.8362 B(  1-C ,  2-C ) :   0.9641
B(  1-C , 10-H ) :   0.9184 B(  1-C , 11-H ) :   0.9206 B(  2-C ,  3-O ) :   0.8802
B(  2-C ,  8-C ) :   0.9152 B(  2-C , 12-H ) :   0.9114 B(  3-O ,  4-C ) :   0.9481
B(  4-C ,  5-C ) :   0.8146 B(  4-C ,  8-C ) :   0.8843 B(  4-C , 13-H ) :   0.9154
B(  5-C ,  6-C ) :   0.9106 B(  5-C ,  8-C ) :   0.8234 B(  5-C , 14-H ) :   0.9149
B(  6-C ,  7-O ) :   1.9622 B(  6-C , 15-H ) :   0.9412 B(  8-C , 16-H ) :   0.9130

MP2 TOTAL ENERGY:     -458.175384289 Eh
FINAL SINGLE POINT ENERGY      -458.175384288713

DIPOLE MOMENT
-------------
                                X             Y             Z
Electronic contribution:      0.48475      -1.57977      -2.43838
Nuclear contribution   :     -1.53755       1.30584       2.99675
                        -----------------------------------------
Total Dipole Moment    :     -1.05280      -0.27392       0.55837
                        -----------------------------------------
Magnitude (a.u.)       :      1.22279
Magnitude (Debye)      :      3.10808

                             ****ORCA TERMINATED NORMALLY****
TOTAL RUN TIME: 0 days 0 hours 26 minutes 8 seconds 305 msec
