                         Program Version 3.0.3 - RELEASE   -
|  1> ! RI-MP2 RIJK def2-TZVP def2-TZVP/C def2-TZVP/JK TIGHTSCF
|  2> % maxcore 2000
|  3> % mp2 density relaxed end
|  4> *xyz 0 1
|  5>  O       -0.0322908198    -0.0640124953    -0.0358601736
|  6>  C       -0.0227015766     1.1242486160    -0.0060345971
|  7>  C       -0.9714949171     2.3157752814     0.0279437597
|  8>  N        0.0219408013     3.0704353950     0.9677038971
|  9>  C        0.0006349024     4.2594318280     0.0099363796
| 10>  C       -0.0389677663     3.0987456959    -0.9855704181
| 11>  C       -0.0838804786     3.0914232984    -2.4193474870
| 12>  C       -0.1214546409     3.0960630703    -3.6213753465
| 13>  C        0.9435995550     2.3018260211    -0.0319760188
| 14>  H       -2.0483106242     2.4211266738     0.1430196429
| 15>  H       -0.8925886651     4.8830304170     0.1033929199
| 16>  H        0.9069344167     4.8699222472     0.0470888948
| 17>  H       -0.1546666847     3.0966897085    -4.6830501298
| 18>  H        2.0269218181     2.3914436126     0.0155131069
| 19> *
| 20>
| 21>                          ****END OF INPUT****

CARTESIAN COORDINATES (ANGSTROEM)
---------------------------------
  O     -0.032291   -0.064012   -0.035860
  C     -0.022702    1.124249   -0.006035
  C     -0.971495    2.315775    0.027944
  N      0.021941    3.070435    0.967704
  C      0.000635    4.259432    0.009936
  C     -0.038968    3.098746   -0.985570
  C     -0.083880    3.091423   -2.419347
  C     -0.121455    3.096063   -3.621375
  C      0.943600    2.301826   -0.031976
  H     -2.048311    2.421127    0.143020
  H     -0.892589    4.883030    0.103393
  H      0.906934    4.869922    0.047089
  H     -0.154667    3.096690   -4.683050
  H      2.026922    2.391444    0.015513

 Total Charge           Charge          ....    0
 Multiplicity           Mult            ....    1
 Number of Electrons    NEL             ....   62
 Basis Dimension        Dim             ....  309

ORBITAL ENERGIES
----------------

  NO   OCC          E(Eh)            E(eV)
   0   2.0000     -20.568663      -559.7018
   1   2.0000     -15.606119      -424.6641
   2   2.0000     -11.355832      -309.0079
   3   2.0000     -11.310985      -307.7876
   4   2.0000     -11.306583      -307.6678
   5   2.0000     -11.306563      -307.6672
   6   2.0000     -11.288363      -307.1720
   7   2.0000     -11.254924      -306.2620
   8   2.0000     -11.250369      -306.1381
   9   2.0000      -1.417299       -38.5667
  10   2.0000      -1.345593       -36.6155
  11   2.0000      -1.070101       -29.1189
  12   2.0000      -1.038978       -28.2720
  13   2.0000      -0.967344       -26.3228
  14   2.0000      -0.926121       -25.2010
  15   2.0000      -0.827974       -22.5303
  16   2.0000      -0.761345       -20.7173
  17   2.0000      -0.735759       -20.0210
  18   2.0000      -0.704604       -19.1733
  19   2.0000      -0.678345       -18.4587
  20   2.0000      -0.668691       -18.1960
  21   2.0000      -0.607321       -16.5261
  22   2.0000      -0.603053       -16.4099
  23   2.0000      -0.524544       -14.2736
  24   2.0000      -0.519788       -14.1442
  25   2.0000      -0.506617       -13.7857
  26   2.0000      -0.492479       -13.4010
  27   2.0000      -0.422507       -11.4970
  28   2.0000      -0.417651       -11.3649
  29   2.0000      -0.408259       -11.1093
  30   2.0000      -0.397616       -10.8197
  31   0.0000       0.120442         3.2774
  32   0.0000       0.131198         3.5701
  33   0.0000       0.140287         3.8174
  34   0.0000       0.147735         4.0201
  35   0.0000       0.150999         4.1089

MULLIKEN ATOMIC CHARGES
-----------------------
   0 O :   -0.232529
   1 C :    0.105318
   2 C :   -0.013649
   3 N :   -0.207937
   4 C :   -0.110942
   5 C :   -0.271311
   6 C :    0.056199
   7 C :   -0.090152
   8 C :   -0.013650
   9 H :    0.161709
  10 H :    0.127747
  11 H :    0.127747
  12 H :    0.199740
  13 H :    0.161709
Sum of atomic charges:    0.0000000

LOEWDIN ATOMIC CHARGES
----------------------
   0 O :    0.183859
   1 C :   -0.288140
   2 C :   -0.093823
   3 N :    0.142093
   4 C :   -0.192314
   5 C :   -0.184632
   6 C :   -0.074603
   7 C :   -0.059186
   8 C :   -0.093823
   9 H :    0.136233
  10 H :    0.128524
  11 H :    0.128524
  12 H :    0.131055
  13 H :    0.136233

  Mayer bond orders larger than 0.1
B(  0-O ,  1-C ) :   2.0634 B(  1-C ,  2-C ) :   0.8675 B(  1-C ,  8-C ) :   0.8675
B(  2-C ,  3-N ) :   0.8924 B(  2-C ,  5-C ) :   0.8885 B(  2-C ,  9-H ) :   0.8722
B(  3-N ,  4-C ) :   0.9230 B(  3-N ,  8-C ) :   0.8924 B(  4-C ,  5-C ) :   0.9484
B(  4-C , 10-H ) :   0.9226 B(  4-C , 11-H ) :   0.9226 B(  5-C ,  6-C ) :   1.0680
B(  5-C ,  7-C ) :  -0.1522 B(  5-C ,  8-C ) :   0.8885 B(  6-C ,  7-C ) :   2.6804
B(  7-C , 12-H ) :   0.8648 B(  8-C , 13-H ) :   0.8722

MP2 TOTAL ENERGY:     -398.719195164 Eh
FINAL SINGLE POINT ENERGY      -398.719195163587

DIPOLE MOMENT
-------------
                                X             Y             Z
Electronic contribution:     -0.01583      -3.91411       0.40540
Nuclear contribution   :      0.00244       5.05975      -1.10013
                        -----------------------------------------
Total Dipole Moment    :     -0.01339       1.14564      -0.69472
                        -----------------------------------------
Magnitude (a.u.)       :      1.33989
Magnitude (Debye)      :      3.40573

                             ****ORCA TERMINATED NORMALLY****
TOTAL RUN TIME: 0 days 0 hours 14 minutes 46 seconds 594 msec
