                         Program Version 3.0.3 - RELEASE   -
|  1> ! RI-MP2 RIJK def2-TZVP def2-TZVP/C def2-TZVP/JK TIGHTSCF
|  2> % maxcore 2000
|  3> % mp2 density relaxed end
|  4> *xyz 0 1
|  5>  C        0.5757505117     1.1783171162    -0.3081432281
|  6>  C        0.2328548421    -0.2977904062    -0.2748445022
|  7>  N        0.3208670950    -0.8562392630     1.0054683949
|  8>  C        0.1004811389    -2.1645312945     1.4223829550
|  9>  O       -0.2493025692    -3.0942915835     0.7506282549
| 10>  N       -0.0950772914    -1.0328367310    -1.2604420222
| 11>  C       -0.1851839741    -0.4457631601    -2.5889749880
| 12>  C        1.1064378311     0.0140024844    -3.1235689853
| 13>  N        2.1313916309     0.3811237425    -3.5119602765
| 14>  H        0.5566721969     1.6317843776     0.6855970378
| 15>  H        1.5707546320     1.3248100240    -0.7396979727
| 16>  H       -0.1329979535     1.7217961430    -0.9386603999
| 17>  H        0.6102982056    -0.2269910903     1.7378424816
| 18>  H        0.2955329329    -2.2389746348     2.5126408196
| 19>  H       -0.5762872761    -1.2088961983    -3.2690958634
| 20>  H       -0.8877622528     0.4006510039    -2.6327939356
| 21> *
| 22>
| 23>                          ****END OF INPUT****

CARTESIAN COORDINATES (ANGSTROEM)
---------------------------------
  C      0.575751    1.178317   -0.308143
  C      0.232855   -0.297790   -0.274845
  N      0.320867   -0.856239    1.005468
  C      0.100481   -2.164531    1.422383
  O     -0.249303   -3.094292    0.750628
  N     -0.095077   -1.032837   -1.260442
  C     -0.185184   -0.445763   -2.588975
  C      1.106438    0.014002   -3.123569
  N      2.131392    0.381124   -3.511960
  H      0.556672    1.631784    0.685597
  H      1.570755    1.324810   -0.739698
  H     -0.132998    1.721796   -0.938660
  H      0.610298   -0.226991    1.737842
  H      0.295533   -2.238975    2.512641
  H     -0.576287   -1.208896   -3.269096
  H     -0.887762    0.400651   -2.632794

 Total Charge           Charge          ....    0
 Multiplicity           Mult            ....    1
 Number of Electrons    NEL             ....   66
 Basis Dimension        Dim             ....  321

ORBITAL ENERGIES
----------------

  NO   OCC          E(Eh)            E(eV)
   0   2.0000     -20.547823      -559.1347
   1   2.0000     -15.624233      -425.1570
   2   2.0000     -15.573271      -423.7703
   3   2.0000     -15.562084      -423.4658
   4   2.0000     -11.370764      -309.4142
   5   2.0000     -11.353112      -308.9339
   6   2.0000     -11.311561      -307.8032
   7   2.0000     -11.276469      -306.8483
   8   2.0000     -11.265688      -306.5550
   9   2.0000      -1.408109       -38.3166
  10   2.0000      -1.305738       -35.5309
  11   2.0000      -1.232401       -33.5353
  12   2.0000      -1.207942       -32.8698
  13   2.0000      -1.045009       -28.4361
  14   2.0000      -0.999358       -27.1939
  15   2.0000      -0.894484       -24.3402
  16   2.0000      -0.787072       -21.4173
  17   2.0000      -0.745740       -20.2926
  18   2.0000      -0.713984       -19.4285
  19   2.0000      -0.685554       -18.6549
  20   2.0000      -0.650305       -17.6957
  21   2.0000      -0.635754       -17.2997
  22   2.0000      -0.624862       -17.0034
  23   2.0000      -0.605778       -16.4841
  24   2.0000      -0.588923       -16.0254
  25   2.0000      -0.586142       -15.9497
  26   2.0000      -0.561912       -15.2904
  27   2.0000      -0.490215       -13.3394
  28   2.0000      -0.482391       -13.1265
  29   2.0000      -0.468164       -12.7394
  30   2.0000      -0.458275       -12.4703
  31   2.0000      -0.409579       -11.1452
  32   2.0000      -0.393859       -10.7174
  33   0.0000       0.106732         2.9043
  34   0.0000       0.112087         3.0500
  35   0.0000       0.129249         3.5171
  36   0.0000       0.163649         4.4531
  37   0.0000       0.169549         4.6137

MULLIKEN ATOMIC CHARGES
-----------------------
   0 C :   -0.441798
   1 C :    0.198355
   2 N :   -0.300787
   3 C :    0.185066
   4 O :   -0.266284
   5 N :   -0.204574
   6 C :   -0.066737
   7 C :   -0.174475
   8 N :   -0.071179
   9 H :    0.133258
  10 H :    0.191366
  11 H :    0.154554
  12 H :    0.243254
  13 H :    0.082638
  14 H :    0.175246
  15 H :    0.162097
Sum of atomic charges:   -0.0000000

LOEWDIN ATOMIC CHARGES
----------------------
   0 C :   -0.269417
   1 C :   -0.327012
   2 N :    0.122327
   3 C :   -0.400287
   4 O :    0.128053
   5 N :    0.124947
   6 C :   -0.281248
   7 C :   -0.194216
   8 N :    0.057988
   9 H :    0.128180
  10 H :    0.150041
  11 H :    0.139956
  12 H :    0.195042
  13 H :    0.110878
  14 H :    0.161435
  15 H :    0.153333

  Mayer bond orders larger than 0.1
B(  0-C ,  1-C ) :   0.9043 B(  0-C ,  9-H ) :   0.9279 B(  0-C , 10-H ) :   0.9082
B(  0-C , 11-H ) :   0.9291 B(  1-C ,  2-N ) :   0.9977 B(  1-C ,  5-N ) :   1.8407
B(  2-N ,  3-C ) :   1.0013 B(  2-N , 12-H ) :   0.8741 B(  3-C ,  4-O ) :   1.9950
B(  3-C , 13-H ) :   0.9259 B(  5-N ,  6-C ) :   0.9082 B(  6-C ,  7-C ) :   0.8744
B(  6-C , 14-H ) :   0.9122 B(  6-C , 15-H ) :   0.9246 B(  7-C ,  8-N ) :   2.8358

MP2 TOTAL ENERGY:     -433.369711313 Eh
FINAL SINGLE POINT ENERGY      -433.369711312765

DIPOLE MOMENT
-------------
                                X             Y             Z
Electronic contribution:      0.76902      -4.57888      -1.52968
Nuclear contribution   :     -1.40969       5.99979       2.88585
                        -----------------------------------------
Total Dipole Moment    :     -0.64066       1.42092       1.35616
                        -----------------------------------------
Magnitude (a.u.)       :      2.06607
Magnitude (Debye)      :      5.25152

                             ****ORCA TERMINATED NORMALLY****
TOTAL RUN TIME: 0 days 0 hours 15 minutes 3 seconds 940 msec
