                         Program Version 3.0.3 - RELEASE   -
|  1> ! RI-MP2 RIJK def2-TZVP def2-TZVP/C def2-TZVP/JK TIGHTSCF
|  2> % maxcore 2000
|  3> % mp2 density relaxed end
|  4> *xyz 0 1
|  5>  C        0.0514502202     1.5551552204     0.0777385798
|  6>  C        0.0149388603     0.1019160223     0.0448427693
|  7>  C       -0.0090002118    -1.1015033670     0.0208360954
|  8>  C        0.0091793051    -2.5346230131    -0.0319758916
|  9>  O       -0.4697153433    -3.2689885927     1.1233248186
| 10>  C       -1.2517887624    -3.3412231725    -0.0544338160
| 11>  C       -2.6118219784    -2.6973311605    -0.0451791616
| 12>  C        1.2075901537    -3.2022627664    -0.6586170411
| 13>  O        2.0475614293    -2.6455280382    -1.3102900144
| 14>  H        1.0200641572     1.9289965105    -0.2704579307
| 15>  H       -0.7253599814     1.9884019894    -0.5614907812
| 16>  H       -0.1052590398     1.9288307254     1.0954028375
| 17>  H       -1.1953151514    -4.3093486308    -0.5587067116
| 18>  H       -2.5702163978    -1.7075971508     0.4121091228
| 19>  H       -2.9894320839    -2.6009280074    -1.0681307699
| 20>  H       -3.3139693928    -3.3203874334     0.5181096053
| 21>  H        1.2309699770    -4.2949914651    -0.4499244305
| 22> *
| 23>
| 24>                          ****END OF INPUT****

CARTESIAN COORDINATES (ANGSTROEM)
---------------------------------
  C      0.051450    1.555155    0.077739
  C      0.014939    0.101916    0.044843
  C     -0.009000   -1.101503    0.020836
  C      0.009179   -2.534623   -0.031976
  O     -0.469715   -3.268989    1.123325
  C     -1.251789   -3.341223   -0.054434
  C     -2.611822   -2.697331   -0.045179
  C      1.207590   -3.202263   -0.658617
  O      2.047561   -2.645528   -1.310290
  H      1.020064    1.928997   -0.270458
  H     -0.725360    1.988402   -0.561491
  H     -0.105259    1.928831    1.095403
  H     -1.195315   -4.309349   -0.558707
  H     -2.570216   -1.707597    0.412109
  H     -2.989432   -2.600928   -1.068131
  H     -3.313969   -3.320387    0.518110
  H      1.230970   -4.294991   -0.449924

 Total Charge           Charge          ....    0
 Multiplicity           Mult            ....    1
 Number of Electrons    NEL             ....   66
 Basis Dimension        Dim             ....  327

ORBITAL ENERGIES
----------------

  NO   OCC          E(Eh)            E(eV)
   0   2.0000     -20.596784      -560.4670
   1   2.0000     -20.568575      -559.6994
   2   2.0000     -11.344323      -308.6947
   3   2.0000     -11.330370      -308.3150
   4   2.0000     -11.319251      -308.0125
   5   2.0000     -11.254938      -306.2624
   6   2.0000     -11.244423      -305.9763
   7   2.0000     -11.238175      -305.8063
   8   2.0000     -11.230187      -305.5889
   9   2.0000      -1.443099       -39.2687
  10   2.0000      -1.406505       -38.2730
  11   2.0000      -1.078354       -29.3435
  12   2.0000      -1.031503       -28.0686
  13   2.0000      -1.011889       -27.5349
  14   2.0000      -0.949359       -25.8334
  15   2.0000      -0.848771       -23.0962
  16   2.0000      -0.838457       -22.8156
  17   2.0000      -0.712404       -19.3855
  18   2.0000      -0.700121       -19.0513
  19   2.0000      -0.664442       -18.0804
  20   2.0000      -0.636445       -17.3185
  21   2.0000      -0.618085       -16.8189
  22   2.0000      -0.598548       -16.2873
  23   2.0000      -0.594886       -16.1877
  24   2.0000      -0.591932       -16.1073
  25   2.0000      -0.579557       -15.7706
  26   2.0000      -0.552741       -15.0408
  27   2.0000      -0.540332       -14.7032
  28   2.0000      -0.486173       -13.2294
  29   2.0000      -0.469054       -12.7636
  30   2.0000      -0.439344       -11.9552
  31   2.0000      -0.388510       -10.5719
  32   2.0000      -0.371624       -10.1124
  33   0.0000       0.113472         3.0877
  34   0.0000       0.131401         3.5756
  35   0.0000       0.146300         3.9810
  36   0.0000       0.166350         4.5266
  37   0.0000       0.168129         4.5750

MULLIKEN ATOMIC CHARGES
-----------------------
   0 C :   -0.477512
   1 C :    0.090591
   2 C :    0.085890
   3 C :   -0.035745
   4 O :   -0.307999
   5 C :    0.071231
   6 C :   -0.387005
   7 C :    0.042137
   8 O :   -0.240662
   9 H :    0.172772
  10 H :    0.163948
  11 H :    0.167446
  12 H :    0.120928
  13 H :    0.154185
  14 H :    0.134878
  15 H :    0.144445
  16 H :    0.100472
Sum of atomic charges:   -0.0000000

LOEWDIN ATOMIC CHARGES
----------------------
   0 C :   -0.287663
   1 C :   -0.066873
   2 C :   -0.038774
   3 C :   -0.284425
   4 O :    0.209973
   5 C :   -0.260021
   6 C :   -0.282698
   7 C :   -0.252084
   8 O :    0.160061
   9 H :    0.146061
  10 H :    0.142644
  11 H :    0.144479
  12 H :    0.140164
  13 H :    0.137744
  14 H :    0.134689
  15 H :    0.132917
  16 H :    0.123805

  Mayer bond orders larger than 0.1
B(  0-C ,  1-C ) :   0.8477 B(  0-C ,  9-H ) :   0.9486 B(  0-C , 10-H ) :   0.9429
B(  0-C , 11-H ) :   0.9421 B(  1-C ,  2-C ) :   2.6594 B(  1-C ,  3-C ) :  -0.1646
B(  2-C ,  3-C ) :   1.0751 B(  3-C ,  4-O ) :   0.9056 B(  3-C ,  5-C ) :   0.9374
B(  3-C ,  7-C ) :   0.8540 B(  4-O ,  5-C ) :   0.8848 B(  5-C ,  6-C ) :   0.8885
B(  5-C , 12-H ) :   0.9137 B(  6-C , 13-H ) :   0.9348 B(  6-C , 14-H ) :   0.9223
B(  6-C , 15-H ) :   0.9337 B(  7-C ,  8-O ) :   2.0354 B(  7-C , 16-H ) :   0.9483

MP2 TOTAL ENERGY:     -421.070776876 Eh
FINAL SINGLE POINT ENERGY      -421.070776875981

DIPOLE MOMENT
-------------
                                X             Y             Z
Electronic contribution:      6.15517      -4.46291       0.00743
Nuclear contribution   :     -7.20579       4.72659      -0.12413
                        -----------------------------------------
Total Dipole Moment    :     -1.05062       0.26368      -0.11670
                        -----------------------------------------
Magnitude (a.u.)       :      1.08947
Magnitude (Debye)      :      2.76921

                             ****ORCA TERMINATED NORMALLY****
TOTAL RUN TIME: 0 days 0 hours 14 minutes 53 seconds 781 msec
