                         Program Version 3.0.3 - RELEASE   -
|  1> ! RI-MP2 RIJK def2-TZVP def2-TZVP/C def2-TZVP/JK TIGHTSCF
|  2> % maxcore 2000
|  3> % mp2 density relaxed end
|  4> *xyz 0 1
|  5>  O        0.0206493176    -0.0508400391     0.1261636791
|  6>  C       -0.0119832395     1.1647519409     0.0409791881
|  7>  N       -1.2079909431     1.8509007116    -0.0895033677
|  8>  C       -1.3544361853     3.2845765580     0.1695179465
|  9>  C       -0.2155058334     3.9926818341    -0.5515698006
| 10>  C        0.4727718412     5.2913552407    -0.0160315166
| 11>  C        1.8628549811     4.5918634603    -0.2154660474
| 12>  C        1.0963543280     3.2913920652    -0.2936797880
| 13>  C        1.2109465504     2.0137807975     0.0556610682
| 14>  H       -2.0141375995     1.2585304618     0.0461783516
| 15>  H       -2.3385922458     3.6039886688    -0.1864202424
| 16>  H       -1.3035929324     3.5056721222     1.2481930229
| 17>  H       -0.4262043701     4.0727839942    -1.6250514147
| 18>  H        0.2947785749     6.2138154442    -0.5711611576
| 19>  H        0.2543111329     5.4584027229     1.0417640557
| 20>  H        2.3219610390     4.8693761419    -1.1706208518
| 21>  H        2.6129038018     4.6910816071     0.5726016632
| 22>  H        2.1328864023     1.5303054276     0.3573308915
| 23> *
| 24>
| 25>                          ****END OF INPUT****

CARTESIAN COORDINATES (ANGSTROEM)
---------------------------------
  O      0.020649   -0.050840    0.126164
  C     -0.011983    1.164752    0.040979
  N     -1.207991    1.850901   -0.089503
  C     -1.354436    3.284577    0.169518
  C     -0.215506    3.992682   -0.551570
  C      0.472772    5.291355   -0.016032
  C      1.862855    4.591863   -0.215466
  C      1.096354    3.291392   -0.293680
  C      1.210947    2.013781    0.055661
  H     -2.014138    1.258530    0.046178
  H     -2.338592    3.603989   -0.186420
  H     -1.303593    3.505672    1.248193
  H     -0.426204    4.072784   -1.625051
  H      0.294779    6.213815   -0.571161
  H      0.254311    5.458403    1.041764
  H      2.321961    4.869376   -1.170621
  H      2.612904    4.691082    0.572602
  H      2.132886    1.530305    0.357331

 Total Charge           Charge          ....    0
 Multiplicity           Mult            ....    1
 Number of Electrons    NEL             ....   66
 Basis Dimension        Dim             ....  333

ORBITAL ENERGIES
----------------

  NO   OCC          E(Eh)            E(eV)
   0   2.0000     -20.507894      -558.0482
   1   2.0000     -15.572638      -423.7530
   2   2.0000     -11.342263      -308.6387
   3   2.0000     -11.278597      -306.9062
   4   2.0000     -11.262713      -306.4740
   5   2.0000     -11.251450      -306.1675
   6   2.0000     -11.249784      -306.1222
   7   2.0000     -11.248985      -306.1004
   8   2.0000     -11.231265      -305.6183
   9   2.0000      -1.370525       -37.2939
  10   2.0000      -1.232598       -33.5407
  11   2.0000      -1.160829       -31.5878
  12   2.0000      -1.034507       -28.1504
  13   2.0000      -0.987920       -26.8827
  14   2.0000      -0.890526       -24.2324
  15   2.0000      -0.852339       -23.1933
  16   2.0000      -0.792336       -21.5606
  17   2.0000      -0.727132       -19.7863
  18   2.0000      -0.688067       -18.7232
  19   2.0000      -0.677927       -18.4473
  20   2.0000      -0.640587       -17.4313
  21   2.0000      -0.622954       -16.9514
  22   2.0000      -0.602578       -16.3970
  23   2.0000      -0.587248       -15.9798
  24   2.0000      -0.565367       -15.3844
  25   2.0000      -0.531127       -14.4527
  26   2.0000      -0.522710       -14.2237
  27   2.0000      -0.509776       -13.8717
  28   2.0000      -0.486121       -13.2280
  29   2.0000      -0.459408       -12.5011
  30   2.0000      -0.414453       -11.2778
  31   2.0000      -0.387166       -10.5353
  32   2.0000      -0.366471        -9.9722
  33   0.0000       0.103892         2.8271
  34   0.0000       0.134319         3.6550
  35   0.0000       0.144485         3.9316
  36   0.0000       0.153048         4.1647
  37   0.0000       0.163413         4.4467

MULLIKEN ATOMIC CHARGES
-----------------------
   0 O :   -0.350821
   1 C :    0.265082
   2 N :   -0.302561
   3 C :   -0.155864
   4 C :    0.018954
   5 C :   -0.252802
   6 C :   -0.185470
   7 C :   -0.040529
   8 C :   -0.237680
   9 H :    0.234985
  10 H :    0.131314
  11 H :    0.110792
  12 H :    0.111495
  13 H :    0.127104
  14 H :    0.121912
  15 H :    0.133095
  16 H :    0.130715
  17 H :    0.140279
Sum of atomic charges:   -0.0000000

LOEWDIN ATOMIC CHARGES
----------------------
   0 O :    0.083006
   1 C :   -0.435756
   2 N :    0.098937
   3 C :   -0.253009
   4 C :   -0.186318
   5 C :   -0.196976
   6 C :   -0.190023
   7 C :   -0.121372
   8 C :   -0.107604
   9 H :    0.186213
  10 H :    0.133832
  11 H :    0.130607
  12 H :    0.161146
  13 H :    0.125982
  14 H :    0.136358
  15 H :    0.146375
  16 H :    0.134844
  17 H :    0.153758

  Mayer bond orders larger than 0.1
B(  0-O ,  1-C ) :   1.9443 B(  1-C ,  2-N ) :   1.1479 B(  1-C ,  8-C ) :   0.9909
B(  2-N ,  3-C ) :   0.8975 B(  2-N ,  9-H ) :   0.8619 B(  3-C ,  4-C ) :   0.9279
B(  3-C , 10-H ) :   0.9287 B(  3-C , 11-H ) :   0.9214 B(  4-C ,  5-C ) :   0.9372
B(  4-C ,  7-C ) :   0.9094 B(  4-C , 12-H ) :   0.8904 B(  5-C ,  6-C ) :   0.9571
B(  5-C , 13-H ) :   0.9351 B(  5-C , 14-H ) :   0.9112 B(  6-C ,  7-C ) :   0.9041
B(  6-C , 15-H ) :   0.9037 B(  6-C , 16-H ) :   0.9135 B(  7-C ,  8-C ) :   1.6417
B(  8-C , 17-H ) :   0.9405

MP2 TOTAL ENERGY:     -401.280374802 Eh
FINAL SINGLE POINT ENERGY      -401.280374801861

DIPOLE MOMENT
-------------
                                X             Y             Z
Electronic contribution:     -0.23548      -7.54683      -0.32095
Nuclear contribution   :     -0.05977       9.36637       0.36838
                        -----------------------------------------
Total Dipole Moment    :     -0.29525       1.81953       0.04744
                        -----------------------------------------
Magnitude (a.u.)       :      1.84394
Magnitude (Debye)      :      4.68693

                             ****ORCA TERMINATED NORMALLY****
TOTAL RUN TIME: 0 days 0 hours 18 minutes 35 seconds 758 msec
