                         Program Version 3.0.3 - RELEASE   -
|  1> ! RI-MP2 RIJK def2-TZVP def2-TZVP/C def2-TZVP/JK TIGHTSCF
|  2> % maxcore 2000
|  3> % mp2 density relaxed end
|  4> *xyz 0 1
|  5>  C        0.0050693410     1.5809325197    -0.1396353650
|  6>  C        1.5235684029     1.4802354379    -0.0845157857
|  7>  C        2.0410462384     0.7017905199     1.0626940957
|  8>  C        1.4373672160     0.5367179322     2.4286399285
|  9>  N        0.2266826211     1.3012852104     2.8023819771
| 10>  C        0.1264811719    -0.1501520343     2.5641942040
| 11>  C       -0.5770171139    -0.5942360086     1.3002431995
| 12>  C       -0.0047548319     0.0329749398     0.0255831507
| 13>  N        1.5077726126    -0.0424697945    -0.1107930365
| 14>  H       -0.4824356440     2.1903013044     0.6183556162
| 15>  H       -0.3397414168     1.8716968527    -1.1346830649
| 16>  H        2.2043133638     2.0415862408    -0.7185748109
| 17>  H        3.1259572592     0.6239714788     1.0761992766
| 18>  H        2.1716989344     0.3691018589     3.2119981987
| 19>  H        0.2411175190     1.4881543887     3.8013503175
| 20>  H       -0.0181859913    -0.7906144580     3.4311511608
| 21>  H       -0.4791363586    -1.6847588708     1.2220482127
| 22>  H       -1.6500621027    -0.3731985596     1.3589121320
| 23>  H       -0.4439723709    -0.4687359485    -0.8389494373
| 24> *
| 25>
| 26>                          ****END OF INPUT****

CARTESIAN COORDINATES (ANGSTROEM)
---------------------------------
  C      0.005069    1.580933   -0.139635
  C      1.523568    1.480235   -0.084516
  C      2.041046    0.701791    1.062694
  C      1.437367    0.536718    2.428640
  N      0.226683    1.301285    2.802382
  C      0.126481   -0.150152    2.564194
  C     -0.577017   -0.594236    1.300243
  C     -0.004755    0.032975    0.025583
  N      1.507773   -0.042470   -0.110793
  H     -0.482436    2.190301    0.618356
  H     -0.339741    1.871697   -1.134683
  H      2.204313    2.041586   -0.718575
  H      3.125957    0.623971    1.076199
  H      2.171699    0.369102    3.211998
  H      0.241118    1.488154    3.801350
  H     -0.018186   -0.790614    3.431151
  H     -0.479136   -1.684759    1.222048
  H     -1.650062   -0.373199    1.358912
  H     -0.443972   -0.468736   -0.838949

 Total Charge           Charge          ....    0
 Multiplicity           Mult            ....    1
 Number of Electrons    NEL             ....   66
 Basis Dimension        Dim             ....  339

ORBITAL ENERGIES
----------------

  NO   OCC          E(Eh)            E(eV)
   0   2.0000     -15.558333      -423.3638
   1   2.0000     -15.548835      -423.1053
   2   2.0000     -11.263513      -306.4958
   3   2.0000     -11.261489      -306.4407
   4   2.0000     -11.256392      -306.3020
   5   2.0000     -11.254535      -306.2515
   6   2.0000     -11.254048      -306.2382
   7   2.0000     -11.225282      -305.4555
   8   2.0000     -11.215541      -305.1904
   9   2.0000      -1.292047       -35.1584
  10   2.0000      -1.251260       -34.0485
  11   2.0000      -1.043403       -28.3924
  12   2.0000      -0.982536       -26.7362
  13   2.0000      -0.929511       -25.2933
  14   2.0000      -0.881314       -23.9818
  15   2.0000      -0.835541       -22.7362
  16   2.0000      -0.743990       -20.2450
  17   2.0000      -0.726902       -19.7800
  18   2.0000      -0.696764       -18.9599
  19   2.0000      -0.661895       -18.0111
  20   2.0000      -0.623282       -16.9604
  21   2.0000      -0.601292       -16.3620
  22   2.0000      -0.586812       -15.9680
  23   2.0000      -0.553385       -15.0584
  24   2.0000      -0.536932       -14.6107
  25   2.0000      -0.522835       -14.2271
  26   2.0000      -0.481564       -13.1040
  27   2.0000      -0.468803       -12.7568
  28   2.0000      -0.450528       -12.2595
  29   2.0000      -0.440774       -11.9941
  30   2.0000      -0.407100       -11.0777
  31   2.0000      -0.384502       -10.4628
  32   2.0000      -0.351605        -9.5677
  33   0.0000       0.129453         3.5226
  34   0.0000       0.156538         4.2596
  35   0.0000       0.165337         4.4990
  36   0.0000       0.175277         4.7695
  37   0.0000       0.187692         5.1074

MULLIKEN ATOMIC CHARGES
-----------------------
   0 C :   -0.210933
   1 C :   -0.062766
   2 C :   -0.055779
   3 C :   -0.095371
   4 N :   -0.400631
   5 C :   -0.009208
   6 C :   -0.244260
   7 C :    0.039068
   8 N :   -0.257796
   9 H :    0.134505
  10 H :    0.116384
  11 H :    0.121339
  12 H :    0.116157
  13 H :    0.127634
  14 H :    0.214492
  15 H :    0.124091
  16 H :    0.115265
  17 H :    0.114347
  18 H :    0.113463
Sum of atomic charges:   -0.0000000

LOEWDIN ATOMIC CHARGES
----------------------
   0 C :   -0.213130
   1 C :   -0.193292
   2 C :   -0.228313
   3 C :   -0.234741
   4 N :    0.007607
   5 C :   -0.249665
   6 C :   -0.229692
   7 C :   -0.228742
   8 N :    0.129299
   9 H :    0.134089
  10 H :    0.135432
  11 H :    0.130713
  12 H :    0.154446
  13 H :    0.141881
  14 H :    0.165774
  15 H :    0.137126
  16 H :    0.149599
  17 H :    0.147554
  18 H :    0.144055

  Mayer bond orders larger than 0.1
B(  0-C ,  1-C ) :   0.9648 B(  0-C ,  7-C ) :   0.9796 B(  0-C ,  9-H ) :   0.8899
B(  0-C , 10-H ) :   0.9283 B(  1-C ,  2-C ) :   0.9333 B(  1-C ,  8-N ) :   0.8575
B(  1-C , 11-H ) :   0.9027 B(  2-C ,  3-C ) :   0.9274 B(  2-C ,  8-N ) :   0.9176
B(  2-C , 12-H ) :   0.9280 B(  3-C ,  4-N ) :   0.9543 B(  3-C ,  5-C ) :   0.9073
B(  3-C , 13-H ) :   0.9258 B(  4-N ,  5-C ) :   0.8965 B(  4-N , 14-H ) :   0.8703
B(  5-C ,  6-C ) :   0.9745 B(  5-C , 15-H ) :   0.9288 B(  6-C ,  7-C ) :   0.9302
B(  6-C , 16-H ) :   0.9190 B(  6-C , 17-H ) :   0.9165 B(  7-C ,  8-N ) :   0.9115
B(  7-C , 18-H ) :   0.9236

MP2 TOTAL ENERGY:     -381.336412621 Eh
FINAL SINGLE POINT ENERGY      -381.336412621286

DIPOLE MOMENT
-------------
                                X             Y             Z
Electronic contribution:      2.14961       0.14684      -0.11436
Nuclear contribution   :     -2.33515      -0.12856       0.85917
                        -----------------------------------------
Total Dipole Moment    :     -0.18554       0.01828       0.74480
                        -----------------------------------------
Magnitude (a.u.)       :      0.76778
Magnitude (Debye)      :      1.95155

                             ****ORCA TERMINATED NORMALLY****
TOTAL RUN TIME: 0 days 0 hours 21 minutes 4 seconds 793 msec
