                         Program Version 3.0.3 - RELEASE   -
|  1> ! RI-MP2 RIJK def2-TZVP def2-TZVP/C def2-TZVP/JK TIGHTSCF
|  2> % maxcore 2000
|  3> % mp2 density relaxed end
|  4> *xyz 0 1
|  5>  O        0.0711302274     0.0288861456     0.6202246875
|  6>  C       -0.0314920108     1.0090133325    -0.1417360203
|  7>  O        0.6405276134     1.4428954814    -1.0801985638
|  8>  C       -1.2689167477     1.9366927350     0.1414721472
|  9>  C       -2.1510732559     2.3740511137    -1.0514060830
| 10>  C       -3.3576777093     1.6673813616    -0.4017961299
| 11>  C       -3.5738060368     0.1705961689    -0.7377307272
| 12>  C       -2.7651644325    -0.2058412272     0.5316074440
| 13>  N       -2.5060906025     1.2644944082     0.8136034855
| 14>  H       -2.7229295705     1.5799230040     1.7552274255
| 15>  H       -0.9596760491     2.7538966188     0.7946843594
| 16>  H       -2.2762702805     3.4518302466    -1.1670960559
| 17>  H       -1.8160741706     1.9512948152    -1.9987472313
| 18>  H       -4.2441871563     2.2600895482    -0.1785721069
| 19>  H       -4.6150053657    -0.1531315358    -0.7261536116
| 20>  H       -3.1138686215    -0.1363342388    -1.6775484277
| 21>  H       -3.3641015951    -0.6289792989     1.3387344352
| 22>  H       -1.8107649361    -0.7232151687     0.4265055233
| 23> *
| 24>
| 25>                          ****END OF INPUT****

CARTESIAN COORDINATES (ANGSTROEM)
---------------------------------
  O      0.071130    0.028886    0.620225
  C     -0.031492    1.009013   -0.141736
  O      0.640528    1.442895   -1.080199
  C     -1.268917    1.936693    0.141472
  C     -2.151073    2.374051   -1.051406
  C     -3.357678    1.667381   -0.401796
  C     -3.573806    0.170596   -0.737731
  C     -2.765164   -0.205841    0.531607
  N     -2.506091    1.264494    0.813603
  H     -2.722930    1.579923    1.755227
  H     -0.959676    2.753897    0.794684
  H     -2.276270    3.451830   -1.167096
  H     -1.816074    1.951295   -1.998747
  H     -4.244187    2.260090   -0.178572
  H     -4.615005   -0.153132   -0.726154
  H     -3.113869   -0.136334   -1.677548
  H     -3.364102   -0.628979    1.338734
  H     -1.810765   -0.723215    0.426506

 Total Charge           Charge          ....    0
 Multiplicity           Mult            ....    1
 Number of Electrons    NEL             ....   68
 Basis Dimension        Dim             ....  333

ORBITAL ENERGIES
----------------

  NO   OCC          E(Eh)            E(eV)
   0   2.0000     -20.458471      -556.7033
   1   2.0000     -20.456727      -556.6558
   2   2.0000     -15.685917      -426.8355
   3   2.0000     -11.333292      -308.3945
   4   2.0000     -11.308667      -307.7245
   5   2.0000     -11.305758      -307.6453
   6   2.0000     -11.297888      -307.4312
   7   2.0000     -11.277621      -306.8797
   8   2.0000     -11.262182      -306.4596
   9   2.0000      -1.361724       -37.0544
  10   2.0000      -1.337185       -36.3866
  11   2.0000      -1.250692       -34.0331
  12   2.0000      -1.086902       -29.5761
  13   2.0000      -1.070587       -29.1322
  14   2.0000      -0.949922       -25.8487
  15   2.0000      -0.887038       -24.1375
  16   2.0000      -0.820912       -22.3382
  17   2.0000      -0.777880       -21.1672
  18   2.0000      -0.728080       -19.8121
  19   2.0000      -0.694103       -18.8875
  20   2.0000      -0.651585       -17.7305
  21   2.0000      -0.628390       -17.0994
  22   2.0000      -0.624613       -16.9966
  23   2.0000      -0.598210       -16.2781
  24   2.0000      -0.570930       -15.5358
  25   2.0000      -0.565207       -15.3801
  26   2.0000      -0.542139       -14.7523
  27   2.0000      -0.529877       -14.4187
  28   2.0000      -0.517715       -14.0877
  29   2.0000      -0.507673       -13.8145
  30   2.0000      -0.483971       -13.1695
  31   2.0000      -0.385214       -10.4822
  32   2.0000      -0.364929        -9.9302
  33   2.0000      -0.360086        -9.7984
  34   0.0000       0.079489         2.1630
  35   0.0000       0.120344         3.2747
  36   0.0000       0.133158         3.6234
  37   0.0000       0.150911         4.1065
  38   0.0000       0.156379         4.2553

MULLIKEN ATOMIC CHARGES
-----------------------
   0 O :   -0.478520
   1 C :    0.243971
   2 O :   -0.424834
   3 C :   -0.154397
   4 C :   -0.190724
   5 C :   -0.115393
   6 C :   -0.209479
   7 C :   -0.230263
   8 N :    0.054429
   9 H :    0.256215
  10 H :    0.141139
  11 H :    0.141656
  12 H :    0.153981
  13 H :    0.145651
  14 H :    0.144008
  15 H :    0.150082
  16 H :    0.150012
  17 H :    0.222468
Sum of atomic charges:    0.0000000

LOEWDIN ATOMIC CHARGES
----------------------
   0 O :   -0.037229
   1 C :   -0.697162
   2 O :    0.009890
   3 C :   -0.158196
   4 C :   -0.199343
   5 C :   -0.159986
   6 C :   -0.212242
   7 C :   -0.185802
   8 N :    0.290070
   9 H :    0.197669
  10 H :    0.151712
  11 H :    0.137704
  12 H :    0.151594
  13 H :    0.140833
  14 H :    0.136898
  15 H :    0.146678
  16 H :    0.133449
  17 H :    0.153460

  Mayer bond orders larger than 0.1
B(  0-O ,  1-C ) :   1.6734 B(  1-C ,  2-O ) :   1.7911 B(  1-C ,  3-C ) :   0.8637
B(  3-C ,  4-C ) :   0.8996 B(  3-C ,  8-N ) :   0.7651 B(  3-C , 10-H ) :   0.9217
B(  4-C ,  5-C ) :   0.9427 B(  4-C , 11-H ) :   0.9284 B(  4-C , 12-H ) :   0.9075
B(  5-C ,  6-C ) :   0.9314 B(  5-C ,  8-N ) :   0.8280 B(  5-C , 13-H ) :   0.9179
B(  6-C ,  7-C ) :   0.9276 B(  6-C , 14-H ) :   0.9247 B(  6-C , 15-H ) :   0.9134
B(  7-C ,  8-N ) :   0.8109 B(  7-C , 16-H ) :   0.9253 B(  7-C , 17-H ) :   0.8904
B(  8-N ,  9-H ) :   0.8499

MP2 TOTAL ENERGY:     -438.328554374 Eh
FINAL SINGLE POINT ENERGY      -438.328554373816

DIPOLE MOMENT
-------------
                                X             Y             Z
Electronic contribution:      5.42681       0.10028       1.09756
Nuclear contribution   :     -9.59721       0.72819      -0.19031
                        -----------------------------------------
Total Dipole Moment    :     -4.17040       0.82846       0.90725
                        -----------------------------------------
Magnitude (a.u.)       :      4.34761
Magnitude (Debye)      :     11.05074

                             ****ORCA TERMINATED NORMALLY****
TOTAL RUN TIME: 0 days 0 hours 18 minutes 52 seconds 115 msec
