                         Program Version 3.0.3 - RELEASE   -
|  1> ! RI-MP2 RIJK def2-TZVP def2-TZVP/C def2-TZVP/JK TIGHTSCF
|  2> % maxcore 2000
|  3> % mp2 density relaxed end
|  4> *xyz 0 1
|  5>  C        0.0586836092    -3.7292413534     0.1974824238
|  6>  C        0.0400850242    -2.5256943091     0.1017385044
|  7>  C        0.0168203242    -1.1695206691    -0.0074400578
|  8>  C       -0.0061801967     0.0362771219    -0.1026543215
|  9>  C       -0.0161081166     1.4862740676    -0.2305628429
| 10>  C        1.3807257775     2.0890052010    -0.2618717524
| 11>  C        1.6300090171     3.4506772820     0.2228176637
| 12>  O        2.0077904572     2.3087605538     0.9959177304
| 13>  H        0.0774045486    -4.7871628819     0.2837704921
| 14>  H       -0.5442543670     1.7689459801    -1.1519062086
| 15>  H       -0.5704444186     1.9332212000     0.6038666907
| 16>  H        2.0389456431     1.6791091381    -1.0280824320
| 17>  H        2.4520705373     4.0317317348    -0.1916955025
| 18>  H        0.8052370205     4.0360071742     0.6279942527
| 19> *
| 20>
| 21>                          ****END OF INPUT****

CARTESIAN COORDINATES (ANGSTROEM)
---------------------------------
  C      0.058684   -3.729241    0.197482
  C      0.040085   -2.525694    0.101739
  C      0.016820   -1.169521   -0.007440
  C     -0.006180    0.036277   -0.102654
  C     -0.016108    1.486274   -0.230563
  C      1.380726    2.089005   -0.261872
  C      1.630009    3.450677    0.222818
  O      2.007790    2.308761    0.995918
  H      0.077405   -4.787163    0.283770
  H     -0.544254    1.768946   -1.151906
  H     -0.570444    1.933221    0.603867
  H      2.038946    1.679109   -1.028082
  H      2.452071    4.031732   -0.191696
  H      0.805237    4.036007    0.627994

 Total Charge           Charge          ....    0
 Multiplicity           Mult            ....    1
 Number of Electrons    NEL             ....   56
 Basis Dimension        Dim             ....  284

ORBITAL ENERGIES
----------------

  NO   OCC          E(Eh)            E(eV)
   0   2.0000     -20.577983      -559.9554
   1   2.0000     -11.304560      -307.6127
   2   2.0000     -11.293702      -307.3172
   3   2.0000     -11.273239      -306.7604
   4   2.0000     -11.257415      -306.3298
   5   2.0000     -11.256930      -306.3166
   6   2.0000     -11.249226      -306.1070
   7   2.0000     -11.246883      -306.0432
   8   2.0000      -1.423900       -38.7463
   9   2.0000      -1.102332       -29.9960
  10   2.0000      -1.059407       -28.8279
  11   2.0000      -0.993401       -27.0318
  12   2.0000      -0.925078       -25.1727
  13   2.0000      -0.849591       -23.1185
  14   2.0000      -0.820652       -22.3311
  15   2.0000      -0.721366       -19.6294
  16   2.0000      -0.707522       -19.2526
  17   2.0000      -0.666816       -18.1450
  18   2.0000      -0.648713       -17.6524
  19   2.0000      -0.611787       -16.6476
  20   2.0000      -0.552425       -15.0323
  21   2.0000      -0.543158       -14.7801
  22   2.0000      -0.483490       -13.1564
  23   2.0000      -0.478536       -13.0216
  24   2.0000      -0.459113       -12.4931
  25   2.0000      -0.453682       -12.3453
  26   2.0000      -0.354121        -9.6361
  27   2.0000      -0.353319        -9.6143
  28   0.0000       0.112586         3.0636
  29   0.0000       0.116547         3.1714
  30   0.0000       0.140579         3.8254
  31   0.0000       0.156868         4.2686
  32   0.0000       0.168833         4.5942

MULLIKEN ATOMIC CHARGES
-----------------------
   0 C :   -0.152812
   1 C :   -0.007626
   2 C :    0.058213
   3 C :   -0.107445
   4 C :   -0.334927
   5 C :    0.057189
   6 C :   -0.069350
   7 O :   -0.322052
   8 H :    0.193368
   9 H :    0.153703
  10 H :    0.159659
  11 H :    0.131781
  12 H :    0.122188
  13 H :    0.118112
Sum of atomic charges:   -0.0000000

LOEWDIN ATOMIC CHARGES
----------------------
   0 C :   -0.048481
   1 C :   -0.097976
   2 C :   -0.059179
   3 C :   -0.017995
   4 C :   -0.231849
   5 C :   -0.282712
   6 C :   -0.263059
   7 O :    0.153902
   8 H :    0.129941
   9 H :    0.166114
  10 H :    0.167489
  11 H :    0.141815
  12 H :    0.120987
  13 H :    0.121001

  Mayer bond orders larger than 0.1
B(  0-C ,  1-C ) :   2.5467 B(  0-C ,  3-C ) :   0.1218 B(  0-C ,  8-H ) :   0.8886
B(  1-C ,  2-C ) :   1.3118 B(  2-C ,  3-C ) :   2.5433 B(  3-C ,  4-C ) :   1.0153
B(  4-C ,  5-C ) :   0.9147 B(  4-C ,  9-H ) :   0.9278 B(  4-C , 10-H ) :   0.9293
B(  5-C ,  6-C ) :   0.9788 B(  5-C ,  7-O ) :   0.9020 B(  5-C , 11-H ) :   0.9168
B(  6-C ,  7-O ) :   0.9069 B(  6-C , 12-H ) :   0.9182 B(  6-C , 13-H ) :   0.9128

MP2 TOTAL ENERGY:     -344.693695802 Eh
FINAL SINGLE POINT ENERGY      -344.693695802003

DIPOLE MOMENT
-------------
                                X             Y             Z
Electronic contribution:     -0.39702      -5.35274       0.92512
Nuclear contribution   :      0.10596       5.96311      -1.53847
                        -----------------------------------------
Total Dipole Moment    :     -0.29107       0.61038      -0.61336
                        -----------------------------------------
Magnitude (a.u.)       :      0.91295
Magnitude (Debye)      :      2.32055

                             ****ORCA TERMINATED NORMALLY****
TOTAL RUN TIME: 0 days 0 hours 8 minutes 15 seconds 340 msec
