                         Program Version 3.0.3 - RELEASE   -
|  1> ! RI-MP2 RIJK def2-TZVP def2-TZVP/C def2-TZVP/JK TIGHTSCF
|  2> % maxcore 2000
|  3> % mp2 density relaxed end
|  4> *xyz 0 1
|  5>  C       -0.1784589156     1.3318402512     0.0737518710
|  6>  O       -0.1566507229    -0.0827280751     0.1646110120
|  7>  C        0.7191631875    -0.6052061011     1.1321540276
|  8>  C        0.2965269300    -2.0773322196     1.3270685486
|  9>  O       -1.0595820168    -2.1498703380     1.6904369130
| 10>  C        2.1801676085    -0.4982694237     0.7110797118
| 11>  O        2.5493375181    -0.1658414083    -0.3902316537
| 12>  C        3.2510112751    -0.8252107541     1.7627088481
| 13>  O        3.0032403512    -1.1413663256     2.8968192128
| 14>  H        0.7765320504     1.7280565253    -0.2891759608
| 15>  H       -0.9631305818     1.5892738318    -0.6406252178
| 16>  H       -0.4159008472     1.7885392856     1.0458103215
| 17>  H        0.5989467738    -0.0901467449     2.0994153712
| 18>  H        0.5004656842    -2.6234066509     0.3923931806
| 19>  H        0.8812447078    -2.5244029671     2.1335812227
| 20>  H       -1.5338917993    -1.6173841635     1.0398419969
| 21>  H        4.2823133769    -0.7282332520     1.3623834345
| 22> *
| 23>
| 24>                          ****END OF INPUT****

CARTESIAN COORDINATES (ANGSTROEM)
---------------------------------
  C     -0.178459    1.331840    0.073752
  O     -0.156651   -0.082728    0.164611
  C      0.719163   -0.605206    1.132154
  C      0.296527   -2.077332    1.327069
  O     -1.059582   -2.149870    1.690437
  C      2.180168   -0.498269    0.711080
  O      2.549338   -0.165841   -0.390232
  C      3.251011   -0.825211    1.762709
  O      3.003240   -1.141366    2.896819
  H      0.776532    1.728057   -0.289176
  H     -0.963131    1.589274   -0.640625
  H     -0.415901    1.788539    1.045810
  H      0.598947   -0.090147    2.099415
  H      0.500466   -2.623407    0.392393
  H      0.881245   -2.524403    2.133581
  H     -1.533892   -1.617384    1.039842
  H      4.282313   -0.728233    1.362383

 Total Charge           Charge          ....    0
 Multiplicity           Mult            ....    1
 Number of Electrons    NEL             ....   70
 Basis Dimension        Dim             ....  327

ORBITAL ENERGIES
----------------

  NO   OCC          E(Eh)            E(eV)
   0   2.0000     -20.606139      -560.7215
   1   2.0000     -20.597755      -560.4934
   2   2.0000     -20.583363      -560.1018
   3   2.0000     -20.562353      -559.5301
   4   2.0000     -11.367756      -309.3324
   5   2.0000     -11.364386      -309.2407
   6   2.0000     -11.313597      -307.8586
   7   2.0000     -11.293186      -307.3032
   8   2.0000     -11.286445      -307.1198
   9   2.0000      -1.448484       -39.4152
  10   2.0000      -1.431623       -38.9564
  11   2.0000      -1.404436       -38.2166
  12   2.0000      -1.366257       -37.1777
  13   2.0000      -1.062355       -28.9082
  14   2.0000      -0.958110       -26.0715
  15   2.0000      -0.928547       -25.2671
  16   2.0000      -0.874326       -23.7916
  17   2.0000      -0.778198       -21.1759
  18   2.0000      -0.731592       -19.9076
  19   2.0000      -0.718148       -19.5418
  20   2.0000      -0.709486       -19.3061
  21   2.0000      -0.674045       -18.3417
  22   2.0000      -0.665352       -18.1051
  23   2.0000      -0.644620       -17.5410
  24   2.0000      -0.614657       -16.7257
  25   2.0000      -0.609910       -16.5965
  26   2.0000      -0.587378       -15.9834
  27   2.0000      -0.566412       -15.4129
  28   2.0000      -0.546659       -14.8754
  29   2.0000      -0.526693       -14.3320
  30   2.0000      -0.511840       -13.9279
  31   2.0000      -0.499213       -13.5843
  32   2.0000      -0.476554       -12.9677
  33   2.0000      -0.453843       -12.3497
  34   2.0000      -0.418907       -11.3990
  35   0.0000       0.041627         1.1327
  36   0.0000       0.139165         3.7869
  37   0.0000       0.161880         4.4050
  38   0.0000       0.166691         4.5359
  39   0.0000       0.175127         4.7655

MULLIKEN ATOMIC CHARGES
-----------------------
   0 C :   -0.231093
   1 O :   -0.330133
   2 C :    0.089641
   3 C :   -0.037346
   4 O :   -0.471417
   5 C :    0.179658
   6 O :   -0.247982
   7 C :    0.069001
   8 O :   -0.239777
   9 H :    0.142458
  10 H :    0.145679
  11 H :    0.120190
  12 H :    0.111158
  13 H :    0.109544
  14 H :    0.140242
  15 H :    0.329323
  16 H :    0.120853
Sum of atomic charges:   -0.0000000

LOEWDIN ATOMIC CHARGES
----------------------
   0 C :   -0.341732
   1 O :    0.163779
   2 C :   -0.322250
   3 C :   -0.320303
   4 O :   -0.031713
   5 C :   -0.309217
   6 O :    0.196593
   7 C :   -0.252965
   8 O :    0.166677
   9 H :    0.109147
  10 H :    0.116837
  11 H :    0.104724
  12 H :    0.156199
  13 H :    0.124635
  14 H :    0.136563
  15 H :    0.179623
  16 H :    0.123403

  Mayer bond orders larger than 0.1
B(  0-C ,  1-O ) :   0.8894 B(  0-C ,  9-H ) :   0.9353 B(  0-C , 10-H ) :   0.9399
B(  0-C , 11-H ) :   0.9306 B(  1-O ,  2-C ) :   0.9533 B(  2-C ,  3-C ) :   0.8969
B(  2-C ,  5-C ) :   0.8392 B(  2-C , 12-H ) :   0.9245 B(  3-C ,  4-O ) :   0.9504
B(  3-C , 13-H ) :   0.9224 B(  3-C , 14-H ) :   0.9186 B(  4-O , 15-H ) :   0.8260
B(  5-C ,  6-O ) :   1.9371 B(  5-C ,  7-C ) :   0.8540 B(  7-C ,  8-O ) :   1.9532
B(  7-C , 16-H ) :   0.9278

MP2 TOTAL ENERGY:     -495.324245254 Eh
FINAL SINGLE POINT ENERGY      -495.324245254299

DIPOLE MOMENT
-------------
                                X             Y             Z
Electronic contribution:      4.73941      -2.14683       0.84293
Nuclear contribution   :     -4.58584       2.84789      -1.08459
                        -----------------------------------------
Total Dipole Moment    :      0.15357       0.70107      -0.24165
                        -----------------------------------------
Magnitude (a.u.)       :      0.75728
Magnitude (Debye)      :      1.92485

                             ****ORCA TERMINATED NORMALLY****
TOTAL RUN TIME: 0 days 0 hours 13 minutes 34 seconds 833 msec
