                         Program Version 3.0.3 - RELEASE   -
|  1> ! RI-MP2 RIJK def2-TZVP def2-TZVP/C def2-TZVP/JK TIGHTSCF
|  2> % maxcore 2000
|  3> % mp2 density relaxed end
|  4> *xyz 0 1
|  5>  C       -0.0003432597     1.5935210459    -0.1862311699
|  6>  C        0.0008142531     0.0692865674     0.0142746512
|  7>  C        0.6461713957    -0.6408611118    -1.1521275542
|  8>  C        1.7673253729    -1.2989406493    -0.8416341428
|  9>  C        2.0576884245    -1.1777158541     0.6023334765
| 10>  O        3.0202125339    -1.5834205568     1.2010837369
| 11>  C        0.8318615711    -0.4413005989     1.2357617495
| 12>  C        1.2007186184     0.5402284948     2.2373694416
| 13>  C        1.5128752708     1.3509968718     3.0676989653
| 14>  H        1.0192585872     1.9774130600    -0.2818514827
| 15>  H       -0.5527284598     1.8565995567    -1.0940068265
| 16>  H       -0.4708441836     2.0943208439     0.6627960834
| 17>  H       -1.0422605157    -0.2563614243     0.1125554707
| 18>  H        0.2216429064    -0.5688954412    -2.1488693202
| 19>  H        2.4167782332    -1.8439752757    -1.5143918960
| 20>  H        0.2610570321    -1.2415997484     1.7274766709
| 21>  H        1.7972564496     2.0605163400     3.8047015265
| 22> *
| 23>
| 24>                          ****END OF INPUT****

CARTESIAN COORDINATES (ANGSTROEM)
---------------------------------
  C     -0.000343    1.593521   -0.186231
  C      0.000814    0.069287    0.014275
  C      0.646171   -0.640861   -1.152128
  C      1.767325   -1.298941   -0.841634
  C      2.057688   -1.177716    0.602333
  O      3.020213   -1.583421    1.201084
  C      0.831862   -0.441301    1.235762
  C      1.200719    0.540228    2.237369
  C      1.512875    1.350997    3.067699
  H      1.019259    1.977413   -0.281851
  H     -0.552728    1.856600   -1.094007
  H     -0.470844    2.094321    0.662796
  H     -1.042261   -0.256361    0.112555
  H      0.221643   -0.568895   -2.148869
  H      2.416778   -1.843975   -1.514392
  H      0.261057   -1.241600    1.727477
  H      1.797256    2.060516    3.804702

 Total Charge           Charge          ....    0
 Multiplicity           Mult            ....    1
 Number of Electrons    NEL             ....   64
 Basis Dimension        Dim             ....  327

ORBITAL ENERGIES
----------------

  NO   OCC          E(Eh)            E(eV)
   0   2.0000     -20.544851      -559.0538
   1   2.0000     -11.336779      -308.4894
   2   2.0000     -11.273490      -306.7672
   3   2.0000     -11.272844      -306.7497
   4   2.0000     -11.265467      -306.5489
   5   2.0000     -11.246348      -306.0287
   6   2.0000     -11.237748      -305.7947
   7   2.0000     -11.231807      -305.6330
   8   2.0000     -11.225601      -305.4641
   9   2.0000      -1.390172       -37.8285
  10   2.0000      -1.169036       -31.8111
  11   2.0000      -1.060294       -28.8521
  12   2.0000      -1.020457       -27.7680
  13   2.0000      -0.971764       -26.4430
  14   2.0000      -0.889568       -24.2064
  15   2.0000      -0.806597       -21.9486
  16   2.0000      -0.751189       -20.4409
  17   2.0000      -0.714802       -19.4508
  18   2.0000      -0.694325       -18.8935
  19   2.0000      -0.663292       -18.0491
  20   2.0000      -0.620942       -16.8967
  21   2.0000      -0.606979       -16.5167
  22   2.0000      -0.598145       -16.2764
  23   2.0000      -0.584601       -15.9078
  24   2.0000      -0.536990       -14.6122
  25   2.0000      -0.526805       -14.3351
  26   2.0000      -0.515001       -14.0139
  27   2.0000      -0.504368       -13.7245
  28   2.0000      -0.431779       -11.7493
  29   2.0000      -0.390389       -10.6230
  30   2.0000      -0.388441       -10.5700
  31   2.0000      -0.377061       -10.2603
  32   0.0000       0.088100         2.3973
  33   0.0000       0.122084         3.3221
  34   0.0000       0.153216         4.1692
  35   0.0000       0.159175         4.3314
  36   0.0000       0.170284         4.6337

MULLIKEN ATOMIC CHARGES
-----------------------
   0 C :   -0.425447
   1 C :    0.030950
   2 C :   -0.137065
   3 C :   -0.193230
   4 C :    0.178502
   5 O :   -0.260563
   6 C :   -0.174624
   7 C :   -0.034753
   8 C :   -0.150884
   9 H :    0.142414
  10 H :    0.134503
  11 H :    0.148986
  12 H :    0.114931
  13 H :    0.145410
  14 H :    0.148497
  15 H :    0.140795
  16 H :    0.191579
Sum of atomic charges:    0.0000000

LOEWDIN ATOMIC CHARGES
----------------------
   0 C :   -0.276240
   1 C :   -0.216207
   2 C :   -0.082997
   3 C :   -0.118159
   4 C :   -0.284643
   5 O :    0.165783
   6 C :   -0.168808
   7 C :   -0.084904
   8 C :   -0.088899
   9 H :    0.131356
  10 H :    0.125351
  11 H :    0.131097
  12 H :    0.158735
  13 H :    0.144878
  14 H :    0.148093
  15 H :    0.188049
  16 H :    0.127515

  Mayer bond orders larger than 0.1
B(  0-C ,  1-C ) :   0.8885 B(  0-C ,  9-H ) :   0.9330 B(  0-C , 10-H ) :   0.9355
B(  0-C , 11-H ) :   0.9315 B(  1-C ,  2-C ) :   0.9092 B(  1-C ,  6-C ) :   0.9314
B(  1-C , 12-H ) :   0.9113 B(  2-C ,  3-C ) :   1.6785 B(  2-C , 13-H ) :   0.9101
B(  3-C ,  4-C ) :   1.0027 B(  3-C , 14-H ) :   0.9177 B(  4-C ,  5-O ) :   2.0317
B(  4-C ,  6-C ) :   0.8193 B(  6-C ,  7-C ) :   1.1511 B(  6-C , 15-H ) :   0.8769
B(  7-C ,  8-C ) :   2.5903 B(  8-C , 16-H ) :   0.8944

MP2 TOTAL ENERGY:     -383.997488320 Eh
FINAL SINGLE POINT ENERGY      -383.997488320460

DIPOLE MOMENT
-------------
                                X             Y             Z
Electronic contribution:      4.71099      -4.73183       2.98523
Nuclear contribution   :     -5.81245       5.13439      -3.81686
                        -----------------------------------------
Total Dipole Moment    :     -1.10146       0.40256      -0.83163
                        -----------------------------------------
Magnitude (a.u.)       :      1.43766
Magnitude (Debye)      :      3.65425

                             ****ORCA TERMINATED NORMALLY****
TOTAL RUN TIME: 0 days 0 hours 17 minutes 7 seconds 186 msec
