                         Program Version 3.0.3 - RELEASE   -
|  1> ! RI-MP2 RIJK def2-TZVP def2-TZVP/C def2-TZVP/JK TIGHTSCF
|  2> % maxcore 2000
|  3> % mp2 density relaxed end
|  4> *xyz 0 1
|  5>  C       -0.1300832407     1.5247652723    -0.0771284475
|  6>  C        0.0561542578    -0.0025561983    -0.0343201571
|  7>  C        0.7299717047    -0.4577279837    -1.3415082312
|  8>  C        0.7757673980    -0.5371359074     1.2513939821
|  9>  C        0.8031209836    -2.0816706503     1.2307437264
| 10>  C        2.2273856669    -0.0208634366     1.3461803214
| 11>  C        0.0259038443    -0.0578590628     2.5318161166
| 12>  C       -1.4523317442    -0.4476658204     2.6217477837
| 13>  O        0.7369265102    -0.5961083657     3.6514721568
| 14>  H        0.8307406166     2.0500108145    -0.0735726202
| 15>  H       -0.6508837211     1.8105975107    -0.9971996819
| 16>  H       -0.7208782504     1.9063738854     0.7598682650
| 17>  H       -0.9459140012    -0.4515477033    -0.0329965643
| 18>  H        1.7227296162    -0.0123664772    -1.4635750478
| 19>  H        0.8381685597    -1.5433661069    -1.3999576554
| 20>  H        0.1268739773    -0.1416563053    -2.1991843557
| 21>  H        1.5365860951    -2.4559592805     0.5117894295
| 22>  H        1.0768946038    -2.4637119950     2.2162615028
| 23>  H       -0.1697922151    -2.5043387769     0.9576705547
| 24>  H        2.2676172923     1.0719721999     1.4031855176
| 25>  H        2.7059365074    -0.4133344508     2.2451094240
| 26>  H        2.8184308648    -0.3347117315     0.4814940805
| 27>  H        0.0978574256     1.0396164228     2.5661291204
| 28>  H       -2.0500724787     0.0042683335     1.8257272874
| 29>  H       -1.5787463592    -1.5328200693     2.5811557371
| 30>  H       -1.8694533875    -0.0982589615     3.5741154843
| 31>  H        0.2886042741    -0.3041798157     4.4505952509
| 32> *
| 33>
| 34>                          ****END OF INPUT****

CARTESIAN COORDINATES (ANGSTROEM)
---------------------------------
  C     -0.130083    1.524765   -0.077128
  C      0.056154   -0.002556   -0.034320
  C      0.729972   -0.457728   -1.341508
  C      0.775767   -0.537136    1.251394
  C      0.803121   -2.081671    1.230744
  C      2.227386   -0.020863    1.346180
  C      0.025904   -0.057859    2.531816
  C     -1.452332   -0.447666    2.621748
  O      0.736927   -0.596108    3.651472
  H      0.830741    2.050011   -0.073573
  H     -0.650884    1.810598   -0.997200
  H     -0.720878    1.906374    0.759868
  H     -0.945914   -0.451548   -0.032997
  H      1.722730   -0.012366   -1.463575
  H      0.838169   -1.543366   -1.399958
  H      0.126874   -0.141656   -2.199184
  H      1.536586   -2.455959    0.511789
  H      1.076895   -2.463712    2.216262
  H     -0.169792   -2.504339    0.957671
  H      2.267617    1.071972    1.403186
  H      2.705937   -0.413334    2.245109
  H      2.818431   -0.334712    0.481494
  H      0.097857    1.039616    2.566129
  H     -2.050072    0.004268    1.825727
  H     -1.578746   -1.532820    2.581156
  H     -1.869453   -0.098259    3.574115
  H      0.288604   -0.304180    4.450595

 Total Charge           Charge          ....    0
 Multiplicity           Mult            ....    1
 Number of Electrons    NEL             ....   74
 Basis Dimension        Dim             ....  387

ORBITAL ENERGIES
----------------

  NO   OCC          E(Eh)            E(eV)
   0   2.0000     -20.547977      -559.1389
   1   2.0000     -11.274928      -306.8064
   2   2.0000     -11.229864      -305.5801
   3   2.0000     -11.224494      -305.4340
   4   2.0000     -11.216092      -305.2054
   5   2.0000     -11.209877      -305.0363
   6   2.0000     -11.206971      -304.9572
   7   2.0000     -11.198522      -304.7273
   8   2.0000     -11.197941      -304.7115
   9   2.0000      -1.355489       -36.8847
  10   2.0000      -1.108399       -30.1611
  11   2.0000      -1.020147       -27.7596
  12   2.0000      -0.988684       -26.9035
  13   2.0000      -0.930375       -25.3168
  14   2.0000      -0.913542       -24.8587
  15   2.0000      -0.858057       -23.3489
  16   2.0000      -0.813239       -22.1294
  17   2.0000      -0.706718       -19.2308
  18   2.0000      -0.693012       -18.8578
  19   2.0000      -0.634318       -17.2607
  20   2.0000      -0.619064       -16.8456
  21   2.0000      -0.605106       -16.4658
  22   2.0000      -0.599587       -16.3156
  23   2.0000      -0.569010       -15.4836
  24   2.0000      -0.555794       -15.1239
  25   2.0000      -0.541844       -14.7443
  26   2.0000      -0.534578       -14.5466
  27   2.0000      -0.529352       -14.4044
  28   2.0000      -0.519222       -14.1287
  29   2.0000      -0.511308       -13.9134
  30   2.0000      -0.506578       -13.7847
  31   2.0000      -0.483337       -13.1523
  32   2.0000      -0.480245       -13.0681
  33   2.0000      -0.450740       -12.2653
  34   2.0000      -0.434214       -11.8156
  35   2.0000      -0.429498       -11.6872
  36   2.0000      -0.421961       -11.4821
  37   0.0000       0.128066         3.4848
  38   0.0000       0.150115         4.0848
  39   0.0000       0.161455         4.3934
  40   0.0000       0.167932         4.5697
  41   0.0000       0.182963         4.9787

MULLIKEN ATOMIC CHARGES
-----------------------
   0 C :   -0.438111
   1 C :   -0.053931
   2 C :   -0.434683
   3 C :    0.210384
   4 C :   -0.498196
   5 C :   -0.474235
   6 C :    0.073088
   7 C :   -0.459864
   8 O :   -0.474391
   9 H :    0.132175
  10 H :    0.133855
  11 H :    0.132088
  12 H :    0.094081
  13 H :    0.129988
  14 H :    0.140121
  15 H :    0.131486
  16 H :    0.136601
  17 H :    0.163463
  18 H :    0.128151
  19 H :    0.123129
  20 H :    0.160451
  21 H :    0.133077
  22 H :    0.094593
  23 H :    0.135577
  24 H :    0.150193
  25 H :    0.123179
  26 H :    0.307731
Sum of atomic charges:    0.0000000

LOEWDIN ATOMIC CHARGES
----------------------
   0 C :   -0.294942
   1 C :   -0.263657
   2 C :   -0.291684
   3 C :   -0.280908
   4 C :   -0.272707
   5 C :   -0.269410
   6 C :   -0.329093
   7 C :   -0.303190
   8 O :   -0.019171
   9 H :    0.123536
  10 H :    0.124546
  11 H :    0.119067
  12 H :    0.152683
  13 H :    0.122596
  14 H :    0.123188
  15 H :    0.123381
  16 H :    0.123602
  17 H :    0.132275
  18 H :    0.122354
  19 H :    0.122599
  20 H :    0.132363
  21 H :    0.122756
  22 H :    0.135806
  23 H :    0.125546
  24 H :    0.127392
  25 H :    0.120213
  26 H :    0.170859

  Mayer bond orders larger than 0.1
B(  0-C ,  1-C ) :   0.9046 B(  0-C ,  9-H ) :   0.9357 B(  0-C , 10-H ) :   0.9403
B(  0-C , 11-H ) :   0.9381 B(  1-C ,  2-C ) :   0.9036 B(  1-C ,  3-C ) :   0.8691
B(  1-C , 12-H ) :   0.9304 B(  2-C , 13-H ) :   0.9380 B(  2-C , 14-H ) :   0.9418
B(  2-C , 15-H ) :   0.9411 B(  3-C ,  4-C ) :   0.8899 B(  3-C ,  5-C ) :   0.9022
B(  3-C ,  6-C ) :   0.8476 B(  4-C , 16-H ) :   0.9394 B(  4-C , 17-H ) :   0.9314
B(  4-C , 18-H ) :   0.9352 B(  5-C , 19-H ) :   0.9340 B(  5-C , 20-H ) :   0.9348
B(  5-C , 21-H ) :   0.9384 B(  6-C ,  7-C ) :   0.9059 B(  6-C ,  8-O ) :   0.9589
B(  6-C , 22-H ) :   0.9370 B(  7-C , 23-H ) :   0.9309 B(  7-C , 24-H ) :   0.9401
B(  7-C , 25-H ) :   0.9347 B(  8-O , 26-H ) :   0.8469

MP2 TOTAL ENERGY:     -390.035477036 Eh
FINAL SINGLE POINT ENERGY      -390.035477036373

DIPOLE MOMENT
-------------
                                X             Y             Z
Electronic contribution:      0.62342      -0.62996       5.30715
Nuclear contribution   :     -1.14547       0.94157      -5.21110
                        -----------------------------------------
Total Dipole Moment    :     -0.52206       0.31160       0.09605
                        -----------------------------------------
Magnitude (a.u.)       :      0.61552
Magnitude (Debye)      :      1.56453

                             ****ORCA TERMINATED NORMALLY****
TOTAL RUN TIME: 0 days 0 hours 27 minutes 16 seconds 317 msec
