                         Program Version 3.0.3 - RELEASE   -
|  1> ! RI-MP2 RIJK def2-TZVP def2-TZVP/C def2-TZVP/JK TIGHTSCF
|  2> % maxcore 2000
|  3> % mp2 density relaxed end
|  4> *xyz 0 1
|  5>  C        0.0128440509     1.5461343764    -0.0345451359
|  6>  C       -0.0171998820     0.0521750792     0.0487435154
|  7>  C       -1.1078326260    -0.7626019503     0.0643426281
|  8>  N       -2.4229145096    -0.4030594687     0.0936501759
|  9>  C       -0.7134078489    -2.2095369633     0.0592157748
| 10>  N       -0.0053431599    -2.5781348530    -1.1988194597
| 11>  C        0.7592565057    -2.2248600688     0.0324302990
| 12>  C        1.2021002144    -0.7632882858     0.0519714789
| 13>  O        2.3535105492    -0.3768952381     0.0704727783
| 14>  H        1.0456812222     1.8716668718    -0.1848173470
| 15>  H       -0.5902919750     1.9307518997    -0.8678816290
| 16>  H       -0.3551957536     2.0224688888     0.8829906785
| 17>  H       -2.6527192879     0.5547115001    -0.1236123329
| 18>  H       -3.1025857084    -1.0773532844    -0.2206099976
| 19>  H       -1.3088929631    -2.9486028889     0.5844952573
| 20>  H       -0.0044246170    -3.5963971360    -1.2799301028
| 21>  H        1.3609699092    -2.9804799988     0.5228340588
| 22> *
| 23>
| 24>                          ****END OF INPUT****

CARTESIAN COORDINATES (ANGSTROEM)
---------------------------------
  C      0.012844    1.546134   -0.034545
  C     -0.017200    0.052175    0.048744
  C     -1.107833   -0.762602    0.064343
  N     -2.422915   -0.403059    0.093650
  C     -0.713408   -2.209537    0.059216
  N     -0.005343   -2.578135   -1.198819
  C      0.759257   -2.224860    0.032430
  C      1.202100   -0.763288    0.051971
  O      2.353511   -0.376895    0.070473
  H      1.045681    1.871667   -0.184817
  H     -0.590292    1.930752   -0.867882
  H     -0.355196    2.022469    0.882991
  H     -2.652719    0.554712   -0.123612
  H     -3.102586   -1.077353   -0.220610
  H     -1.308893   -2.948603    0.584495
  H     -0.004425   -3.596397   -1.279930
  H      1.360970   -2.980480    0.522834

 Total Charge           Charge          ....    0
 Multiplicity           Mult            ....    1
 Number of Electrons    NEL             ....   66
 Basis Dimension        Dim             ....  327

ORBITAL ENERGIES
----------------

  NO   OCC          E(Eh)            E(eV)
   0   2.0000     -20.520804      -558.3995
   1   2.0000     -15.595977      -424.3881
   2   2.0000     -15.586965      -424.1429
   3   2.0000     -11.315485      -307.9100
   4   2.0000     -11.305328      -307.6336
   5   2.0000     -11.285602      -307.0968
   6   2.0000     -11.273361      -306.7638
   7   2.0000     -11.218831      -305.2799
   8   2.0000     -11.215378      -305.1859
   9   2.0000      -1.364628       -37.1334
  10   2.0000      -1.294429       -35.2232
  11   2.0000      -1.243048       -33.8251
  12   2.0000      -1.083125       -29.4733
  13   2.0000      -0.975885       -26.5552
  14   2.0000      -0.918639       -24.9974
  15   2.0000      -0.879217       -23.9247
  16   2.0000      -0.792760       -21.5721
  17   2.0000      -0.745919       -20.2975
  18   2.0000      -0.727896       -19.8071
  19   2.0000      -0.686595       -18.6832
  20   2.0000      -0.664491       -18.0817
  21   2.0000      -0.613795       -16.7022
  22   2.0000      -0.585702       -15.9378
  23   2.0000      -0.582888       -15.8612
  24   2.0000      -0.555873       -15.1261
  25   2.0000      -0.533701       -14.5227
  26   2.0000      -0.526677       -14.3316
  27   2.0000      -0.521386       -14.1876
  28   2.0000      -0.493328       -13.4241
  29   2.0000      -0.476994       -12.9797
  30   2.0000      -0.428346       -11.6559
  31   2.0000      -0.383561       -10.4372
  32   2.0000      -0.317582        -8.6418
  33   0.0000       0.113839         3.0977
  34   0.0000       0.116116         3.1597
  35   0.0000       0.129751         3.5307
  36   0.0000       0.156487         4.2582
  37   0.0000       0.174566         4.7502

MULLIKEN ATOMIC CHARGES
-----------------------
   0 C :   -0.497482
   1 C :   -0.062497
   2 C :    0.247226
   3 N :   -0.510359
   4 C :   -0.097257
   5 N :   -0.371813
   6 C :   -0.057169
   7 C :    0.173945
   8 O :   -0.316052
   9 H :    0.174814
  10 H :    0.131309
  11 H :    0.147838
  12 H :    0.261555
  13 H :    0.261862
  14 H :    0.151352
  15 H :    0.216941
  16 H :    0.145788
Sum of atomic charges:   -0.0000000

LOEWDIN ATOMIC CHARGES
----------------------
   0 C :   -0.276512
   1 C :   -0.161554
   2 C :   -0.197564
   3 N :   -0.013967
   4 C :   -0.209958
   5 N :    0.017789
   6 C :   -0.189056
   7 C :   -0.298535
   8 O :    0.124122
   9 H :    0.143422
  10 H :    0.126376
  11 H :    0.130585
  12 H :    0.175994
  13 H :    0.175494
  14 H :    0.141432
  15 H :    0.169646
  16 H :    0.142286

  Mayer bond orders larger than 0.1
B(  0-C ,  1-C ) :   0.8577 B(  0-C ,  9-H ) :   0.9362 B(  0-C , 10-H ) :   0.9360
B(  0-C , 11-H ) :   0.9397 B(  1-C ,  2-C ) :   1.4684 B(  1-C ,  7-C ) :   1.0318
B(  2-C ,  3-N ) :   1.1047 B(  2-C ,  4-C ) :   0.9427 B(  3-N , 12-H ) :   0.8688
B(  3-N , 13-H ) :   0.8697 B(  4-C ,  5-N ) :   0.9806 B(  4-C ,  6-C ) :   0.8862
B(  4-C , 14-H ) :   0.8995 B(  5-N ,  6-C ) :   0.8864 B(  5-N , 15-H ) :   0.8671
B(  6-C ,  7-C ) :   0.9575 B(  6-C , 16-H ) :   0.9157 B(  7-C ,  8-O ) :   1.9714

MP2 TOTAL ENERGY:     -417.308952403 Eh
FINAL SINGLE POINT ENERGY      -417.308952402974

DIPOLE MOMENT
-------------
                                X             Y             Z
Electronic contribution:      3.19743      -2.98695       0.08438
Nuclear contribution   :     -5.21627       2.35156       0.10168
                        -----------------------------------------
Total Dipole Moment    :     -2.01883      -0.63538       0.18606
                        -----------------------------------------
Magnitude (a.u.)       :      2.12462
Magnitude (Debye)      :      5.40036

                             ****ORCA TERMINATED NORMALLY****
TOTAL RUN TIME: 0 days 0 hours 17 minutes 11 seconds 267 msec
