                         Program Version 3.0.3 - RELEASE   -
|  1> ! RI-MP2 RIJK def2-TZVP def2-TZVP/C def2-TZVP/JK TIGHTSCF
|  2> % maxcore 2000
|  3> % mp2 density relaxed end
|  4> *xyz 0 1
|  5>  O       -0.0079410414    -0.0244111808    -0.2427496326
|  6>  C        0.0142065204     1.1747317113    -0.0740036544
|  7>  C       -1.2622773278     1.9879303865     0.1488900370
|  8>  C       -1.2875903497     3.2697740662    -0.6840958510
|  9>  C       -1.0131738265     4.6042690642    -0.0781982920
| 10>  N       -0.0337186524     3.9718291665    -0.9569522681
| 11>  C        1.2036824636     3.4301908325    -0.4485114694
| 12>  C        1.4682821968     3.0464855856     0.9746194609
| 13>  C        1.2816944553     1.9540535182    -0.0794502913
| 14>  H       -2.1089584670     1.3447367519    -0.0962447267
| 15>  H       -1.3342811049     2.2184770085     1.2188459577
| 16>  H       -1.9457703739     3.2224979081    -1.5491399075
| 17>  H       -1.4788195499     5.5037246461    -0.4724578923
| 18>  H       -0.8122785089     4.6327912166     0.9909774467
| 19>  H        2.0597780692     3.8133573361    -0.9958763632
| 20>  H        2.4724500153     3.1878695696     1.3580974527
| 21>  H        0.6920982113     3.1640607312     1.7210259394
| 22>  H        2.1505110806     1.3818881518    -0.3816622259
| 23> *
| 24>
| 25>                          ****END OF INPUT****

CARTESIAN COORDINATES (ANGSTROEM)
---------------------------------
  O     -0.007941   -0.024411   -0.242750
  C      0.014207    1.174732   -0.074004
  C     -1.262277    1.987930    0.148890
  C     -1.287590    3.269774   -0.684096
  C     -1.013174    4.604269   -0.078198
  N     -0.033719    3.971829   -0.956952
  C      1.203682    3.430191   -0.448511
  C      1.468282    3.046486    0.974619
  C      1.281694    1.954054   -0.079450
  H     -2.108958    1.344737   -0.096245
  H     -1.334281    2.218477    1.218846
  H     -1.945770    3.222498   -1.549140
  H     -1.478820    5.503725   -0.472458
  H     -0.812279    4.632791    0.990977
  H      2.059778    3.813357   -0.995876
  H      2.472450    3.187870    1.358097
  H      0.692098    3.164061    1.721026
  H      2.150511    1.381888   -0.381662

 Total Charge           Charge          ....    0
 Multiplicity           Mult            ....    1
 Number of Electrons    NEL             ....   66
 Basis Dimension        Dim             ....  333

ORBITAL ENERGIES
----------------

  NO   OCC          E(Eh)            E(eV)
   0   2.0000     -20.540795      -558.9435
   1   2.0000     -15.573173      -423.7676
   2   2.0000     -11.332176      -308.3642
   3   2.0000     -11.283347      -307.0355
   4   2.0000     -11.277112      -306.8658
   5   2.0000     -11.267584      -306.6065
   6   2.0000     -11.252398      -306.1933
   7   2.0000     -11.247797      -306.0681
   8   2.0000     -11.246899      -306.0437
   9   2.0000      -1.385102       -37.6906
  10   2.0000      -1.296292       -35.2739
  11   2.0000      -1.157455       -31.4960
  12   2.0000      -1.042705       -28.3734
  13   2.0000      -0.936287       -25.4777
  14   2.0000      -0.893465       -24.3124
  15   2.0000      -0.835925       -22.7467
  16   2.0000      -0.803479       -21.8638
  17   2.0000      -0.712746       -19.3948
  18   2.0000      -0.703744       -19.1498
  19   2.0000      -0.691131       -18.8066
  20   2.0000      -0.654607       -17.8128
  21   2.0000      -0.622217       -16.9314
  22   2.0000      -0.617308       -16.7978
  23   2.0000      -0.572039       -15.5660
  24   2.0000      -0.561266       -15.2728
  25   2.0000      -0.545550       -14.8452
  26   2.0000      -0.520546       -14.1648
  27   2.0000      -0.500450       -13.6179
  28   2.0000      -0.491505       -13.3745
  29   2.0000      -0.468377       -12.7452
  30   2.0000      -0.416019       -11.3205
  31   2.0000      -0.394877       -10.7451
  32   2.0000      -0.374898       -10.2015
  33   0.0000       0.130434         3.5493
  34   0.0000       0.140420         3.8210
  35   0.0000       0.149373         4.0646
  36   0.0000       0.161676         4.3994
  37   0.0000       0.171782         4.6744

MULLIKEN ATOMIC CHARGES
-----------------------
   0 O :   -0.278124
   1 C :    0.159507
   2 C :   -0.252463
   3 C :   -0.038784
   4 C :   -0.193817
   5 N :   -0.206282
   6 C :   -0.030634
   7 C :   -0.269120
   8 C :   -0.119488
   9 H :    0.148123
  10 H :    0.145473
  11 H :    0.133215
  12 H :    0.129547
  13 H :    0.117504
  14 H :    0.132765
  15 H :    0.143967
  16 H :    0.139471
  17 H :    0.139137
Sum of atomic charges:   -0.0000000

LOEWDIN ATOMIC CHARGES
----------------------
   0 O :    0.146856
   1 C :   -0.313868
   2 C :   -0.206348
   3 C :   -0.236531
   4 C :   -0.235254
   5 N :    0.143389
   6 C :   -0.234998
   7 C :   -0.190517
   8 C :   -0.159067
   9 H :    0.154585
  10 H :    0.155215
  11 H :    0.144173
  12 H :    0.125854
  13 H :    0.123554
  14 H :    0.150987
  15 H :    0.139758
  16 H :    0.135359
  17 H :    0.156854

  Mayer bond orders larger than 0.1
B(  0-O ,  1-C ) :   2.0143 B(  1-C ,  2-C ) :   0.8953 B(  1-C ,  8-C ) :   0.9711
B(  2-C ,  3-C ) :   0.8866 B(  2-C ,  9-H ) :   0.9214 B(  2-C , 10-H ) :   0.9152
B(  3-C ,  4-C ) :   0.9315 B(  3-C ,  5-N ) :   0.8953 B(  3-C , 11-H ) :   0.9192
B(  4-C ,  5-N ) :   0.8906 B(  4-C , 12-H ) :   0.9262 B(  4-C , 13-H ) :   0.9129
B(  5-N ,  6-C ) :   0.9696 B(  6-C ,  7-C ) :   0.8813 B(  6-C ,  8-C ) :   0.8116
B(  6-C , 14-H ) :   0.9393 B(  7-C ,  8-C ) :   0.8224 B(  7-C , 15-H ) :   0.9238
B(  7-C , 16-H ) :   0.9197 B(  8-C , 17-H ) :   0.9229

MP2 TOTAL ENERGY:     -401.231338517 Eh
FINAL SINGLE POINT ENERGY      -401.231338517491

DIPOLE MOMENT
-------------
                                X             Y             Z
Electronic contribution:      0.54717      -3.85905      -2.31543
Nuclear contribution   :     -0.55853       4.89240       2.93641
                        -----------------------------------------
Total Dipole Moment    :     -0.01135       1.03335       0.62098
                        -----------------------------------------
Magnitude (a.u.)       :      1.20563
Magnitude (Debye)      :      3.06448

                             ****ORCA TERMINATED NORMALLY****
TOTAL RUN TIME: 0 days 0 hours 18 minutes 4 seconds 182 msec
