                         Program Version 3.0.3 - RELEASE   -
|  1> ! RI-MP2 RIJK def2-TZVP def2-TZVP/C def2-TZVP/JK TIGHTSCF
|  2> % maxcore 2000
|  3> % mp2 density relaxed end
|  4> *xyz 0 1
|  5>  C       -0.1594942992     1.3585326550    -0.5160487539
|  6>  C       -0.0564719051    -0.0370584060    -0.1144810562
|  7>  C        0.0365776537    -1.1917756303     0.2119618557
|  8>  C        0.1175116434    -2.5941923842     0.6102679797
|  9>  C       -1.2392321101    -3.2819535475     0.5679723002
| 10>  O       -1.6808435080    -3.8060412543    -0.6842084178
| 11>  C       -1.4428189203    -4.7292359303     0.3952368496
| 12>  C       -0.3558565578    -5.7463019021     0.1486104510
| 13>  O       -0.7796929489    -6.7130038484    -0.7978992617
| 14>  H        0.6485713016     1.6350119689    -1.2022763384
| 15>  H       -1.1083896025     1.5546969680    -1.0272800066
| 16>  H       -0.1038815665     2.0291307598     0.3485710255
| 17>  H        0.8206052262    -3.1272617305    -0.0373759107
| 18>  H        0.5117080372    -2.6683133393     1.6334796927
| 19>  H       -2.0141309317    -2.7393512243     1.1119281365
| 20>  H       -2.3582167099    -5.1590760256     0.8064448492
| 21>  H        0.5723213042    -5.2541519396    -0.1720026446
| 22>  H       -0.1432879544    -6.2945647507     1.0730440728
| 23>  H       -1.0300018917    -6.2294422286    -1.5935506830
| 24> *
| 25>
| 26>                          ****END OF INPUT****

CARTESIAN COORDINATES (ANGSTROEM)
---------------------------------
  C     -0.159494    1.358533   -0.516049
  C     -0.056472   -0.037058   -0.114481
  C      0.036578   -1.191776    0.211962
  C      0.117512   -2.594192    0.610268
  C     -1.239232   -3.281954    0.567972
  O     -1.680844   -3.806041   -0.684208
  C     -1.442819   -4.729236    0.395237
  C     -0.355857   -5.746302    0.148610
  O     -0.779693   -6.713004   -0.797899
  H      0.648571    1.635012   -1.202276
  H     -1.108390    1.554697   -1.027280
  H     -0.103882    2.029131    0.348571
  H      0.820605   -3.127262   -0.037376
  H      0.511708   -2.668313    1.633480
  H     -2.014131   -2.739351    1.111928
  H     -2.358217   -5.159076    0.806445
  H      0.572321   -5.254152   -0.172003
  H     -0.143288   -6.294565    1.073044
  H     -1.030002   -6.229442   -1.593551

 Total Charge           Charge          ....    0
 Multiplicity           Mult            ....    1
 Number of Electrons    NEL             ....   68
 Basis Dimension        Dim             ....  339

ORBITAL ENERGIES
----------------

  NO   OCC          E(Eh)            E(eV)
   0   2.0000     -20.573948      -559.8456
   1   2.0000     -20.560543      -559.4808
   2   2.0000     -11.301669      -307.5340
   3   2.0000     -11.291999      -307.2709
   4   2.0000     -11.287387      -307.1454
   5   2.0000     -11.263446      -306.4940
   6   2.0000     -11.247651      -306.0641
   7   2.0000     -11.226790      -305.4965
   8   2.0000     -11.221185      -305.3440
   9   2.0000      -1.420125       -38.6436
  10   2.0000      -1.363962       -37.1153
  11   2.0000      -1.083437       -29.4818
  12   2.0000      -1.031411       -28.0661
  13   2.0000      -0.995395       -27.0861
  14   2.0000      -0.940962       -25.6049
  15   2.0000      -0.876670       -23.8554
  16   2.0000      -0.808000       -21.9868
  17   2.0000      -0.731167       -19.8961
  18   2.0000      -0.681073       -18.5329
  19   2.0000      -0.663506       -18.0549
  20   2.0000      -0.649322       -17.6689
  21   2.0000      -0.622433       -16.9373
  22   2.0000      -0.615343       -16.7443
  23   2.0000      -0.598132       -16.2760
  24   2.0000      -0.587441       -15.9851
  25   2.0000      -0.583956       -15.8903
  26   2.0000      -0.563491       -15.3334
  27   2.0000      -0.532854       -14.4997
  28   2.0000      -0.509584       -13.8665
  29   2.0000      -0.477560       -12.9951
  30   2.0000      -0.445098       -12.1117
  31   2.0000      -0.441922       -12.0253
  32   2.0000      -0.372145       -10.1266
  33   2.0000      -0.371240       -10.1020
  34   0.0000       0.134560         3.6616
  35   0.0000       0.147795         4.0217
  36   0.0000       0.156548         4.2599
  37   0.0000       0.164024         4.4633
  38   0.0000       0.180681         4.9166

MULLIKEN ATOMIC CHARGES
-----------------------
   0 C :   -0.478893
   1 C :    0.087523
   2 C :   -0.042139
   3 C :   -0.362448
   4 C :    0.039377
   5 O :   -0.341238
   6 C :    0.001674
   7 C :   -0.000096
   8 O :   -0.473300
   9 H :    0.162050
  10 H :    0.164035
  11 H :    0.160595
  12 H :    0.148472
  13 H :    0.146726
  14 H :    0.124230
  15 H :    0.120936
  16 H :    0.102250
  17 H :    0.112555
  18 H :    0.327689
Sum of atomic charges:   -0.0000000

LOEWDIN ATOMIC CHARGES
----------------------
   0 C :   -0.294394
   1 C :   -0.102496
   2 C :   -0.086190
   3 C :   -0.235798
   4 C :   -0.253499
   5 O :    0.157258
   6 C :   -0.275363
   7 C :   -0.332716
   8 O :   -0.042907
   9 H :    0.141243
  10 H :    0.141646
  11 H :    0.140229
  12 H :    0.158564
  13 H :    0.163062
  14 H :    0.144549
  15 H :    0.140881
  16 H :    0.120262
  17 H :    0.134879
  18 H :    0.180790

  Mayer bond orders larger than 0.1
B(  0-C ,  1-C ) :   0.8541 B(  0-C ,  9-H ) :   0.9464 B(  0-C , 10-H ) :   0.9459
B(  0-C , 11-H ) :   0.9482 B(  1-C ,  2-C ) :   2.6846 B(  1-C ,  3-C ) :  -0.1086
B(  2-C ,  3-C ) :   1.0607 B(  3-C ,  4-C ) :   0.9006 B(  3-C , 12-H ) :   0.9461
B(  3-C , 13-H ) :   0.9224 B(  4-C ,  5-O ) :   0.9032 B(  4-C ,  6-C ) :   0.9501
B(  4-C , 14-H ) :   0.9172 B(  5-O ,  6-C ) :   0.8570 B(  6-C ,  7-C ) :   0.9388
B(  6-C , 15-H ) :   0.9121 B(  7-C ,  8-O ) :   0.9102 B(  7-C , 16-H ) :   0.9246
B(  7-C , 17-H ) :   0.9212 B(  8-O , 18-H ) :   0.8382

MP2 TOTAL ENERGY:     -422.259997911 Eh
FINAL SINGLE POINT ENERGY      -422.259997910850

DIPOLE MOMENT
-------------
                                X             Y             Z
Electronic contribution:     -1.80922      -3.59207      -0.86401
Nuclear contribution   :      2.04934       4.27888       1.39109
                        -----------------------------------------
Total Dipole Moment    :      0.24012       0.68681       0.52708
                        -----------------------------------------
Magnitude (a.u.)       :      0.89843
Magnitude (Debye)      :      2.28364

                             ****ORCA TERMINATED NORMALLY****
TOTAL RUN TIME: 0 days 0 hours 23 minutes 23 seconds 838 msec
