                         Program Version 3.0.3 - RELEASE   -
|  1> ! RI-MP2 RIJK def2-TZVP def2-TZVP/C def2-TZVP/JK TIGHTSCF
|  2> % maxcore 2000
|  3> % mp2 density relaxed end
|  4> *xyz 0 1
|  5>  O        0.2966541907     1.1989996780    -0.7846853133
|  6>  C        0.0893935314     0.1403517717     0.1273457113
|  7>  C       -1.3568498156    -0.2498967523     0.2095891208
|  8>  C       -2.1894610207    -0.6969306575     1.2128201306
|  9>  C       -2.7477795905    -1.1153172024     2.5723185299
| 10>  C       -4.1189010708    -1.3073284427     1.8123786778
| 11>  N       -3.3717489347    -0.8828946285     0.6058928409
| 12>  N       -3.3680151854    -0.5831469185    -0.6968692767
| 13>  N       -2.1273104998    -0.2078829415    -0.9259333594
| 14>  H       -0.3229602630     1.0540610913    -1.5109595790
| 15>  H        0.6914383159    -0.7418213569    -0.1509592738
| 16>  H        0.4469172979     0.4708239072     1.1088803602
| 17>  H       -2.3315846557    -2.0320734650     2.9936011437
| 18>  H       -2.7599266765    -0.3356458902     3.3359280604
| 19>  H       -4.4957414641    -2.3296116666     1.7524169450
| 20>  H       -4.9184343491    -0.6186941060     2.0902248416
| 21> *
| 22>
| 23>                          ****END OF INPUT****

CARTESIAN COORDINATES (ANGSTROEM)
---------------------------------
  O      0.296654    1.199000   -0.784685
  C      0.089394    0.140352    0.127346
  C     -1.356850   -0.249897    0.209589
  C     -2.189461   -0.696931    1.212820
  C     -2.747780   -1.115317    2.572319
  C     -4.118901   -1.307328    1.812379
  N     -3.371749   -0.882895    0.605893
  N     -3.368015   -0.583147   -0.696869
  N     -2.127310   -0.207883   -0.925933
  H     -0.322960    1.054061   -1.510960
  H      0.691438   -0.741821   -0.150959
  H      0.446917    0.470824    1.108880
  H     -2.331585   -2.032073    2.993601
  H     -2.759927   -0.335646    3.335928
  H     -4.495741   -2.329612    1.752417
  H     -4.918434   -0.618694    2.090225

 Total Charge           Charge          ....    0
 Multiplicity           Mult            ....    1
 Number of Electrons    NEL             ....   66
 Basis Dimension        Dim             ....  321

ORBITAL ENERGIES
----------------

  NO   OCC          E(Eh)            E(eV)
   0   2.0000     -20.546575      -559.1007
   1   2.0000     -15.651863      -425.9089
   2   2.0000     -15.640938      -425.6116
   3   2.0000     -15.596990      -424.4157
   4   2.0000     -11.319723      -308.0253
   5   2.0000     -11.288056      -307.1636
   6   2.0000     -11.285072      -307.0824
   7   2.0000     -11.284848      -307.0763
   8   2.0000     -11.264357      -306.5187
   9   2.0000      -1.443874       -39.2898
  10   2.0000      -1.355677       -36.8899
  11   2.0000      -1.251902       -34.0660
  12   2.0000      -1.109924       -30.2026
  13   2.0000      -1.017411       -27.6852
  14   2.0000      -0.950708       -25.8701
  15   2.0000      -0.921724       -25.0814
  16   2.0000      -0.817221       -22.2377
  17   2.0000      -0.778884       -21.1945
  18   2.0000      -0.711550       -19.3623
  19   2.0000      -0.710977       -19.3467
  20   2.0000      -0.657442       -17.8899
  21   2.0000      -0.619896       -16.8682
  22   2.0000      -0.604385       -16.4461
  23   2.0000      -0.598422       -16.2839
  24   2.0000      -0.571852       -15.5609
  25   2.0000      -0.569613       -15.5000
  26   2.0000      -0.557627       -15.1738
  27   2.0000      -0.508506       -13.8372
  28   2.0000      -0.501424       -13.6444
  29   2.0000      -0.450601       -12.2615
  30   2.0000      -0.434460       -11.8223
  31   2.0000      -0.401355       -10.9214
  32   2.0000      -0.348132        -9.4731
  33   0.0000       0.120438         3.2773
  34   0.0000       0.135042         3.6747
  35   0.0000       0.143773         3.9123
  36   0.0000       0.163423         4.4470
  37   0.0000       0.173179         4.7124

MULLIKEN ATOMIC CHARGES
-----------------------
   0 O :   -0.479585
   1 C :   -0.010211
   2 C :   -0.083749
   3 C :    0.056202
   4 C :   -0.220763
   5 C :   -0.137243
   6 N :    0.125405
   7 N :   -0.247180
   8 N :   -0.157112
   9 H :    0.337906
  10 H :    0.107072
  11 H :    0.111680
  12 H :    0.149871
  13 H :    0.150543
  14 H :    0.148101
  15 H :    0.149063
Sum of atomic charges:    0.0000000

LOEWDIN ATOMIC CHARGES
----------------------
   0 O :   -0.041059
   1 C :   -0.315560
   2 C :   -0.267629
   3 C :   -0.186658
   4 C :   -0.188765
   5 C :   -0.172600
   6 N :    0.208582
   7 N :   -0.044730
   8 N :    0.017326
   9 H :    0.178725
  10 H :    0.126541
  11 H :    0.133051
  12 H :    0.140478
  13 H :    0.141484
  14 H :    0.135029
  15 H :    0.135785

  Mayer bond orders larger than 0.1
B(  0-O ,  1-C ) :   0.9629 B(  0-O ,  9-H ) :   0.8221 B(  1-C ,  2-C ) :   0.9697
B(  1-C , 10-H ) :   0.9138 B(  1-C , 11-H ) :   0.9367 B(  2-C ,  3-C ) :   1.2679
B(  2-C ,  7-N ) :   0.1124 B(  2-C ,  8-N ) :   1.3767 B(  3-C ,  4-C ) :   0.8949
B(  3-C ,  6-N ) :   1.1766 B(  4-C ,  5-C ) :   0.9539 B(  4-C , 12-H ) :   0.9164
B(  4-C , 13-H ) :   0.9133 B(  5-C ,  6-N ) :   0.8253 B(  5-C , 14-H ) :   0.9177
B(  5-C , 15-H ) :   0.9190 B(  6-N ,  7-N ) :   1.0285 B(  7-N ,  8-N ) :   1.2307

MP2 TOTAL ENERGY:     -433.303734128 Eh
FINAL SINGLE POINT ENERGY      -433.303734127526

DIPOLE MOMENT
-------------
                                X             Y             Z
Electronic contribution:     -1.36815       0.74653      -4.11458
Nuclear contribution   :      0.67732      -1.73316       6.15033
                        -----------------------------------------
Total Dipole Moment    :     -0.69083      -0.98663       2.03575
                        -----------------------------------------
Magnitude (a.u.)       :      2.36536
Magnitude (Debye)      :      6.01228

                             ****ORCA TERMINATED NORMALLY****
TOTAL RUN TIME: 0 days 0 hours 16 minutes 40 seconds 32 msec
