                         Program Version 3.0.3 - RELEASE   -
|  1> ! RI-MP2 RIJK def2-TZVP def2-TZVP/C def2-TZVP/JK TIGHTSCF
|  2> % maxcore 2000
|  3> % mp2 density relaxed end
|  4> *xyz 0 1
|  5>  C        0.1571377344     1.4816015589    -0.1263798329
|  6>  C        0.1335875559    -0.0411441313    -0.0685599684
|  7>  C        1.2720455894    -0.7439132344    -0.8549139903
|  8>  N        1.9193157803    -1.2662641275     0.3994610319
|  9>  C        0.7695844705    -0.6438559642     1.1898650642
| 10>  C        0.9332700191    -2.1119385246     1.1302082654
| 11>  C       -0.0173885819    -3.0674971186     0.4408201542
| 12>  C        1.6676957057    -2.7412731596     2.3083342810
| 13>  O        2.5970783252    -3.7117806180     1.8625648871
| 14>  H        1.1566184307     1.8699609366     0.0984175257
| 15>  H       -0.1274245129     1.8393121185    -1.1216033499
| 16>  H       -0.5414585474     1.9156152039     0.5972405973
| 17>  H       -0.8789391133    -0.4016960433    -0.2792751435
| 18>  H        0.9984312364    -1.5166799351    -1.5794962071
| 19>  H        1.9517517310    -0.0376579291    -1.3386370253
| 20>  H        0.9522274821    -0.0797990567     2.1021839221
| 21>  H       -0.4859130794    -2.6577749454    -0.4546739872
| 22>  H        0.5206417607    -3.9798146692     0.1662563258
| 23>  H       -0.8194205917    -3.3501811718     1.1314864182
| 24>  H        2.1645724439    -1.9532861876     2.8936716563
| 25>  H        0.9636989284    -3.2602888563     2.9675414210
| 26>  H        3.1586228429    -3.2460251853     1.2296456145
| 27> *
| 28>
| 29>                          ****END OF INPUT****

CARTESIAN COORDINATES (ANGSTROEM)
---------------------------------
  C      0.157138    1.481602   -0.126380
  C      0.133588   -0.041144   -0.068560
  C      1.272046   -0.743913   -0.854914
  N      1.919316   -1.266264    0.399461
  C      0.769584   -0.643856    1.189865
  C      0.933270   -2.111939    1.130208
  C     -0.017389   -3.067497    0.440820
  C      1.667696   -2.741273    2.308334
  O      2.597078   -3.711781    1.862565
  H      1.156618    1.869961    0.098418
  H     -0.127425    1.839312   -1.121603
  H     -0.541459    1.915615    0.597241
  H     -0.878939   -0.401696   -0.279275
  H      0.998431   -1.516680   -1.579496
  H      1.951752   -0.037658   -1.338637
  H      0.952227   -0.079799    2.102184
  H     -0.485913   -2.657775   -0.454674
  H      0.520642   -3.979815    0.166256
  H     -0.819421   -3.350181    1.131486
  H      2.164572   -1.953286    2.893672
  H      0.963699   -3.260289    2.967541
  H      3.158623   -3.246025    1.229646

 Total Charge           Charge          ....    0
 Multiplicity           Mult            ....    1
 Number of Electrons    NEL             ....   70
 Basis Dimension        Dim             ....  357

ORBITAL ENERGIES
----------------

  NO   OCC          E(Eh)            E(eV)
   0   2.0000     -20.544747      -559.0510
   1   2.0000     -15.560066      -423.4109
   2   2.0000     -11.271231      -306.7058
   3   2.0000     -11.267029      -306.5914
   4   2.0000     -11.263269      -306.4891
   5   2.0000     -11.255070      -306.2660
   6   2.0000     -11.241405      -305.8942
   7   2.0000     -11.224633      -305.4378
   8   2.0000     -11.221394      -305.3496
   9   2.0000      -1.353994       -36.8440
  10   2.0000      -1.288224       -35.0544
  11   2.0000      -1.062570       -28.9140
  12   2.0000      -1.007737       -27.4219
  13   2.0000      -0.952159       -25.9096
  14   2.0000      -0.905381       -24.6367
  15   2.0000      -0.885093       -24.0846
  16   2.0000      -0.758544       -20.6410
  17   2.0000      -0.746470       -20.3125
  18   2.0000      -0.686918       -18.6920
  19   2.0000      -0.665458       -18.1080
  20   2.0000      -0.641509       -17.4564
  21   2.0000      -0.615889       -16.7592
  22   2.0000      -0.608115       -16.5476
  23   2.0000      -0.572483       -15.5781
  24   2.0000      -0.562406       -15.3038
  25   2.0000      -0.555320       -15.1110
  26   2.0000      -0.546282       -14.8651
  27   2.0000      -0.533116       -14.5068
  28   2.0000      -0.508204       -13.8289
  29   2.0000      -0.494464       -13.4551
  30   2.0000      -0.469889       -12.7863
  31   2.0000      -0.444339       -12.0911
  32   2.0000      -0.434319       -11.8184
  33   2.0000      -0.415918       -11.3177
  34   2.0000      -0.368013       -10.0142
  35   0.0000       0.132879         3.6158
  36   0.0000       0.152268         4.1434
  37   0.0000       0.162695         4.4272
  38   0.0000       0.167376         4.5545
  39   0.0000       0.187042         5.0897

MULLIKEN ATOMIC CHARGES
-----------------------
   0 C :   -0.455332
   1 C :    0.010287
   2 C :   -0.186131
   3 N :   -0.302987
   4 C :   -0.195342
   5 C :    0.169822
   6 C :   -0.414385
   7 C :    0.008222
   8 O :   -0.480035
   9 H :    0.140201
  10 H :    0.139674
  11 H :    0.133656
  12 H :    0.105934
  13 H :    0.118914
  14 H :    0.124039
  15 H :    0.121044
  16 H :    0.136421
  17 H :    0.157512
  18 H :    0.135957
  19 H :    0.103836
  20 H :    0.103742
  21 H :    0.324952
Sum of atomic charges:    0.0000000

LOEWDIN ATOMIC CHARGES
----------------------
   0 C :   -0.294242
   1 C :   -0.250720
   2 C :   -0.228071
   3 N :    0.118127
   4 C :   -0.160970
   5 C :   -0.313336
   6 C :   -0.266483
   7 C :   -0.301635
   8 O :   -0.044251
   9 H :    0.127990
  10 H :    0.125965
  11 H :    0.124998
  12 H :    0.143416
  13 H :    0.120615
  14 H :    0.130965
  15 H :    0.136029
  16 H :    0.126374
  17 H :    0.136986
  18 H :    0.133830
  19 H :    0.124687
  20 H :    0.131341
  21 H :    0.178385

  Mayer bond orders larger than 0.1
B(  0-C ,  1-C ) :   0.8944 B(  0-C ,  9-H ) :   0.9369 B(  0-C , 10-H ) :   0.9405
B(  0-C , 11-H ) :   0.9394 B(  1-C ,  2-C ) :   0.9546 B(  1-C ,  4-C ) :   0.9137
B(  1-C , 12-H ) :   0.9233 B(  2-C ,  3-N ) :   0.9367 B(  2-C , 13-H ) :   0.9325
B(  2-C , 14-H ) :   0.9142 B(  3-N ,  4-C ) :   0.9054 B(  3-N ,  5-C ) :   0.7888
B(  4-C ,  5-C ) :   0.8733 B(  4-C , 15-H ) :   0.8895 B(  5-C ,  6-C ) :   0.8901
B(  5-C ,  7-C ) :   0.9310 B(  6-C , 16-H ) :   0.9351 B(  6-C , 17-H ) :   0.9359
B(  6-C , 18-H ) :   0.9304 B(  7-C ,  8-O ) :   0.9168 B(  7-C , 19-H ) :   0.9146
B(  7-C , 20-H ) :   0.9242 B(  8-O , 21-H ) :   0.8293

MP2 TOTAL ENERGY:     -403.620658316 Eh
FINAL SINGLE POINT ENERGY      -403.620658315508

DIPOLE MOMENT
-------------
                                X             Y             Z
Electronic contribution:      3.83608      -3.17855       2.23374
Nuclear contribution   :     -4.61225       3.92188      -2.61164
                        -----------------------------------------
Total Dipole Moment    :     -0.77617       0.74333      -0.37790
                        -----------------------------------------
Magnitude (a.u.)       :      1.13920
Magnitude (Debye)      :      2.89562

                             ****ORCA TERMINATED NORMALLY****
TOTAL RUN TIME: 0 days 0 hours 21 minutes 1 seconds 844 msec
