                         Program Version 3.0.3 - RELEASE   -
|  1> ! RI-MP2 RIJK def2-TZVP def2-TZVP/C def2-TZVP/JK TIGHTSCF
|  2> % maxcore 2000
|  3> % mp2 density relaxed end
|  4> *xyz 0 1
|  5>  C       -0.2085620440     1.5934320581     0.1688538166
|  6>  C        0.0099425602     0.0915705910     0.0658847204
|  7>  C        1.1174442073    -0.5161098793    -0.8498027298
|  8>  C        2.4135922151     0.1258642562    -0.3140773709
|  9>  C        2.1472633203    -0.0204690823     1.2235265541
| 10>  C        0.7710439244    -0.7158282507     1.1693932463
| 11>  C        1.0314022200    -1.7919925096     0.0770300385
| 12>  C       -0.0624822242    -2.7652398370    -0.2516648383
| 13>  O       -1.1618794121    -2.7997190197     0.2459747993
| 14>  H        0.7072273997     2.1520903543     0.3798427408
| 15>  H       -0.6258685951     1.9862399526    -0.7652012774
| 16>  H       -0.9245811730     1.8210738483     0.9662073785
| 17>  H       -0.9447685082    -0.3978780748    -0.1320599176
| 18>  H        1.0000419811    -0.5893670673    -1.9323363556
| 19>  H        3.3054466310    -0.4157958384    -0.6414333334
| 20>  H        2.5239390113     1.1658197899    -0.6325887930
| 21>  H        2.9002175047    -0.6375168442     1.7219106061
| 22>  H        2.1123865919     0.9404411428     1.7429572806
| 23>  H        0.2901881538    -0.9803734654     2.1106950929
| 24>  H        1.9707170462    -2.3567033421     0.1446936119
| 25>  H        0.2256925495    -3.5104022925    -1.0306889999
| 26> *
| 27>
| 28>                          ****END OF INPUT****

CARTESIAN COORDINATES (ANGSTROEM)
---------------------------------
  C     -0.208562    1.593432    0.168854
  C      0.009943    0.091571    0.065885
  C      1.117444   -0.516110   -0.849803
  C      2.413592    0.125864   -0.314077
  C      2.147263   -0.020469    1.223527
  C      0.771044   -0.715828    1.169393
  C      1.031402   -1.791993    0.077030
  C     -0.062482   -2.765240   -0.251665
  O     -1.161879   -2.799719    0.245975
  H      0.707227    2.152090    0.379843
  H     -0.625869    1.986240   -0.765201
  H     -0.924581    1.821074    0.966207
  H     -0.944769   -0.397878   -0.132060
  H      1.000042   -0.589367   -1.932336
  H      3.305447   -0.415796   -0.641433
  H      2.523939    1.165820   -0.632589
  H      2.900218   -0.637517    1.721911
  H      2.112387    0.940441    1.742957
  H      0.290188   -0.980373    2.110695
  H      1.970717   -2.356703    0.144694
  H      0.225693   -3.510402   -1.030689

 Total Charge           Charge          ....    0
 Multiplicity           Mult            ....    1
 Number of Electrons    NEL             ....   68
 Basis Dimension        Dim             ....  351

ORBITAL ENERGIES
----------------

  NO   OCC          E(Eh)            E(eV)
   0   2.0000     -20.552176      -559.2531
   1   2.0000     -11.328422      -308.2620
   2   2.0000     -11.246032      -306.0201
   3   2.0000     -11.242009      -305.9106
   4   2.0000     -11.235712      -305.7393
   5   2.0000     -11.229073      -305.5586
   6   2.0000     -11.228179      -305.5343
   7   2.0000     -11.225783      -305.4691
   8   2.0000     -11.214017      -305.1489
   9   2.0000      -1.390820       -37.8461
  10   2.0000      -1.194676       -32.5088
  11   2.0000      -1.003393       -27.3037
  12   2.0000      -0.998551       -27.1720
  13   2.0000      -0.944417       -25.6989
  14   2.0000      -0.898799       -24.4576
  15   2.0000      -0.790302       -21.5052
  16   2.0000      -0.768259       -20.9054
  17   2.0000      -0.723421       -19.6853
  18   2.0000      -0.690700       -18.7949
  19   2.0000      -0.667368       -18.1600
  20   2.0000      -0.644911       -17.5489
  21   2.0000      -0.611659       -16.6441
  22   2.0000      -0.579295       -15.7634
  23   2.0000      -0.564008       -15.3474
  24   2.0000      -0.550495       -14.9797
  25   2.0000      -0.532424       -14.4880
  26   2.0000      -0.519056       -14.1242
  27   2.0000      -0.490855       -13.3569
  28   2.0000      -0.490177       -13.3384
  29   2.0000      -0.466484       -12.6937
  30   2.0000      -0.443380       -12.0650
  31   2.0000      -0.431440       -11.7401
  32   2.0000      -0.425624       -11.5818
  33   2.0000      -0.410089       -11.1591
  34   0.0000       0.127804         3.4777
  35   0.0000       0.137434         3.7398
  36   0.0000       0.146026         3.9736
  37   0.0000       0.166479         4.5301
  38   0.0000       0.172332         4.6894

MULLIKEN ATOMIC CHARGES
-----------------------
   0 C :   -0.443056
   1 C :   -0.111053
   2 C :   -0.048590
   3 C :   -0.281077
   4 C :   -0.291974
   5 C :   -0.006314
   6 C :   -0.110265
   7 C :    0.063992
   8 O :   -0.273000
   9 H :    0.127654
  10 H :    0.136215
  11 H :    0.140750
  12 H :    0.131921
  13 H :    0.129362
  14 H :    0.122730
  15 H :    0.128201
  16 H :    0.122955
  17 H :    0.130292
  18 H :    0.134240
  19 H :    0.115500
  20 H :    0.081518
Sum of atomic charges:    0.0000000

LOEWDIN ATOMIC CHARGES
----------------------
   0 C :   -0.293868
   1 C :   -0.211490
   2 C :   -0.158936
   3 C :   -0.225692
   4 C :   -0.224438
   5 C :   -0.162707
   6 C :   -0.188094
   7 C :   -0.280775
   8 O :    0.130640
   9 H :    0.122593
  10 H :    0.127388
  11 H :    0.128713
  12 H :    0.161198
  13 H :    0.135191
  14 H :    0.132853
  15 H :    0.132654
  16 H :    0.133336
  17 H :    0.132381
  18 H :    0.139634
  19 H :    0.156243
  20 H :    0.113177

  Mayer bond orders larger than 0.1
B(  0-C ,  1-C ) :   0.9022 B(  0-C ,  9-H ) :   0.9370 B(  0-C , 10-H ) :   0.9385
B(  0-C , 11-H ) :   0.9403 B(  1-C ,  2-C ) :   0.9141 B(  1-C ,  5-C ) :   0.9149
B(  1-C , 12-H ) :   0.9113 B(  2-C ,  3-C ) :   0.8839 B(  2-C ,  6-C ) :   0.8612
B(  2-C , 13-H ) :   0.9115 B(  3-C ,  4-C ) :   0.9547 B(  3-C , 14-H ) :   0.9262
B(  3-C , 15-H ) :   0.9366 B(  4-C ,  5-C ) :   0.8843 B(  4-C , 16-H ) :   0.9289
B(  4-C , 17-H ) :   0.9418 B(  5-C ,  6-C ) :   0.8702 B(  5-C , 18-H ) :   0.9056
B(  6-C ,  7-C ) :   0.8651 B(  6-C , 19-H ) :   0.8922 B(  7-C ,  8-O ) :   1.9920
B(  7-C , 20-H ) :   0.9561

MP2 TOTAL ENERGY:     -386.419758227 Eh
FINAL SINGLE POINT ENERGY      -386.419758227379

DIPOLE MOMENT
-------------
                                X             Y             Z
Electronic contribution:     -3.54136      -7.31506      -0.15919
Nuclear contribution   :      4.41638       7.68837      -0.12340
                        -----------------------------------------
Total Dipole Moment    :      0.87502       0.37331      -0.28260
                        -----------------------------------------
Magnitude (a.u.)       :      0.99241
Magnitude (Debye)      :      2.52250

                             ****ORCA TERMINATED NORMALLY****
TOTAL RUN TIME: 0 days 0 hours 21 minutes 26 seconds 924 msec
