                         Program Version 3.0.3 - RELEASE   -
|  1> ! RI-MP2 RIJK def2-TZVP def2-TZVP/C def2-TZVP/JK TIGHTSCF
|  2> % maxcore 2000
|  3> % mp2 density relaxed end
|  4> *xyz 0 1
|  5>  C        0.1910700397     1.4932429439    -0.1734668693
|  6>  C       -0.0817326898     0.0085668436     0.1221959137
|  7>  C        0.6052060511    -0.4801682226     1.3506908229
|  8>  N        0.0780946030    -0.9216201242     2.4506741638
|  9>  C        1.1629829759    -1.2312317820     3.2654104613
| 10>  C        0.9799346115    -1.7798617856     4.6396533497
| 11>  O        2.2627675724    -1.9804704473     5.2091098550
| 12>  C        2.3060529888    -0.9523239601     2.5998049517
| 13>  O        1.9629406546    -0.4672443648     1.3636335166
| 14>  H        1.2611502836     1.6745208303    -0.3056952940
| 15>  H       -0.3234042912     1.8009482836    -1.0882200729
| 16>  H       -0.1616249166     2.1259585337     0.6463246916
| 17>  H       -1.1505076106    -0.1679434397     0.2642758873
| 18>  H        0.2391920878    -0.5984296060    -0.7333596312
| 19>  H        0.3739301442    -1.0764375224     5.2334724898
| 20>  H        0.4065669336    -2.7192968782     4.5820638247
| 21>  H        2.1449698971    -2.3397900144     6.0924530854
| 22>  H        3.3538114250    -1.0290921479     2.8252577839
| 23> *
| 24>
| 25>                          ****END OF INPUT****

CARTESIAN COORDINATES (ANGSTROEM)
---------------------------------
  C      0.191070    1.493243   -0.173467
  C     -0.081733    0.008567    0.122196
  C      0.605206   -0.480168    1.350691
  N      0.078095   -0.921620    2.450674
  C      1.162983   -1.231232    3.265410
  C      0.979935   -1.779862    4.639653
  O      2.262768   -1.980470    5.209110
  C      2.306053   -0.952324    2.599805
  O      1.962941   -0.467244    1.363634
  H      1.261150    1.674521   -0.305695
  H     -0.323404    1.800948   -1.088220
  H     -0.161625    2.125959    0.646325
  H     -1.150508   -0.167943    0.264276
  H      0.239192   -0.598430   -0.733360
  H      0.373930   -1.076438    5.233472
  H      0.406567   -2.719297    4.582064
  H      2.144970   -2.339790    6.092453
  H      3.353811   -1.029092    2.825258

 Total Charge           Charge          ....    0
 Multiplicity           Mult            ....    1
 Number of Electrons    NEL             ....   68
 Basis Dimension        Dim             ....  333

ORBITAL ENERGIES
----------------

  NO   OCC          E(Eh)            E(eV)
   0   2.0000     -20.623893      -561.2047
   1   2.0000     -20.564476      -559.5878
   2   2.0000     -15.552801      -423.2132
   3   2.0000     -11.329954      -308.3037
   4   2.0000     -11.288257      -307.1691
   5   2.0000     -11.274942      -306.8068
   6   2.0000     -11.254939      -306.2624
   7   2.0000     -11.244353      -305.9744
   8   2.0000     -11.226495      -305.4884
   9   2.0000      -1.473789       -40.1038
  10   2.0000      -1.369906       -37.2770
  11   2.0000      -1.225219       -33.3399
  12   2.0000      -1.083518       -29.4840
  13   2.0000      -1.013310       -27.5736
  14   2.0000      -0.938282       -25.5320
  15   2.0000      -0.879617       -23.9356
  16   2.0000      -0.806244       -21.9390
  17   2.0000      -0.769964       -20.9518
  18   2.0000      -0.711572       -19.3629
  19   2.0000      -0.689420       -18.7601
  20   2.0000      -0.663462       -18.0537
  21   2.0000      -0.634032       -17.2529
  22   2.0000      -0.620728       -16.8909
  23   2.0000      -0.598917       -16.2974
  24   2.0000      -0.584056       -15.8930
  25   2.0000      -0.578494       -15.7416
  26   2.0000      -0.531983       -14.4760
  27   2.0000      -0.520703       -14.1691
  28   2.0000      -0.509926       -13.8758
  29   2.0000      -0.503416       -13.6987
  30   2.0000      -0.472212       -12.8495
  31   2.0000      -0.451989       -12.2992
  32   2.0000      -0.429564       -11.6890
  33   2.0000      -0.323369        -8.7993
  34   0.0000       0.133641         3.6366
  35   0.0000       0.134192         3.6515
  36   0.0000       0.161147         4.3850
  37   0.0000       0.180848         4.9211
  38   0.0000       0.183685         4.9983

MULLIKEN ATOMIC CHARGES
-----------------------
   0 C :   -0.395151
   1 C :   -0.232278
   2 C :    0.255172
   3 N :   -0.296324
   4 C :    0.079478
   5 C :   -0.089882
   6 O :   -0.469780
   7 C :   -0.033506
   8 O :   -0.211018
   9 H :    0.138145
  10 H :    0.134417
  11 H :    0.134841
  12 H :    0.144028
  13 H :    0.128740
  14 H :    0.114316
  15 H :    0.114600
  16 H :    0.320065
  17 H :    0.164136
Sum of atomic charges:    0.0000000

LOEWDIN ATOMIC CHARGES
----------------------
   0 C :   -0.305862
   1 C :   -0.254493
   2 C :   -0.343402
   3 N :    0.141072
   4 C :   -0.268536
   5 C :   -0.308227
   6 O :   -0.039182
   7 C :   -0.213796
   8 O :    0.346940
   9 H :    0.124574
  10 H :    0.122417
  11 H :    0.124835
  12 H :    0.154559
  13 H :    0.149581
  14 H :    0.127497
  15 H :    0.127550
  16 H :    0.175340
  17 H :    0.139134

  Mayer bond orders larger than 0.1
B(  0-C ,  1-C ) :   0.9139 B(  0-C ,  9-H ) :   0.9357 B(  0-C , 10-H ) :   0.9369
B(  0-C , 11-H ) :   0.9356 B(  1-C ,  2-C ) :   0.8921 B(  1-C , 12-H ) :   0.9477
B(  1-C , 13-H ) :   0.9284 B(  2-C ,  3-N ) :   1.6801 B(  2-C ,  8-O ) :   1.0744
B(  3-N ,  4-C ) :   1.1577 B(  4-C ,  5-C ) :   0.8986 B(  4-C ,  6-O ) :  -0.1104
B(  4-C ,  7-C ) :   1.6082 B(  5-C ,  6-O ) :   1.0465 B(  5-C , 14-H ) :   0.9332
B(  5-C , 15-H ) :   0.9337 B(  6-O , 16-H ) :   0.8471 B(  7-C ,  8-O ) :   1.0267
B(  7-C , 17-H ) :   0.9130

MP2 TOTAL ENERGY:     -438.397774080 Eh
FINAL SINGLE POINT ENERGY      -438.397774080432

DIPOLE MOMENT
-------------
                                X             Y             Z
Electronic contribution:      3.26649      -3.80713       3.58700
Nuclear contribution   :     -3.30305       3.75840      -3.38961
                        -----------------------------------------
Total Dipole Moment    :     -0.03656      -0.04874       0.19740
                        -----------------------------------------
Magnitude (a.u.)       :      0.20659
Magnitude (Debye)      :      0.52510

                             ****ORCA TERMINATED NORMALLY****
TOTAL RUN TIME: 0 days 0 hours 15 minutes 35 seconds 114 msec
