                         Program Version 3.0.3 - RELEASE   -
|  1> ! RI-MP2 RIJK def2-TZVP def2-TZVP/C def2-TZVP/JK TIGHTSCF
|  2> % maxcore 2000
|  3> % mp2 density relaxed end
|  4> *xyz 0 1
|  5>  C       -0.5357927070     1.4970483388     0.0891340578
|  6>  C       -0.0503083603     0.0555153740     0.0079489006
|  7>  C        1.1089734674    -0.3687268766    -0.9505851065
|  8>  C        1.6360004111    -1.3486652825     0.1374441488
|  9>  C        2.8638282065    -0.8731588392     0.9717666753
| 10>  O        3.5096420578     0.3354523133     0.5287465443
| 11>  C        2.6972007303     1.1379320812     1.4214897197
| 12>  C        1.9214771193    -0.0992091555     1.9296295017
| 13>  C        0.6718459241    -0.6747690733     1.1770770686
| 14>  H        0.2722149296     2.2109532077     0.2648584469
| 15>  H       -1.0284570282     1.7872082503    -0.8460564723
| 16>  H       -1.2670638501     1.6183758394     0.8966599234
| 17>  H       -0.9192026603    -0.5706903688    -0.2312010905
| 18>  H        0.7980116225    -0.8253216689    -1.8927602772
| 19>  H        1.8282496891     0.4239568017    -1.1698933535
| 20>  H        1.5879761097    -2.4125442825    -0.0986975920
| 21>  H        3.5820121147    -1.6386066792     1.2802665387
| 22>  H        3.3180210872     1.6072979531     2.1950597897
| 23>  H        2.1494309348     1.9203423133     0.8899066659
| 24>  H        1.9188243986    -0.2411151972     3.0101433406
| 25>  H        0.0350703933    -1.2618824990     1.8426240501
| 26> *
| 27>
| 28>                          ****END OF INPUT****

CARTESIAN COORDINATES (ANGSTROEM)
---------------------------------
  C     -0.535793    1.497048    0.089134
  C     -0.050308    0.055515    0.007949
  C      1.108973   -0.368727   -0.950585
  C      1.636000   -1.348665    0.137444
  C      2.863828   -0.873159    0.971767
  O      3.509642    0.335452    0.528747
  C      2.697201    1.137932    1.421490
  C      1.921477   -0.099209    1.929630
  C      0.671846   -0.674769    1.177077
  H      0.272215    2.210953    0.264858
  H     -1.028457    1.787208   -0.846056
  H     -1.267064    1.618376    0.896660
  H     -0.919203   -0.570690   -0.231201
  H      0.798012   -0.825322   -1.892760
  H      1.828250    0.423957   -1.169893
  H      1.587976   -2.412544   -0.098698
  H      3.582012   -1.638607    1.280267
  H      3.318021    1.607298    2.195060
  H      2.149431    1.920342    0.889907
  H      1.918824   -0.241115    3.010143
  H      0.035070   -1.261882    1.842624

 Total Charge           Charge          ....    0
 Multiplicity           Mult            ....    1
 Number of Electrons    NEL             ....   68
 Basis Dimension        Dim             ....  351

ORBITAL ENERGIES
----------------

  NO   OCC          E(Eh)            E(eV)
   0   2.0000     -20.542772      -558.9972
   1   2.0000     -11.277107      -306.8657
   2   2.0000     -11.276865      -306.8591
   3   2.0000     -11.231202      -305.6165
   4   2.0000     -11.228733      -305.5494
   5   2.0000     -11.228126      -305.5328
   6   2.0000     -11.223256      -305.4003
   7   2.0000     -11.214521      -305.1626
   8   2.0000     -11.212981      -305.1207
   9   2.0000      -1.374888       -37.4126
  10   2.0000      -1.151028       -31.3211
  11   2.0000      -1.028317       -27.9819
  12   2.0000      -0.978965       -26.6390
  13   2.0000      -0.926586       -25.2137
  14   2.0000      -0.878675       -23.9100
  15   2.0000      -0.818826       -22.2814
  16   2.0000      -0.769682       -20.9441
  17   2.0000      -0.707165       -19.2429
  18   2.0000      -0.684912       -18.6374
  19   2.0000      -0.640694       -17.4342
  20   2.0000      -0.631745       -17.1907
  21   2.0000      -0.613482       -16.6937
  22   2.0000      -0.578551       -15.7432
  23   2.0000      -0.572775       -15.5860
  24   2.0000      -0.562260       -15.2999
  25   2.0000      -0.538920       -14.6648
  26   2.0000      -0.517139       -14.0721
  27   2.0000      -0.476295       -12.9607
  28   2.0000      -0.471908       -12.8413
  29   2.0000      -0.449554       -12.2330
  30   2.0000      -0.430704       -11.7200
  31   2.0000      -0.421962       -11.4822
  32   2.0000      -0.391603       -10.6561
  33   2.0000      -0.382714       -10.4142
  34   0.0000       0.133330         3.6281
  35   0.0000       0.152784         4.1575
  36   0.0000       0.160702         4.3729
  37   0.0000       0.169624         4.6157
  38   0.0000       0.186883         5.0854

MULLIKEN ATOMIC CHARGES
-----------------------
   0 C :   -0.388912
   1 C :   -0.114012
   2 C :   -0.269992
   3 C :   -0.098182
   4 C :    0.073831
   5 O :   -0.347452
   6 C :   -0.021176
   7 C :   -0.201205
   8 C :   -0.006840
   9 H :    0.106625
  10 H :    0.131832
  11 H :    0.130237
  12 H :    0.091093
  13 H :    0.120373
  14 H :    0.143601
  15 H :    0.117942
  16 H :    0.101361
  17 H :    0.104159
  18 H :    0.091189
  19 H :    0.121738
  20 H :    0.113789
Sum of atomic charges:   -0.0000000

LOEWDIN ATOMIC CHARGES
----------------------
   0 C :   -0.302482
   1 C :   -0.240110
   2 C :   -0.193346
   3 C :   -0.157447
   4 C :   -0.221256
   5 O :    0.130157
   6 C :   -0.249750
   7 C :   -0.170870
   8 C :   -0.148068
   9 H :    0.115482
  10 H :    0.125800
  11 H :    0.125286
  12 H :    0.155508
  13 H :    0.125964
  14 H :    0.140096
  15 H :    0.133852
  16 H :    0.125593
  17 H :    0.119937
  18 H :    0.113132
  19 H :    0.137210
  20 H :    0.135315

  Mayer bond orders larger than 0.1
B(  0-C ,  1-C ) :   0.9110 B(  0-C ,  9-H ) :   0.9367 B(  0-C , 10-H ) :   0.9382
B(  0-C , 11-H ) :   0.9387 B(  1-C ,  2-C ) :   0.9464 B(  1-C ,  8-C ) :   0.9035
B(  1-C , 12-H ) :   0.9228 B(  2-C ,  3-C ) :   0.9042 B(  2-C , 13-H ) :   0.9238
B(  2-C , 14-H ) :   0.9087 B(  3-C ,  4-C ) :   0.8771 B(  3-C ,  8-C ) :   0.9136
B(  3-C , 15-H ) :   0.9063 B(  4-C ,  5-O ) :   0.9489 B(  4-C ,  7-C ) :   0.9358
B(  4-C , 16-H ) :   0.9316 B(  5-O ,  6-C ) :   0.9276 B(  6-C ,  7-C ) :   0.9885
B(  6-C , 17-H ) :   0.9135 B(  6-C , 18-H ) :   0.9099 B(  7-C ,  8-C ) :   0.8947
B(  7-C , 19-H ) :   0.9165 B(  8-C , 20-H ) :   0.9106

MP2 TOTAL ENERGY:     -386.347653365 Eh
FINAL SINGLE POINT ENERGY      -386.347653365091

DIPOLE MOMENT
-------------
                                X             Y             Z
Electronic contribution:      5.31123      -2.63966       1.18909
Nuclear contribution   :     -5.89696       2.46925      -0.77672
                        -----------------------------------------
Total Dipole Moment    :     -0.58573      -0.17041       0.41237
                        -----------------------------------------
Magnitude (a.u.)       :      0.73632
Magnitude (Debye)      :      1.87158

                             ****ORCA TERMINATED NORMALLY****
TOTAL RUN TIME: 0 days 0 hours 20 minutes 33 seconds 674 msec
