                         Program Version 3.0.3 - RELEASE   -
|  1> ! RI-MP2 RIJK def2-TZVP def2-TZVP/C def2-TZVP/JK TIGHTSCF
|  2> % maxcore 2000
|  3> % mp2 density relaxed end
|  4> *xyz 0 1
|  5>  O        0.3058344901     1.4290603243    -0.1801000104
|  6>  C        0.0735149538     0.0515725089    -0.0700352508
|  7>  C        0.0888938850    -0.6458270729     1.3298866667
|  8>  C       -1.3752751745    -0.1931773797     1.6406029835
|  9>  C       -2.0149199622    -1.5910212628     1.7656695377
| 10>  C       -3.2816781085    -1.5570372162     0.8660187784
| 11>  C       -2.7828545070    -0.7387160358    -0.3907018393
| 12>  C       -1.3675557073    -0.4987810888     0.0983325475
| 13>  C       -0.8234067882    -1.7886914751     0.8041997305
| 14>  H       -0.2066539522     1.8771756105     0.5018310572
| 15>  H        0.6805545647    -0.4216897933    -0.8483782505
| 16>  H        0.9231497975    -0.7274031154     2.0273995936
| 17>  H       -1.7045447645     0.7417959339     2.1010762366
| 18>  H       -2.0970141576    -2.1196991243     2.7179626771
| 19>  H       -3.6102653816    -2.5641227104     0.5899198519
| 20>  H       -4.1227097472    -1.0650134973     1.3653525959
| 21>  H       -2.8313496493    -1.3243424857    -1.3132185356
| 22>  H       -3.3553469243     0.1806574857    -0.5432392749
| 23>  H       -0.5056748369    -2.6891363257     0.2747237048
| 24> *
| 25>
| 26>                          ****END OF INPUT****

CARTESIAN COORDINATES (ANGSTROEM)
---------------------------------
  O      0.305834    1.429060   -0.180100
  C      0.073515    0.051573   -0.070035
  C      0.088894   -0.645827    1.329887
  C     -1.375275   -0.193177    1.640603
  C     -2.014920   -1.591021    1.765670
  C     -3.281678   -1.557037    0.866019
  C     -2.782855   -0.738716   -0.390702
  C     -1.367556   -0.498781    0.098333
  C     -0.823407   -1.788691    0.804200
  H     -0.206654    1.877176    0.501831
  H      0.680555   -0.421690   -0.848378
  H      0.923150   -0.727403    2.027400
  H     -1.704545    0.741796    2.101076
  H     -2.097014   -2.119699    2.717963
  H     -3.610265   -2.564123    0.589920
  H     -4.122710   -1.065013    1.365353
  H     -2.831350   -1.324342   -1.313219
  H     -3.355347    0.180657   -0.543239
  H     -0.505675   -2.689136    0.274724

 Total Charge           Charge          ....    0
 Multiplicity           Mult            ....    1
 Number of Electrons    NEL             ....   66
 Basis Dimension        Dim             ....  339

ORBITAL ENERGIES
----------------

  NO   OCC          E(Eh)            E(eV)
   0   2.0000     -20.555609      -559.3466
   1   2.0000     -11.288713      -307.1815
   2   2.0000     -11.243583      -305.9535
   3   2.0000     -11.240575      -305.8716
   4   2.0000     -11.238227      -305.8077
   5   2.0000     -11.236617      -305.7639
   6   2.0000     -11.235101      -305.7226
   7   2.0000     -11.228178      -305.5343
   8   2.0000     -11.225281      -305.4554
   9   2.0000      -1.366839       -37.1936
  10   2.0000      -1.254115       -34.1262
  11   2.0000      -1.057304       -28.7707
  12   2.0000      -0.974730       -26.5238
  13   2.0000      -0.885989       -24.1090
  14   2.0000      -0.868367       -23.6295
  15   2.0000      -0.831925       -22.6378
  16   2.0000      -0.778552       -21.1855
  17   2.0000      -0.700393       -19.0587
  18   2.0000      -0.681834       -18.5536
  19   2.0000      -0.655539       -17.8381
  20   2.0000      -0.623154       -16.9569
  21   2.0000      -0.612058       -16.6550
  22   2.0000      -0.599645       -16.3172
  23   2.0000      -0.561224       -15.2717
  24   2.0000      -0.527279       -14.3480
  25   2.0000      -0.515624       -14.0309
  26   2.0000      -0.487146       -13.2559
  27   2.0000      -0.457223       -12.4417
  28   2.0000      -0.439421       -11.9572
  29   2.0000      -0.434909       -11.8345
  30   2.0000      -0.410698       -11.1757
  31   2.0000      -0.401953       -10.9377
  32   2.0000      -0.393868       -10.7177
  33   0.0000       0.135030         3.6743
  34   0.0000       0.146989         3.9998
  35   0.0000       0.157082         4.2744
  36   0.0000       0.168831         4.5941
  37   0.0000       0.190364         5.1801

MULLIKEN ATOMIC CHARGES
-----------------------
   0 O :   -0.456852
   1 C :    0.117078
   2 C :   -0.140383
   3 C :   -0.186137
   4 C :   -0.065748
   5 C :   -0.254803
   6 C :   -0.227587
   7 C :   -0.017787
   8 C :   -0.140068
   9 H :    0.316376
  10 H :    0.106741
  11 H :    0.128631
  12 H :    0.114249
  13 H :    0.116653
  14 H :    0.116507
  15 H :    0.117007
  16 H :    0.118335
  17 H :    0.118465
  18 H :    0.119323
Sum of atomic charges:    0.0000000

LOEWDIN ATOMIC CHARGES
----------------------
   0 O :   -0.008958
   1 C :   -0.269789
   2 C :   -0.128717
   3 C :   -0.112669
   4 C :   -0.175994
   5 C :   -0.212668
   6 C :   -0.212432
   7 C :   -0.148101
   8 C :   -0.097134
   9 H :    0.177691
  10 H :    0.138410
  11 H :    0.125642
  12 H :    0.125378
  13 H :    0.133127
  14 H :    0.132910
  15 H :    0.132278
  16 H :    0.135418
  17 H :    0.134866
  18 H :    0.130741

  Mayer bond orders larger than 0.1
B(  0-O ,  1-C ) :   0.9784 B(  0-O ,  9-H ) :   0.8389 B(  1-C ,  2-C ) :   0.9062
B(  1-C ,  7-C ) :   0.8288 B(  1-C , 10-H ) :   0.9508 B(  2-C ,  3-C ) :   0.8182
B(  2-C ,  8-C ) :   0.8448 B(  2-C , 11-H ) :   0.9066 B(  3-C ,  4-C ) :   0.8856
B(  3-C ,  7-C ) :   0.8154 B(  3-C , 12-H ) :   0.9135 B(  4-C ,  5-C ) :   0.9342
B(  4-C ,  8-C ) :   0.8829 B(  4-C , 13-H ) :   0.9132 B(  5-C ,  6-C ) :   0.9851
B(  5-C , 14-H ) :   0.9236 B(  5-C , 15-H ) :   0.9254 B(  6-C ,  7-C ) :   0.9323
B(  6-C , 16-H ) :   0.9205 B(  6-C , 17-H ) :   0.9196 B(  7-C ,  8-C ) :   0.8325
B(  8-C , 18-H ) :   0.9063

MP2 TOTAL ENERGY:     -385.140204113 Eh
FINAL SINGLE POINT ENERGY      -385.140204112686

DIPOLE MOMENT
-------------
                                X             Y             Z
Electronic contribution:      3.75054       1.99215      -0.16072
Nuclear contribution   :     -4.24772      -2.28736       0.55092
                        -----------------------------------------
Total Dipole Moment    :     -0.49719      -0.29521       0.39020
                        -----------------------------------------
Magnitude (a.u.)       :      0.69757
Magnitude (Debye)      :      1.77307

                             ****ORCA TERMINATED NORMALLY****
TOTAL RUN TIME: 0 days 0 hours 19 minutes 46 seconds 115 msec
