                         Program Version 3.0.3 - RELEASE   -
|  1> ! RI-MP2 RIJK def2-TZVP def2-TZVP/C def2-TZVP/JK TIGHTSCF
|  2> % maxcore 2000
|  3> % mp2 density relaxed end
|  4> *xyz 0 1
|  5>  C        0.1359944053     1.5112075476     0.4815547270
|  6>  C       -0.0768876185     0.0906622999     0.0152863713
|  7>  C       -1.2623354469    -0.5240653441     0.1611236987
|  8>  C       -1.5641939418    -1.9134520181    -0.3394877938
|  9>  C       -0.6808483735    -2.9801587907     0.2897867700
| 10>  O       -0.0238412799    -3.8770529479    -0.6114386847
| 11>  C        0.7717848095    -2.9140877864     0.1113411330
| 12>  C        1.4329944722    -1.8270020546    -0.6558362829
| 13>  C        1.0760077770    -0.5342644913    -0.6519377000
| 14>  H        0.9370144988     1.5709393742     1.2284393803
| 15>  H        0.4374390404     2.1575207594    -0.3525883243
| 16>  H       -0.7725543828     1.9285074436     0.9227141132
| 17>  H       -2.0697983680     0.0197475636     0.6453960119
| 18>  H       -2.6184847587    -2.1577589911    -0.1805560219
| 19>  H       -1.3800774877    -1.9650510689    -1.4199264532
| 20>  H       -1.0655249158    -3.4572585974     1.1913859069
| 21>  H        1.4060878668    -3.3811215509     0.8682696878
| 22>  H        2.3342351510    -2.1159425312    -1.1928636859
| 23>  H        1.7262494427     0.1614583843    -1.1826957433
| 24> *
| 25>
| 26>                          ****END OF INPUT****

CARTESIAN COORDINATES (ANGSTROEM)
---------------------------------
  C      0.135994    1.511208    0.481555
  C     -0.076888    0.090662    0.015286
  C     -1.262335   -0.524065    0.161124
  C     -1.564194   -1.913452   -0.339488
  C     -0.680848   -2.980159    0.289787
  O     -0.023841   -3.877053   -0.611439
  C      0.771785   -2.914088    0.111341
  C      1.432994   -1.827002   -0.655836
  C      1.076008   -0.534264   -0.651938
  H      0.937014    1.570939    1.228439
  H      0.437439    2.157521   -0.352588
  H     -0.772554    1.928507    0.922714
  H     -2.069798    0.019748    0.645396
  H     -2.618485   -2.157759   -0.180556
  H     -1.380077   -1.965051   -1.419926
  H     -1.065525   -3.457259    1.191386
  H      1.406088   -3.381122    0.868270
  H      2.334235   -2.115943   -1.192864
  H      1.726249    0.161458   -1.182696

 Total Charge           Charge          ....    0
 Multiplicity           Mult            ....    1
 Number of Electrons    NEL             ....   66
 Basis Dimension        Dim             ....  339

ORBITAL ENERGIES
----------------

  NO   OCC          E(Eh)            E(eV)
   0   2.0000     -20.561523      -559.5075
   1   2.0000     -11.285691      -307.0993
   2   2.0000     -11.284508      -307.0671
   3   2.0000     -11.242718      -305.9299
   4   2.0000     -11.241929      -305.9084
   5   2.0000     -11.239938      -305.8543
   6   2.0000     -11.231562      -305.6263
   7   2.0000     -11.230844      -305.6068
   8   2.0000     -11.226471      -305.4878
   9   2.0000      -1.404162       -38.2092
  10   2.0000      -1.125470       -30.6256
  11   2.0000      -1.045969       -28.4623
  12   2.0000      -1.018830       -27.7238
  13   2.0000      -0.925980       -25.1972
  14   2.0000      -0.896928       -24.4067
  15   2.0000      -0.850974       -23.1562
  16   2.0000      -0.761769       -20.7288
  17   2.0000      -0.722565       -19.6620
  18   2.0000      -0.690708       -18.7951
  19   2.0000      -0.643357       -17.5066
  20   2.0000      -0.620667       -16.8892
  21   2.0000      -0.604117       -16.4389
  22   2.0000      -0.583555       -15.8793
  23   2.0000      -0.573430       -15.6038
  24   2.0000      -0.563863       -15.3435
  25   2.0000      -0.530291       -14.4300
  26   2.0000      -0.517907       -14.0930
  27   2.0000      -0.515129       -14.0174
  28   2.0000      -0.482339       -13.1251
  29   2.0000      -0.443470       -12.0674
  30   2.0000      -0.425093       -11.5674
  31   2.0000      -0.404099       -10.9961
  32   2.0000      -0.323636        -8.8066
  33   0.0000       0.102941         2.8012
  34   0.0000       0.139921         3.8074
  35   0.0000       0.156113         4.2481
  36   0.0000       0.168367         4.5815
  37   0.0000       0.175444         4.7741

MULLIKEN ATOMIC CHARGES
-----------------------
   0 C :   -0.425246
   1 C :    0.133802
   2 C :   -0.241106
   3 C :   -0.146893
   4 C :    0.041908
   5 O :   -0.330842
   6 C :    0.048322
   7 C :   -0.165988
   8 C :   -0.196441
   9 H :    0.141327
  10 H :    0.136545
  11 H :    0.131970
  12 H :    0.117703
  13 H :    0.131421
  14 H :    0.139140
  15 H :    0.113847
  16 H :    0.116764
  17 H :    0.131457
  18 H :    0.122309
Sum of atomic charges:    0.0000000

LOEWDIN ATOMIC CHARGES
----------------------
   0 C :   -0.267097
   1 C :   -0.186493
   2 C :   -0.132393
   3 C :   -0.230833
   4 C :   -0.255376
   5 O :    0.158224
   6 C :   -0.249218
   7 C :   -0.139807
   8 C :   -0.118643
   9 H :    0.130092
  10 H :    0.130127
  11 H :    0.128109
  12 H :    0.142816
  13 H :    0.144195
  14 H :    0.164247
  15 H :    0.136325
  16 H :    0.143398
  17 H :    0.149136
  18 H :    0.153189

  Mayer bond orders larger than 0.1
B(  0-C ,  1-C ) :   0.8906 B(  0-C ,  9-H ) :   0.9298 B(  0-C , 10-H ) :   0.9306
B(  0-C , 11-H ) :   0.9441 B(  1-C ,  2-C ) :   1.7214 B(  1-C ,  8-C ) :   0.9538
B(  2-C ,  3-C ) :   0.9277 B(  2-C , 12-H ) :   0.9219 B(  3-C ,  4-C ) :   0.8687
B(  3-C , 13-H ) :   0.9282 B(  3-C , 14-H ) :   0.9062 B(  4-C ,  5-O ) :   0.9380
B(  4-C ,  6-C ) :   1.0056 B(  4-C , 15-H ) :   0.9126 B(  5-O ,  6-C ) :   0.8707
B(  6-C ,  7-C ) :   0.9120 B(  6-C , 16-H ) :   0.9211 B(  7-C ,  8-C ) :   1.7595
B(  7-C , 17-H ) :   0.9233 B(  8-C , 18-H ) :   0.9194

MP2 TOTAL ENERGY:     -385.194189349 Eh
FINAL SINGLE POINT ENERGY      -385.194189349138

DIPOLE MOMENT
-------------
                                X             Y             Z
Electronic contribution:      0.73782      -6.17932      -1.29481
Nuclear contribution   :     -0.73323       6.88220       1.74080
                        -----------------------------------------
Total Dipole Moment    :      0.00459       0.70288       0.44599
                        -----------------------------------------
Magnitude (a.u.)       :      0.83245
Magnitude (Debye)      :      2.11591

                             ****ORCA TERMINATED NORMALLY****
TOTAL RUN TIME: 0 days 0 hours 20 minutes 31 seconds 460 msec
