                         Program Version 3.0.3 - RELEASE   -
|  1> ! RI-MP2 RIJK def2-TZVP def2-TZVP/C def2-TZVP/JK TIGHTSCF
|  2> % maxcore 2000
|  3> % mp2 density relaxed end
|  4> *xyz 0 1
|  5>  C       -0.0177797781     1.5614482015    -0.0227645371
|  6>  C       -0.0338307718     0.0587353578     0.0870669873
|  7>  C        1.1946405030    -0.7878519165    -0.2281982588
|  8>  C        0.6290497589    -0.7458646690     1.1872826013
|  9>  C        1.4064330568    -0.1672918275     2.3411422558
| 10>  N       -0.3427823942    -1.7555473602     1.5223010674
| 11>  C       -1.4053595159    -1.7654063067     0.6234000212
| 12>  O       -2.2431820301    -2.6292649746     0.4964357977
| 13>  N       -1.3154426339    -0.5749334411    -0.0920620638
| 14>  H        0.9636381793     1.9675111403     0.2353971349
| 15>  H       -0.2407131334     1.8767871326    -1.0487362338
| 16>  H       -0.7668003503     2.0079431750     0.6383753614
| 17>  H        1.0680875595    -1.6925945142    -0.8135946143
| 18>  H        2.1243376417    -0.2545730604    -0.3983536002
| 19>  H        2.0372660651     0.6643977226     2.0170177058
| 20>  H        0.7314714545     0.1895320601     3.1251066523
| 21>  H        2.0664161652    -0.9239825122     2.7811389300
| 22>  H       -0.0687543182    -2.6445121353     1.9110948609
| 23>  H       -1.8058763083    -0.5359958421    -0.9721014779
| 24> *
| 25>
| 26>                          ****END OF INPUT****

CARTESIAN COORDINATES (ANGSTROEM)
---------------------------------
  C     -0.017780    1.561448   -0.022765
  C     -0.033831    0.058735    0.087067
  C      1.194641   -0.787852   -0.228198
  C      0.629050   -0.745865    1.187283
  C      1.406433   -0.167292    2.341142
  N     -0.342782   -1.755547    1.522301
  C     -1.405360   -1.765406    0.623400
  O     -2.243182   -2.629265    0.496436
  N     -1.315443   -0.574933   -0.092062
  H      0.963638    1.967511    0.235397
  H     -0.240713    1.876787   -1.048736
  H     -0.766800    2.007943    0.638375
  H      1.068088   -1.692595   -0.813595
  H      2.124338   -0.254573   -0.398354
  H      2.037266    0.664398    2.017018
  H      0.731471    0.189532    3.125107
  H      2.066416   -0.923983    2.781139
  H     -0.068754   -2.644512    1.911095
  H     -1.805876   -0.535996   -0.972101

 Total Charge           Charge          ....    0
 Multiplicity           Mult            ....    1
 Number of Electrons    NEL             ....   68
 Basis Dimension        Dim             ....  339

ORBITAL ENERGIES
----------------

  NO   OCC          E(Eh)            E(eV)
   0   2.0000     -20.510306      -558.1138
   1   2.0000     -15.578277      -423.9065
   2   2.0000     -15.578247      -423.9057
   3   2.0000     -11.369429      -309.3779
   4   2.0000     -11.288176      -307.1669
   5   2.0000     -11.287495      -307.1484
   6   2.0000     -11.236522      -305.7613
   7   2.0000     -11.235440      -305.7319
   8   2.0000     -11.235436      -305.7318
   9   2.0000      -1.393942       -37.9311
  10   2.0000      -1.297876       -35.3170
  11   2.0000      -1.185099       -32.2482
  12   2.0000      -1.119281       -30.4572
  13   2.0000      -0.993994       -27.0479
  14   2.0000      -0.972965       -26.4757
  15   2.0000      -0.835569       -22.7370
  16   2.0000      -0.828028       -22.5318
  17   2.0000      -0.782277       -21.2868
  18   2.0000      -0.701888       -19.0993
  19   2.0000      -0.656250       -17.8575
  20   2.0000      -0.649704       -17.6794
  21   2.0000      -0.627752       -17.0820
  22   2.0000      -0.613425       -16.6921
  23   2.0000      -0.595186       -16.1958
  24   2.0000      -0.573705       -15.6113
  25   2.0000      -0.566141       -15.4055
  26   2.0000      -0.556821       -15.1519
  27   2.0000      -0.553820       -15.0702
  28   2.0000      -0.542248       -14.7553
  29   2.0000      -0.493787       -13.4366
  30   2.0000      -0.446748       -12.1566
  31   2.0000      -0.432102       -11.7581
  32   2.0000      -0.378642       -10.3034
  33   2.0000      -0.367474        -9.9995
  34   0.0000       0.121156         3.2968
  35   0.0000       0.151028         4.1097
  36   0.0000       0.159283         4.3343
  37   0.0000       0.175046         4.7632
  38   0.0000       0.188342         5.1250

MULLIKEN ATOMIC CHARGES
-----------------------
   0 C :   -0.416134
   1 C :    0.172202
   2 C :   -0.306832
   3 C :    0.172179
   4 C :   -0.416122
   5 N :   -0.350183
   6 C :    0.272405
   7 O :   -0.355090
   8 N :   -0.350181
   9 H :    0.123711
  10 H :    0.138042
  11 H :    0.146786
  12 H :    0.148986
  13 H :    0.126309
  14 H :    0.123709
  15 H :    0.146786
  16 H :    0.138039
  17 H :    0.242695
  18 H :    0.242694
Sum of atomic charges:   -0.0000000

LOEWDIN ATOMIC CHARGES
----------------------
   0 C :   -0.263745
   1 C :   -0.274984
   2 C :   -0.175843
   3 C :   -0.274984
   4 C :   -0.263745
   5 N :    0.134627
   6 C :   -0.523324
   7 O :    0.064731
   8 N :    0.134624
   9 H :    0.130284
  10 H :    0.130318
  11 H :    0.133080
  12 H :    0.138586
  13 H :    0.138862
  14 H :    0.130282
  15 H :    0.133080
  16 H :    0.130319
  17 H :    0.188916
  18 H :    0.188916

  Mayer bond orders larger than 0.1
B(  0-C ,  1-C ) :   0.9055 B(  0-C ,  9-H ) :   0.9295 B(  0-C , 10-H ) :   0.9353
B(  0-C , 11-H ) :   0.9419 B(  1-C ,  2-C ) :   0.8773 B(  1-C ,  3-C ) :   0.8428
B(  1-C ,  8-N ) :   0.8942 B(  2-C ,  3-C ) :   0.8773 B(  2-C , 12-H ) :   0.9137
B(  2-C , 13-H ) :   0.9216 B(  3-C ,  4-C ) :   0.9055 B(  3-C ,  5-N ) :   0.8942
B(  4-C , 14-H ) :   0.9295 B(  4-C , 15-H ) :   0.9419 B(  4-C , 16-H ) :   0.9353
B(  5-N ,  6-C ) :   1.1115 B(  5-N , 17-H ) :   0.8651 B(  6-C ,  7-O ) :   2.0193
B(  6-C ,  8-N ) :   1.1115 B(  8-N , 18-H ) :   0.8651

MP2 TOTAL ENERGY:     -418.549410123 Eh
FINAL SINGLE POINT ENERGY      -418.549410122595

DIPOLE MOMENT
-------------
                                X             Y             Z
Electronic contribution:     -6.62052      -6.76130      -0.95578
Nuclear contribution   :      8.04995       7.73767       0.80860
                        -----------------------------------------
Total Dipole Moment    :      1.42943       0.97637      -0.14718
                        -----------------------------------------
Magnitude (a.u.)       :      1.73731
Magnitude (Debye)      :      4.41588

                             ****ORCA TERMINATED NORMALLY****
TOTAL RUN TIME: 0 days 0 hours 24 minutes 3 seconds 516 msec
