                         Program Version 3.0.3 - RELEASE   -
|  1> ! RI-MP2 RIJK def2-TZVP def2-TZVP/C def2-TZVP/JK TIGHTSCF
|  2> % maxcore 2000
|  3> % mp2 density relaxed end
|  4> *xyz 0 1
|  5>  C        0.1121810295     1.5542120700     0.0099701602
|  6>  C        0.0368370875     0.0293339799    -0.0570042833
|  7>  C       -1.4226283922    -0.5067212910     0.0226758197
|  8>  O       -2.1182194826    -0.0553738616     1.1763730710
|  9>  C       -1.6156963620    -0.4952889393     2.4313997551
| 10>  C       -2.2024897062    -0.0537598669    -1.1365010217
| 11>  C       -2.8098624109     0.3170552525    -2.1023814830
| 12>  C       -1.3746035921    -1.9973717237    -0.0014303043
| 13>  N       -1.3083699236    -3.1506806730     0.0139588146
| 14>  H        1.1547162651     1.8795405178    -0.0431269631
| 15>  H       -0.4306513573     2.0107138727    -0.8219272814
| 16>  H       -0.3184305086     1.9339435772     0.9399624684
| 17>  H        0.4709019287    -0.3424477529    -0.9902492239
| 18>  H        0.6102824488    -0.4264100710     0.7562833179
| 19>  H       -1.5438674317    -1.5889465744     2.4793354855
| 20>  H       -0.6358757417    -0.0596394058     2.6641624901
| 21>  H       -2.3382017709    -0.1523867264     3.1739972609
| 22>  H       -3.3612103397     0.6391795860    -2.9517646328
| 23> *
| 24>
| 25>                          ****END OF INPUT****

CARTESIAN COORDINATES (ANGSTROEM)
---------------------------------
  C      0.112181    1.554212    0.009970
  C      0.036837    0.029334   -0.057004
  C     -1.422628   -0.506721    0.022676
  O     -2.118219   -0.055374    1.176373
  C     -1.615696   -0.495289    2.431400
  C     -2.202490   -0.053760   -1.136501
  C     -2.809862    0.317055   -2.102381
  C     -1.374604   -1.997372   -0.001430
  N     -1.308370   -3.150681    0.013959
  H      1.154716    1.879541   -0.043127
  H     -0.430651    2.010714   -0.821927
  H     -0.318431    1.933944    0.939962
  H      0.470902   -0.342448   -0.990249
  H      0.610282   -0.426410    0.756283
  H     -1.543867   -1.588947    2.479335
  H     -0.635876   -0.059639    2.664162
  H     -2.338202   -0.152387    3.173997
  H     -3.361210    0.639180   -2.951765

 Total Charge           Charge          ....    0
 Multiplicity           Mult            ....    1
 Number of Electrons    NEL             ....   66
 Basis Dimension        Dim             ....  333

ORBITAL ENERGIES
----------------

  NO   OCC          E(Eh)            E(eV)
   0   2.0000     -20.591625      -560.3266
   1   2.0000     -15.582517      -424.0218
   2   2.0000     -11.375365      -309.5394
   3   2.0000     -11.290074      -307.2185
   4   2.0000     -11.281422      -306.9831
   5   2.0000     -11.258787      -306.3672
   6   2.0000     -11.254569      -306.2524
   7   2.0000     -11.248791      -306.0952
   8   2.0000     -11.231138      -305.6148
   9   2.0000      -1.413319       -38.4584
  10   2.0000      -1.228173       -33.4203
  11   2.0000      -1.119439       -30.4615
  12   2.0000      -1.042216       -28.3601
  13   2.0000      -0.994110       -27.0511
  14   2.0000      -0.934884       -25.4395
  15   2.0000      -0.851327       -23.1658
  16   2.0000      -0.780869       -21.2485
  17   2.0000      -0.729733       -19.8570
  18   2.0000      -0.707524       -19.2527
  19   2.0000      -0.675713       -18.3871
  20   2.0000      -0.635075       -17.2813
  21   2.0000      -0.603748       -16.4288
  22   2.0000      -0.597841       -16.2681
  23   2.0000      -0.573403       -15.6031
  24   2.0000      -0.547603       -14.9010
  25   2.0000      -0.543581       -14.7916
  26   2.0000      -0.515385       -14.0243
  27   2.0000      -0.506011       -13.7693
  28   2.0000      -0.482657       -13.1338
  29   2.0000      -0.473827       -12.8935
  30   2.0000      -0.457884       -12.4597
  31   2.0000      -0.417678       -11.3656
  32   2.0000      -0.412245       -11.2177
  33   0.0000       0.126001         3.4287
  34   0.0000       0.133787         3.6405
  35   0.0000       0.146386         3.9834
  36   0.0000       0.153693         4.1822
  37   0.0000       0.164896         4.4870

MULLIKEN ATOMIC CHARGES
-----------------------
   0 C :   -0.411661
   1 C :   -0.256843
   2 C :    0.205704
   3 O :   -0.287888
   4 C :   -0.250344
   5 C :   -0.024232
   6 C :   -0.078913
   7 C :   -0.193162
   8 N :   -0.043242
   9 H :    0.143596
  10 H :    0.147736
  11 H :    0.140929
  12 H :    0.142407
  13 H :    0.141191
  14 H :    0.145095
  15 H :    0.123401
  16 H :    0.154868
  17 H :    0.201356
Sum of atomic charges:   -0.0000000

LOEWDIN ATOMIC CHARGES
----------------------
   0 C :   -0.303118
   1 C :   -0.225400
   2 C :   -0.345725
   3 O :    0.204186
   4 C :   -0.333418
   5 C :   -0.044751
   6 C :   -0.053437
   7 C :   -0.134430
   8 N :    0.079207
   9 H :    0.126545
  10 H :    0.130420
  11 H :    0.126926
  12 H :    0.154034
  13 H :    0.145870
  14 H :    0.115383
  15 H :    0.105078
  16 H :    0.120367
  17 H :    0.132263

  Mayer bond orders larger than 0.1
B(  0-C ,  1-C ) :   0.9296 B(  0-C ,  9-H ) :   0.9370 B(  0-C , 10-H ) :   0.9335
B(  0-C , 11-H ) :   0.9343 B(  1-C ,  2-C ) :   0.9202 B(  1-C , 12-H ) :   0.9173
B(  1-C , 13-H ) :   0.9216 B(  2-C ,  3-O ) :   1.0782 B(  2-C ,  5-C ) :   1.1238
B(  2-C ,  6-C ) :  -0.1163 B(  2-C ,  7-C ) :   0.8932 B(  3-O ,  4-C ) :   0.8836
B(  4-C , 14-H ) :   0.9252 B(  4-C , 15-H ) :   0.9302 B(  4-C , 16-H ) :   0.9372
B(  5-C ,  6-C ) :   2.5946 B(  6-C , 17-H ) :   0.8791 B(  7-C ,  8-N ) :   2.8563

MP2 TOTAL ENERGY:     -401.209558065 Eh
FINAL SINGLE POINT ENERGY      -401.209558065160

DIPOLE MOMENT
-------------
                                X             Y             Z
Electronic contribution:     -5.20838      -6.21594      -3.77654
Nuclear contribution   :      5.65291       7.41017       3.92249
                        -----------------------------------------
Total Dipole Moment    :      0.44452       1.19423       0.14595
                        -----------------------------------------
Magnitude (a.u.)       :      1.28261
Magnitude (Debye)      :      3.26013

                             ****ORCA TERMINATED NORMALLY****
TOTAL RUN TIME: 0 days 0 hours 17 minutes 16 seconds 900 msec
