                         Program Version 3.0.3 - RELEASE   -
|  1> ! RI-MP2 RIJK def2-TZVP def2-TZVP/C def2-TZVP/JK TIGHTSCF
|  2> % maxcore 2000
|  3> % mp2 density relaxed end
|  4> *xyz 0 1
|  5>  O       -0.0045661641     1.3699937594     0.0566247033
|  6>  C        0.0273787503    -0.0042338966     0.0204236396
|  7>  C        0.6577304982    -0.9540232087    -1.1309293213
|  8>  C       -0.0409964510    -1.8634365895    -0.0975175188
|  9>  C        0.6065082339    -0.9975575597     1.0462535586
| 10>  N       -0.5789690957    -3.1724587130     0.2204450591
| 11>  C       -1.6642098158    -2.8453160832     0.8166251321
| 12>  O       -2.0635175428    -1.5242050278     0.8805382557
| 13>  C       -1.2197810760    -0.9052324850    -0.1223884547
| 14>  H        0.8829571115     1.6963357702     0.2416266581
| 15>  H        0.2058606593    -0.8874029613    -2.1228550971
| 16>  H        1.7485895843    -0.9706097678    -1.1716304348
| 17>  H        1.6944470867    -1.0502219627     1.1270140112
| 18>  H        0.1157406087    -1.0410510808     2.0187273413
| 19>  H       -2.3357487260    -3.5321115602     1.3194000421
| 20>  H       -1.8041360516    -0.7894742433    -1.0392067744
| 21> *
| 22>
| 23>                          ****END OF INPUT****

CARTESIAN COORDINATES (ANGSTROEM)
---------------------------------
  O     -0.004566    1.369994    0.056625
  C      0.027379   -0.004234    0.020424
  C      0.657730   -0.954023   -1.130929
  C     -0.040996   -1.863437   -0.097518
  C      0.606508   -0.997558    1.046254
  N     -0.578969   -3.172459    0.220445
  C     -1.664210   -2.845316    0.816625
  O     -2.063518   -1.524205    0.880538
  C     -1.219781   -0.905232   -0.122388
  H      0.882957    1.696336    0.241627
  H      0.205861   -0.887403   -2.122855
  H      1.748590   -0.970610   -1.171630
  H      1.694447   -1.050222    1.127014
  H      0.115741   -1.041051    2.018727
  H     -2.335749   -3.532112    1.319400
  H     -1.804136   -0.789474   -1.039207

 Total Charge           Charge          ....    0
 Multiplicity           Mult            ....    1
 Number of Electrons    NEL             ....   66
 Basis Dimension        Dim             ....  321

ORBITAL ENERGIES
----------------

  NO   OCC          E(Eh)            E(eV)
   0   2.0000     -20.602515      -560.6229
   1   2.0000     -20.581486      -560.0507
   2   2.0000     -15.563160      -423.4951
   3   2.0000     -11.343135      -308.6624
   4   2.0000     -11.327253      -308.2302
   5   2.0000     -11.292673      -307.2893
   6   2.0000     -11.284504      -307.0670
   7   2.0000     -11.256158      -306.2956
   8   2.0000     -11.238577      -305.8172
   9   2.0000      -1.440448       -39.1966
  10   2.0000      -1.395131       -37.9635
  11   2.0000      -1.242365       -33.8065
  12   2.0000      -1.191815       -32.4309
  13   2.0000      -0.942122       -25.6364
  14   2.0000      -0.928901       -25.2767
  15   2.0000      -0.875088       -23.8124
  16   2.0000      -0.798441       -21.7267
  17   2.0000      -0.766794       -20.8655
  18   2.0000      -0.710126       -19.3235
  19   2.0000      -0.696592       -18.9552
  20   2.0000      -0.674370       -18.3506
  21   2.0000      -0.635188       -17.2844
  22   2.0000      -0.615688       -16.7537
  23   2.0000      -0.591810       -16.1040
  24   2.0000      -0.573527       -15.6065
  25   2.0000      -0.552364       -15.0306
  26   2.0000      -0.525904       -14.3106
  27   2.0000      -0.510317       -13.8864
  28   2.0000      -0.490165       -13.3381
  29   2.0000      -0.454634       -12.3712
  30   2.0000      -0.431856       -11.7514
  31   2.0000      -0.408588       -11.1182
  32   2.0000      -0.378500       -10.2995
  33   0.0000       0.126673         3.4469
  34   0.0000       0.146696         3.9918
  35   0.0000       0.158290         4.3073
  36   0.0000       0.175706         4.7812
  37   0.0000       0.178321         4.8524

MULLIKEN ATOMIC CHARGES
-----------------------
   0 O :   -0.438093
   1 C :    0.117509
   2 C :   -0.180336
   3 C :    0.009689
   4 C :   -0.223011
   5 N :   -0.260681
   6 C :    0.115793
   7 O :   -0.280934
   8 C :    0.039613
   9 H :    0.329134
  10 H :    0.127704
  11 H :    0.128854
  12 H :    0.126318
  13 H :    0.131673
  14 H :    0.147678
  15 H :    0.109091
Sum of atomic charges:    0.0000000

LOEWDIN ATOMIC CHARGES
----------------------
   0 O :    0.036746
   1 C :   -0.318040
   2 C :   -0.147683
   3 C :   -0.258149
   4 C :   -0.154799
   5 N :    0.106084
   6 C :   -0.303022
   7 O :    0.220387
   8 C :   -0.184100
   9 H :    0.188886
  10 H :    0.134190
  11 H :    0.131367
  12 H :    0.132460
  13 H :    0.138354
  14 H :    0.132951
  15 H :    0.144368

  Mayer bond orders larger than 0.1
B(  0-O ,  1-C ) :   1.0165 B(  0-O ,  9-H ) :   0.8306 B(  1-C ,  2-C ) :   0.8661
B(  1-C ,  4-C ) :   0.9035 B(  1-C ,  8-C ) :   0.8725 B(  2-C ,  3-C ) :   0.8966
B(  2-C , 10-H ) :   0.9173 B(  2-C , 11-H ) :   0.9252 B(  3-C ,  4-C ) :   0.9066
B(  3-C ,  5-N ) :   0.9984 B(  3-C ,  8-C ) :   0.8923 B(  4-C , 12-H ) :   0.9232
B(  4-C , 13-H ) :   0.8966 B(  5-N ,  6-C ) :   1.7686 B(  6-C ,  7-O ) :   1.0415
B(  6-C , 14-H ) :   0.9254 B(  7-O ,  8-C ) :   0.8972 B(  8-C , 15-H ) :   0.9577

MP2 TOTAL ENERGY:     -437.092110871 Eh
FINAL SINGLE POINT ENERGY      -437.092110870776

DIPOLE MOMENT
-------------
                                X             Y             Z
Electronic contribution:     -3.04917      -1.00472       0.94119
Nuclear contribution   :      3.62446       1.43417      -0.94628
                        -----------------------------------------
Total Dipole Moment    :      0.57529       0.42945      -0.00509
                        -----------------------------------------
Magnitude (a.u.)       :      0.71793
Magnitude (Debye)      :      1.82482

                             ****ORCA TERMINATED NORMALLY****
TOTAL RUN TIME: 0 days 0 hours 16 minutes 19 seconds 762 msec
