                         Program Version 3.0.3 - RELEASE   -
|  1> ! RI-MP2 RIJK def2-TZVP def2-TZVP/C def2-TZVP/JK TIGHTSCF
|  2> % maxcore 2000
|  3> % mp2 density relaxed end
|  4> *xyz 0 1
|  5>  C       -0.0566385939     1.4931158622     0.0880575059
|  6>  C       -0.0615330253    -0.0231492950     0.0401585693
|  7>  O        0.7410198282    -0.4865814175     1.1343328588
|  8>  C        0.8653572612    -1.8149608987     1.2697077981
|  9>  C        1.5717355945    -2.4726767543     2.2257484738
| 10>  O        1.4174285061    -3.8193121389     1.9763947775
| 11>  C        0.6282495490    -3.8894380449     0.8864194878
| 12>  C        0.2757837479    -5.2351414230     0.3639590841
| 13>  N        0.2678761865    -2.7287736588     0.4211376842
| 14>  H        0.9612643617     1.8814267653    -0.0080286561
| 15>  H       -0.6594545367     1.8937319801    -0.7323223928
| 16>  H       -0.4738925409     1.8531731170     1.0327285707
| 17>  H       -1.0765849747    -0.4260291124     0.1335146732
| 18>  H        0.3526576962    -0.3979068784    -0.9029035232
| 19>  H        2.1760892169    -2.1880173076     3.0662845108
| 20>  H       -0.2560841040    -5.8240006020     1.1185224457
| 21>  H       -0.3623474908    -5.1203053806    -0.5123761316
| 22>  H        1.1730045981    -5.7957520623     0.0816065938
| 23> *
| 24>
| 25>                          ****END OF INPUT****

CARTESIAN COORDINATES (ANGSTROEM)
---------------------------------
  C     -0.056639    1.493116    0.088058
  C     -0.061533   -0.023149    0.040159
  O      0.741020   -0.486581    1.134333
  C      0.865357   -1.814961    1.269708
  C      1.571736   -2.472677    2.225748
  O      1.417429   -3.819312    1.976395
  C      0.628250   -3.889438    0.886419
  C      0.275784   -5.235141    0.363959
  N      0.267876   -2.728774    0.421138
  H      0.961264    1.881427   -0.008029
  H     -0.659455    1.893732   -0.732322
  H     -0.473893    1.853173    1.032729
  H     -1.076585   -0.426029    0.133515
  H      0.352658   -0.397907   -0.902904
  H      2.176089   -2.188017    3.066285
  H     -0.256084   -5.824001    1.118522
  H     -0.362347   -5.120305   -0.512376
  H      1.173005   -5.795752    0.081607

 Total Charge           Charge          ....    0
 Multiplicity           Mult            ....    1
 Number of Electrons    NEL             ....   68
 Basis Dimension        Dim             ....  333

ORBITAL ENERGIES
----------------

  NO   OCC          E(Eh)            E(eV)
   0   2.0000     -20.626965      -561.2882
   1   2.0000     -20.580721      -560.0299
   2   2.0000     -15.557989      -423.3544
   3   2.0000     -11.341969      -308.6307
   4   2.0000     -11.315360      -307.9066
   5   2.0000     -11.280797      -306.9661
   6   2.0000     -11.265421      -306.5477
   7   2.0000     -11.245783      -306.0133
   8   2.0000     -11.217764      -305.2509
   9   2.0000      -1.479599       -40.2619
  10   2.0000      -1.411742       -38.4155
  11   2.0000      -1.225892       -33.3582
  12   2.0000      -1.066254       -29.0142
  13   2.0000      -1.024122       -27.8678
  14   2.0000      -0.954218       -25.9656
  15   2.0000      -0.858222       -23.3534
  16   2.0000      -0.813888       -22.1470
  17   2.0000      -0.794389       -21.6164
  18   2.0000      -0.725608       -19.7448
  19   2.0000      -0.679786       -18.4979
  20   2.0000      -0.662494       -18.0274
  21   2.0000      -0.651400       -17.7255
  22   2.0000      -0.608847       -16.5676
  23   2.0000      -0.595331       -16.1998
  24   2.0000      -0.576330       -15.6827
  25   2.0000      -0.566732       -15.4216
  26   2.0000      -0.552305       -15.0290
  27   2.0000      -0.544110       -14.8060
  28   2.0000      -0.533265       -14.5109
  29   2.0000      -0.505108       -13.7447
  30   2.0000      -0.482243       -13.1225
  31   2.0000      -0.457321       -12.4443
  32   2.0000      -0.430997       -11.7280
  33   2.0000      -0.309763        -8.4291
  34   0.0000       0.139147         3.7864
  35   0.0000       0.145107         3.9486
  36   0.0000       0.148851         4.0505
  37   0.0000       0.190195         5.1755
  38   0.0000       0.191065         5.1991

MULLIKEN ATOMIC CHARGES
-----------------------
   0 C :   -0.356814
   1 C :   -0.042656
   2 O :   -0.283293
   3 C :    0.204267
   4 C :   -0.087800
   5 O :   -0.205381
   6 C :    0.261175
   7 C :   -0.403710
   8 N :   -0.318191
   9 H :    0.130710
  10 H :    0.127244
  11 H :    0.130711
  12 H :    0.112796
  13 H :    0.112790
  14 H :    0.156672
  15 H :    0.150114
  16 H :    0.161255
  17 H :    0.150112
Sum of atomic charges:   -0.0000000

LOEWDIN ATOMIC CHARGES
----------------------
   0 C :   -0.316108
   1 C :   -0.313343
   2 O :    0.244090
   3 C :   -0.384832
   4 C :   -0.239424
   5 O :    0.348016
   6 C :   -0.374910
   7 C :   -0.269228
   8 N :    0.128169
   9 H :    0.124522
  10 H :    0.126655
  11 H :    0.124524
  12 H :    0.125202
  13 H :    0.125201
  14 H :    0.133795
  15 H :    0.137543
  16 H :    0.142586
  17 H :    0.137542

  Mayer bond orders larger than 0.1
B(  0-C ,  1-C ) :   0.9411 B(  0-C ,  9-H ) :   0.9344 B(  0-C , 10-H ) :   0.9348
B(  0-C , 11-H ) :   0.9344 B(  1-C ,  2-O ) :   0.8395 B(  1-C , 12-H ) :   0.9283
B(  1-C , 13-H ) :   0.9283 B(  2-O ,  3-C ) :   1.0998 B(  3-C ,  4-C ) :   1.5513
B(  3-C ,  8-N ) :   1.1452 B(  4-C ,  5-O ) :   0.9965 B(  4-C , 14-H ) :   0.9246
B(  5-O ,  6-C ) :   1.1046 B(  6-C ,  7-C ) :   0.8661 B(  6-C ,  8-N ) :   1.6356
B(  7-C , 15-H ) :   0.9285 B(  7-C , 16-H ) :   0.9494 B(  7-C , 17-H ) :   0.9285

MP2 TOTAL ENERGY:     -438.390347065 Eh
FINAL SINGLE POINT ENERGY      -438.390347064964

DIPOLE MOMENT
-------------
                                X             Y             Z
Electronic contribution:      3.39820      -4.51828       4.56343
Nuclear contribution   :     -3.50327       4.32840      -4.71372
                        -----------------------------------------
Total Dipole Moment    :     -0.10507      -0.18987      -0.15029
                        -----------------------------------------
Magnitude (a.u.)       :      0.26397
Magnitude (Debye)      :      0.67096

                             ****ORCA TERMINATED NORMALLY****
TOTAL RUN TIME: 0 days 0 hours 14 minutes 37 seconds 620 msec
