                         Program Version 3.0.3 - RELEASE   -
|  1> ! RI-MP2 RIJK def2-TZVP def2-TZVP/C def2-TZVP/JK TIGHTSCF
|  2> % maxcore 2000
|  3> % mp2 density relaxed end
|  4> *xyz 0 1
|  5>  C       -0.1668079270     1.6017360866     0.0184245377
|  6>  C       -0.0064781727     0.0754902554    -0.0057693195
|  7>  C        0.7645702985    -0.3849921356    -1.2629673270
|  8>  C        2.2598726868    -0.1246658174    -1.1683923981
|  9>  O        2.9380828317     0.2146285793    -2.1086619443
| 10>  C        2.8716083260    -0.3978937915     0.2066160537
| 11>  O        2.0605080651     0.0384127034     1.2799317921
| 12>  C        0.7292177387    -0.4726074124     1.2357804421
| 13>  C        0.0799878258    -0.1294363256     2.5690770098
| 14>  H        0.8015663601     2.0963969514     0.1411801852
| 15>  H       -0.6108817865     1.9553796950    -0.9170886361
| 16>  H       -0.8157116002     1.9276307829     0.8357217952
| 17>  H       -1.0032499597    -0.3831763857    -0.0318741906
| 18>  H        0.6549791891    -1.4744522798    -1.3718188473
| 19>  H        0.3842520896     0.0705841621    -2.1811221479
| 20>  H        3.0601060188    -1.4862196615     0.2760741311
| 21>  H        3.8304628122     0.1188961950     0.2816656774
| 22>  H        0.7764625101    -1.5729055313     1.1394556239
| 23>  H        0.0981719699     0.9486211784     2.7464494932
| 24>  H       -0.9593781739    -0.4706633806     2.5903551153
| 25>  H        0.6219815779    -0.6142508979     3.3849858241
| 26> *
| 27>
| 28>                          ****END OF INPUT****

CARTESIAN COORDINATES (ANGSTROEM)
---------------------------------
  C     -0.166808    1.601736    0.018425
  C     -0.006478    0.075490   -0.005769
  C      0.764570   -0.384992   -1.262967
  C      2.259873   -0.124666   -1.168392
  O      2.938083    0.214629   -2.108662
  C      2.871608   -0.397894    0.206616
  O      2.060508    0.038413    1.279932
  C      0.729218   -0.472607    1.235780
  C      0.079988   -0.129436    2.569077
  H      0.801566    2.096397    0.141180
  H     -0.610882    1.955380   -0.917089
  H     -0.815712    1.927631    0.835722
  H     -1.003250   -0.383176   -0.031874
  H      0.654979   -1.474452   -1.371819
  H      0.384252    0.070584   -2.181122
  H      3.060106   -1.486220    0.276074
  H      3.830463    0.118896    0.281666
  H      0.776463   -1.572906    1.139456
  H      0.098172    0.948621    2.746449
  H     -0.959378   -0.470663    2.590355
  H      0.621982   -0.614251    3.384986

 Total Charge           Charge          ....    0
 Multiplicity           Mult            ....    1
 Number of Electrons    NEL             ....   70
 Basis Dimension        Dim             ....  351

ORBITAL ENERGIES
----------------

  NO   OCC          E(Eh)            E(eV)
   0   2.0000     -20.568139      -559.6875
   1   2.0000     -20.549759      -559.1874
   2   2.0000     -11.331269      -308.3395
   3   2.0000     -11.292325      -307.2798
   4   2.0000     -11.289997      -307.2164
   5   2.0000     -11.246340      -306.0285
   6   2.0000     -11.241526      -305.8975
   7   2.0000     -11.222835      -305.3889
   8   2.0000     -11.221415      -305.3502
   9   2.0000      -1.399710       -38.0880
  10   2.0000      -1.383600       -37.6497
  11   2.0000      -1.105352       -30.0781
  12   2.0000      -1.044804       -28.4306
  13   2.0000      -0.970686       -26.4137
  14   2.0000      -0.942790       -25.6546
  15   2.0000      -0.872342       -23.7376
  16   2.0000      -0.806490       -21.9457
  17   2.0000      -0.739916       -20.1341
  18   2.0000      -0.674963       -18.3667
  19   2.0000      -0.670226       -18.2378
  20   2.0000      -0.648514       -17.6470
  21   2.0000      -0.637476       -17.3466
  22   2.0000      -0.632726       -17.2174
  23   2.0000      -0.592805       -16.1311
  24   2.0000      -0.580677       -15.8010
  25   2.0000      -0.557219       -15.1627
  26   2.0000      -0.542663       -14.7666
  27   2.0000      -0.534824       -14.5533
  28   2.0000      -0.529444       -14.4069
  29   2.0000      -0.510269       -13.8851
  30   2.0000      -0.497084       -13.5263
  31   2.0000      -0.486308       -13.2331
  32   2.0000      -0.460887       -12.5414
  33   2.0000      -0.445855       -12.1323
  34   2.0000      -0.391954       -10.6656
  35   0.0000       0.113040         3.0760
  36   0.0000       0.146925         3.9980
  37   0.0000       0.154340         4.1998
  38   0.0000       0.161935         4.4065
  39   0.0000       0.165263         4.4970

MULLIKEN ATOMIC CHARGES
-----------------------
   0 C :   -0.466269
   1 C :   -0.012718
   2 C :   -0.214360
   3 C :    0.120049
   4 O :   -0.267329
   5 C :   -0.072591
   6 O :   -0.306763
   7 C :    0.076447
   8 C :   -0.406686
   9 H :    0.149679
  10 H :    0.138433
  11 H :    0.139513
  12 H :    0.099685
  13 H :    0.137598
  14 H :    0.138810
  15 H :    0.105722
  16 H :    0.145441
  17 H :    0.082423
  18 H :    0.142874
  19 H :    0.127238
  20 H :    0.142804
Sum of atomic charges:    0.0000000

LOEWDIN ATOMIC CHARGES
----------------------
   0 C :   -0.286727
   1 C :   -0.260605
   2 C :   -0.210129
   3 C :   -0.327083
   4 O :    0.155397
   5 C :   -0.284950
   6 O :    0.181369
   7 C :   -0.324653
   8 C :   -0.286558
   9 H :    0.130571
  10 H :    0.126522
  11 H :    0.124227
  12 H :    0.154988
  13 H :    0.158296
  14 H :    0.149737
  15 H :    0.133980
  16 H :    0.141471
  17 H :    0.139382
  18 H :    0.128454
  19 H :    0.128126
  20 H :    0.128185

  Mayer bond orders larger than 0.1
B(  0-C ,  1-C ) :   0.9068 B(  0-C ,  9-H ) :   0.9252 B(  0-C , 10-H ) :   0.9370
B(  0-C , 11-H ) :   0.9411 B(  1-C ,  2-C ) :   0.8671 B(  1-C ,  7-C ) :   0.9000
B(  1-C , 12-H ) :   0.9182 B(  2-C ,  3-C ) :   0.9270 B(  2-C , 13-H ) :   0.9089
B(  2-C , 14-H ) :   0.9213 B(  3-C ,  4-O ) :   2.0331 B(  3-C ,  5-C ) :   0.8853
B(  5-C ,  6-O ) :   0.9325 B(  5-C , 15-H ) :   0.9074 B(  5-C , 16-H ) :   0.9203
B(  6-O ,  7-C ) :   0.9073 B(  7-C ,  8-C ) :   0.8952 B(  7-C , 17-H ) :   0.9322
B(  8-C , 18-H ) :   0.9414 B(  8-C , 19-H ) :   0.9351 B(  8-C , 20-H ) :   0.9388

MP2 TOTAL ENERGY:     -423.550730135 Eh
FINAL SINGLE POINT ENERGY      -423.550730135137

DIPOLE MOMENT
-------------
                                X             Y             Z
Electronic contribution:      7.14546      -0.96663      -4.79038
Nuclear contribution   :     -8.06955       0.41769       5.32640
                        -----------------------------------------
Total Dipole Moment    :     -0.92409      -0.54894       0.53602
                        -----------------------------------------
Magnitude (a.u.)       :      1.20108
Magnitude (Debye)      :      3.05289

                             ****ORCA TERMINATED NORMALLY****
TOTAL RUN TIME: 0 days 0 hours 19 minutes 45 seconds 323 msec
