                         Program Version 3.0.3 - RELEASE   -
|  1> ! RI-MP2 RIJK def2-TZVP def2-TZVP/C def2-TZVP/JK TIGHTSCF
|  2> % maxcore 2000
|  3> % mp2 density relaxed end
|  4> *xyz 0 1
|  5>  C       -0.1496473891     1.5530786662     0.0583611254
|  6>  C        0.0875549976     0.0395947062     0.0407572798
|  7>  C        0.7817455575    -0.4883274942    -1.2223849362
|  8>  C        2.1964848171     0.0593621231    -1.4097639524
|  9>  C        0.6606677543    -2.0375995248    -1.4137462103
| 10>  C       -0.1680001414    -1.7161570265    -2.6794581367
| 11>  O       -0.7034407721    -2.3487550051    -3.5500389595
| 12>  N       -0.0556501961    -0.3693329446    -2.4397406000
| 13>  H        0.7873599922     2.1179775236     0.0600669911
| 14>  H       -0.7343413007     1.8714699907    -0.8119198217
| 15>  H       -0.7096115283     1.8450781103     0.9515188704
| 16>  H        0.6878747786    -0.2519403106     0.9119527473
| 17>  H       -0.8755491740    -0.4751007986     0.1363293845
| 18>  H        2.8170570235    -0.1665725780    -0.5361602714
| 19>  H        2.6674247261    -0.3851412289    -2.2912703933
| 20>  H        2.1930442439     1.1456279227    -1.5439771766
| 21>  H        1.5982774732    -2.5581287352    -1.6175643789
| 22>  H        0.1085712162    -2.5651322843    -0.6334557673
| 23>  H       -0.3281591885     0.4270152780    -2.9977892442
| 24> *
| 25>
| 26>                          ****END OF INPUT****

CARTESIAN COORDINATES (ANGSTROEM)
---------------------------------
  C     -0.149647    1.553079    0.058361
  C      0.087555    0.039595    0.040757
  C      0.781746   -0.488327   -1.222385
  C      2.196485    0.059362   -1.409764
  C      0.660668   -2.037600   -1.413746
  C     -0.168000   -1.716157   -2.679458
  O     -0.703441   -2.348755   -3.550039
  N     -0.055650   -0.369333   -2.439741
  H      0.787360    2.117978    0.060067
  H     -0.734341    1.871470   -0.811920
  H     -0.709612    1.845078    0.951519
  H      0.687875   -0.251940    0.911953
  H     -0.875549   -0.475101    0.136329
  H      2.817057   -0.166573   -0.536160
  H      2.667425   -0.385141   -2.291270
  H      2.193044    1.145628   -1.543977
  H      1.598277   -2.558129   -1.617564
  H      0.108571   -2.565132   -0.633456
  H     -0.328159    0.427015   -2.997789

 Total Charge           Charge          ....    0
 Multiplicity           Mult            ....    1
 Number of Electrons    NEL             ....   62
 Basis Dimension        Dim             ....  314

ORBITAL ENERGIES
----------------

  NO   OCC          E(Eh)            E(eV)
   0   2.0000     -20.519448      -558.3626
   1   2.0000     -15.577404      -423.8827
   2   2.0000     -11.346525      -308.7546
   3   2.0000     -11.291013      -307.2441
   4   2.0000     -11.242787      -305.9318
   5   2.0000     -11.235223      -305.7260
   6   2.0000     -11.230476      -305.5968
   7   2.0000     -11.227574      -305.5178
   8   2.0000      -1.381757       -37.5995
   9   2.0000      -1.267131       -34.4804
  10   2.0000      -1.070407       -29.1273
  11   2.0000      -1.007205       -27.4074
  12   2.0000      -0.975203       -26.5366
  13   2.0000      -0.884562       -24.0702
  14   2.0000      -0.791086       -21.5265
  15   2.0000      -0.778454       -21.1828
  16   2.0000      -0.662814       -18.0361
  17   2.0000      -0.660714       -17.9789
  18   2.0000      -0.649216       -17.6661
  19   2.0000      -0.618346       -16.8261
  20   2.0000      -0.594385       -16.1740
  21   2.0000      -0.579343       -15.7647
  22   2.0000      -0.552482       -15.0338
  23   2.0000      -0.543452       -14.7881
  24   2.0000      -0.536050       -14.5867
  25   2.0000      -0.519073       -14.1247
  26   2.0000      -0.497630       -13.5412
  27   2.0000      -0.487951       -13.2778
  28   2.0000      -0.473398       -12.8818
  29   2.0000      -0.410631       -11.1738
  30   2.0000      -0.392948       -10.6927
  31   0.0000       0.118306         3.2193
  32   0.0000       0.150020         4.0823
  33   0.0000       0.160176         4.3586
  34   0.0000       0.163425         4.4470
  35   0.0000       0.179769         4.8918

MULLIKEN ATOMIC CHARGES
-----------------------
   0 C :   -0.430414
   1 C :   -0.201772
   2 C :    0.268586
   3 C :   -0.455270
   4 C :   -0.241183
   5 C :    0.198863
   6 O :   -0.314575
   7 N :   -0.371163
   8 H :    0.132787
   9 H :    0.122424
  10 H :    0.143336
  11 H :    0.114332
  12 H :    0.118865
  13 H :    0.135281
  14 H :    0.143956
  15 H :    0.137350
  16 H :    0.133289
  17 H :    0.132396
  18 H :    0.232910
Sum of atomic charges:    0.0000000

LOEWDIN ATOMIC CHARGES
----------------------
   0 C :   -0.315919
   1 C :   -0.256010
   2 C :   -0.301419
   3 C :   -0.271248
   4 C :   -0.164069
   5 C :   -0.441312
   6 O :    0.096685
   7 N :    0.159107
   8 H :    0.120453
   9 H :    0.120157
  10 H :    0.125066
  11 H :    0.142644
  12 H :    0.144320
  13 H :    0.130663
  14 H :    0.130267
  15 H :    0.125734
  16 H :    0.142404
  17 H :    0.142045
  18 H :    0.170432

  Mayer bond orders larger than 0.1
B(  0-C ,  1-C ) :   0.9118 B(  0-C ,  8-H ) :   0.9393 B(  0-C ,  9-H ) :   0.9390
B(  0-C , 10-H ) :   0.9393 B(  1-C ,  2-C ) :   0.9110 B(  1-C , 11-H ) :   0.9291
B(  1-C , 12-H ) :   0.9276 B(  2-C ,  3-C ) :   0.9300 B(  2-C ,  4-C ) :   0.8513
B(  2-C ,  7-N ) :   0.8178 B(  3-C , 13-H ) :   0.9348 B(  3-C , 14-H ) :   0.9323
B(  3-C , 15-H ) :   0.9352 B(  4-C ,  5-C ) :   0.9036 B(  4-C , 16-H ) :   0.9020
B(  4-C , 17-H ) :   0.8978 B(  5-C ,  6-O ) :   2.0385 B(  5-C ,  7-N ) :   1.1644
B(  7-N , 18-H ) :   0.8586

MP2 TOTAL ENERGY:     -364.476854495 Eh
FINAL SINGLE POINT ENERGY      -364.476854495449

DIPOLE MOMENT
-------------
                                X             Y             Z
Electronic contribution:     -3.59897      -6.48951      -7.37246
Nuclear contribution   :      4.29551       7.56278       8.43567
                        -----------------------------------------
Total Dipole Moment    :      0.69654       1.07327       1.06321
                        -----------------------------------------
Magnitude (a.u.)       :      1.66358
Magnitude (Debye)      :      4.22847

                             ****ORCA TERMINATED NORMALLY****
TOTAL RUN TIME: 0 days 0 hours 13 minutes 35 seconds 714 msec
