                         Program Version 3.0.3 - RELEASE   -
|  1> ! RI-MP2 RIJK def2-TZVP def2-TZVP/C def2-TZVP/JK TIGHTSCF
|  2> % maxcore 2000
|  3> % mp2 density relaxed end
|  4> *xyz 0 1
|  5>  N       -0.4746827695     1.2285450312     0.0316485486
|  6>  C       -0.1202085695    -0.0627051061    -0.1962027325
|  7>  O        1.0604421589    -0.3900121754    -0.3239475142
|  8>  C       -1.2284515095    -1.0465826080    -0.2534819052
|  9>  C       -1.1048699858    -2.2062399318    -1.2500903299
| 10>  C       -0.9077946756    -2.4774206281     0.2033916471
| 11>  O        0.3478720758    -2.7785710975     0.7005003873
| 12>  C       -1.9632269353    -3.2172126117     1.0101805466
| 13>  O       -3.2860502733    -3.0003979511     0.5503091983
| 14>  H        0.2535554641     1.9197771484     0.1044755504
| 15>  H       -1.4332752535     1.5147632293     0.1188703924
| 16>  H       -2.2339424946    -0.6929954274    -0.0532496076
| 17>  H       -2.0226966350    -2.5059899666    -1.7438277636
| 18>  H       -0.2151358159    -2.2057511838    -1.8702273965
| 19>  H        0.9539999832    -2.0875891233     0.3679627394
| 20>  H       -1.7004442411    -4.2843145572     1.0216668301
| 21>  H       -1.9244333636    -2.8614871693     2.0446923789
| 22>  H       -3.4365617499    -3.5758459316    -0.2050513596
| 23> *
| 24>
| 25>                          ****END OF INPUT****

CARTESIAN COORDINATES (ANGSTROEM)
---------------------------------
  N     -0.474683    1.228545    0.031649
  C     -0.120209   -0.062705   -0.196203
  O      1.060442   -0.390012   -0.323948
  C     -1.228452   -1.046583   -0.253482
  C     -1.104870   -2.206240   -1.250090
  C     -0.907795   -2.477421    0.203392
  O      0.347872   -2.778571    0.700500
  C     -1.963227   -3.217213    1.010181
  O     -3.286050   -3.000398    0.550309
  H      0.253555    1.919777    0.104476
  H     -1.433275    1.514763    0.118870
  H     -2.233942   -0.692995   -0.053250
  H     -2.022697   -2.505990   -1.743828
  H     -0.215136   -2.205751   -1.870227
  H      0.954000   -2.087589    0.367963
  H     -1.700444   -4.284315    1.021667
  H     -1.924433   -2.861487    2.044692
  H     -3.436562   -3.575846   -0.205051

 Total Charge           Charge          ....    0
 Multiplicity           Mult            ....    1
 Number of Electrons    NEL             ....   70
 Basis Dimension        Dim             ....  333

ORBITAL ENERGIES
----------------

  NO   OCC          E(Eh)            E(eV)
   0   2.0000     -20.568794      -559.7054
   1   2.0000     -20.548704      -559.1587
   2   2.0000     -20.527098      -558.5707
   3   2.0000     -15.594329      -424.3433
   4   2.0000     -11.366123      -309.2879
   5   2.0000     -11.303049      -307.5716
   6   2.0000     -11.283223      -307.0321
   7   2.0000     -11.246469      -306.0320
   8   2.0000     -11.240989      -305.8829
   9   2.0000      -1.397704       -38.0335
  10   2.0000      -1.376685       -37.4615
  11   2.0000      -1.361488       -37.0480
  12   2.0000      -1.222864       -33.2758
  13   2.0000      -1.140764       -31.0418
  14   2.0000      -0.966578       -26.3019
  15   2.0000      -0.908810       -24.7300
  16   2.0000      -0.799494       -21.7553
  17   2.0000      -0.789852       -21.4930
  18   2.0000      -0.738681       -20.1005
  19   2.0000      -0.713655       -19.4195
  20   2.0000      -0.695126       -18.9153
  21   2.0000      -0.679265       -18.4837
  22   2.0000      -0.641492       -17.4559
  23   2.0000      -0.619850       -16.8670
  24   2.0000      -0.609000       -16.5717
  25   2.0000      -0.587860       -15.9965
  26   2.0000      -0.557779       -15.1779
  27   2.0000      -0.553559       -15.0631
  28   2.0000      -0.547974       -14.9111
  29   2.0000      -0.504854       -13.7378
  30   2.0000      -0.479979       -13.0609
  31   2.0000      -0.443246       -12.0613
  32   2.0000      -0.429061       -11.6753
  33   2.0000      -0.419889       -11.4258
  34   2.0000      -0.386582       -10.5194
  35   0.0000       0.123442         3.3590
  36   0.0000       0.129943         3.5359
  37   0.0000       0.164221         4.4687
  38   0.0000       0.170329         4.6349
  39   0.0000       0.179276         4.8784

MULLIKEN ATOMIC CHARGES
-----------------------
   0 N :   -0.466526
   1 C :    0.342166
   2 O :   -0.433502
   3 C :   -0.174423
   4 C :   -0.327610
   5 C :    0.190842
   6 O :   -0.460683
   7 C :   -0.055878
   8 O :   -0.484428
   9 H :    0.263457
  10 H :    0.263213
  11 H :    0.139244
  12 H :    0.130769
  13 H :    0.153306
  14 H :    0.350218
  15 H :    0.126425
  16 H :    0.120688
  17 H :    0.322722
Sum of atomic charges:    0.0000000

LOEWDIN ATOMIC CHARGES
----------------------
   0 N :    0.001136
   1 C :   -0.456728
   2 O :    0.047015
   3 C :   -0.168795
   4 C :   -0.179949
   5 C :   -0.360546
   6 O :    0.040706
   7 C :   -0.296860
   8 O :   -0.035766
   9 H :    0.176400
  10 H :    0.173418
  11 H :    0.155103
  12 H :    0.132589
  13 H :    0.147053
  14 H :    0.184812
  15 H :    0.128800
  16 H :    0.137193
  17 H :    0.174419

  Mayer bond orders larger than 0.1
B(  0-N ,  1-C ) :   1.1925 B(  0-N ,  9-H ) :   0.8538 B(  0-N , 10-H ) :   0.8704
B(  1-C ,  2-O ) :   1.7792 B(  1-C ,  3-C ) :   0.9414 B(  3-C ,  4-C ) :   0.8240
B(  3-C ,  5-C ) :   0.8076 B(  3-C , 11-H ) :   0.8785 B(  4-C ,  5-C ) :   0.9025
B(  4-C , 12-H ) :   0.9187 B(  4-C , 13-H ) :   0.9119 B(  5-C ,  6-O ) :   1.0936
B(  5-C ,  7-C ) :   0.9002 B(  6-O , 14-H ) :   0.7719 B(  7-C ,  8-O ) :   0.9262
B(  7-C , 15-H ) :   0.9436 B(  7-C , 16-H ) :   0.9311 B(  8-O , 17-H ) :   0.8452

MP2 TOTAL ENERGY:     -475.501147373 Eh
FINAL SINGLE POINT ENERGY      -475.501147373326

DIPOLE MOMENT
-------------
                                X             Y             Z
Electronic contribution:      2.76993       1.47437       0.34849
Nuclear contribution   :     -3.77582      -0.69756      -0.78446
                        -----------------------------------------
Total Dipole Moment    :     -1.00589       0.77682      -0.43597
                        -----------------------------------------
Magnitude (a.u.)       :      1.34363
Magnitude (Debye)      :      3.41523

                             ****ORCA TERMINATED NORMALLY****
TOTAL RUN TIME: 0 days 0 hours 15 minutes 38 seconds 560 msec
