                         Program Version 3.0.3 - RELEASE   -
|  1> ! RI-MP2 RIJK def2-TZVP def2-TZVP/C def2-TZVP/JK TIGHTSCF
|  2> % maxcore 2000
|  3> % mp2 density relaxed end
|  4> *xyz 0 1
|  5>  C        0.1396454921     1.4304094803    -0.2054164999
|  6>  C        0.0602392000    -0.0173070382    -0.0634962650
|  7>  C        0.0308632719    -1.2151686995     0.0708417572
|  8>  C       -0.0692559687    -2.6650384524     0.1909362990
|  9>  C       -1.5384371112    -3.1487786369     0.0444894859
| 10>  C       -2.4125878043    -2.6750301612     1.2182120287
| 11>  O       -2.0838114880    -2.7445198961    -1.2004777198
| 12>  C       -1.5598705639    -4.6754151121     0.0126285793
| 13>  O       -0.9456437371    -5.3708788825     0.7787422004
| 14>  H        0.9258627859     1.8450761028     0.4348056345
| 15>  H        0.3655036103     1.7193036151    -1.2376158845
| 16>  H       -0.8031092562     1.9119912714     0.0760484413
| 17>  H        0.5323505929    -3.1423160319    -0.5918012144
| 18>  H        0.3247725569    -3.0180049275     1.1493701648
| 19>  H       -2.3823097412    -1.5832468272     1.2835154335
| 20>  H       -3.4495269511    -2.9853745745     1.0629860906
| 21>  H       -2.0538803095    -3.0943196112     2.1624199334
| 22>  H       -1.9318791308    -1.7946139694    -1.2806227215
| 23>  H       -2.2123910079    -5.0937608689    -0.7843337634
| 24> *
| 25>
| 26>                          ****END OF INPUT****

CARTESIAN COORDINATES (ANGSTROEM)
---------------------------------
  C      0.139645    1.430409   -0.205416
  C      0.060239   -0.017307   -0.063496
  C      0.030863   -1.215169    0.070842
  C     -0.069256   -2.665038    0.190936
  C     -1.538437   -3.148779    0.044489
  C     -2.412588   -2.675030    1.218212
  O     -2.083811   -2.744520   -1.200478
  C     -1.559871   -4.675415    0.012629
  O     -0.945644   -5.370879    0.778742
  H      0.925863    1.845076    0.434806
  H      0.365504    1.719304   -1.237616
  H     -0.803109    1.911991    0.076048
  H      0.532351   -3.142316   -0.591801
  H      0.324773   -3.018005    1.149370
  H     -2.382310   -1.583247    1.283515
  H     -3.449527   -2.985375    1.062986
  H     -2.053880   -3.094320    2.162420
  H     -1.931879   -1.794614   -1.280623
  H     -2.212391   -5.093761   -0.784334

 Total Charge           Charge          ....    0
 Multiplicity           Mult            ....    1
 Number of Electrons    NEL             ....   68
 Basis Dimension        Dim             ....  339

ORBITAL ENERGIES
----------------

  NO   OCC          E(Eh)            E(eV)
   0   2.0000     -20.569826      -559.7334
   1   2.0000     -20.563095      -559.5503
   2   2.0000     -11.333046      -308.3879
   3   2.0000     -11.310538      -307.7754
   4   2.0000     -11.260455      -306.4125
   5   2.0000     -11.256967      -306.3177
   6   2.0000     -11.238278      -305.8091
   7   2.0000     -11.232284      -305.6460
   8   2.0000     -11.229763      -305.5774
   9   2.0000      -1.406076       -38.2613
  10   2.0000      -1.380691       -37.5705
  11   2.0000      -1.097821       -29.8732
  12   2.0000      -1.056160       -28.7396
  13   2.0000      -0.996742       -27.1227
  14   2.0000      -0.938175       -25.5290
  15   2.0000      -0.900944       -24.5159
  16   2.0000      -0.768242       -20.9049
  17   2.0000      -0.712327       -19.3834
  18   2.0000      -0.687536       -18.7088
  19   2.0000      -0.657845       -17.9009
  20   2.0000      -0.638345       -17.3702
  21   2.0000      -0.630807       -17.1651
  22   2.0000      -0.610077       -16.6010
  23   2.0000      -0.602099       -16.3839
  24   2.0000      -0.595189       -16.1959
  25   2.0000      -0.593412       -16.1476
  26   2.0000      -0.561593       -15.2817
  27   2.0000      -0.540542       -14.7089
  28   2.0000      -0.524046       -14.2600
  29   2.0000      -0.519758       -14.1433
  30   2.0000      -0.462990       -12.5986
  31   2.0000      -0.421336       -11.4651
  32   2.0000      -0.381430       -10.3792
  33   2.0000      -0.380491       -10.3537
  34   0.0000       0.120128         3.2688
  35   0.0000       0.123339         3.3562
  36   0.0000       0.151721         4.1285
  37   0.0000       0.173623         4.7245
  38   0.0000       0.178774         4.8647

MULLIKEN ATOMIC CHARGES
-----------------------
   0 C :   -0.480408
   1 C :    0.055210
   2 C :   -0.061914
   3 C :   -0.379220
   4 C :    0.282303
   5 C :   -0.426766
   6 O :   -0.471277
   7 C :    0.073138
   8 O :   -0.266967
   9 H :    0.166923
  10 H :    0.165266
  11 H :    0.161740
  12 H :    0.151912
  13 H :    0.166990
  14 H :    0.143365
  15 H :    0.142963
  16 H :    0.142476
  17 H :    0.330472
  18 H :    0.103794
Sum of atomic charges:   -0.0000000

LOEWDIN ATOMIC CHARGES
----------------------
   0 C :   -0.293814
   1 C :   -0.109933
   2 C :   -0.097846
   3 C :   -0.211379
   4 C :   -0.401898
   5 C :   -0.264281
   6 O :    0.018838
   7 C :   -0.243007
   8 O :    0.145474
   9 H :    0.143579
  10 H :    0.141643
  11 H :    0.140781
  12 H :    0.163939
  13 H :    0.165998
  14 H :    0.132087
  15 H :    0.130709
  16 H :    0.134311
  17 H :    0.184234
  18 H :    0.120564

  Mayer bond orders larger than 0.1
B(  0-C ,  1-C ) :   0.8609 B(  0-C ,  9-H ) :   0.9460 B(  0-C , 10-H ) :   0.9477
B(  0-C , 11-H ) :   0.9446 B(  1-C ,  2-C ) :   2.6906 B(  2-C ,  3-C ) :   1.0011
B(  3-C ,  4-C ) :   0.9110 B(  3-C , 12-H ) :   0.9144 B(  3-C , 13-H ) :   0.9368
B(  4-C ,  5-C ) :   0.9101 B(  4-C ,  6-O ) :   0.9566 B(  4-C ,  7-C ) :   0.7977
B(  5-C , 14-H ) :   0.9228 B(  5-C , 15-H ) :   0.9317 B(  5-C , 16-H ) :   0.9249
B(  6-O , 17-H ) :   0.8274 B(  7-C ,  8-O ) :   1.9880 B(  7-C , 18-H ) :   0.9314

MP2 TOTAL ENERGY:     -422.302828638 Eh
FINAL SINGLE POINT ENERGY      -422.302828637579

DIPOLE MOMENT
-------------
                                X             Y             Z
Electronic contribution:      0.76787      -6.76456      -1.38945
Nuclear contribution   :     -0.85632       8.03672       1.32385
                        -----------------------------------------
Total Dipole Moment    :     -0.08845       1.27215      -0.06560
                        -----------------------------------------
Magnitude (a.u.)       :      1.27691
Magnitude (Debye)      :      3.24564

                             ****ORCA TERMINATED NORMALLY****
TOTAL RUN TIME: 0 days 0 hours 17 minutes 51 seconds 344 msec
