                         Program Version 3.0.3 - RELEASE   -
|  1> ! RI-MP2 RIJK def2-TZVP def2-TZVP/C def2-TZVP/JK TIGHTSCF
|  2> % maxcore 2000
|  3> % mp2 density relaxed end
|  4> *xyz 0 1
|  5>  O       -0.0681317087     0.0466306295    -0.2758723132
|  6>  C       -0.0261544006     1.1847184144     0.1170666792
|  7>  C        1.2251645851     2.0010658828     0.0683794565
|  8>  C        1.2500671121     3.4801906830    -0.1387535610
|  9>  O        0.0458302074     4.0879133697     0.3964799548
| 10>  C        0.4341396757     3.7197098202     1.6881249773
| 11>  O       -0.0821884019     4.0201228581     2.7099009183
| 12>  C        1.6537465404     2.9678658511     1.2090047633
| 13>  H       -0.9170724649     1.6912859002     0.5366753906
| 14>  H        2.0705266628     1.4651317745    -0.3549820573
| 15>  H        1.7897580089     4.0255253231    -0.8994803497
| 16>  H        2.6072854237     2.8736938835     1.7063338212
| 17> *
| 18>
| 19>                          ****END OF INPUT****

CARTESIAN COORDINATES (ANGSTROEM)
---------------------------------
  O     -0.068132    0.046631   -0.275872
  C     -0.026154    1.184718    0.117067
  C      1.225165    2.001066    0.068379
  C      1.250067    3.480191   -0.138754
  O      0.045830    4.087913    0.396480
  C      0.434140    3.719710    1.688125
  O     -0.082188    4.020123    2.709901
  C      1.653747    2.967866    1.209005
  H     -0.917072    1.691286    0.536675
  H      2.070527    1.465132   -0.354982
  H      1.789758    4.025525   -0.899480
  H      2.607285    2.873694    1.706334

 Total Charge           Charge          ....    0
 Multiplicity           Mult            ....    1
 Number of Electrons    NEL             ....   58
 Basis Dimension        Dim             ....  272

ORBITAL ENERGIES
----------------

  NO   OCC          E(Eh)            E(eV)
   0   2.0000     -20.626827      -561.2845
   1   2.0000     -20.581305      -560.0458
   2   2.0000     -20.576546      -559.9163
   3   2.0000     -11.414923      -310.6158
   4   2.0000     -11.355400      -308.9961
   5   2.0000     -11.353632      -308.9480
   6   2.0000     -11.302719      -307.5626
   7   2.0000     -11.301119      -307.5191
   8   2.0000      -1.494358       -40.6635
   9   2.0000      -1.416291       -38.5392
  10   2.0000      -1.411246       -38.4020
  11   2.0000      -1.187538       -32.3145
  12   2.0000      -0.973858       -26.5000
  13   2.0000      -0.923064       -25.1179
  14   2.0000      -0.821647       -22.3581
  15   2.0000      -0.776826       -21.1385
  16   2.0000      -0.749527       -20.3957
  17   2.0000      -0.731907       -19.9162
  18   2.0000      -0.700901       -19.0725
  19   2.0000      -0.655179       -17.8283
  20   2.0000      -0.633279       -17.2324
  21   2.0000      -0.621810       -16.9203
  22   2.0000      -0.585988       -15.9456
  23   2.0000      -0.580393       -15.7933
  24   2.0000      -0.531477       -14.4622
  25   2.0000      -0.494165       -13.4469
  26   2.0000      -0.477518       -12.9939
  27   2.0000      -0.457421       -12.4471
  28   2.0000      -0.430267       -11.7082
  29   0.0000       0.103777         2.8239
  30   0.0000       0.124577         3.3899
  31   0.0000       0.137595         3.7441
  32   0.0000       0.161656         4.3989
  33   0.0000       0.171921         4.6782

MULLIKEN ATOMIC CHARGES
-----------------------
   0 O :   -0.251712
   1 C :    0.092700
   2 C :   -0.124710
   3 C :    0.095729
   4 O :   -0.260518
   5 C :    0.261833
   6 O :   -0.231702
   7 C :   -0.211089
   8 H :    0.124729
   9 H :    0.153016
  10 H :    0.173545
  11 H :    0.178178
Sum of atomic charges:    0.0000000

LOEWDIN ATOMIC CHARGES
----------------------
   0 O :    0.145400
   1 C :   -0.270723
   2 C :   -0.160406
   3 C :   -0.189044
   4 O :    0.238972
   5 C :   -0.426740
   6 O :    0.184698
   7 C :   -0.118537
   8 H :    0.127308
   9 H :    0.170839
  10 H :    0.144902
  11 H :    0.153332

  Mayer bond orders larger than 0.1
B(  0-O ,  1-C ) :   1.9673 B(  1-C ,  2-C ) :   0.9134 B(  1-C ,  8-H ) :   0.9286
B(  2-C ,  3-C ) :   0.8570 B(  2-C ,  7-C ) :   0.7910 B(  2-C ,  9-H ) :   0.9081
B(  3-C ,  4-O ) :   0.9010 B(  3-C ,  7-C ) :   0.8360 B(  3-C , 10-H ) :   0.9086
B(  4-O ,  5-C ) :   1.0180 B(  5-C ,  6-O ) :   2.0666 B(  5-C ,  7-C ) :   0.9405
B(  7-C , 11-H ) :   0.8993

MP2 TOTAL ENERGY:     -417.798974991 Eh
FINAL SINGLE POINT ENERGY      -417.798974990742

DIPOLE MOMENT
-------------
                                X             Y             Z
Electronic contribution:     -1.87463       0.96681       1.24668
Nuclear contribution   :      3.22682      -0.64216      -1.79643
                        -----------------------------------------
Total Dipole Moment    :      1.35219       0.32465      -0.54975
                        -----------------------------------------
Magnitude (a.u.)       :      1.49534
Magnitude (Debye)      :      3.80085

                             ****ORCA TERMINATED NORMALLY****
TOTAL RUN TIME: 0 days 0 hours 8 minutes 13 seconds 595 msec
