                         Program Version 3.0.3 - RELEASE   -
|  1> ! RI-MP2 RIJK def2-TZVP def2-TZVP/C def2-TZVP/JK TIGHTSCF
|  2> % maxcore 2000
|  3> % mp2 density relaxed end
|  4> *xyz 0 1
|  5>  C       -0.0863724491     1.4011365521    -0.2539972755
|  6>  O       -0.0599277437     0.0069979124     0.0069072245
|  7>  C       -1.3399065276    -0.5775994087     0.0624468294
|  8>  C       -1.6842291639    -1.2853129798    -1.2928500291
|  9>  O       -1.0535743727    -0.7810400372    -2.4354375132
| 10>  C       -1.1795798449    -2.6265770629    -0.6911462059
| 11>  C       -1.2886991891    -1.9901969929     0.7328307797
| 12>  C       -0.2584800687    -2.2669661038     1.7093211273
| 13>  C        0.5979663853    -2.5128211947     2.5164321712
| 14>  H        0.9520458407     1.7406630148    -0.2676441456
| 15>  H       -0.5550132691     1.6277228348    -1.2202224977
| 16>  H       -0.6271934615     1.9400240098     0.5372690297
| 17>  H       -2.0711616099     0.1276032993     0.4765446202
| 18>  H       -2.7588207204    -1.2973123818    -1.4950984081
| 19>  H       -0.1370740618    -0.6181093250    -2.1767323534
| 20>  H       -1.7621758731    -3.5295932181    -0.8814921781
| 21>  H       -0.1362859836    -2.8072182421    -0.9604069228
| 22>  H       -2.2740318646    -2.2008061690     1.1627636005
| 23>  H        1.3581250978    -2.7232686670     3.2269730968
| 24> *
| 25>
| 26>                          ****END OF INPUT****

CARTESIAN COORDINATES (ANGSTROEM)
---------------------------------
  C     -0.086372    1.401137   -0.253997
  O     -0.059928    0.006998    0.006907
  C     -1.339907   -0.577599    0.062447
  C     -1.684229   -1.285313   -1.292850
  O     -1.053574   -0.781040   -2.435438
  C     -1.179580   -2.626577   -0.691146
  C     -1.288699   -1.990197    0.732831
  C     -0.258480   -2.266966    1.709321
  C      0.597966   -2.512821    2.516432
  H      0.952046    1.740663   -0.267644
  H     -0.555013    1.627723   -1.220222
  H     -0.627193    1.940024    0.537269
  H     -2.071162    0.127603    0.476545
  H     -2.758821   -1.297312   -1.495098
  H     -0.137074   -0.618109   -2.176732
  H     -1.762176   -3.529593   -0.881492
  H     -0.136286   -2.807218   -0.960407
  H     -2.274032   -2.200806    1.162764
  H      1.358125   -2.723269    3.226973

 Total Charge           Charge          ....    0
 Multiplicity           Mult            ....    1
 Number of Electrons    NEL             ....   68
 Basis Dimension        Dim             ....  339

ORBITAL ENERGIES
----------------

  NO   OCC          E(Eh)            E(eV)
   0   2.0000     -20.569609      -559.7275
   1   2.0000     -20.559036      -559.4398
   2   2.0000     -11.292922      -307.2960
   3   2.0000     -11.285398      -307.0913
   4   2.0000     -11.279104      -306.9200
   5   2.0000     -11.259683      -306.3915
   6   2.0000     -11.232253      -305.6451
   7   2.0000     -11.229714      -305.5761
   8   2.0000     -11.217195      -305.2354
   9   2.0000      -1.397471       -38.0271
  10   2.0000      -1.362574       -37.0775
  11   2.0000      -1.135979       -30.9115
  12   2.0000      -1.024344       -27.8738
  13   2.0000      -0.952904       -25.9298
  14   2.0000      -0.912079       -24.8189
  15   2.0000      -0.885056       -24.0836
  16   2.0000      -0.792738       -21.5715
  17   2.0000      -0.723432       -19.6856
  18   2.0000      -0.715750       -19.4765
  19   2.0000      -0.684063       -18.6143
  20   2.0000      -0.660504       -17.9732
  21   2.0000      -0.623929       -16.9780
  22   2.0000      -0.609679       -16.5902
  23   2.0000      -0.602825       -16.4037
  24   2.0000      -0.592623       -16.1261
  25   2.0000      -0.573465       -15.6048
  26   2.0000      -0.521437       -14.1890
  27   2.0000      -0.513213       -13.9652
  28   2.0000      -0.489228       -13.3126
  29   2.0000      -0.482569       -13.1314
  30   2.0000      -0.446148       -12.1403
  31   2.0000      -0.406625       -11.0648
  32   2.0000      -0.377723       -10.2784
  33   2.0000      -0.375807       -10.2262
  34   0.0000       0.132727         3.6117
  35   0.0000       0.148960         4.0534
  36   0.0000       0.159691         4.3454
  37   0.0000       0.167283         4.5520
  38   0.0000       0.180701         4.9171

MULLIKEN ATOMIC CHARGES
-----------------------
   0 C :   -0.244827
   1 O :   -0.328794
   2 C :    0.034139
   3 C :    0.063382
   4 O :   -0.461650
   5 C :   -0.229609
   6 C :   -0.147779
   7 C :   -0.007384
   8 C :   -0.172324
   9 H :    0.144996
  10 H :    0.138550
  11 H :    0.122124
  12 H :    0.086946
  13 H :    0.104842
  14 H :    0.328844
  15 H :    0.126754
  16 H :    0.123841
  17 H :    0.129778
  18 H :    0.188172
Sum of atomic charges:    0.0000000

LOEWDIN ATOMIC CHARGES
----------------------
   0 C :   -0.352504
   1 O :    0.163823
   2 C :   -0.257078
   3 C :   -0.319329
   4 O :   -0.004842
   5 C :   -0.185705
   6 C :   -0.200374
   7 C :   -0.092104
   8 C :   -0.097683
   9 H :    0.115204
  10 H :    0.106395
  11 H :    0.105333
  12 H :    0.127495
  13 H :    0.140864
  14 H :    0.180258
  15 H :    0.127782
  16 H :    0.144972
  17 H :    0.171745
  18 H :    0.125749

  Mayer bond orders larger than 0.1
B(  0-C ,  1-O ) :   0.8780 B(  0-C ,  9-H ) :   0.9390 B(  0-C , 10-H ) :   0.9318
B(  0-C , 11-H ) :   0.9346 B(  1-O ,  2-C ) :   1.0362 B(  1-O ,  6-C ) :  -0.1478
B(  2-C ,  3-C ) :   0.9192 B(  2-C ,  6-C ) :   0.9042 B(  2-C , 12-H ) :   0.9382
B(  3-C ,  4-O ) :   0.9845 B(  3-C ,  5-C ) :   0.9072 B(  3-C , 13-H ) :   0.9342
B(  4-O , 14-H ) :   0.8230 B(  5-C ,  6-C ) :   0.8962 B(  5-C , 15-H ) :   0.9251
B(  5-C , 16-H ) :   0.9072 B(  6-C ,  7-C ) :   1.1415 B(  6-C , 17-H ) :   0.9059
B(  7-C ,  8-C ) :   2.6042 B(  8-C , 18-H ) :   0.8929

MP2 TOTAL ENERGY:     -422.252532800 Eh
FINAL SINGLE POINT ENERGY      -422.252532799780

DIPOLE MOMENT
-------------
                                X             Y             Z
Electronic contribution:      0.72338      -2.71139       1.30234
Nuclear contribution   :     -0.90666       3.06615      -1.01013
                        -----------------------------------------
Total Dipole Moment    :     -0.18329       0.35475       0.29221
                        -----------------------------------------
Magnitude (a.u.)       :      0.49480
Magnitude (Debye)      :      1.25769

                             ****ORCA TERMINATED NORMALLY****
TOTAL RUN TIME: 0 days 0 hours 18 minutes 55 seconds 919 msec
