                         Program Version 3.0.3 - RELEASE   -
|  1> ! RI-MP2 RIJK def2-TZVP def2-TZVP/C def2-TZVP/JK TIGHTSCF
|  2> % maxcore 2000
|  3> % mp2 density relaxed end
|  4> *xyz 0 1
|  5>  O       -3.7623770602     0.9362220394     0.1515782778
|  6>  C       -3.1333182121    -0.2247821152    -0.3406297411
|  7>  C       -2.1704586044    -0.7869477824     0.7129704265
|  8>  O       -2.8619986580    -0.8757825136     1.9688013827
|  9>  C       -1.4889610993    -2.1091874048     0.3941482906
| 10>  C       -0.2603687443    -2.3759902170     1.2479609413
| 11>  O        0.8026190617    -1.5165050017     0.8793621211
| 12>  C       -2.2616721968    -3.2646454317    -0.1391491523
| 13>  N       -1.2890328379    -2.5627705670    -0.9972777678
| 14>  H       -3.9350455637     0.7534102056     1.0854297596
| 15>  H       -3.8803670309    -0.9887470329    -0.6245520273
| 16>  H       -2.5884934067     0.0615236877    -1.2475264703
| 17>  H       -1.3897370792    -0.0388011342     0.8858709032
| 18>  H       -3.4214739638    -1.6613463919     1.9346919024
| 19>  H       -0.4832367278    -2.1675118512     2.2985360502
| 20>  H        0.0274700544    -3.4333682932     1.1558570026
| 21>  H        0.9711339544    -1.6905793860    -0.0548019649
| 22>  H       -1.9789200118    -4.2748552125     0.1443873173
| 23>  H       -3.3195645575    -3.1400100423    -0.3554482528
| 24>  H       -1.7820918762    -1.9638793551    -1.6537319490
| 25> *
| 26>
| 27>                          ****END OF INPUT****

CARTESIAN COORDINATES (ANGSTROEM)
---------------------------------
  O     -3.762377    0.936222    0.151578
  C     -3.133318   -0.224782   -0.340630
  C     -2.170459   -0.786948    0.712970
  O     -2.861999   -0.875783    1.968801
  C     -1.488961   -2.109187    0.394148
  C     -0.260369   -2.375990    1.247961
  O      0.802619   -1.516505    0.879362
  C     -2.261672   -3.264645   -0.139149
  N     -1.289033   -2.562771   -0.997278
  H     -3.935046    0.753410    1.085430
  H     -3.880367   -0.988747   -0.624552
  H     -2.588493    0.061524   -1.247526
  H     -1.389737   -0.038801    0.885871
  H     -3.421474   -1.661346    1.934692
  H     -0.483237   -2.167512    2.298536
  H      0.027470   -3.433368    1.155857
  H      0.971134   -1.690579   -0.054802
  H     -1.978920   -4.274855    0.144387
  H     -3.319565   -3.140010   -0.355448
  H     -1.782092   -1.963879   -1.653732

 Total Charge           Charge          ....    0
 Multiplicity           Mult            ....    1
 Number of Electrons    NEL             ....   72
 Basis Dimension        Dim             ....  345

ORBITAL ENERGIES
----------------

  NO   OCC          E(Eh)            E(eV)
   0   2.0000     -20.580176      -560.0151
   1   2.0000     -20.557795      -559.4060
   2   2.0000     -20.557167      -559.3889
   3   2.0000     -15.581149      -423.9846
   4   2.0000     -11.298673      -307.4525
   5   2.0000     -11.289003      -307.1894
   6   2.0000     -11.283505      -307.0398
   7   2.0000     -11.281603      -306.9880
   8   2.0000     -11.278778      -306.9112
   9   2.0000      -1.393952       -37.9314
  10   2.0000      -1.365884       -37.1676
  11   2.0000      -1.356741       -36.9188
  12   2.0000      -1.282534       -34.8995
  13   2.0000      -1.027395       -27.9568
  14   2.0000      -0.974812       -26.5260
  15   2.0000      -0.901882       -24.5414
  16   2.0000      -0.872224       -23.7344
  17   2.0000      -0.796684       -21.6789
  18   2.0000      -0.743618       -20.2349
  19   2.0000      -0.712976       -19.4011
  20   2.0000      -0.684802       -18.6344
  21   2.0000      -0.665250       -18.1024
  22   2.0000      -0.646274       -17.5860
  23   2.0000      -0.631667       -17.1885
  24   2.0000      -0.614195       -16.7131
  25   2.0000      -0.603269       -16.4158
  26   2.0000      -0.575986       -15.6734
  27   2.0000      -0.554666       -15.0932
  28   2.0000      -0.535753       -14.5786
  29   2.0000      -0.514547       -14.0015
  30   2.0000      -0.494395       -13.4532
  31   2.0000      -0.482360       -13.1257
  32   2.0000      -0.476243       -12.9592
  33   2.0000      -0.456947       -12.4342
  34   2.0000      -0.439343       -11.9551
  35   2.0000      -0.408660       -11.1202
  36   0.0000       0.122058         3.3214
  37   0.0000       0.132050         3.5933
  38   0.0000       0.159140         4.3304
  39   0.0000       0.168053         4.5730
  40   0.0000       0.188494         5.1292

MULLIKEN ATOMIC CHARGES
-----------------------
   0 O :   -0.470989
   1 C :   -0.043778
   2 C :    0.082849
   3 O :   -0.481999
   4 C :   -0.055082
   5 C :    0.005800
   6 O :   -0.472820
   7 C :   -0.213826
   8 N :   -0.381148
   9 H :    0.332272
  10 H :    0.092267
  11 H :    0.112597
  12 H :    0.124538
  13 H :    0.320721
  14 H :    0.122822
  15 H :    0.103592
  16 H :    0.325434
  17 H :    0.134123
  18 H :    0.135332
  19 H :    0.227296
Sum of atomic charges:    0.0000000

LOEWDIN ATOMIC CHARGES
----------------------
   0 O :   -0.040134
   1 C :   -0.347706
   2 C :   -0.317524
   3 O :   -0.020959
   4 C :   -0.316319
   5 C :   -0.302697
   6 O :   -0.038540
   7 C :   -0.245738
   8 N :    0.011284
   9 H :    0.177980
  10 H :    0.115032
  11 H :    0.128965
  12 H :    0.161441
  13 H :    0.176345
  14 H :    0.137985
  15 H :    0.124667
  16 H :    0.179257
  17 H :    0.128988
  18 H :    0.121925
  19 H :    0.165748

  Mayer bond orders larger than 0.1
B(  0-O ,  1-C ) :   0.9612 B(  0-O ,  9-H ) :   0.8192 B(  1-C ,  2-C ) :   0.9129
B(  1-C , 10-H ) :   0.9074 B(  1-C , 11-H ) :   0.9236 B(  2-C ,  3-O ) :   0.8499
B(  2-C ,  4-C ) :   0.9388 B(  2-C , 12-H ) :   0.9056 B(  3-O , 13-H ) :   0.8335
B(  4-C ,  5-C ) :   0.9347 B(  4-C ,  7-C ) :   0.9098 B(  4-C ,  8-N ) :   0.8517
B(  5-C ,  6-O ) :   0.9096 B(  5-C , 14-H ) :   0.9261 B(  5-C , 15-H ) :   0.9086
B(  6-O , 16-H ) :   0.8342 B(  7-C ,  8-N ) :   0.9277 B(  7-C , 17-H ) :   0.9056
B(  7-C , 18-H ) :   0.9226 B(  8-N , 19-H ) :   0.8713

MP2 TOTAL ENERGY:     -476.645267673 Eh
FINAL SINGLE POINT ENERGY      -476.645267672924

DIPOLE MOMENT
-------------
                                X             Y             Z
Electronic contribution:      0.75960       2.05223       1.02956
Nuclear contribution   :     -1.44328      -3.17152      -1.29732
                        -----------------------------------------
Total Dipole Moment    :     -0.68368      -1.11929      -0.26777
                        -----------------------------------------
Magnitude (a.u.)       :      1.33863
Magnitude (Debye)      :      3.40253

                             ****ORCA TERMINATED NORMALLY****
TOTAL RUN TIME: 0 days 0 hours 15 minutes 37 seconds 930 msec
