                         Program Version 3.0.3 - RELEASE   -
|  1> ! RI-MP2 RIJK def2-TZVP def2-TZVP/C def2-TZVP/JK TIGHTSCF
|  2> % maxcore 2000
|  3> % mp2 density relaxed end
|  4> *xyz 0 1
|  5>  C       -0.9856579862     0.3942168860     0.1887543142
|  6>  C        0.4746992801     0.4225041359    -0.2133163169
|  7>  O        1.2719757493     1.1881139879     0.2745105996
|  8>  C        0.9124874465    -0.5447799587    -1.3206164734
|  9>  N        0.2423683210    -1.8267705673    -1.2716761378
| 10>  C        0.7102795960    -2.8176327222    -0.2695798256
| 11>  C        0.6563932963    -3.8791015810    -1.3786686207
| 12>  O        0.7331919369    -5.0678284912    -1.4213403632
| 13>  C        0.4417906786    -2.7592218691    -2.4083585250
| 14>  H       -1.6326828187     0.4120979767    -0.6939348857
| 15>  H       -1.2126504291    -0.5390653354     0.7144378828
| 16>  H       -1.1998050992     1.2423412570     0.8400146178
| 17>  H        0.6486696128    -0.0585118252    -2.2704120680
| 18>  H        2.0137455449    -0.6149560911    -1.2845813730
| 19>  H        1.7410086568    -2.6531148457     0.0851868230
| 20>  H        0.0556354136    -2.9625645285     0.5961419510
| 21>  H       -0.4092015805    -2.8564166036    -3.0906020675
| 22>  H        1.3551888609    -2.5761864143    -2.9972574217
| 23> *
| 24>
| 25>                          ****END OF INPUT****

CARTESIAN COORDINATES (ANGSTROEM)
---------------------------------
  C     -0.985658    0.394217    0.188754
  C      0.474699    0.422504   -0.213316
  O      1.271976    1.188114    0.274511
  C      0.912487   -0.544780   -1.320616
  N      0.242368   -1.826771   -1.271676
  C      0.710280   -2.817633   -0.269580
  C      0.656393   -3.879102   -1.378669
  O      0.733192   -5.067828   -1.421340
  C      0.441791   -2.759222   -2.408359
  H     -1.632683    0.412098   -0.693935
  H     -1.212650   -0.539065    0.714438
  H     -1.199805    1.242341    0.840015
  H      0.648670   -0.058512   -2.270412
  H      2.013746   -0.614956   -1.284581
  H      1.741009   -2.653115    0.085187
  H      0.055635   -2.962565    0.596142
  H     -0.409202   -2.856417   -3.090602
  H      1.355189   -2.576186   -2.997257

 Total Charge           Charge          ....    0
 Multiplicity           Mult            ....    1
 Number of Electrons    NEL             ....   68
 Basis Dimension        Dim             ....  333

ORBITAL ENERGIES
----------------

  NO   OCC          E(Eh)            E(eV)
   0   2.0000     -20.572662      -559.8106
   1   2.0000     -20.553766      -559.2964
   2   2.0000     -15.583850      -424.0581
   3   2.0000     -11.352388      -308.9142
   4   2.0000     -11.339073      -308.5519
   5   2.0000     -11.286129      -307.1112
   6   2.0000     -11.284918      -307.0782
   7   2.0000     -11.280698      -306.9634
   8   2.0000     -11.238110      -305.8045
   9   2.0000      -1.417399       -38.5694
  10   2.0000      -1.398186       -38.0466
  11   2.0000      -1.281872       -34.8815
  12   2.0000      -1.066353       -29.0170
  13   2.0000      -0.998758       -27.1776
  14   2.0000      -0.965565       -26.2743
  15   2.0000      -0.888327       -24.1726
  16   2.0000      -0.757810       -20.6210
  17   2.0000      -0.748440       -20.3661
  18   2.0000      -0.696528       -18.9535
  19   2.0000      -0.690218       -18.7818
  20   2.0000      -0.675601       -18.3840
  21   2.0000      -0.644064       -17.5259
  22   2.0000      -0.632449       -17.2098
  23   2.0000      -0.610211       -16.6047
  24   2.0000      -0.591476       -16.0949
  25   2.0000      -0.585067       -15.9205
  26   2.0000      -0.564319       -15.3559
  27   2.0000      -0.552571       -15.0362
  28   2.0000      -0.535883       -14.5821
  29   2.0000      -0.524814       -14.2809
  30   2.0000      -0.495085       -13.4720
  31   2.0000      -0.427747       -11.6396
  32   2.0000      -0.416491       -11.3333
  33   2.0000      -0.395081       -10.7507
  34   0.0000       0.114828         3.1246
  35   0.0000       0.116887         3.1806
  36   0.0000       0.130826         3.5600
  37   0.0000       0.152584         4.1520
  38   0.0000       0.165714         4.5093

MULLIKEN ATOMIC CHARGES
-----------------------
   0 C :   -0.378256
   1 C :    0.194759
   2 O :   -0.275853
   3 C :   -0.191134
   4 N :   -0.149826
   5 C :   -0.187801
   6 C :    0.152795
   7 O :   -0.236539
   8 C :   -0.166079
   9 H :    0.141965
  10 H :    0.139903
  11 H :    0.151810
  12 H :    0.143478
  13 H :    0.123337
  14 H :    0.132958
  15 H :    0.139167
  16 H :    0.140057
  17 H :    0.125259
Sum of atomic charges:    0.0000000

LOEWDIN ATOMIC CHARGES
----------------------
   0 C :   -0.280263
   1 C :   -0.349704
   2 O :    0.151861
   3 C :   -0.276054
   4 N :    0.090629
   5 C :   -0.221627
   6 C :   -0.309978
   7 O :    0.176618
   8 C :   -0.221257
   9 H :    0.138001
  10 H :    0.139280
  11 H :    0.132629
  12 H :    0.152587
  13 H :    0.134003
  14 H :    0.138808
  15 H :    0.133242
  16 H :    0.134078
  17 H :    0.137147

  Mayer bond orders larger than 0.1
B(  0-C ,  1-C ) :   0.9237 B(  0-C ,  9-H ) :   0.9112 B(  0-C , 10-H ) :   0.9044
B(  0-C , 11-H ) :   0.9313 B(  1-C ,  2-O ) :   2.0340 B(  1-C ,  3-C ) :   0.9033
B(  3-C ,  4-N ) :   0.9053 B(  3-C , 12-H ) :   0.9055 B(  3-C , 13-H ) :   0.9118
B(  4-N ,  5-C ) :   0.9260 B(  4-N ,  8-C ) :   0.9246 B(  5-C ,  6-C ) :   0.9034
B(  5-C , 14-H ) :   0.8958 B(  5-C , 15-H ) :   0.9041 B(  6-C ,  7-O ) :   2.0559
B(  6-C ,  8-C ) :   0.9043 B(  8-C , 16-H ) :   0.9028 B(  8-C , 17-H ) :   0.8973

MP2 TOTAL ENERGY:     -438.354232021 Eh
FINAL SINGLE POINT ENERGY      -438.354232021259

DIPOLE MOMENT
-------------
                                X             Y             Z
Electronic contribution:      2.46965      -3.70375      -0.13268
Nuclear contribution   :     -2.92045       3.89661      -0.34154
                        -----------------------------------------
Total Dipole Moment    :     -0.45079       0.19286      -0.47421
                        -----------------------------------------
Magnitude (a.u.)       :      0.68212
Magnitude (Debye)      :      1.73381

                             ****ORCA TERMINATED NORMALLY****
TOTAL RUN TIME: 0 days 0 hours 16 minutes 3 seconds 961 msec
