                         Program Version 3.0.3 - RELEASE   -
|  1> ! RI-MP2 RIJK def2-TZVP def2-TZVP/C def2-TZVP/JK TIGHTSCF
|  2> % maxcore 2000
|  3> % mp2 density relaxed end
|  4> *xyz 0 1
|  5>  O       -0.3653789883     1.4363627416    -0.3557831149
|  6>  C        0.0553595243     0.1157092607    -0.0222811368
|  7>  C       -1.2082101035    -0.7735068184     0.1789036417
|  8>  C       -1.4402946544    -1.6120093056    -1.1273825704
|  9>  C       -0.1026161043    -1.5048579586    -1.7991713093
| 10>  C        0.6855594046    -0.5973199824    -1.1798320514
| 11>  O        1.8636999384    -0.4538634561    -1.7885770346
| 12>  N        1.8725368532    -1.3278023829    -2.8929820739
| 13>  C        0.7036913412    -1.9346995342    -2.8840147112
| 14>  H        0.4161100449     1.9522598031    -0.5817533769
| 15>  H        0.6864773184     0.1339580064     0.8762891576
| 16>  H       -1.0327490200    -1.4515537146     1.0182074449
| 17>  H       -2.0599058558    -0.1397449942     0.4334886078
| 18>  H       -1.7362826861    -2.6385853492    -0.8915968844
| 19>  H       -2.2379774475    -1.1847710653    -1.7452851068
| 20>  H        0.5036442349    -2.6589279703    -3.6616063013
| 21> *
| 22>
| 23>                          ****END OF INPUT****

CARTESIAN COORDINATES (ANGSTROEM)
---------------------------------
  O     -0.365379    1.436363   -0.355783
  C      0.055360    0.115709   -0.022281
  C     -1.208210   -0.773507    0.178904
  C     -1.440295   -1.612009   -1.127383
  C     -0.102616   -1.504858   -1.799171
  C      0.685559   -0.597320   -1.179832
  O      1.863700   -0.453863   -1.788577
  N      1.872537   -1.327802   -2.892982
  C      0.703691   -1.934700   -2.884015
  H      0.416110    1.952260   -0.581753
  H      0.686477    0.133958    0.876289
  H     -1.032749   -1.451554    1.018207
  H     -2.059906   -0.139745    0.433489
  H     -1.736283   -2.638585   -0.891597
  H     -2.237977   -1.184771   -1.745285
  H      0.503644   -2.658928   -3.661606

 Total Charge           Charge          ....    0
 Multiplicity           Mult            ....    1
 Number of Electrons    NEL             ....   66
 Basis Dimension        Dim             ....  321

ORBITAL ENERGIES
----------------

  NO   OCC          E(Eh)            E(eV)
   0   2.0000     -20.645661      -561.7970
   1   2.0000     -20.572607      -559.8091
   2   2.0000     -15.625554      -425.1929
   3   2.0000     -11.311839      -307.8108
   4   2.0000     -11.299864      -307.4849
   5   2.0000     -11.285909      -307.1052
   6   2.0000     -11.250198      -306.1335
   7   2.0000     -11.243538      -305.9522
   8   2.0000     -11.234775      -305.7138
   9   2.0000      -1.490433       -40.5567
  10   2.0000      -1.377814       -37.4922
  11   2.0000      -1.167514       -31.7697
  12   2.0000      -1.144949       -31.1557
  13   2.0000      -1.007443       -27.4139
  14   2.0000      -0.965502       -26.2726
  15   2.0000      -0.840014       -22.8579
  16   2.0000      -0.817053       -22.2331
  17   2.0000      -0.780637       -21.2422
  18   2.0000      -0.726209       -19.7612
  19   2.0000      -0.711359       -19.3571
  20   2.0000      -0.660496       -17.9730
  21   2.0000      -0.617556       -16.8046
  22   2.0000      -0.610047       -16.6002
  23   2.0000      -0.585841       -15.9415
  24   2.0000      -0.574895       -15.6437
  25   2.0000      -0.552722       -15.0403
  26   2.0000      -0.538783       -14.6610
  27   2.0000      -0.517335       -14.0774
  28   2.0000      -0.492857       -13.4113
  29   2.0000      -0.472651       -12.8615
  30   2.0000      -0.461223       -12.5505
  31   2.0000      -0.426198       -11.5974
  32   2.0000      -0.351863        -9.5747
  33   0.0000       0.111870         3.0441
  34   0.0000       0.133573         3.6347
  35   0.0000       0.150364         4.0916
  36   0.0000       0.162380         4.4186
  37   0.0000       0.173293         4.7155

MULLIKEN ATOMIC CHARGES
-----------------------
   0 O :   -0.467357
   1 C :    0.117748
   2 C :   -0.221264
   3 C :   -0.204536
   4 C :   -0.033841
   5 C :    0.045022
   6 O :   -0.122010
   7 N :   -0.099750
   8 C :   -0.134137
   9 H :    0.322203
  10 H :    0.114031
  11 H :    0.126367
  12 H :    0.140599
  13 H :    0.134304
  14 H :    0.132254
  15 H :    0.150367
Sum of atomic charges:    0.0000000

LOEWDIN ATOMIC CHARGES
----------------------
   0 O :   -0.018427
   1 C :   -0.296519
   2 C :   -0.193172
   3 C :   -0.202159
   4 C :   -0.158429
   5 C :   -0.254664
   6 O :    0.289177
   7 N :    0.043402
   8 C :   -0.241068
   9 H :    0.178694
  10 H :    0.138512
  11 H :    0.141715
  12 H :    0.143024
  13 H :    0.140785
  14 H :    0.145710
  15 H :    0.143420

  Mayer bond orders larger than 0.1
B(  0-O ,  1-C ) :   0.9268 B(  0-O ,  9-H ) :   0.8419 B(  1-C ,  2-C ) :   0.8880
B(  1-C ,  5-C ) :   0.9367 B(  1-C , 10-H ) :   0.9577 B(  2-C ,  3-C ) :   0.9613
B(  2-C , 11-H ) :   0.9217 B(  2-C , 12-H ) :   0.9355 B(  3-C ,  4-C ) :   0.8976
B(  3-C , 13-H ) :   0.9296 B(  3-C , 14-H ) :   0.8955 B(  4-C ,  5-C ) :   1.4190
B(  4-C ,  8-C ) :   1.2030 B(  5-C ,  6-O ) :   1.1449 B(  5-C ,  7-N ) :   0.1026
B(  6-O ,  7-N ) :   0.8762 B(  7-N ,  8-C ) :   1.5961 B(  8-C , 15-H ) :   0.9271

MP2 TOTAL ENERGY:     -437.155457620 Eh
FINAL SINGLE POINT ENERGY      -437.155457620384

DIPOLE MOMENT
-------------
                                X             Y             Z
Electronic contribution:      5.93962       0.82504      -3.65366
Nuclear contribution   :     -6.62098      -1.14267       4.20301
                        -----------------------------------------
Total Dipole Moment    :     -0.68136      -0.31763       0.54936
                        -----------------------------------------
Magnitude (a.u.)       :      0.93109
Magnitude (Debye)      :      2.36664

                             ****ORCA TERMINATED NORMALLY****
TOTAL RUN TIME: 0 days 0 hours 19 minutes 15 seconds 214 msec
