                         Program Version 3.0.3 - RELEASE   -
|  1> ! RI-MP2 RIJK def2-TZVP def2-TZVP/C def2-TZVP/JK TIGHTSCF
|  2> % maxcore 2000
|  3> % mp2 density relaxed end
|  4> *xyz 0 1
|  5>  C       -0.4266640362     1.7075349903    -0.2142761087
|  6>  C       -0.1872505628     0.1977232309    -0.1036335691
|  7>  C        0.8154479657    -0.3804915290    -1.1266210032
|  8>  C        2.2466530317     0.0268890433    -0.7603197189
|  9>  O        3.0854654309    -0.1116356680    -1.9025989753
| 10>  C        0.6334729518    -1.9095726987    -1.2247595631
| 11>  C        1.4830274551    -2.6862104247    -2.2503468797
| 12>  C        1.2041227414    -4.1901803191    -2.1160881298
| 13>  C        1.2356347885    -2.2141517823    -3.6895718283
| 14>  H        0.4852470850     2.2885172892    -0.0439746857
| 15>  H       -0.8047066952     1.9724527326    -1.2078596634
| 16>  H       -1.1657880712     2.0400463198     0.5216117107
| 17>  H        0.1492297722    -0.0513811318     0.9128676361
| 18>  H       -1.1464706484    -0.3177263424    -0.2314970224
| 19>  H        0.5987737493     0.0715100544    -2.1034449829
| 20>  H        2.2623515977     1.0685203623    -0.4075102207
| 21>  H        2.6021592652    -0.6039322982     0.0719756159
| 22>  H        3.9824919275     0.1228423318    -1.6476425532
| 23>  H        0.8146174504    -2.3360604223    -0.2267362668
| 24>  H       -0.4258712352    -2.1088257939    -1.4431318666
| 25>  H        2.5406013763    -2.5122431875    -2.0245317740
| 26>  H        0.1553555840    -4.4191487339    -2.3432253254
| 27>  H        1.8251886229    -4.7710600708    -2.8062860044
| 28>  H        1.4074730640    -4.5477983057    -1.1005276935
| 29>  H        0.1726870199    -2.2890556927    -3.9527337791
| 30>  H        1.5544339475    -1.1786971594    -3.8284844906
| 31>  H        1.7945834218    -2.8310645943    -4.4017181478
| 32> *
| 33>
| 34>                          ****END OF INPUT****

CARTESIAN COORDINATES (ANGSTROEM)
---------------------------------
  C     -0.426664    1.707535   -0.214276
  C     -0.187251    0.197723   -0.103634
  C      0.815448   -0.380492   -1.126621
  C      2.246653    0.026889   -0.760320
  O      3.085465   -0.111636   -1.902599
  C      0.633473   -1.909573   -1.224760
  C      1.483027   -2.686210   -2.250347
  C      1.204123   -4.190180   -2.116088
  C      1.235635   -2.214152   -3.689572
  H      0.485247    2.288517   -0.043975
  H     -0.804707    1.972453   -1.207860
  H     -1.165788    2.040046    0.521612
  H      0.149230   -0.051381    0.912868
  H     -1.146471   -0.317726   -0.231497
  H      0.598774    0.071510   -2.103445
  H      2.262352    1.068520   -0.407510
  H      2.602159   -0.603932    0.071976
  H      3.982492    0.122842   -1.647643
  H      0.814617   -2.336060   -0.226736
  H     -0.425871   -2.108826   -1.443132
  H      2.540601   -2.512243   -2.024532
  H      0.155356   -4.419149   -2.343225
  H      1.825189   -4.771060   -2.806286
  H      1.407473   -4.547798   -1.100528
  H      0.172687   -2.289056   -3.952734
  H      1.554434   -1.178697   -3.828484
  H      1.794583   -2.831065   -4.401718

 Total Charge           Charge          ....    0
 Multiplicity           Mult            ....    1
 Number of Electrons    NEL             ....   74
 Basis Dimension        Dim             ....  387

ORBITAL ENERGIES
----------------

  NO   OCC          E(Eh)            E(eV)
   0   2.0000     -20.552918      -559.2733
   1   2.0000     -11.271157      -306.7038
   2   2.0000     -11.220352      -305.3213
   3   2.0000     -11.218855      -305.2806
   4   2.0000     -11.212556      -305.1092
   5   2.0000     -11.210915      -305.0645
   6   2.0000     -11.209165      -305.0169
   7   2.0000     -11.201251      -304.8015
   8   2.0000     -11.194913      -304.6291
   9   2.0000      -1.357092       -36.9284
  10   2.0000      -1.097181       -29.8558
  11   2.0000      -1.051694       -28.6181
  12   2.0000      -0.977411       -26.5967
  13   2.0000      -0.914725       -24.8909
  14   2.0000      -0.909363       -24.7450
  15   2.0000      -0.851506       -23.1707
  16   2.0000      -0.777488       -21.1565
  17   2.0000      -0.747687       -20.3456
  18   2.0000      -0.690657       -18.7937
  19   2.0000      -0.655754       -17.8440
  20   2.0000      -0.623391       -16.9633
  21   2.0000      -0.601911       -16.3788
  22   2.0000      -0.585804       -15.9406
  23   2.0000      -0.577334       -15.7101
  24   2.0000      -0.560351       -15.2479
  25   2.0000      -0.547570       -14.9001
  26   2.0000      -0.527569       -14.3559
  27   2.0000      -0.523131       -14.2351
  28   2.0000      -0.519975       -14.1492
  29   2.0000      -0.491809       -13.3828
  30   2.0000      -0.486071       -13.2267
  31   2.0000      -0.473539       -12.8856
  32   2.0000      -0.461380       -12.5548
  33   2.0000      -0.454968       -12.3803
  34   2.0000      -0.441694       -12.0191
  35   2.0000      -0.431466       -11.7408
  36   2.0000      -0.421578       -11.4717
  37   0.0000       0.132995         3.6190
  38   0.0000       0.143739         3.9113
  39   0.0000       0.153350         4.1729
  40   0.0000       0.164303         4.4709
  41   0.0000       0.183584         4.9956

MULLIKEN ATOMIC CHARGES
-----------------------
   0 C :   -0.396983
   1 C :   -0.198115
   2 C :   -0.021176
   3 C :   -0.095101
   4 O :   -0.480558
   5 C :   -0.298557
   6 C :    0.055357
   7 C :   -0.384712
   8 C :   -0.441272
   9 H :    0.117531
  10 H :    0.127236
  11 H :    0.134492
  12 H :    0.107516
  13 H :    0.116502
  14 H :    0.092672
  15 H :    0.099857
  16 H :    0.097511
  17 H :    0.312957
  18 H :    0.107811
  19 H :    0.108088
  20 H :    0.083181
  21 H :    0.116619
  22 H :    0.128313
  23 H :    0.122567
  24 H :    0.113107
  25 H :    0.151160
  26 H :    0.123997
Sum of atomic charges:   -0.0000000

LOEWDIN ATOMIC CHARGES
----------------------
   0 C :   -0.320764
   1 C :   -0.269816
   2 C :   -0.260646
   3 C :   -0.323134
   4 O :   -0.045083
   5 C :   -0.229986
   6 C :   -0.310187
   7 C :   -0.299429
   8 C :   -0.298582
   9 H :    0.115991
  10 H :    0.121625
  11 H :    0.121255
  12 H :    0.137287
  13 H :    0.139413
  14 H :    0.156818
  15 H :    0.117072
  16 H :    0.118044
  17 H :    0.170514
  18 H :    0.141089
  19 H :    0.141409
  20 H :    0.150760
  21 H :    0.121068
  22 H :    0.120909
  23 H :    0.119693
  24 H :    0.119785
  25 H :    0.123338
  26 H :    0.121558

  Mayer bond orders larger than 0.1
B(  0-C ,  1-C ) :   0.9265 B(  0-C ,  9-H ) :   0.9386 B(  0-C , 10-H ) :   0.9397
B(  0-C , 11-H ) :   0.9430 B(  1-C ,  2-C ) :   0.8994 B(  1-C , 12-H ) :   0.9234
B(  1-C , 13-H ) :   0.9378 B(  2-C ,  3-C ) :   0.9133 B(  2-C ,  5-C ) :   0.9205
B(  2-C , 14-H ) :   0.9328 B(  3-C ,  4-O ) :   0.9733 B(  3-C , 15-H ) :   0.9291
B(  3-C , 16-H ) :   0.9239 B(  4-O , 17-H ) :   0.8477 B(  5-C ,  6-C ) :   0.9308
B(  5-C , 18-H ) :   0.9250 B(  5-C , 19-H ) :   0.9312 B(  6-C ,  7-C ) :   0.9020
B(  6-C ,  8-C ) :   0.9047 B(  6-C , 20-H ) :   0.9225 B(  7-C , 21-H ) :   0.9338
B(  7-C , 22-H ) :   0.9438 B(  7-C , 23-H ) :   0.9414 B(  8-C , 24-H ) :   0.9326
B(  8-C , 25-H ) :   0.9365 B(  8-C , 26-H ) :   0.9386

MP2 TOTAL ENERGY:     -390.028146322 Eh
FINAL SINGLE POINT ENERGY      -390.028146322349

DIPOLE MOMENT
-------------
                                X             Y             Z
Electronic contribution:      3.99151       1.80235      -0.08244
Nuclear contribution   :     -3.71447      -1.51372       0.62331
                        -----------------------------------------
Total Dipole Moment    :      0.27704       0.28863       0.54087
                        -----------------------------------------
Magnitude (a.u.)       :      0.67275
Magnitude (Debye)      :      1.71000

                             ****ORCA TERMINATED NORMALLY****
TOTAL RUN TIME: 0 days 0 hours 23 minutes 2 seconds 762 msec
