                         Program Version 3.0.3 - RELEASE   -
|  1> ! RI-MP2 RIJK def2-TZVP def2-TZVP/C def2-TZVP/JK TIGHTSCF
|  2> % maxcore 2000
|  3> % mp2 density relaxed end
|  4> *xyz 0 1
|  5>  O        0.1025896223     1.3982589028    -0.1050776740
|  6>  C        0.0221217325    -0.0162643840    -0.1747483452
|  7>  C       -1.3925671045    -0.5376497447     0.1157406256
|  8>  C       -1.4731659093    -2.0289162514     0.0408393502
|  9>  C       -1.6369871779    -2.8705603575    -1.1902974531
| 10>  C       -2.5979832278    -3.0411387615    -0.0274096706
| 11>  C       -1.8661566209    -3.7390882101     1.1104469754
| 12>  O       -0.7742195294    -2.7816837825     1.0497817973
| 13>  H       -0.0369266889     1.6553051254     0.8118425018
| 14>  H        0.3115066084    -0.2830294980    -1.1963369844
| 15>  H        0.7399709204    -0.4982227768     0.5045618613
| 16>  H       -1.7001079802    -0.2095848608     1.1179972654
| 17>  H       -2.0919372752    -0.0953268873    -0.6021400363
| 18>  H       -2.0606409896    -2.3646102328    -2.0525447350
| 19>  H       -0.9063764272    -3.6418941562    -1.4197124421
| 20>  H       -3.6674720539    -2.9053267850    -0.1156470255
| 21>  H       -2.3812605788    -3.6724865542     2.0755515920
| 22>  H       -1.5266193301    -4.7685083053     0.9432674273
| 23> *
| 24>
| 25>                          ****END OF INPUT****

CARTESIAN COORDINATES (ANGSTROEM)
---------------------------------
  O      0.102590    1.398259   -0.105078
  C      0.022122   -0.016264   -0.174748
  C     -1.392567   -0.537650    0.115741
  C     -1.473166   -2.028916    0.040839
  C     -1.636987   -2.870560   -1.190297
  C     -2.597983   -3.041139   -0.027410
  C     -1.866157   -3.739088    1.110447
  O     -0.774220   -2.781684    1.049782
  H     -0.036927    1.655305    0.811843
  H      0.311507   -0.283029   -1.196337
  H      0.739971   -0.498223    0.504562
  H     -1.700108   -0.209585    1.117997
  H     -2.091937   -0.095327   -0.602140
  H     -2.060641   -2.364610   -2.052545
  H     -0.906376   -3.641894   -1.419712
  H     -3.667472   -2.905327   -0.115647
  H     -2.381261   -3.672487    2.075552
  H     -1.526619   -4.768508    0.943267

 Total Charge           Charge          ....    0
 Multiplicity           Mult            ....    1
 Number of Electrons    NEL             ....   62
 Basis Dimension        Dim             ....  308

ORBITAL ENERGIES
----------------

  NO   OCC          E(Eh)            E(eV)
   0   2.0000     -20.553900      -559.3001
   1   2.0000     -20.553787      -559.2970
   2   2.0000     -11.295402      -307.3635
   3   2.0000     -11.285865      -307.1040
   4   2.0000     -11.273001      -306.7539
   5   2.0000     -11.240541      -305.8707
   6   2.0000     -11.234719      -305.7122
   7   2.0000     -11.231583      -305.6269
   8   2.0000      -1.392787       -37.8997
   9   2.0000      -1.357684       -36.9445
  10   2.0000      -1.122298       -30.5393
  11   2.0000      -1.036494       -28.2044
  12   2.0000      -0.938963       -25.5505
  13   2.0000      -0.867942       -23.6179
  14   2.0000      -0.811112       -22.0715
  15   2.0000      -0.736049       -20.0289
  16   2.0000      -0.694376       -18.8949
  17   2.0000      -0.689180       -18.7535
  18   2.0000      -0.649134       -17.6638
  19   2.0000      -0.642864       -17.4932
  20   2.0000      -0.613030       -16.6814
  21   2.0000      -0.589990       -16.0544
  22   2.0000      -0.553135       -15.0516
  23   2.0000      -0.549988       -14.9659
  24   2.0000      -0.528584       -14.3835
  25   2.0000      -0.502590       -13.6762
  26   2.0000      -0.492113       -13.3911
  27   2.0000      -0.466968       -12.7068
  28   2.0000      -0.453488       -12.3400
  29   2.0000      -0.402707       -10.9582
  30   2.0000      -0.374355       -10.1867
  31   0.0000       0.136609         3.7173
  32   0.0000       0.152316         4.1447
  33   0.0000       0.161121         4.3843
  34   0.0000       0.167929         4.5696
  35   0.0000       0.185339         5.0433

MULLIKEN ATOMIC CHARGES
-----------------------
   0 O :   -0.468620
   1 C :   -0.055017
   2 C :   -0.214840
   3 C :    0.166289
   4 C :   -0.280665
   5 C :   -0.187222
   6 C :   -0.016590
   7 O :   -0.342899
   8 H :    0.314344
   9 H :    0.115020
  10 H :    0.125820
  11 H :    0.106707
  12 H :    0.116839
  13 H :    0.133595
  14 H :    0.134654
  15 H :    0.140612
  16 H :    0.106025
  17 H :    0.105948
Sum of atomic charges:    0.0000000

LOEWDIN ATOMIC CHARGES
----------------------
   0 O :   -0.051539
   1 C :   -0.337026
   2 C :   -0.242911
   3 C :   -0.286309
   4 C :   -0.188044
   5 C :   -0.184047
   6 C :   -0.242442
   7 O :    0.157387
   8 H :    0.172925
   9 H :    0.129758
  10 H :    0.121876
  11 H :    0.142456
  12 H :    0.150037
  13 H :    0.143249
  14 H :    0.135686
  15 H :    0.136273
  16 H :    0.123906
  17 H :    0.118766

  Mayer bond orders larger than 0.1
B(  0-O ,  1-C ) :   0.9356 B(  0-O ,  8-H ) :   0.8484 B(  1-C ,  2-C ) :   0.9262
B(  1-C ,  9-H ) :   0.9235 B(  1-C , 10-H ) :   0.9425 B(  2-C ,  3-C ) :   0.9022
B(  2-C , 11-H ) :   0.9222 B(  2-C , 12-H ) :   0.9141 B(  3-C ,  4-C ) :   0.8796
B(  3-C ,  5-C ) :   0.8522 B(  3-C ,  7-O ) :   0.9387 B(  4-C ,  5-C ) :   0.8943
B(  4-C , 13-H ) :   0.9273 B(  4-C , 14-H ) :   0.9090 B(  5-C ,  6-C ) :   0.9679
B(  5-C , 15-H ) :   0.9079 B(  6-C ,  7-O ) :   0.9250 B(  6-C , 16-H ) :   0.9219
B(  6-C , 17-H ) :   0.9129

MP2 TOTAL ENERGY:     -384.256084001 Eh
FINAL SINGLE POINT ENERGY      -384.256084001231

DIPOLE MOMENT
-------------
                                X             Y             Z
Electronic contribution:      0.89300       0.06360       1.25859
Nuclear contribution   :     -1.65512      -0.43142      -1.05086
                        -----------------------------------------
Total Dipole Moment    :     -0.76211      -0.36782       0.20773
                        -----------------------------------------
Magnitude (a.u.)       :      0.87135
Magnitude (Debye)      :      2.21480

                             ****ORCA TERMINATED NORMALLY****
TOTAL RUN TIME: 0 days 0 hours 12 minutes 7 seconds 996 msec
