                         Program Version 3.0.3 - RELEASE   -
|  1> ! RI-MP2 RIJK def2-TZVP def2-TZVP/C def2-TZVP/JK TIGHTSCF
|  2> % maxcore 2000
|  3> % mp2 density relaxed end
|  4> *xyz 0 1
|  5>  C       -0.0561912092     1.4122799768     0.0155668016
|  6>  O       -0.0259508434     0.0060465659     0.0158120344
|  7>  C        0.6249900326    -0.5278345803    -1.1169442161
|  8>  C        0.6094488066    -2.0193166779    -1.0318724568
|  9>  C        0.0610487080    -2.7896573112    -0.0303836179
| 10>  N        0.2852164639    -4.0801127349    -0.3777128187
| 11>  N        0.9464956505    -4.2068993181    -1.5446778503
| 12>  C        1.1498779030    -2.9552995474    -1.9533899608
| 13>  C        1.8676782851    -2.6773627486    -3.2360542143
| 14>  H        0.9577256486     1.8433897381     0.0171876013
| 15>  H       -0.5949665519     1.8098515061    -0.8593869972
| 16>  H       -0.5754980118     1.7287785782     0.9233051527
| 17>  H        0.1251769928    -0.1832508474    -2.0411840103
| 18>  H        1.6626052013    -0.1497760071    -1.1734775163
| 19>  H       -0.4548925612    -2.5110894732     0.8731985726
| 20>  H        0.0196689672    -4.9092430000     0.1244819154
| 21>  H        1.2386597761    -2.1165393164    -3.9375933929
| 22>  H        2.7741492309    -2.0828761279    -3.0710130976
| 23>  H        2.1561107810    -3.6174886047    -3.7106111590
| 24> *
| 25>
| 26>                          ****END OF INPUT****

CARTESIAN COORDINATES (ANGSTROEM)
---------------------------------
  C     -0.056191    1.412280    0.015567
  O     -0.025951    0.006047    0.015812
  C      0.624990   -0.527835   -1.116944
  C      0.609449   -2.019317   -1.031872
  C      0.061049   -2.789657   -0.030384
  N      0.285216   -4.080113   -0.377713
  N      0.946496   -4.206899   -1.544678
  C      1.149878   -2.955300   -1.953390
  C      1.867678   -2.677363   -3.236054
  H      0.957726    1.843390    0.017188
  H     -0.594967    1.809852   -0.859387
  H     -0.575498    1.728779    0.923305
  H      0.125177   -0.183251   -2.041184
  H      1.662605   -0.149776   -1.173478
  H     -0.454893   -2.511089    0.873199
  H      0.019669   -4.909243    0.124482
  H      1.238660   -2.116539   -3.937593
  H      2.774149   -2.082876   -3.071013
  H      2.156111   -3.617489   -3.710611

 Total Charge           Charge          ....    0
 Multiplicity           Mult            ....    1
 Number of Electrons    NEL             ....   68
 Basis Dimension        Dim             ....  339

ORBITAL ENERGIES
----------------

  NO   OCC          E(Eh)            E(eV)
   0   2.0000     -20.560946      -559.4918
   1   2.0000     -15.624113      -425.1537
   2   2.0000     -15.573224      -423.7690
   3   2.0000     -11.285114      -307.0836
   4   2.0000     -11.274712      -306.8005
   5   2.0000     -11.264067      -306.5108
   6   2.0000     -11.250589      -306.1441
   7   2.0000     -11.220961      -305.3379
   8   2.0000     -11.214571      -305.1640
   9   2.0000      -1.382757       -37.6267
  10   2.0000      -1.362042       -37.0630
  11   2.0000      -1.102552       -30.0020
  12   2.0000      -1.066977       -29.0339
  13   2.0000      -0.971350       -26.4318
  14   2.0000      -0.952144       -25.9092
  15   2.0000      -0.889806       -24.2129
  16   2.0000      -0.785790       -21.3824
  17   2.0000      -0.751030       -20.4366
  18   2.0000      -0.730743       -19.8845
  19   2.0000      -0.670109       -18.2346
  20   2.0000      -0.652318       -17.7505
  21   2.0000      -0.630420       -17.1546
  22   2.0000      -0.609892       -16.5960
  23   2.0000      -0.600754       -16.3473
  24   2.0000      -0.556350       -15.1390
  25   2.0000      -0.553930       -15.0732
  26   2.0000      -0.548716       -14.9313
  27   2.0000      -0.531956       -14.4753
  28   2.0000      -0.521439       -14.1891
  29   2.0000      -0.488459       -13.2916
  30   2.0000      -0.446566       -12.1517
  31   2.0000      -0.432517       -11.7694
  32   2.0000      -0.343531        -9.3479
  33   2.0000      -0.329112        -8.9556
  34   0.0000       0.134640         3.6637
  35   0.0000       0.143927         3.9165
  36   0.0000       0.156861         4.2684
  37   0.0000       0.165136         4.4936
  38   0.0000       0.190559         5.1854

MULLIKEN ATOMIC CHARGES
-----------------------
   0 C :   -0.222126
   1 O :   -0.299946
   2 C :   -0.064765
   3 C :    0.017444
   4 C :   -0.103976
   5 N :   -0.106741
   6 N :   -0.207230
   7 C :    0.024549
   8 C :   -0.445208
   9 H :    0.112473
  10 H :    0.112468
  11 H :    0.139806
  12 H :    0.103495
  13 H :    0.103493
  14 H :    0.157136
  15 H :    0.253204
  16 H :    0.135983
  17 H :    0.135979
  18 H :    0.153963
Sum of atomic charges:    0.0000000

LOEWDIN ATOMIC CHARGES
----------------------
   0 C :   -0.359993
   1 O :    0.142532
   2 C :   -0.284578
   3 C :   -0.182785
   4 C :   -0.213693
   5 N :    0.125476
   6 N :    0.038460
   7 C :   -0.283349
   8 C :   -0.276887
   9 H :    0.101990
  10 H :    0.101990
  11 H :    0.113827
  12 H :    0.127535
  13 H :    0.127534
  14 H :    0.141158
  15 H :    0.185904
  16 H :    0.129304
  17 H :    0.129303
  18 H :    0.136272

  Mayer bond orders larger than 0.1
B(  0-C ,  1-O ) :   0.9179 B(  0-C ,  9-H ) :   0.9364 B(  0-C , 10-H ) :   0.9364
B(  0-C , 11-H ) :   0.9399 B(  1-O ,  2-C ) :   0.9868 B(  2-C ,  3-C ) :   0.9180
B(  2-C , 12-H ) :   0.9235 B(  2-C , 13-H ) :   0.9235 B(  3-C ,  4-C ) :   1.4288
B(  3-C ,  7-C ) :   1.2444 B(  4-C ,  5-N ) :   1.2010 B(  4-C ,  6-N ) :   0.1097
B(  4-C , 14-H ) :   0.8963 B(  5-N ,  6-N ) :   1.0585 B(  5-N , 15-H ) :   0.8772
B(  6-N ,  7-C ) :   1.5977 B(  7-C ,  8-C ) :   0.8822 B(  8-C , 16-H ) :   0.9354
B(  8-C , 17-H ) :   0.9354 B(  8-C , 18-H ) :   0.9469

MP2 TOTAL ENERGY:     -418.511444686 Eh
FINAL SINGLE POINT ENERGY      -418.511444686428

DIPOLE MOMENT
-------------
                                X             Y             Z
Electronic contribution:     -1.45515      -7.77253       2.87768
Nuclear contribution   :      1.24572       8.37027      -2.52960
                        -----------------------------------------
Total Dipole Moment    :     -0.20943       0.59774       0.34808
                        -----------------------------------------
Magnitude (a.u.)       :      0.72271
Magnitude (Debye)      :      1.83699

                             ****ORCA TERMINATED NORMALLY****
TOTAL RUN TIME: 0 days 0 hours 18 minutes 48 seconds 774 msec
