                         Program Version 3.0.3 - RELEASE   -
|  1> ! RI-MP2 RIJK def2-TZVP def2-TZVP/C def2-TZVP/JK TIGHTSCF
|  2> % maxcore 2000
|  3> % mp2 density relaxed end
|  4> *xyz 0 1
|  5>  C        0.4129842130     1.6000866917     0.0921871206
|  6>  C       -0.0842279843     0.1562393034    -0.0488229086
|  7>  C        0.5649616178    -0.5596811090    -1.2134252085
|  8>  O        0.3101820435     0.1055992179    -2.4180123865
|  9>  C        1.9236913295    -1.2298132718    -1.0588355738
| 10>  C        0.6751921886    -2.0657694234    -1.3031859658
| 11>  C        0.1359052976    -3.0107707234    -0.2549707442
| 12>  O        0.4697684162    -2.5061105818    -2.6278358875
| 13>  C        1.3296741291    -3.5417927601    -3.0689377829
| 14>  H        1.4917977907     1.6277676923     0.2788359355
| 15>  H        0.2163639310     2.1639814779    -0.8228206966
| 16>  H       -0.0873630443     2.1056122962     0.9237122717
| 17>  H        0.1111666622    -0.3922646919     0.8782002282
| 18>  H       -1.1707373404     0.1536952509    -0.2005241522
| 19>  H        0.2400026969    -0.5865983460    -3.0904305955
| 20>  H        2.6157425252    -1.1080925900    -1.8853905982
| 21>  H        2.3855061481    -1.2755885476    -0.0772004267
| 22>  H        0.2413722130    -2.5941022420     0.7487276831
| 23>  H       -0.9243419029    -3.2170336301    -0.4333547197
| 24>  H        0.6758559766    -3.9642494321    -0.2675256314
| 25>  H        2.3865233483    -3.2650931782    -2.9588645714
| 26>  H        1.1537881177    -4.4781596795    -2.5235619756
| 27>  H        1.1093771073    -3.7067681836    -4.1261418040
| 28> *
| 29>
| 30>                          ****END OF INPUT****

CARTESIAN COORDINATES (ANGSTROEM)
---------------------------------
  C      0.412984    1.600087    0.092187
  C     -0.084228    0.156239   -0.048823
  C      0.564962   -0.559681   -1.213425
  O      0.310182    0.105599   -2.418012
  C      1.923691   -1.229813   -1.058836
  C      0.675192   -2.065769   -1.303186
  C      0.135905   -3.010771   -0.254971
  O      0.469768   -2.506111   -2.627836
  C      1.329674   -3.541793   -3.068938
  H      1.491798    1.627768    0.278836
  H      0.216364    2.163981   -0.822821
  H     -0.087363    2.105612    0.923712
  H      0.111167   -0.392265    0.878200
  H     -1.170737    0.153695   -0.200524
  H      0.240003   -0.586598   -3.090431
  H      2.615743   -1.108093   -1.885391
  H      2.385506   -1.275589   -0.077200
  H      0.241372   -2.594102    0.748728
  H     -0.924342   -3.217034   -0.433355
  H      0.675856   -3.964249   -0.267526
  H      2.386523   -3.265093   -2.958865
  H      1.153788   -4.478160   -2.523562
  H      1.109377   -3.706768   -4.126142

 Total Charge           Charge          ....    0
 Multiplicity           Mult            ....    1
 Number of Electrons    NEL             ....   72
 Basis Dimension        Dim             ....  363

ORBITAL ENERGIES
----------------

  NO   OCC          E(Eh)            E(eV)
   0   2.0000     -20.570623      -559.7551
   1   2.0000     -20.543365      -559.0134
   2   2.0000     -11.288903      -307.1867
   3   2.0000     -11.281496      -306.9851
   4   2.0000     -11.278840      -306.9128
   5   2.0000     -11.224770      -305.4415
   6   2.0000     -11.219428      -305.2962
   7   2.0000     -11.219333      -305.2936
   8   2.0000     -11.204163      -304.8808
   9   2.0000      -1.399039       -38.0698
  10   2.0000      -1.351688       -36.7813
  11   2.0000      -1.126800       -30.6618
  12   2.0000      -1.024664       -27.8825
  13   2.0000      -0.972432       -26.4612
  14   2.0000      -0.939404       -25.5625
  15   2.0000      -0.868048       -23.6208
  16   2.0000      -0.786874       -21.4119
  17   2.0000      -0.753659       -20.5081
  18   2.0000      -0.712649       -19.3922
  19   2.0000      -0.669034       -18.2053
  20   2.0000      -0.644105       -17.5270
  21   2.0000      -0.618810       -16.8387
  22   2.0000      -0.609237       -16.5782
  23   2.0000      -0.584905       -15.9161
  24   2.0000      -0.572345       -15.5743
  25   2.0000      -0.570503       -15.5242
  26   2.0000      -0.558357       -15.1937
  27   2.0000      -0.542985       -14.7754
  28   2.0000      -0.527495       -14.3539
  29   2.0000      -0.512268       -13.9395
  30   2.0000      -0.497731       -13.5439
  31   2.0000      -0.490271       -13.3410
  32   2.0000      -0.475504       -12.9391
  33   2.0000      -0.456147       -12.4124
  34   2.0000      -0.390279       -10.6200
  35   2.0000      -0.371604       -10.1119
  36   0.0000       0.132591         3.6080
  37   0.0000       0.153154         4.1675
  38   0.0000       0.164718         4.4822
  39   0.0000       0.184402         5.0178
  40   0.0000       0.186855         5.0846

MULLIKEN ATOMIC CHARGES
-----------------------
   0 C :   -0.405829
   1 C :   -0.186472
   2 C :    0.181021
   3 O :   -0.472680
   4 C :   -0.343791
   5 C :    0.230479
   6 C :   -0.409698
   7 O :   -0.362575
   8 C :   -0.211132
   9 H :    0.120701
  10 H :    0.149282
  11 H :    0.129065
  12 H :    0.093820
  13 H :    0.108790
  14 H :    0.331139
  15 H :    0.135876
  16 H :    0.126223
  17 H :    0.127836
  18 H :    0.142572
  19 H :    0.131599
  20 H :    0.120771
  21 H :    0.119155
  22 H :    0.143846
Sum of atomic charges:   -0.0000000

LOEWDIN ATOMIC CHARGES
----------------------
   0 C :   -0.309496
   1 C :   -0.249480
   2 C :   -0.330303
   3 O :    0.026774
   4 C :   -0.185552
   5 C :   -0.334695
   6 C :   -0.268975
   7 O :    0.173467
   8 C :   -0.341786
   9 H :    0.121036
  10 H :    0.127880
  11 H :    0.118866
  12 H :    0.138629
  13 H :    0.143389
  14 H :    0.181508
  15 H :    0.139198
  16 H :    0.136096
  17 H :    0.130171
  18 H :    0.132376
  19 H :    0.126269
  20 H :    0.105257
  21 H :    0.105115
  22 H :    0.114255

  Mayer bond orders larger than 0.1
B(  0-C ,  1-C ) :   0.9315 B(  0-C ,  9-H ) :   0.9369 B(  0-C , 10-H ) :   0.9378
B(  0-C , 11-H ) :   0.9401 B(  1-C ,  2-C ) :   0.9117 B(  1-C , 12-H ) :   0.9332
B(  1-C , 13-H ) :   0.9269 B(  2-C ,  3-O ) :   1.0660 B(  2-C ,  4-C ) :   0.8180
B(  2-C ,  5-C ) :   0.8465 B(  3-O , 14-H ) :   0.8085 B(  4-C ,  5-C ) :   0.9355
B(  4-C , 15-H ) :   0.9094 B(  4-C , 16-H ) :   0.9081 B(  5-C ,  6-C ) :   0.8986
B(  5-C ,  7-O ) :   0.8291 B(  6-C , 17-H ) :   0.9323 B(  6-C , 18-H ) :   0.9388
B(  6-C , 19-H ) :   0.9261 B(  7-O ,  8-C ) :   0.8880 B(  8-C , 20-H ) :   0.9343
B(  8-C , 21-H ) :   0.9351 B(  8-C , 22-H ) :   0.9388

MP2 TOTAL ENERGY:     -424.701959573 Eh
FINAL SINGLE POINT ENERGY      -424.701959573471

DIPOLE MOMENT
-------------
                                X             Y             Z
Electronic contribution:     -1.11340       0.22860      -4.81190
Nuclear contribution   :      1.46269      -1.14621       5.07852
                        -----------------------------------------
Total Dipole Moment    :      0.34929      -0.91761       0.26662
                        -----------------------------------------
Magnitude (a.u.)       :      1.01740
Magnitude (Debye)      :      2.58602

                             ****ORCA TERMINATED NORMALLY****
TOTAL RUN TIME: 0 days 0 hours 19 minutes 22 seconds 580 msec
