                         Program Version 3.0.3 - RELEASE   -
|  1> ! RI-MP2 RIJK def2-TZVP def2-TZVP/C def2-TZVP/JK TIGHTSCF
|  2> % maxcore 2000
|  3> % mp2 density relaxed end
|  4> *xyz 0 1
|  5>  C       -0.0510461740     1.5267263765    -0.0688794172
|  6>  C       -0.0351881552     0.0071120607     0.0253835341
|  7>  O       -0.1114534396    -0.5512558541     1.0931751258
|  8>  C        0.0148952277    -0.8169071460    -1.2828818077
|  9>  C        0.6438892776    -2.1934731154    -1.0226951903
| 10>  C       -1.4582581097    -0.9679191556    -1.7359482174
| 11>  N        0.7851524606    -0.0681304947    -2.2914505160
| 12>  C        0.9329601700    -0.4307273157    -3.5960465566
| 13>  O        0.3694641240    -1.3476642177    -4.1553100434
| 14>  H        0.9768213964     1.9069397293    -0.1327067042
| 15>  H       -0.5877748278     1.8870044374    -0.9494022942
| 16>  H       -0.4926901995     1.9286782107     0.8438034513
| 17>  H        0.0964615432    -2.7124115749    -0.2347593814
| 18>  H        0.6187901397    -2.7840854580    -1.9402361757
| 19>  H        1.6833209374    -2.0879161129    -0.6981397639
| 20>  H       -1.9223488596     0.0073112496    -1.9111111215
| 21>  H       -1.4959401767    -1.5381444068    -2.6638975849
| 22>  H       -2.0238582448    -1.4909151503    -0.9606548905
| 23>  H        1.4364788946     0.6265489698    -1.9609012428
| 24>  H        1.6448787957     0.2408224181    -4.1186440334
| 25> *
| 26>
| 27>                          ****END OF INPUT****

CARTESIAN COORDINATES (ANGSTROEM)
---------------------------------
  C     -0.051046    1.526726   -0.068879
  C     -0.035188    0.007112    0.025384
  O     -0.111453   -0.551256    1.093175
  C      0.014895   -0.816907   -1.282882
  C      0.643889   -2.193473   -1.022695
  C     -1.458258   -0.967919   -1.735948
  N      0.785152   -0.068130   -2.291451
  C      0.932960   -0.430727   -3.596047
  O      0.369464   -1.347664   -4.155310
  H      0.976821    1.906940   -0.132707
  H     -0.587775    1.887004   -0.949402
  H     -0.492690    1.928678    0.843803
  H      0.096462   -2.712412   -0.234759
  H      0.618790   -2.784085   -1.940236
  H      1.683321   -2.087916   -0.698140
  H     -1.922349    0.007311   -1.911111
  H     -1.495940   -1.538144   -2.663898
  H     -2.023858   -1.490915   -0.960655
  H      1.436479    0.626549   -1.960901
  H      1.644879    0.240822   -4.118644

 Total Charge           Charge          ....    0
 Multiplicity           Mult            ....    1
 Number of Electrons    NEL             ....   70
 Basis Dimension        Dim             ....  345

ORBITAL ENERGIES
----------------

  NO   OCC          E(Eh)            E(eV)
   0   2.0000     -20.557408      -559.3955
   1   2.0000     -20.533136      -558.7350
   2   2.0000     -15.601342      -424.5341
   3   2.0000     -11.360242      -309.1279
   4   2.0000     -11.344260      -308.6930
   5   2.0000     -11.299177      -307.4662
   6   2.0000     -11.249890      -306.1251
   7   2.0000     -11.226780      -305.4962
   8   2.0000     -11.217557      -305.2452
   9   2.0000      -1.404617       -38.2216
  10   2.0000      -1.393311       -37.9139
  11   2.0000      -1.253965       -34.1221
  12   2.0000      -1.075523       -29.2665
  13   2.0000      -1.018909       -27.7259
  14   2.0000      -0.945145       -25.7187
  15   2.0000      -0.887243       -24.1431
  16   2.0000      -0.813407       -22.1339
  17   2.0000      -0.769420       -20.9370
  18   2.0000      -0.718432       -19.5495
  19   2.0000      -0.674144       -18.3444
  20   2.0000      -0.648650       -17.6507
  21   2.0000      -0.636121       -17.3097
  22   2.0000      -0.615283       -16.7427
  23   2.0000      -0.609954       -16.5977
  24   2.0000      -0.602180       -16.3862
  25   2.0000      -0.581829       -15.8324
  26   2.0000      -0.561100       -15.2683
  27   2.0000      -0.543534       -14.7903
  28   2.0000      -0.533210       -14.5094
  29   2.0000      -0.524277       -14.2663
  30   2.0000      -0.511655       -13.9228
  31   2.0000      -0.493680       -13.4337
  32   2.0000      -0.443854       -12.0779
  33   2.0000      -0.415009       -11.2930
  34   2.0000      -0.406106       -11.0507
  35   0.0000       0.108113         2.9419
  36   0.0000       0.129305         3.5186
  37   0.0000       0.153083         4.1656
  38   0.0000       0.162281         4.4159
  39   0.0000       0.168001         4.5715

MULLIKEN ATOMIC CHARGES
-----------------------
   0 C :   -0.459777
   1 C :    0.184936
   2 O :   -0.271969
   3 C :    0.180782
   4 C :   -0.403576
   5 C :   -0.431916
   6 N :   -0.327756
   7 C :    0.198212
   8 O :   -0.364571
   9 H :    0.147031
  10 H :    0.166389
  11 H :    0.163917
  12 H :    0.150237
  13 H :    0.168062
  14 H :    0.120287
  15 H :    0.127611
  16 H :    0.183833
  17 H :    0.148085
  18 H :    0.234955
  19 H :    0.085229
Sum of atomic charges:   -0.0000000

LOEWDIN ATOMIC CHARGES
----------------------
   0 C :   -0.284493
   1 C :   -0.311132
   2 O :    0.170292
   3 C :   -0.317180
   4 C :   -0.261154
   5 C :   -0.251827
   6 N :    0.122206
   7 C :   -0.434604
   8 O :    0.062920
   9 H :    0.136924
  10 H :    0.134115
  11 H :    0.138904
  12 H :    0.134382
  13 H :    0.134880
  14 H :    0.126132
  15 H :    0.126367
  16 H :    0.138719
  17 H :    0.134391
  18 H :    0.188157
  19 H :    0.112002

  Mayer bond orders larger than 0.1
B(  0-C ,  1-C ) :   0.9178 B(  0-C ,  9-H ) :   0.9069 B(  0-C , 10-H ) :   0.9269
B(  0-C , 11-H ) :   0.9310 B(  1-C ,  2-O ) :   2.0175 B(  1-C ,  3-C ) :   0.8246
B(  3-C ,  4-C ) :   0.9370 B(  3-C ,  5-C ) :   0.8997 B(  3-C ,  6-N ) :   0.7762
B(  4-C , 12-H ) :   0.9259 B(  4-C , 13-H ) :   0.9296 B(  4-C , 14-H ) :   0.9282
B(  5-C , 15-H ) :   0.9200 B(  5-C , 16-H ) :   0.9220 B(  5-C , 17-H ) :   0.9314
B(  6-N ,  7-C ) :   1.1546 B(  6-N , 18-H ) :   0.8680 B(  7-C ,  8-O ) :   1.8701
B(  7-C , 19-H ) :   0.9279

MP2 TOTAL ENERGY:     -439.610968212 Eh
FINAL SINGLE POINT ENERGY      -439.610968211723

DIPOLE MOMENT
-------------
                                X             Y             Z
Electronic contribution:      1.73297      -0.58814      -1.01276
Nuclear contribution   :     -1.30648       1.80913       1.21354
                        -----------------------------------------
Total Dipole Moment    :      0.42649       1.22099       0.20078
                        -----------------------------------------
Magnitude (a.u.)       :      1.30882
Magnitude (Debye)      :      3.32676

                             ****ORCA TERMINATED NORMALLY****
TOTAL RUN TIME: 0 days 0 hours 21 minutes 15 seconds 251 msec
