                         Program Version 3.0.3 - RELEASE   -
|  1> ! RI-MP2 RIJK def2-TZVP def2-TZVP/C def2-TZVP/JK TIGHTSCF
|  2> % maxcore 2000
|  3> % mp2 density relaxed end
|  4> *xyz 0 1
|  5>  N       -0.0590421033     1.5802087839    -0.2293364493
|  6>  C       -0.0604397349     0.1419095081     0.0530912154
|  7>  C        0.3929723397    -0.1555705749     1.5045757698
|  8>  C       -0.2615057730    -1.5069192368     1.8088077382
|  9>  C       -1.6832576136    -1.3444863514     1.2377514513
| 10>  O       -2.5323870695    -0.6328679404     2.1353833845
| 11>  C       -1.5078166319    -0.4443437980    -0.0065152739
| 12>  C        0.8154168973    -0.5958608049    -0.8894133499
| 13>  N        1.5091795990    -1.1358654795    -1.6419066694
| 14>  H        0.8911925052     1.9402688547    -0.1860823507
| 15>  H       -0.3793180604     1.7467992509    -1.1799810834
| 16>  H        1.4792321981    -0.1476834634     1.6206898457
| 17>  H       -0.0380708449     0.6255968223     2.1368145537
| 18>  H        0.2635859968    -2.3132272372     1.2830449898
| 19>  H       -0.2690473148    -1.7574695727     2.8738582138
| 20>  H       -2.1339932858    -2.3114763409     0.9783341247
| 21>  H       -2.6474606391    -1.1719437280     2.9247606950
| 22>  H       -2.2191110976     0.3817000138     0.0553543242
| 23>  H       -1.6847337474    -0.9876881556    -0.9362642596
| 24> *
| 25>
| 26>                          ****END OF INPUT****

CARTESIAN COORDINATES (ANGSTROEM)
---------------------------------
  N     -0.059042    1.580209   -0.229336
  C     -0.060440    0.141910    0.053091
  C      0.392972   -0.155571    1.504576
  C     -0.261506   -1.506919    1.808808
  C     -1.683258   -1.344486    1.237751
  O     -2.532387   -0.632868    2.135383
  C     -1.507817   -0.444344   -0.006515
  C      0.815417   -0.595861   -0.889413
  N      1.509180   -1.135865   -1.641907
  H      0.891193    1.940269   -0.186082
  H     -0.379318    1.746799   -1.179981
  H      1.479232   -0.147683    1.620690
  H     -0.038071    0.625597    2.136815
  H      0.263586   -2.313227    1.283045
  H     -0.269047   -1.757470    2.873858
  H     -2.133993   -2.311476    0.978334
  H     -2.647461   -1.171944    2.924761
  H     -2.219111    0.381700    0.055354
  H     -1.684734   -0.987688   -0.936264

 Total Charge           Charge          ....    0
 Multiplicity           Mult            ....    1
 Number of Electrons    NEL             ....   68
 Basis Dimension        Dim             ....  339

ORBITAL ENERGIES
----------------

  NO   OCC          E(Eh)            E(eV)
   0   2.0000     -20.565561      -559.6174
   1   2.0000     -15.568696      -423.6458
   2   2.0000     -15.567522      -423.6138
   3   2.0000     -11.314788      -307.8910
   4   2.0000     -11.294882      -307.3494
   5   2.0000     -11.267688      -306.6094
   6   2.0000     -11.241642      -305.9006
   7   2.0000     -11.240236      -305.8624
   8   2.0000     -11.237458      -305.7868
   9   2.0000      -1.372517       -37.3481
  10   2.0000      -1.239547       -33.7298
  11   2.0000      -1.200707       -32.6729
  12   2.0000      -1.112344       -30.2684
  13   2.0000      -0.989738       -26.9321
  14   2.0000      -0.967224       -26.3195
  15   2.0000      -0.842536       -22.9266
  16   2.0000      -0.803797       -21.8724
  17   2.0000      -0.719208       -19.5706
  18   2.0000      -0.701626       -19.0922
  19   2.0000      -0.676849       -18.4180
  20   2.0000      -0.667409       -18.1611
  21   2.0000      -0.637841       -17.3565
  22   2.0000      -0.575232       -15.6529
  23   2.0000      -0.568312       -15.4646
  24   2.0000      -0.561052       -15.2670
  25   2.0000      -0.542543       -14.7634
  26   2.0000      -0.527011       -14.3407
  27   2.0000      -0.512277       -13.9398
  28   2.0000      -0.510853       -13.9010
  29   2.0000      -0.481191       -13.0939
  30   2.0000      -0.467146       -12.7117
  31   2.0000      -0.449491       -12.2313
  32   2.0000      -0.444932       -12.1072
  33   2.0000      -0.425337       -11.5740
  34   0.0000       0.118736         3.2310
  35   0.0000       0.128565         3.4984
  36   0.0000       0.161688         4.3998
  37   0.0000       0.163551         4.4504
  38   0.0000       0.173227         4.7137

MULLIKEN ATOMIC CHARGES
-----------------------
   0 N :   -0.534166
   1 C :    0.358451
   2 C :   -0.184533
   3 C :   -0.293029
   4 C :    0.019240
   5 O :   -0.458055
   6 C :   -0.231446
   7 C :   -0.333918
   8 N :   -0.052842
   9 H :    0.236376
  10 H :    0.237939
  11 H :    0.139460
  12 H :    0.132696
  13 H :    0.132521
  14 H :    0.127005
  15 H :    0.103356
  16 H :    0.313705
  17 H :    0.138098
  18 H :    0.149142
Sum of atomic charges:    0.0000000

LOEWDIN ATOMIC CHARGES
----------------------
   0 N :   -0.101568
   1 C :   -0.335892
   2 C :   -0.200836
   3 C :   -0.241875
   4 C :   -0.325755
   5 O :   -0.022020
   6 C :   -0.167562
   7 C :   -0.169170
   8 N :    0.054695
   9 H :    0.163015
  10 H :    0.163238
  11 H :    0.141477
  12 H :    0.153243
  13 H :    0.146797
  14 H :    0.135336
  15 H :    0.131172
  16 H :    0.173531
  17 H :    0.156322
  18 H :    0.145854

  Mayer bond orders larger than 0.1
B(  0-N ,  1-C ) :   0.9043 B(  0-N ,  9-H ) :   0.8903 B(  0-N , 10-H ) :   0.8934
B(  1-C ,  2-C ) :   0.8598 B(  1-C ,  6-C ) :   0.8705 B(  1-C ,  7-C ) :   0.9508
B(  2-C ,  3-C ) :   0.9369 B(  2-C , 11-H ) :   0.9170 B(  2-C , 12-H ) :   0.9252
B(  3-C ,  4-C ) :   0.9597 B(  3-C , 13-H ) :   0.9152 B(  3-C , 14-H ) :   0.9268
B(  4-C ,  5-O ) :   1.0176 B(  4-C ,  6-C ) :   0.9201 B(  4-C , 15-H ) :   0.9397
B(  5-O , 16-H ) :   0.8447 B(  6-C , 17-H ) :   0.9111 B(  6-C , 18-H ) :   0.9113
B(  7-C ,  8-N ) :   2.8830

MP2 TOTAL ENERGY:     -418.535444093 Eh
FINAL SINGLE POINT ENERGY      -418.535444093297

DIPOLE MOMENT
-------------
                                X             Y             Z
Electronic contribution:      1.84783      -0.37315      -3.50240
Nuclear contribution   :     -2.27349       0.33393       4.36632
                        -----------------------------------------
Total Dipole Moment    :     -0.42566      -0.03922       0.86393
                        -----------------------------------------
Magnitude (a.u.)       :      0.96390
Magnitude (Debye)      :      2.45003

                             ****ORCA TERMINATED NORMALLY****
TOTAL RUN TIME: 0 days 0 hours 20 minutes 23 seconds 355 msec
