                         Program Version 3.0.3 - RELEASE   -
|  1> ! RI-MP2 RIJK def2-TZVP def2-TZVP/C def2-TZVP/JK TIGHTSCF
|  2> % maxcore 2000
|  3> % mp2 density relaxed end
|  4> *xyz 0 1
|  5>  C        0.0045207957     1.5251507053     0.0058428307
|  6>  C        1.3102442677     0.7581941350    -0.0229263633
|  7>  C       -0.0038617059     0.0234058276    -0.0094737809
|  8>  C       -0.4462474022    -0.8227672703     1.1931284899
|  9>  N       -0.6455441152    -2.1962127389     0.6773484121
| 10>  C       -1.6841819379    -2.3653638671    -0.3545055664
| 11>  C       -2.0053437158    -1.0619979439    -1.0989612616
| 12>  C       -0.4651362090    -0.7970901252    -1.1967149719
| 13>  C       -0.2384523096    -2.2640566087    -0.7203820647
| 14>  H       -0.2677113865     2.0313034661     0.9267803021
| 15>  H       -0.2967039244     2.0525437093    -0.8937038635
| 16>  H        1.8880399884     0.7688320477    -0.9417427961
| 17>  H        1.9118044145     0.7445724779     0.8806501614
| 18>  H        0.3129313726    -0.8523831469     1.9814422303
| 19>  H       -1.3769130887    -0.4580521569     1.6415216096
| 20>  H       -2.3274374063    -3.2339732177    -0.2660046020
| 21>  H       -2.4417951676    -1.2758002562    -2.0780774809
| 22>  H       -2.6148019265    -0.3057138976    -0.5927517988
| 23>  H       -0.0816443433    -0.4791153743    -2.1659065159
| 24>  H        0.4853549501    -2.9953546851    -1.0590619903
| 25> *
| 26>
| 27>                          ****END OF INPUT****

CARTESIAN COORDINATES (ANGSTROEM)
---------------------------------
  C      0.004521    1.525151    0.005843
  C      1.310244    0.758194   -0.022926
  C     -0.003862    0.023406   -0.009474
  C     -0.446247   -0.822767    1.193128
  N     -0.645544   -2.196213    0.677348
  C     -1.684182   -2.365364   -0.354506
  C     -2.005344   -1.061998   -1.098961
  C     -0.465136   -0.797090   -1.196715
  C     -0.238452   -2.264057   -0.720382
  H     -0.267711    2.031303    0.926780
  H     -0.296704    2.052544   -0.893704
  H      1.888040    0.768832   -0.941743
  H      1.911804    0.744572    0.880650
  H      0.312931   -0.852383    1.981442
  H     -1.376913   -0.458052    1.641522
  H     -2.327437   -3.233973   -0.266005
  H     -2.441795   -1.275800   -2.078077
  H     -2.614802   -0.305714   -0.592752
  H     -0.081644   -0.479115   -2.165907
  H      0.485355   -2.995355   -1.059062

 Total Charge           Charge          ....    0
 Multiplicity           Mult            ....    1
 Number of Electrons    NEL             ....   66
 Basis Dimension        Dim             ....  345

ORBITAL ENERGIES
----------------

  NO   OCC          E(Eh)            E(eV)
   0   2.0000     -15.554122      -423.2492
   1   2.0000     -11.254986      -306.2638
   2   2.0000     -11.250960      -306.1542
   3   2.0000     -11.245850      -306.0151
   4   2.0000     -11.236096      -305.7497
   5   2.0000     -11.234374      -305.7028
   6   2.0000     -11.227373      -305.5123
   7   2.0000     -11.224998      -305.4477
   8   2.0000     -11.223435      -305.4052
   9   2.0000      -1.297838       -35.3160
  10   2.0000      -1.145209       -31.1627
  11   2.0000      -1.047916       -28.5152
  12   2.0000      -0.978337       -26.6219
  13   2.0000      -0.905236       -24.6327
  14   2.0000      -0.824338       -22.4314
  15   2.0000      -0.788226       -21.4487
  16   2.0000      -0.773712       -21.0538
  17   2.0000      -0.722133       -19.6502
  18   2.0000      -0.700237       -19.0544
  19   2.0000      -0.642377       -17.4800
  20   2.0000      -0.628459       -17.1012
  21   2.0000      -0.619603       -16.8602
  22   2.0000      -0.589383       -16.0379
  23   2.0000      -0.550324       -14.9751
  24   2.0000      -0.520979       -14.1766
  25   2.0000      -0.507677       -13.8146
  26   2.0000      -0.481187       -13.0938
  27   2.0000      -0.470376       -12.7996
  28   2.0000      -0.449035       -12.2189
  29   2.0000      -0.417737       -11.3672
  30   2.0000      -0.410444       -11.1687
  31   2.0000      -0.387852       -10.5540
  32   2.0000      -0.368927       -10.0390
  33   0.0000       0.141890         3.8610
  34   0.0000       0.155846         4.2408
  35   0.0000       0.166029         4.5179
  36   0.0000       0.172260         4.6874
  37   0.0000       0.188428         5.1274

MULLIKEN ATOMIC CHARGES
-----------------------
   0 C :   -0.282370
   1 C :   -0.303521
   2 C :   -0.029703
   3 C :   -0.116907
   4 N :   -0.218746
   5 C :   -0.107175
   6 C :   -0.237534
   7 C :    0.024627
   8 C :   -0.103824
   9 H :    0.129382
  10 H :    0.128066
  11 H :    0.125348
  12 H :    0.129458
  13 H :    0.118089
  14 H :    0.116602
  15 H :    0.125812
  16 H :    0.120308
  17 H :    0.114228
  18 H :    0.129141
  19 H :    0.138719
Sum of atomic charges:   -0.0000000

LOEWDIN ATOMIC CHARGES
----------------------
   0 C :   -0.207345
   1 C :   -0.204779
   2 C :   -0.234042
   3 C :   -0.216569
   4 N :    0.141280
   5 C :   -0.215995
   6 C :   -0.197350
   7 C :   -0.158007
   8 C :   -0.182556
   9 H :    0.134049
  10 H :    0.134465
  11 H :    0.132629
  12 H :    0.132811
  13 H :    0.135685
  14 H :    0.134001
  15 H :    0.129822
  16 H :    0.139599
  17 H :    0.127278
  18 H :    0.145327
  19 H :    0.129698

  Mayer bond orders larger than 0.1
B(  0-C ,  1-C ) :   0.9343 B(  0-C ,  2-C ) :   0.8457 B(  0-C ,  9-H ) :   0.9236
B(  0-C , 10-H ) :   0.9217 B(  1-C ,  2-C ) :   0.8557 B(  1-C , 11-H ) :   0.9243
B(  1-C , 12-H ) :   0.9242 B(  2-C ,  3-C ) :   0.9194 B(  2-C ,  7-C ) :   0.9028
B(  3-C ,  4-N ) :   0.9315 B(  3-C , 13-H ) :   0.9145 B(  3-C , 14-H ) :   0.9314
B(  4-N ,  5-C ) :   0.9121 B(  4-N ,  8-C ) :   0.9211 B(  5-C ,  6-C ) :   0.9349
B(  5-C ,  8-C ) :   0.8686 B(  5-C , 15-H ) :   0.9395 B(  6-C ,  7-C ) :   0.9294
B(  6-C , 16-H ) :   0.9155 B(  6-C , 17-H ) :   0.9150 B(  7-C ,  8-C ) :   0.8700
B(  7-C , 18-H ) :   0.9005 B(  8-C , 19-H ) :   0.9087

MP2 TOTAL ENERGY:     -365.297642502 Eh
FINAL SINGLE POINT ENERGY      -365.297642501949

DIPOLE MOMENT
-------------
                                X             Y             Z
Electronic contribution:     -0.33741      -3.88375       0.29588
Nuclear contribution   :      0.27936       4.31883      -0.73680
                        -----------------------------------------
Total Dipole Moment    :     -0.05805       0.43508      -0.44092
                        -----------------------------------------
Magnitude (a.u.)       :      0.62216
Magnitude (Debye)      :      1.58140

                             ****ORCA TERMINATED NORMALLY****
TOTAL RUN TIME: 0 days 0 hours 19 minutes 9 seconds 651 msec
