                         Program Version 3.0.3 - RELEASE   -
|  1> ! RI-MP2 RIJK def2-TZVP def2-TZVP/C def2-TZVP/JK TIGHTSCF
|  2> % maxcore 2000
|  3> % mp2 density relaxed end
|  4> *xyz 0 1
|  5>  O        0.3999761360     0.4834441201    -1.0562728162
|  6>  C        0.1259217066     1.2636285750    -0.1754972990
|  7>  O        0.9686268599     1.6309529792     0.8127867656
|  8>  C        2.2969692014     1.0667104998     0.7526000376
|  9>  C        3.2060978763     1.9006541646    -0.0201164835
| 10>  C        3.9681689289     2.5858205088    -0.6458517100
| 11>  C       -1.1952607060     1.9347909951    -0.0290610954
| 12>  C       -1.7958002656     2.4824219529    -1.2860459958
| 13>  N       -2.3457397504     1.2813602394    -0.6709326151
| 14>  H        2.6221220070     0.9991676043     1.7938688101
| 15>  H        2.2384470919     0.0628560767     0.3237782240
| 16>  H        4.6412767836     3.1866677902    -1.2063405112
| 17>  H       -1.3844261828     2.4190760366     0.9217664528
| 18>  H       -2.4175969705     3.3699658051    -1.2180206435
| 19>  H       -1.2096867124     2.3822587068    -2.1947235308
| 20>  H       -1.9902015641     0.4663298955    -1.1705329095
| 21> *
| 22>
| 23>                          ****END OF INPUT****

CARTESIAN COORDINATES (ANGSTROEM)
---------------------------------
  O      0.399976    0.483444   -1.056273
  C      0.125922    1.263629   -0.175497
  O      0.968627    1.630953    0.812787
  C      2.296969    1.066710    0.752600
  C      3.206098    1.900654   -0.020116
  C      3.968169    2.585821   -0.645852
  C     -1.195261    1.934791   -0.029061
  C     -1.795800    2.482422   -1.286046
  N     -2.345740    1.281360   -0.670933
  H      2.622122    0.999168    1.793869
  H      2.238447    0.062856    0.323778
  H      4.641277    3.186668   -1.206341
  H     -1.384426    2.419076    0.921766
  H     -2.417597    3.369966   -1.218021
  H     -1.209687    2.382259   -2.194724
  H     -1.990202    0.466330   -1.170533

 Total Charge           Charge          ....    0
 Multiplicity           Mult            ....    1
 Number of Electrons    NEL             ....   66
 Basis Dimension        Dim             ....  321

ORBITAL ENERGIES
----------------

  NO   OCC          E(Eh)            E(eV)
   0   2.0000     -20.621271      -561.1333
   1   2.0000     -20.555313      -559.3385
   2   2.0000     -15.575611      -423.8339
   3   2.0000     -11.394485      -310.0597
   4   2.0000     -11.328135      -308.2542
   5   2.0000     -11.280379      -306.9547
   6   2.0000     -11.275728      -306.8282
   7   2.0000     -11.247155      -306.0506
   8   2.0000     -11.240716      -305.8754
   9   2.0000      -1.476044       -40.1652
  10   2.0000      -1.376980       -37.4695
  11   2.0000      -1.280590       -34.8466
  12   2.0000      -1.077222       -29.3127
  13   2.0000      -0.998624       -27.1739
  14   2.0000      -0.927566       -25.2404
  15   2.0000      -0.885324       -24.0909
  16   2.0000      -0.795560       -21.6483
  17   2.0000      -0.754644       -20.5349
  18   2.0000      -0.743825       -20.2405
  19   2.0000      -0.700771       -19.0690
  20   2.0000      -0.693978       -18.8841
  21   2.0000      -0.655099       -17.8261
  22   2.0000      -0.645454       -17.5637
  23   2.0000      -0.600040       -16.3279
  24   2.0000      -0.579038       -15.7564
  25   2.0000      -0.555621       -15.1192
  26   2.0000      -0.505504       -13.7555
  27   2.0000      -0.495484       -13.4828
  28   2.0000      -0.488736       -13.2992
  29   2.0000      -0.467853       -12.7309
  30   2.0000      -0.411254       -11.1908
  31   2.0000      -0.408609       -11.1188
  32   2.0000      -0.402698       -10.9580
  33   0.0000       0.140193         3.8148
  34   0.0000       0.147412         4.0113
  35   0.0000       0.158606         4.3159
  36   0.0000       0.163346         4.4449
  37   0.0000       0.167412         4.5555

MULLIKEN ATOMIC CHARGES
-----------------------
   0 O :   -0.357318
   1 C :    0.300703
   2 O :   -0.237816
   3 C :   -0.130886
   4 C :   -0.062492
   5 C :   -0.133304
   6 C :   -0.061307
   7 C :   -0.159420
   8 N :   -0.358465
   9 H :    0.158970
  10 H :    0.170436
  11 H :    0.197721
  12 H :    0.149392
  13 H :    0.134419
  14 H :    0.148475
  15 H :    0.240892
Sum of atomic charges:    0.0000000

LOEWDIN ATOMIC CHARGES
----------------------
   0 O :    0.119055
   1 C :   -0.474072
   2 O :    0.264062
   3 C :   -0.259365
   4 C :   -0.109296
   5 C :   -0.075752
   6 C :   -0.245405
   7 C :   -0.245118
   8 N :    0.007498
   9 H :    0.150399
  10 H :    0.153298
  11 H :    0.129817
  12 H :    0.150532
  13 H :    0.128087
  14 H :    0.130188
  15 H :    0.176072

  Mayer bond orders larger than 0.1
B(  0-O ,  1-C ) :   1.8710 B(  1-C ,  2-O ) :   1.1177 B(  1-C ,  6-C ) :   0.9735
B(  2-O ,  3-C ) :   0.8476 B(  3-C ,  4-C ) :   1.0441 B(  3-C ,  9-H ) :   0.9184
B(  3-C , 10-H ) :   0.9588 B(  4-C ,  5-C ) :   2.6523 B(  5-C , 11-H ) :   0.9012
B(  6-C ,  7-C ) :   0.8997 B(  6-C ,  8-N ) :   0.9264 B(  6-C , 12-H ) :   0.9109
B(  7-C ,  8-N ) :   0.9247 B(  7-C , 13-H ) :   0.9255 B(  7-C , 14-H ) :   0.9109
B(  8-N , 15-H ) :   0.8656

MP2 TOTAL ENERGY:     -437.117536946 Eh
FINAL SINGLE POINT ENERGY      -437.117536945555

DIPOLE MOMENT
-------------
                                X             Y             Z
Electronic contribution:      1.99395      -1.18478       1.00970
Nuclear contribution   :     -1.38861       1.59094      -0.85000
                        -----------------------------------------
Total Dipole Moment    :      0.60534       0.40616       0.15971
                        -----------------------------------------
Magnitude (a.u.)       :      0.74626
Magnitude (Debye)      :      1.89684

                             ****ORCA TERMINATED NORMALLY****
TOTAL RUN TIME: 0 days 0 hours 13 minutes 35 seconds 401 msec
