                         Program Version 3.0.3 - RELEASE   -
|  1> ! RI-MP2 RIJK def2-TZVP def2-TZVP/C def2-TZVP/JK TIGHTSCF
|  2> % maxcore 2000
|  3> % mp2 density relaxed end
|  4> *xyz 0 1
|  5>  O        0.5265352280     1.1952335781    -0.1017045494
|  6>  C        0.1988491216    -0.1596799342    -0.0914231811
|  7>  C       -1.3008858936    -0.3751444662     0.0347651217
|  8>  O       -2.0328047512     0.5951443957     0.0737311166
|  9>  C       -1.8189425833    -1.7846211219     0.1336278224
| 10>  C       -2.4866603717    -2.1765726895     1.4985069788
| 11>  C       -3.6005610761    -2.9076660324     0.7060982433
| 12>  C       -3.1799641557    -2.1051869932    -0.5519102734
| 13>  H       -0.3277016700     1.6553851950    -0.0536442738
| 14>  H        0.5322594358    -0.6671386371    -1.0141715236
| 15>  H        0.6941424976    -0.6898231476     0.7402901827
| 16>  H       -1.0392909262    -2.5021048408    -0.1387708239
| 17>  H       -1.8801393434    -2.7574407274     2.1963084285
| 18>  H       -2.8656267880    -1.2852935420     2.0046124974
| 19>  H       -3.3880287180    -3.9751369959     0.5998642131
| 20>  H       -4.6270726981    -2.7913987529     1.0596605031
| 21>  H       -3.7607708111    -1.1869794853    -0.6652447145
| 22>  H       -3.1402788467    -2.6298614225    -1.5086992279
| 23> *
| 24>
| 25>                          ****END OF INPUT****

CARTESIAN COORDINATES (ANGSTROEM)
---------------------------------
  O      0.526535    1.195234   -0.101705
  C      0.198849   -0.159680   -0.091423
  C     -1.300886   -0.375144    0.034765
  O     -2.032805    0.595144    0.073731
  C     -1.818943   -1.784621    0.133628
  C     -2.486660   -2.176573    1.498507
  C     -3.600561   -2.907666    0.706098
  C     -3.179964   -2.105187   -0.551910
  H     -0.327702    1.655385   -0.053644
  H      0.532259   -0.667139   -1.014172
  H      0.694142   -0.689823    0.740290
  H     -1.039291   -2.502105   -0.138771
  H     -1.880139   -2.757441    2.196308
  H     -2.865627   -1.285294    2.004612
  H     -3.388029   -3.975137    0.599864
  H     -4.627073   -2.791399    1.059661
  H     -3.760771   -1.186979   -0.665245
  H     -3.140279   -2.629861   -1.508699

 Total Charge           Charge          ....    0
 Multiplicity           Mult            ....    1
 Number of Electrons    NEL             ....   62
 Basis Dimension        Dim             ....  308

ORBITAL ENERGIES
----------------

  NO   OCC          E(Eh)            E(eV)
   0   2.0000     -20.559434      -559.4506
   1   2.0000     -20.554177      -559.3076
   2   2.0000     -11.338924      -308.5478
   3   2.0000     -11.292265      -307.2781
   4   2.0000     -11.250760      -306.1487
   5   2.0000     -11.242185      -305.9154
   6   2.0000     -11.236091      -305.7496
   7   2.0000     -11.233761      -305.6862
   8   2.0000      -1.411587       -38.4112
   9   2.0000      -1.358602       -36.9694
  10   2.0000      -1.146584       -31.2001
  11   2.0000      -1.007183       -27.4068
  12   2.0000      -0.920025       -25.0352
  13   2.0000      -0.912399       -24.8276
  14   2.0000      -0.796146       -21.6642
  15   2.0000      -0.747184       -20.3319
  16   2.0000      -0.720781       -19.6134
  17   2.0000      -0.672375       -18.2963
  18   2.0000      -0.660385       -17.9700
  19   2.0000      -0.652229       -17.7481
  20   2.0000      -0.610654       -16.6167
  21   2.0000      -0.575102       -15.6493
  22   2.0000      -0.561540       -15.2803
  23   2.0000      -0.545199       -14.8356
  24   2.0000      -0.543019       -14.7763
  25   2.0000      -0.490537       -13.3482
  26   2.0000      -0.488708       -13.2984
  27   2.0000      -0.469212       -12.7679
  28   2.0000      -0.453986       -12.3536
  29   2.0000      -0.449622       -12.2348
  30   2.0000      -0.417944       -11.3728
  31   0.0000       0.123259         3.3541
  32   0.0000       0.126083         3.4309
  33   0.0000       0.145641         3.9631
  34   0.0000       0.163335         4.4446
  35   0.0000       0.170239         4.6324

MULLIKEN ATOMIC CHARGES
-----------------------
   0 O :   -0.483595
   1 C :   -0.028991
   2 C :    0.145119
   3 O :   -0.339597
   4 C :   -0.022551
   5 C :   -0.267042
   6 C :   -0.194537
   7 C :   -0.263881
   8 H :    0.336255
   9 H :    0.119219
  10 H :    0.118846
  11 H :    0.119086
  12 H :    0.124136
  13 H :    0.134580
  14 H :    0.115704
  15 H :    0.121350
  16 H :    0.141654
  17 H :    0.124245
Sum of atomic charges:    0.0000000

LOEWDIN ATOMIC CHARGES
----------------------
   0 O :   -0.034020
   1 C :   -0.340195
   2 C :   -0.316426
   3 O :    0.136986
   4 C :   -0.200391
   5 C :   -0.203779
   6 C :   -0.240798
   7 C :   -0.208737
   8 H :    0.182625
   9 H :    0.136728
  10 H :    0.137271
  11 H :    0.156034
  12 H :    0.125055
  13 H :    0.141951
  14 H :    0.133674
  15 H :    0.124599
  16 H :    0.143925
  17 H :    0.125497

  Mayer bond orders larger than 0.1
B(  0-O ,  1-C ) :   1.0197 B(  0-O ,  8-H ) :   0.8036 B(  1-C ,  2-C ) :   0.9604
B(  1-C ,  9-H ) :   0.9053 B(  1-C , 10-H ) :   0.9025 B(  2-C ,  3-O ) :   1.8902
B(  2-C ,  4-C ) :   0.8640 B(  4-C ,  5-C ) :   0.8865 B(  4-C ,  7-C ) :   0.8923
B(  4-C , 11-H ) :   0.9163 B(  5-C ,  6-C ) :   0.9361 B(  5-C , 12-H ) :   0.9280
B(  5-C , 13-H ) :   0.9222 B(  6-C ,  7-C ) :   0.9347 B(  6-C , 14-H ) :   0.9284
B(  6-C , 15-H ) :   0.9273 B(  7-C , 16-H ) :   0.9226 B(  7-C , 17-H ) :   0.9301

MP2 TOTAL ENERGY:     -384.307597158 Eh
FINAL SINGLE POINT ENERGY      -384.307597158427

DIPOLE MOMENT
-------------
                                X             Y             Z
Electronic contribution:      2.61509       6.07392      -1.00137
Nuclear contribution   :     -2.89749      -7.30898       1.07704
                        -----------------------------------------
Total Dipole Moment    :     -0.28240      -1.23506       0.07567
                        -----------------------------------------
Magnitude (a.u.)       :      1.26919
Magnitude (Debye)      :      3.22603

                             ****ORCA TERMINATED NORMALLY****
TOTAL RUN TIME: 0 days 0 hours 12 minutes 32 seconds 140 msec
