                         Program Version 3.0.3 - RELEASE   -
|  1> ! RI-MP2 RIJK def2-TZVP def2-TZVP/C def2-TZVP/JK TIGHTSCF
|  2> % maxcore 2000
|  3> % mp2 density relaxed end
|  4> *xyz 0 1
|  5>  C       -0.1990631776     1.3886018886     0.2250393875
|  6>  C        0.0411325313    -0.1017103959     0.1261358364
|  7>  C        0.5437991926    -0.8026655324    -1.0957235283
|  8>  C        1.3011845426     0.0295712385    -2.0739047978
|  9>  C        2.4313497437     0.4789465464    -1.5270548473
| 10>  C        2.6023721215    -0.0883218627    -0.1338181066
| 11>  C        2.9978381011     0.8693923381     0.9921051478
| 12>  O        3.1286210063     0.1795934330     2.2216754405
| 13>  N        1.3391193132    -0.8197749167     0.1612814901
| 14>  H        0.4472896573     1.9714718144    -0.4318716086
| 15>  H       -1.2395817248     1.5961743074    -0.0507387280
| 16>  H       -0.0595623851     1.7405570666     1.2522520280
| 17>  H       -0.6871613442    -0.6701442914     0.7044551733
| 18>  H        0.0860498462    -1.7334107562    -1.4243167024
| 19>  H        0.9473569874     0.2336056077    -3.0772243971
| 20>  H        3.1561601225     1.1337598577    -1.9975898741
| 21>  H        3.3902181509    -0.8579930225    -0.1524019892
| 22>  H        3.9781354326     1.3049967023     0.7668258709
| 23>  H        2.2826770063     1.6992356719     1.0717950829
| 24>  H        2.3822956761    -0.4290848845     2.2737126421
| 25> *
| 26>
| 27>                          ****END OF INPUT****

CARTESIAN COORDINATES (ANGSTROEM)
---------------------------------
  C     -0.199063    1.388602    0.225039
  C      0.041133   -0.101710    0.126136
  C      0.543799   -0.802666   -1.095724
  C      1.301185    0.029571   -2.073905
  C      2.431350    0.478947   -1.527055
  C      2.602372   -0.088322   -0.133818
  C      2.997838    0.869392    0.992105
  O      3.128621    0.179593    2.221675
  N      1.339119   -0.819775    0.161281
  H      0.447290    1.971472   -0.431872
  H     -1.239582    1.596174   -0.050739
  H     -0.059562    1.740557    1.252252
  H     -0.687161   -0.670144    0.704455
  H      0.086050   -1.733411   -1.424317
  H      0.947357    0.233606   -3.077224
  H      3.156160    1.133760   -1.997590
  H      3.390218   -0.857993   -0.152402
  H      3.978135    1.304997    0.766826
  H      2.282677    1.699236    1.071795
  H      2.382296   -0.429085    2.273713

 Total Charge           Charge          ....    0
 Multiplicity           Mult            ....    1
 Number of Electrons    NEL             ....   68
 Basis Dimension        Dim             ....  345

ORBITAL ENERGIES
----------------

  NO   OCC          E(Eh)            E(eV)
   0   2.0000     -20.547083      -559.1146
   1   2.0000     -15.562072      -423.4655
   2   2.0000     -11.273651      -306.7716
   3   2.0000     -11.268888      -306.6420
   4   2.0000     -11.264982      -306.5357
   5   2.0000     -11.263502      -306.4955
   6   2.0000     -11.239242      -305.8353
   7   2.0000     -11.236775      -305.7682
   8   2.0000     -11.225992      -305.4748
   9   2.0000      -1.355187       -36.8765
  10   2.0000      -1.284456       -34.9518
  11   2.0000      -1.076905       -29.3041
  12   2.0000      -1.022017       -27.8105
  13   2.0000      -0.991057       -26.9680
  14   2.0000      -0.896060       -24.3830
  15   2.0000      -0.823432       -22.4067
  16   2.0000      -0.782534       -21.2938
  17   2.0000      -0.739341       -20.1185
  18   2.0000      -0.697150       -18.9704
  19   2.0000      -0.685579       -18.6555
  20   2.0000      -0.644577       -17.5398
  21   2.0000      -0.606192       -16.4953
  22   2.0000      -0.598670       -16.2906
  23   2.0000      -0.577383       -15.7114
  24   2.0000      -0.567822       -15.4512
  25   2.0000      -0.555416       -15.1136
  26   2.0000      -0.548761       -14.9325
  27   2.0000      -0.508827       -13.8459
  28   2.0000      -0.490765       -13.3544
  29   2.0000      -0.469825       -12.7846
  30   2.0000      -0.454739       -12.3741
  31   2.0000      -0.430521       -11.7151
  32   2.0000      -0.399792       -10.8789
  33   2.0000      -0.339434        -9.2365
  34   0.0000       0.131114         3.5678
  35   0.0000       0.140499         3.8232
  36   0.0000       0.161152         4.3852
  37   0.0000       0.169230         4.6050
  38   0.0000       0.171190         4.6583

MULLIKEN ATOMIC CHARGES
-----------------------
   0 C :   -0.409284
   1 C :   -0.033664
   2 C :   -0.011980
   3 C :   -0.175181
   4 C :   -0.249757
   5 C :    0.054963
   6 C :   -0.020798
   7 O :   -0.477067
   8 N :   -0.290081
   9 H :    0.150660
  10 H :    0.140038
  11 H :    0.146001
  12 H :    0.118560
  13 H :    0.135049
  14 H :    0.134886
  15 H :    0.134002
  16 H :    0.114309
  17 H :    0.108594
  18 H :    0.102338
  19 H :    0.328411
Sum of atomic charges:    0.0000000

LOEWDIN ATOMIC CHARGES
----------------------
   0 C :   -0.300847
   1 C :   -0.252696
   2 C :   -0.207195
   3 C :   -0.143171
   4 C :   -0.137471
   5 C :   -0.272304
   6 C :   -0.323380
   7 O :   -0.045018
   8 N :    0.136887
   9 H :    0.128117
  10 H :    0.131923
  11 H :    0.127345
  12 H :    0.147319
  13 H :    0.140775
  14 H :    0.141696
  15 H :    0.141009
  16 H :    0.159743
  17 H :    0.130382
  18 H :    0.119381
  19 H :    0.177508

  Mayer bond orders larger than 0.1
B(  0-C ,  1-C ) :   0.8889 B(  0-C ,  9-H ) :   0.9348 B(  0-C , 10-H ) :   0.9251
B(  0-C , 11-H ) :   0.9374 B(  1-C ,  2-C ) :   0.9030 B(  1-C ,  8-N ) :   0.8393
B(  1-C , 12-H ) :   0.9310 B(  2-C ,  3-C ) :   0.9655 B(  2-C ,  8-N ) :   0.9267
B(  2-C , 13-H ) :   0.9036 B(  3-C ,  4-C ) :   1.7678 B(  3-C , 14-H ) :   0.9258
B(  4-C ,  5-C ) :   0.9138 B(  4-C , 15-H ) :   0.9194 B(  5-C ,  6-C ) :   0.9426
B(  5-C ,  8-N ) :   0.8927 B(  5-C , 16-H ) :   0.9113 B(  6-C ,  7-O ) :   0.9357
B(  6-C , 17-H ) :   0.9246 B(  6-C , 18-H ) :   0.9217 B(  7-O , 19-H ) :   0.8321

MP2 TOTAL ENERGY:     -402.428505871 Eh
FINAL SINGLE POINT ENERGY      -402.428505870984

DIPOLE MOMENT
-------------
                                X             Y             Z
Electronic contribution:      2.08925      -3.69904      -0.30757
Nuclear contribution   :     -2.72044       4.06952      -0.53966
                        -----------------------------------------
Total Dipole Moment    :     -0.63119       0.37048      -0.84723
                        -----------------------------------------
Magnitude (a.u.)       :      1.11958
Magnitude (Debye)      :      2.84575

                             ****ORCA TERMINATED NORMALLY****
TOTAL RUN TIME: 0 days 0 hours 32 minutes 1 seconds 312 msec
