                         Program Version 3.0.3 - RELEASE   -
|  1> ! RI-MP2 RIJK def2-TZVP def2-TZVP/C def2-TZVP/JK TIGHTSCF
|  2> % maxcore 2000
|  3> % mp2 density relaxed end
|  4> *xyz 0 1
|  5>  C       -0.2144923757     1.5083942901    -0.1749516802
|  6>  C       -0.0860418687     0.0655542506     0.3062417485
|  7>  N       -1.3623306040    -0.6340780839     0.1733763339
|  8>  C       -1.6107468467    -1.3288688206    -1.0987735284
|  9>  C       -1.3840070049    -2.0934315197     0.1465320212
| 10>  C       -0.2639710983    -3.0216221734     0.6319072596
| 11>  C       -1.1614581816    -3.3631673162     1.8597860388
| 12>  C       -2.3888463014    -2.7637752827     1.0986191076
| 13>  O       -3.2662037617    -1.9035430877     1.7606128559
| 14>  H        0.7306872438     2.0438590139    -0.0438397542
| 15>  H       -0.4801262833     1.5438616330    -1.2364289017
| 16>  H       -0.9933270166     2.0332074905     0.3853161250
| 17>  H        0.7194320474    -0.4425381049    -0.2493302879
| 18>  H        0.1966704307     0.0485253417     1.3658869112
| 19>  H       -2.6116266918    -1.2274304649    -1.5113093342
| 20>  H       -0.8078695471    -1.3149519613    -1.8358705981
| 21>  H       -0.1184218239    -3.8737806129    -0.0381599949
| 22>  H        0.7106781416    -2.5722846552     0.8342283670
| 23>  H       -1.2212802258    -4.4090389667     2.1672157643
| 24>  H       -0.9180274574    -2.7446927532     2.7276045593
| 25>  H       -2.9683976601    -3.5530265670     0.6033459604
| 26>  H       -2.9183166846    -1.0138287794     1.5843628469
| 27> *
| 28>
| 29>                          ****END OF INPUT****

CARTESIAN COORDINATES (ANGSTROEM)
---------------------------------
  C     -0.214492    1.508394   -0.174952
  C     -0.086042    0.065554    0.306242
  N     -1.362331   -0.634078    0.173376
  C     -1.610747   -1.328869   -1.098774
  C     -1.384007   -2.093432    0.146532
  C     -0.263971   -3.021622    0.631907
  C     -1.161458   -3.363167    1.859786
  C     -2.388846   -2.763775    1.098619
  O     -3.266204   -1.903543    1.760613
  H      0.730687    2.043859   -0.043840
  H     -0.480126    1.543862   -1.236429
  H     -0.993327    2.033207    0.385316
  H      0.719432   -0.442538   -0.249330
  H      0.196670    0.048525    1.365887
  H     -2.611627   -1.227430   -1.511309
  H     -0.807870   -1.314952   -1.835871
  H     -0.118422   -3.873781   -0.038160
  H      0.710678   -2.572285    0.834228
  H     -1.221280   -4.409039    2.167216
  H     -0.918027   -2.744693    2.727605
  H     -2.968398   -3.553027    0.603346
  H     -2.918317   -1.013829    1.584363

 Total Charge           Charge          ....    0
 Multiplicity           Mult            ....    1
 Number of Electrons    NEL             ....   70
 Basis Dimension        Dim             ....  357

ORBITAL ENERGIES
----------------

  NO   OCC          E(Eh)            E(eV)
   0   2.0000     -20.539079      -558.8968
   1   2.0000     -15.566362      -423.5822
   2   2.0000     -11.273370      -306.7640
   3   2.0000     -11.265316      -306.5448
   4   2.0000     -11.258878      -306.3697
   5   2.0000     -11.257972      -306.3450
   6   2.0000     -11.232733      -305.6582
   7   2.0000     -11.221456      -305.3513
   8   2.0000     -11.218035      -305.2582
   9   2.0000      -1.355762       -36.8921
  10   2.0000      -1.278923       -34.8013
  11   2.0000      -1.105566       -30.0840
  12   2.0000      -1.036787       -28.2124
  13   2.0000      -0.908810       -24.7300
  14   2.0000      -0.890338       -24.2273
  15   2.0000      -0.850483       -23.1428
  16   2.0000      -0.812527       -22.1100
  17   2.0000      -0.743965       -20.2443
  18   2.0000      -0.697280       -18.9740
  19   2.0000      -0.664827       -18.0909
  20   2.0000      -0.649715       -17.6797
  21   2.0000      -0.621729       -16.9181
  22   2.0000      -0.587224       -15.9792
  23   2.0000      -0.577547       -15.7158
  24   2.0000      -0.568273       -15.4635
  25   2.0000      -0.549990       -14.9660
  26   2.0000      -0.537681       -14.6310
  27   2.0000      -0.519061       -14.1244
  28   2.0000      -0.502877       -13.6840
  29   2.0000      -0.499910       -13.6033
  30   2.0000      -0.462323       -12.5805
  31   2.0000      -0.448532       -12.2052
  32   2.0000      -0.429643       -11.6912
  33   2.0000      -0.410936       -11.1821
  34   2.0000      -0.374986       -10.2039
  35   0.0000       0.132392         3.6026
  36   0.0000       0.149488         4.0678
  37   0.0000       0.156751         4.2654
  38   0.0000       0.166501         4.5307
  39   0.0000       0.184442         5.0189

MULLIKEN ATOMIC CHARGES
-----------------------
   0 C :   -0.375431
   1 C :   -0.141536
   2 N :   -0.300679
   3 C :   -0.174066
   4 C :    0.044876
   5 C :   -0.219016
   6 C :   -0.207074
   7 C :    0.091371
   8 O :   -0.479792
   9 H :    0.129350
  10 H :    0.126188
  11 H :    0.132632
  12 H :    0.101702
  13 H :    0.121355
  14 H :    0.131919
  15 H :    0.123690
  16 H :    0.125096
  17 H :    0.127326
  18 H :    0.123020
  19 H :    0.101682
  20 H :    0.088255
  21 H :    0.329132
Sum of atomic charges:   -0.0000000

LOEWDIN ATOMIC CHARGES
----------------------
   0 C :   -0.314616
   1 C :   -0.318314
   2 N :    0.120325
   3 C :   -0.221535
   4 C :   -0.262931
   5 C :   -0.205560
   6 C :   -0.214140
   7 C :   -0.299007
   8 O :   -0.014184
   9 H :    0.123024
  10 H :    0.122032
  11 H :    0.124222
  12 H :    0.123196
  13 H :    0.132386
  14 H :    0.130130
  15 H :    0.129022
  16 H :    0.139177
  17 H :    0.130026
  18 H :    0.123674
  19 H :    0.136351
  20 H :    0.138800
  21 H :    0.177922

  Mayer bond orders larger than 0.1
B(  0-C ,  1-C ) :   0.9340 B(  0-C ,  9-H ) :   0.9378 B(  0-C , 10-H ) :   0.9355
B(  0-C , 11-H ) :   0.9369 B(  1-C ,  2-N ) :   0.8538 B(  1-C , 12-H ) :   0.9222
B(  1-C , 13-H ) :   0.9283 B(  2-N ,  3-C ) :   0.9117 B(  2-N ,  4-C ) :   0.7724
B(  3-C ,  4-C ) :   0.9041 B(  3-C , 14-H ) :   0.9091 B(  3-C , 15-H ) :   0.9272
B(  4-C ,  5-C ) :   0.8969 B(  4-C ,  7-C ) :   0.9331 B(  5-C ,  6-C ) :   0.9407
B(  5-C , 16-H ) :   0.9179 B(  5-C , 17-H ) :   0.9203 B(  6-C ,  7-C ) :   0.8764
B(  6-C , 18-H ) :   0.9281 B(  6-C , 19-H ) :   0.9157 B(  7-C ,  8-O ) :   1.0496
B(  7-C , 20-H ) :   0.9418 B(  8-O , 21-H ) :   0.8021

MP2 TOTAL ENERGY:     -403.619844593 Eh
FINAL SINGLE POINT ENERGY      -403.619844593462

DIPOLE MOMENT
-------------
                                X             Y             Z
Electronic contribution:     -5.00453      -3.34219       1.49734
Nuclear contribution   :      6.01294       3.40768      -2.10785
                        -----------------------------------------
Total Dipole Moment    :      1.00842       0.06549      -0.61052
                        -----------------------------------------
Magnitude (a.u.)       :      1.18064
Magnitude (Debye)      :      3.00096

                             ****ORCA TERMINATED NORMALLY****
TOTAL RUN TIME: 0 days 0 hours 30 minutes 7 seconds 39 msec
