                         Program Version 3.0.3 - RELEASE   -
|  1> ! RI-MP2 RIJK def2-TZVP def2-TZVP/C def2-TZVP/JK TIGHTSCF
|  2> % maxcore 2000
|  3> % mp2 density relaxed end
|  4> *xyz 0 1
|  5>  N       -0.0772463963    -1.0819587653    -0.5139134792
|  6>  C       -0.0568465674     0.0339302986    -0.2153009172
|  7>  C       -0.0022052383     1.4436575934     0.1801396560
|  8>  C        1.4106641506     1.9931950404     0.1527873651
|  9>  C        2.4861319828     1.3724281401     1.0360805483
| 10>  O        3.5598158515     2.3064295094     1.0260762859
| 11>  C        3.0030918262     3.6143254890     0.9158945045
| 12>  C        1.7530723879     3.4375558156     0.0722870780
| 13>  N        1.8779453767     2.5722877369    -1.1077888356
| 14>  H       -0.6270471262     2.0257896423    -0.5033699617
| 15>  H       -0.4312064324     1.5369076922     1.1850849328
| 16>  H        2.0905672830     1.2175893951     2.0537652777
| 17>  H        2.8708928917     0.4172481751     0.6658218963
| 18>  H        2.7360994912     4.0282073241     1.9017215544
| 19>  H        3.7643790101     4.2578275310     0.4634842259
| 20>  H        1.0166410929     4.2331506633     0.0183427690
| 21>  H        2.8552487159     2.3320715287    -1.2693771502
| 22> *
| 23>
| 24>                          ****END OF INPUT****

CARTESIAN COORDINATES (ANGSTROEM)
---------------------------------
  N     -0.077246   -1.081959   -0.513913
  C     -0.056847    0.033930   -0.215301
  C     -0.002205    1.443658    0.180140
  C      1.410664    1.993195    0.152787
  C      2.486132    1.372428    1.036081
  O      3.559816    2.306430    1.026076
  C      3.003092    3.614325    0.915895
  C      1.753072    3.437556    0.072287
  N      1.877945    2.572288   -1.107789
  H     -0.627047    2.025790   -0.503370
  H     -0.431206    1.536908    1.185085
  H      2.090567    1.217589    2.053765
  H      2.870893    0.417248    0.665822
  H      2.736099    4.028207    1.901722
  H      3.764379    4.257828    0.463484
  H      1.016641    4.233151    0.018343
  H      2.855249    2.332072   -1.269377

 Total Charge           Charge          ....    0
 Multiplicity           Mult            ....    1
 Number of Electrons    NEL             ....   66
 Basis Dimension        Dim             ....  327

ORBITAL ENERGIES
----------------

  NO   OCC          E(Eh)            E(eV)
   0   2.0000     -20.578481      -559.9689
   1   2.0000     -15.577715      -423.8912
   2   2.0000     -15.573252      -423.7697
   3   2.0000     -11.300010      -307.4889
   4   2.0000     -11.299554      -307.4765
   5   2.0000     -11.296217      -307.3857
   6   2.0000     -11.294335      -307.3345
   7   2.0000     -11.282836      -307.0216
   8   2.0000     -11.277677      -306.8812
   9   2.0000      -1.409870       -38.3645
  10   2.0000      -1.285671       -34.9849
  11   2.0000      -1.222176       -33.2571
  12   2.0000      -1.074068       -29.2269
  13   2.0000      -1.008691       -27.4479
  14   2.0000      -0.961479       -26.1632
  15   2.0000      -0.845759       -23.0143
  16   2.0000      -0.802843       -21.8465
  17   2.0000      -0.732480       -19.9318
  18   2.0000      -0.697882       -18.9903
  19   2.0000      -0.683689       -18.6041
  20   2.0000      -0.663518       -18.0552
  21   2.0000      -0.649243       -17.6668
  22   2.0000      -0.619927       -16.8691
  23   2.0000      -0.576142       -15.6776
  24   2.0000      -0.561383       -15.2760
  25   2.0000      -0.546901       -14.8819
  26   2.0000      -0.545514       -14.8442
  27   2.0000      -0.491923       -13.3859
  28   2.0000      -0.468819       -12.7572
  29   2.0000      -0.461823       -12.5668
  30   2.0000      -0.459319       -12.4987
  31   2.0000      -0.454246       -12.3607
  32   2.0000      -0.410529       -11.1711
  33   0.0000       0.117527         3.1981
  34   0.0000       0.148427         4.0389
  35   0.0000       0.152083         4.1384
  36   0.0000       0.161577         4.3967
  37   0.0000       0.177384         4.8269

MULLIKEN ATOMIC CHARGES
-----------------------
   0 N :   -0.056538
   1 C :   -0.191714
   2 C :   -0.127908
   3 C :    0.074954
   4 C :   -0.043911
   5 O :   -0.326028
   6 C :   -0.022526
   7 C :   -0.131974
   8 N :   -0.357141
   9 H :    0.167799
  10 H :    0.163057
  11 H :    0.101432
  12 H :    0.146561
  13 H :    0.102952
  14 H :    0.130816
  15 H :    0.136770
  16 H :    0.233398
Sum of atomic charges:   -0.0000000

LOEWDIN ATOMIC CHARGES
----------------------
   0 N :    0.061389
   1 C :   -0.182517
   2 C :   -0.202355
   3 C :   -0.290075
   4 C :   -0.262488
   5 O :    0.152229
   6 C :   -0.288700
   7 C :   -0.236236
   8 N :    0.052102
   9 H :    0.176063
  10 H :    0.169848
  11 H :    0.131104
  12 H :    0.139106
  13 H :    0.128030
  14 H :    0.132440
  15 H :    0.143596
  16 H :    0.176466

  Mayer bond orders larger than 0.1
B(  0-N ,  1-C ) :   2.8631 B(  1-C ,  2-C ) :   0.9376 B(  2-C ,  3-C ) :   0.8671
B(  2-C ,  9-H ) :   0.9050 B(  2-C , 10-H ) :   0.9161 B(  3-C ,  4-C ) :   0.9556
B(  3-C ,  7-C ) :   0.8872 B(  3-C ,  8-N ) :   0.9280 B(  4-C ,  5-O ) :   0.9138
B(  4-C , 11-H ) :   0.9154 B(  4-C , 12-H ) :   0.9184 B(  5-O ,  6-C ) :   0.9214
B(  6-C ,  7-C ) :   0.9582 B(  6-C , 13-H ) :   0.9240 B(  6-C , 14-H ) :   0.9148
B(  7-C ,  8-N ) :   0.9454 B(  7-C , 15-H ) :   0.9090 B(  8-N , 16-H ) :   0.8627

MP2 TOTAL ENERGY:     -417.297739340 Eh
FINAL SINGLE POINT ENERGY      -417.297739340339

DIPOLE MOMENT
-------------
                                X             Y             Z
Electronic contribution:     -1.36813      -3.87232      -1.92737
Nuclear contribution   :      1.33536       5.45321       2.78786
                        -----------------------------------------
Total Dipole Moment    :     -0.03277       1.58089       0.86049
                        -----------------------------------------
Magnitude (a.u.)       :      1.80020
Magnitude (Debye)      :      4.57575

                             ****ORCA TERMINATED NORMALLY****
TOTAL RUN TIME: 0 days 0 hours 17 minutes 34 seconds 520 msec
