                         Program Version 3.0.3 - RELEASE   -
|  1> ! RI-MP2 RIJK def2-TZVP def2-TZVP/C def2-TZVP/JK TIGHTSCF
|  2> % maxcore 2000
|  3> % mp2 density relaxed end
|  4> *xyz 0 1
|  5>  C       -0.0838751457     1.4111907507     0.0515336331
|  6>  C       -0.0269119898    -0.0395839381     0.0129781077
|  7>  C        0.0272593846    -1.2423348491    -0.0232001664
|  8>  C        0.0838456342    -2.6582765523    -0.0631768212
|  9>  N        1.1272083581    -3.3741946747    -0.2660721028
| 10>  C        0.7027641918    -4.7452613349    -0.1658631659
| 11>  C        0.1387837360    -5.1734450131     1.1775900983
| 12>  C       -0.7930702485    -4.6895152353     0.1080395716
| 13>  O       -1.1107750045    -3.3098622173     0.1283159761
| 14>  H        0.6412735165     1.8137521100     0.7669913737
| 15>  H        0.1448085515     1.8378987432    -0.9311511449
| 16>  H       -1.0793397383     1.7589651180     0.3465290916
| 17>  H        1.2029539243    -5.4617875821    -0.8055192012
| 18>  H        0.1202266308    -6.2393494934     1.3762999044
| 19>  H        0.3266759831    -4.5406390222     2.0384862632
| 20>  H       -1.5737237141    -5.2985037892    -0.3284007773
| 21> *
| 22>
| 23>                          ****END OF INPUT****

CARTESIAN COORDINATES (ANGSTROEM)
---------------------------------
  C     -0.083875    1.411191    0.051534
  C     -0.026912   -0.039584    0.012978
  C      0.027259   -1.242335   -0.023200
  C      0.083846   -2.658277   -0.063177
  N      1.127208   -3.374195   -0.266072
  C      0.702764   -4.745261   -0.165863
  C      0.138784   -5.173445    1.177590
  C     -0.793070   -4.689515    0.108040
  O     -1.110775   -3.309862    0.128316
  H      0.641274    1.813752    0.766991
  H      0.144809    1.837899   -0.931151
  H     -1.079340    1.758965    0.346529
  H      1.202954   -5.461788   -0.805519
  H      0.120227   -6.239349    1.376300
  H      0.326676   -4.540639    2.038486
  H     -1.573724   -5.298504   -0.328401

 Total Charge           Charge          ....    0
 Multiplicity           Mult            ....    1
 Number of Electrons    NEL             ....   64
 Basis Dimension        Dim             ....  321

ORBITAL ENERGIES
----------------

  NO   OCC          E(Eh)            E(eV)
   0   2.0000     -20.603203      -560.6417
   1   2.0000     -15.556955      -423.3263
   2   2.0000     -11.355311      -308.9937
   3   2.0000     -11.297586      -307.4229
   4   2.0000     -11.269598      -306.6613
   5   2.0000     -11.259783      -306.3943
   6   2.0000     -11.255885      -306.2882
   7   2.0000     -11.238218      -305.8074
   8   2.0000     -11.235500      -305.7335
   9   2.0000      -1.450436       -39.4684
  10   2.0000      -1.228506       -33.4293
  11   2.0000      -1.131860       -30.7995
  12   2.0000      -1.073085       -29.2001
  13   2.0000      -0.987431       -26.8694
  14   2.0000      -0.894489       -24.3403
  15   2.0000      -0.842971       -22.9384
  16   2.0000      -0.801392       -21.8070
  17   2.0000      -0.741021       -20.1642
  18   2.0000      -0.682024       -18.5588
  19   2.0000      -0.645481       -17.5644
  20   2.0000      -0.622786       -16.9469
  21   2.0000      -0.617046       -16.7907
  22   2.0000      -0.601556       -16.3692
  23   2.0000      -0.599898       -16.3241
  24   2.0000      -0.590211       -16.0605
  25   2.0000      -0.545749       -14.8506
  26   2.0000      -0.510920       -13.9028
  27   2.0000      -0.470723       -12.8090
  28   2.0000      -0.424304       -11.5459
  29   2.0000      -0.399753       -10.8778
  30   2.0000      -0.393926       -10.7193
  31   2.0000      -0.347160        -9.4467
  32   0.0000       0.111185         3.0255
  33   0.0000       0.133614         3.6358
  34   0.0000       0.159979         4.3532
  35   0.0000       0.174753         4.7553
  36   0.0000       0.178253         4.8505

MULLIKEN ATOMIC CHARGES
-----------------------
   0 C :   -0.467516
   1 C :    0.094585
   2 C :    0.117004
   3 C :   -0.002269
   4 N :   -0.255633
   5 C :   -0.045933
   6 C :   -0.269322
   7 C :    0.004291
   8 O :   -0.249010
   9 H :    0.169230
  10 H :    0.169493
  11 H :    0.168821
  12 H :    0.135920
  13 H :    0.138837
  14 H :    0.152395
  15 H :    0.139104
Sum of atomic charges:   -0.0000000

LOEWDIN ATOMIC CHARGES
----------------------
   0 C :   -0.285046
   1 C :   -0.054322
   2 C :   -0.029945
   3 C :   -0.349363
   4 N :    0.140401
   5 C :   -0.242147
   6 C :   -0.207982
   7 C :   -0.250938
   8 O :    0.281601
   9 H :    0.145772
  10 H :    0.146109
  11 H :    0.145316
  12 H :    0.139533
  13 H :    0.141572
  14 H :    0.142221
  15 H :    0.137218

  Mayer bond orders larger than 0.1
B(  0-C ,  1-C ) :   0.8632 B(  0-C ,  9-H ) :   0.9399 B(  0-C , 10-H ) :   0.9407
B(  0-C , 11-H ) :   0.9422 B(  1-C ,  2-C ) :   2.6734 B(  1-C ,  3-C ) :  -0.1293
B(  2-C ,  3-C ) :   1.1333 B(  3-C ,  4-N ) :   1.8201 B(  3-C ,  8-O ) :   1.1225
B(  4-N ,  5-C ) :   0.9693 B(  5-C ,  6-C ) :   0.8468 B(  5-C ,  7-C ) :   0.9060
B(  5-C , 12-H ) :   0.9330 B(  6-C ,  7-C ) :   0.8745 B(  6-C , 13-H ) :   0.9208
B(  6-C , 14-H ) :   0.9155 B(  7-C ,  8-O ) :   0.9183 B(  7-C , 15-H ) :   0.9302

MP2 TOTAL ENERGY:     -400.010528201 Eh
FINAL SINGLE POINT ENERGY      -400.010528201471

DIPOLE MOMENT
-------------
                                X             Y             Z
Electronic contribution:     -0.27218      -2.26913      -1.39751
Nuclear contribution   :     -0.12608       2.32724       1.55029
                        -----------------------------------------
Total Dipole Moment    :     -0.39827       0.05811       0.15278
                        -----------------------------------------
Magnitude (a.u.)       :      0.43050
Magnitude (Debye)      :      1.09426

                             ****ORCA TERMINATED NORMALLY****
TOTAL RUN TIME: 0 days 0 hours 16 minutes 26 seconds 488 msec
