                         Program Version 3.0.3 - RELEASE   -
|  1> ! RI-MP2 RIJK def2-TZVP def2-TZVP/C def2-TZVP/JK TIGHTSCF
|  2> % maxcore 2000
|  3> % mp2 density relaxed end
|  4> *xyz 0 1
|  5>  C       -0.1042247258     1.4830429273     0.0364709154
|  6>  C       -0.0213461473     0.0312385855     0.0173354113
|  7>  C        0.0583971339    -1.1741114485     0.0019964204
|  8>  C        0.1399586234    -2.5804513659    -0.0163303072
|  9>  C        1.2305087486    -3.4364907172     0.0152499919
| 10>  C        0.7512023550    -4.7731200344    -0.0249606890
| 11>  C        1.5716883475    -6.0280208513    -0.0105558038
| 12>  C       -0.6262527559    -4.6954771287    -0.0803066342
| 13>  N       -0.9875768686    -3.3763970329    -0.0748337747
| 14>  H        0.8959528943     1.9305147862     0.0355569239
| 15>  H       -0.6375036090     1.8685799325    -0.8403588868
| 16>  H       -0.6265333140     1.8470012148     0.9290614779
| 17>  H        2.2614473415    -3.1202665760     0.0624359387
| 18>  H        2.1847906427    -6.1022519864     0.8951590035
| 19>  H        0.9342525160    -6.9163147932    -0.0502104315
| 20>  H        2.2568436778    -6.0753843434    -0.8649801406
| 21>  H       -1.3687017832    -5.4770721152    -0.1227028961
| 22>  H       -1.9263600269    -3.0197132432    -0.1079780190
| 23> *
| 24>
| 25>                          ****END OF INPUT****

CARTESIAN COORDINATES (ANGSTROEM)
---------------------------------
  C     -0.104225    1.483043    0.036471
  C     -0.021346    0.031239    0.017335
  C      0.058397   -1.174111    0.001996
  C      0.139959   -2.580451   -0.016330
  C      1.230509   -3.436491    0.015250
  C      0.751202   -4.773120   -0.024961
  C      1.571688   -6.028021   -0.010556
  C     -0.626253   -4.695477   -0.080307
  N     -0.987577   -3.376397   -0.074834
  H      0.895953    1.930515    0.035557
  H     -0.637504    1.868580   -0.840359
  H     -0.626533    1.847001    0.929061
  H      2.261447   -3.120267    0.062436
  H      2.184791   -6.102252    0.895159
  H      0.934253   -6.916315   -0.050210
  H      2.256844   -6.075384   -0.864980
  H     -1.368702   -5.477072   -0.122703
  H     -1.926360   -3.019713   -0.107978

 Total Charge           Charge          ....    0
 Multiplicity           Mult            ....    1
 Number of Electrons    NEL             ....   64
 Basis Dimension        Dim             ....  333

ORBITAL ENERGIES
----------------

  NO   OCC          E(Eh)            E(eV)
   0   2.0000     -15.602483      -424.5652
   1   2.0000     -11.269469      -306.6579
   2   2.0000     -11.250009      -306.1283
   3   2.0000     -11.248570      -306.0892
   4   2.0000     -11.230297      -305.5919
   5   2.0000     -11.222963      -305.3923
   6   2.0000     -11.216821      -305.2252
   7   2.0000     -11.216005      -305.2030
   8   2.0000     -11.211020      -305.0674
   9   2.0000      -1.292219       -35.1631
  10   2.0000      -1.067128       -29.0380
  11   2.0000      -1.063329       -28.9347
  12   2.0000      -1.010359       -27.4933
  13   2.0000      -0.951870       -25.9017
  14   2.0000      -0.922153       -25.0931
  15   2.0000      -0.805896       -21.9295
  16   2.0000      -0.759164       -20.6579
  17   2.0000      -0.740543       -20.1512
  18   2.0000      -0.642752       -17.4902
  19   2.0000      -0.609471       -16.5846
  20   2.0000      -0.594382       -16.1740
  21   2.0000      -0.591858       -16.1053
  22   2.0000      -0.584819       -15.9137
  23   2.0000      -0.582845       -15.8600
  24   2.0000      -0.564030       -15.3480
  25   2.0000      -0.546023       -14.8580
  26   2.0000      -0.530786       -14.4434
  27   2.0000      -0.503048       -13.6886
  28   2.0000      -0.410499       -11.1702
  29   2.0000      -0.378907       -10.3106
  30   2.0000      -0.338323        -9.2062
  31   2.0000      -0.275195        -7.4884
  32   0.0000       0.130695         3.5564
  33   0.0000       0.133979         3.6457
  34   0.0000       0.145675         3.9640
  35   0.0000       0.153401         4.1743
  36   0.0000       0.183221         4.9857

MULLIKEN ATOMIC CHARGES
-----------------------
   0 C :   -0.469927
   1 C :    0.028445
   2 C :    0.052332
   3 C :    0.073485
   4 C :   -0.320459
   5 C :    0.081900
   6 C :   -0.439345
   7 C :   -0.122645
   8 N :   -0.291830
   9 H :    0.164949
  10 H :    0.161233
  11 H :    0.161407
  12 H :    0.123757
  13 H :    0.140542
  14 H :    0.131216
  15 H :    0.140542
  16 H :    0.140499
  17 H :    0.243899
Sum of atomic charges:   -0.0000000

LOEWDIN ATOMIC CHARGES
----------------------
   0 C :   -0.295951
   1 C :   -0.087228
   2 C :   -0.064038
   3 C :   -0.224400
   4 C :   -0.124923
   5 C :   -0.213386
   6 C :   -0.274954
   7 C :   -0.212787
   8 N :    0.213923
   9 H :    0.143322
  10 H :    0.140480
  11 H :    0.140367
  12 H :    0.143864
  13 H :    0.129122
  14 H :    0.128868
  15 H :    0.129120
  16 H :    0.133880
  17 H :    0.194722

  Mayer bond orders larger than 0.1
B(  0-C ,  1-C ) :   0.8503 B(  0-C ,  9-H ) :   0.9460 B(  0-C , 10-H ) :   0.9444
B(  0-C , 11-H ) :   0.9444 B(  1-C ,  2-C ) :   2.6301 B(  1-C ,  3-C ) :  -0.1307
B(  2-C ,  3-C ) :   1.1080 B(  3-C ,  4-C ) :   1.3956 B(  3-C ,  8-N ) :   1.1175
B(  4-C ,  5-C ) :   1.2903 B(  4-C , 12-H ) :   0.9505 B(  5-C ,  6-C ) :   0.8501
B(  5-C ,  7-C ) :   1.4607 B(  6-C , 13-H ) :   0.9389 B(  6-C , 14-H ) :   0.9565
B(  6-C , 15-H ) :   0.9389 B(  7-C ,  8-N ) :   1.1626 B(  7-C , 16-H ) :   0.9097
B(  8-N , 17-H ) :   0.8730

MP2 TOTAL ENERGY:     -364.159347763 Eh
FINAL SINGLE POINT ENERGY      -364.159347763245

DIPOLE MOMENT
-------------
                                X             Y             Z
Electronic contribution:     -2.47533       0.60896      -0.09211
Nuclear contribution   :      1.86507      -0.35824       0.07046
                        -----------------------------------------
Total Dipole Moment    :     -0.61026       0.25073      -0.02165
                        -----------------------------------------
Magnitude (a.u.)       :      0.66011
Magnitude (Debye)      :      1.67787

                             ****ORCA TERMINATED NORMALLY****
TOTAL RUN TIME: 0 days 0 hours 17 minutes 6 seconds 41 msec
