                         Program Version 3.0.3 - RELEASE   -
|  1> ! RI-MP2 RIJK def2-TZVP def2-TZVP/C def2-TZVP/JK TIGHTSCF
|  2> % maxcore 2000
|  3> % mp2 density relaxed end
|  4> *xyz 0 1
|  5>  C        0.0391030837     1.3989985692     0.0173845781
|  6>  N        0.0465353996    -0.0513036220    -0.0054991643
|  7>  C       -1.0853147984    -0.6463497900     0.0607946354
|  8>  N       -2.3324805631    -0.0972551619     0.1799730894
|  9>  C       -1.1048088675    -2.1553455887     0.0165953208
| 10>  O       -2.1678222215    -2.7447972260    -0.0584365679
| 11>  C        0.2012350973    -2.9364935704     0.0625542396
| 12>  C        0.8169087786    -2.8680558379     1.4732035819
| 13>  O       -0.0395850951    -4.2700513172    -0.3199042266
| 14>  H        1.0648694960     1.7723973588    -0.0117648060
| 15>  H       -0.4938376891     1.8235306702    -0.8493339502
| 16>  H       -0.4452096076     1.7947827072     0.9237498085
| 17>  H       -2.4765228159     0.8682594192    -0.0602412710
| 18>  H       -3.1022945446    -0.7331295944     0.0334803638
| 19>  H        0.8996235272    -2.4748500705    -0.6446131250
| 20>  H        0.1106558418    -3.2475858261     2.2187653148
| 21>  H        1.7053476311    -3.5039738470     1.4915932050
| 22>  H        1.0990441367    -1.8441777831     1.7248293576
| 23>  H       -0.9990250091    -4.3925714695    -0.2669749537
| 24> *
| 25>
| 26>                          ****END OF INPUT****

CARTESIAN COORDINATES (ANGSTROEM)
---------------------------------
  C      0.039103    1.398999    0.017385
  N      0.046535   -0.051304   -0.005499
  C     -1.085315   -0.646350    0.060795
  N     -2.332481   -0.097255    0.179973
  C     -1.104809   -2.155346    0.016595
  O     -2.167822   -2.744797   -0.058437
  C      0.201235   -2.936494    0.062554
  C      0.816909   -2.868056    1.473204
  O     -0.039585   -4.270051   -0.319904
  H      1.064869    1.772397   -0.011765
  H     -0.493838    1.823531   -0.849334
  H     -0.445210    1.794783    0.923750
  H     -2.476523    0.868259   -0.060241
  H     -3.102295   -0.733130    0.033480
  H      0.899624   -2.474850   -0.644613
  H      0.110656   -3.247586    2.218765
  H      1.705348   -3.503974    1.491593
  H      1.099044   -1.844178    1.724829
  H     -0.999025   -4.392571   -0.266975

 Total Charge           Charge          ....    0
 Multiplicity           Mult            ....    1
 Number of Electrons    NEL             ....   70
 Basis Dimension        Dim             ....  339

ORBITAL ENERGIES
----------------

  NO   OCC          E(Eh)            E(eV)
   0   2.0000     -20.579680      -560.0016
   1   2.0000     -20.549021      -559.1673
   2   2.0000     -15.589545      -424.2131
   3   2.0000     -15.559098      -423.3846
   4   2.0000     -11.353639      -308.9482
   5   2.0000     -11.332791      -308.3809
   6   2.0000     -11.291316      -307.2523
   7   2.0000     -11.259591      -306.3890
   8   2.0000     -11.219174      -305.2892
   9   2.0000      -1.428413       -38.8691
  10   2.0000      -1.356795       -36.9203
  11   2.0000      -1.286308       -35.0022
  12   2.0000      -1.180381       -32.1198
  13   2.0000      -1.041050       -28.3284
  14   2.0000      -0.975751       -26.5515
  15   2.0000      -0.895696       -24.3731
  16   2.0000      -0.842511       -22.9259
  17   2.0000      -0.762866       -20.7586
  18   2.0000      -0.746948       -20.3255
  19   2.0000      -0.694919       -18.9097
  20   2.0000      -0.691882       -18.8271
  21   2.0000      -0.646384       -17.5890
  22   2.0000      -0.625253       -17.0140
  23   2.0000      -0.615485       -16.7482
  24   2.0000      -0.591979       -16.1086
  25   2.0000      -0.574100       -15.6220
  26   2.0000      -0.568124       -15.4594
  27   2.0000      -0.541257       -14.7284
  28   2.0000      -0.535833       -14.5808
  29   2.0000      -0.524343       -14.2681
  30   2.0000      -0.502876       -13.6840
  31   2.0000      -0.462857       -12.5950
  32   2.0000      -0.439008       -11.9460
  33   2.0000      -0.417686       -11.3658
  34   2.0000      -0.376189       -10.2366
  35   0.0000       0.078755         2.1430
  36   0.0000       0.120969         3.2917
  37   0.0000       0.156741         4.2651
  38   0.0000       0.172519         4.6945
  39   0.0000       0.188226         5.1219

MULLIKEN ATOMIC CHARGES
-----------------------
   0 C :   -0.369176
   1 N :   -0.279980
   2 C :    0.160800
   3 N :   -0.505424
   4 C :    0.255682
   5 O :   -0.353047
   6 C :    0.147837
   7 C :   -0.391680
   8 O :   -0.475521
   9 H :    0.153330
  10 H :    0.132645
  11 H :    0.143024
  12 H :    0.260322
  13 H :    0.277411
  14 H :    0.111933
  15 H :    0.115147
  16 H :    0.139930
  17 H :    0.144988
  18 H :    0.331779
Sum of atomic charges:    0.0000000

LOEWDIN ATOMIC CHARGES
----------------------
   0 C :   -0.344339
   1 N :    0.074114
   2 C :   -0.361667
   3 N :   -0.019238
   4 C :   -0.257846
   5 O :    0.138005
   6 C :   -0.348170
   7 C :   -0.285249
   8 O :   -0.011123
   9 H :    0.118701
  10 H :    0.113137
  11 H :    0.115400
  12 H :    0.170991
  13 H :    0.181596
  14 H :    0.156146
  15 H :    0.123596
  16 H :    0.129548
  17 H :    0.127661
  18 H :    0.178740

  Mayer bond orders larger than 0.1
B(  0-C ,  1-N ) :   0.8973 B(  0-C ,  9-H ) :   0.9475 B(  0-C , 10-H ) :   0.9229
B(  0-C , 11-H ) :   0.9266 B(  1-N ,  2-C ) :   1.7787 B(  2-C ,  3-N ) :   1.1432
B(  2-C ,  4-C ) :   0.8860 B(  3-N , 12-H ) :   0.8683 B(  3-N , 13-H ) :   0.8464
B(  4-C ,  5-O ) :   1.7991 B(  4-C ,  6-C ) :   0.9663 B(  6-C ,  7-C ) :   0.8542
B(  6-C ,  8-O ) :   1.0426 B(  6-C , 14-H ) :   0.9167 B(  7-C , 15-H ) :   0.9255
B(  7-C , 16-H ) :   0.9322 B(  7-C , 17-H ) :   0.9211 B(  8-O , 18-H ) :   0.8100

MP2 TOTAL ENERGY:     -455.633337907 Eh
FINAL SINGLE POINT ENERGY      -455.633337907442

DIPOLE MOMENT
-------------
                                X             Y             Z
Electronic contribution:     -4.17141      -4.41116      -2.68376
Nuclear contribution   :      3.53299       5.84077       2.78367
                        -----------------------------------------
Total Dipole Moment    :     -0.63842       1.42961       0.09991
                        -----------------------------------------
Magnitude (a.u.)       :      1.56887
Magnitude (Debye)      :      3.98775

                             ****ORCA TERMINATED NORMALLY****
TOTAL RUN TIME: 0 days 0 hours 17 minutes 1 seconds 243 msec
