                         Program Version 3.0.3 - RELEASE   -
|  1> ! RI-MP2 RIJK def2-TZVP def2-TZVP/C def2-TZVP/JK TIGHTSCF
|  2> % maxcore 2000
|  3> % mp2 density relaxed end
|  4> *xyz 0 1
|  5>  C        0.0637588474    -1.2245531402     0.0927399102
|  6>  C        0.0353861591    -0.0232115303     0.0514676056
|  7>  C        0.0017509216     1.4372615069     0.0192721167
|  8>  C       -0.8893339877     1.9989766296     1.1616312728
|  9>  C       -0.7611576436     3.4926765070     1.3070830606
| 10>  C        0.3551110098     4.1504664810     0.9868975441
| 11>  C        1.5640309241     3.4699194363     0.4644230310
| 12>  C        2.1745070567     2.3239621203     1.2666251569
| 13>  C        1.4090322306     2.0336121524     0.0108835252
| 14>  H        0.0887812462    -2.2855695985     0.1207116207
| 15>  H       -0.4668907428     1.7438781597    -0.9267936008
| 16>  H       -1.9283879824     1.7161745170     0.9642525343
| 17>  H       -0.6230964389     1.4960964769     2.1004770476
| 18>  H       -1.6150059341     4.0300311935     1.7094950862
| 19>  H        0.4086485192     5.2280633537     1.1155724560
| 20>  H        2.2595759857     4.0936129390    -0.0875593511
| 21>  H        3.2520307070     2.2030730851     1.2426955729
| 22>  H        1.7212697382     2.1004626500     2.2257715290
| 23>  H        1.9986996840     1.7314984407    -0.8489982979
| 24> *
| 25>
| 26>                          ****END OF INPUT****

CARTESIAN COORDINATES (ANGSTROEM)
---------------------------------
  C      0.063759   -1.224553    0.092740
  C      0.035386   -0.023212    0.051468
  C      0.001751    1.437262    0.019272
  C     -0.889334    1.998977    1.161631
  C     -0.761158    3.492677    1.307083
  C      0.355111    4.150466    0.986898
  C      1.564031    3.469919    0.464423
  C      2.174507    2.323962    1.266625
  C      1.409032    2.033612    0.010884
  H      0.088781   -2.285570    0.120712
  H     -0.466891    1.743878   -0.926794
  H     -1.928388    1.716175    0.964253
  H     -0.623096    1.496096    2.100477
  H     -1.615006    4.030031    1.709495
  H      0.408649    5.228063    1.115572
  H      2.259576    4.093613   -0.087559
  H      3.252031    2.203073    1.242696
  H      1.721270    2.100463    2.225772
  H      1.998700    1.731498   -0.848998

 Total Charge           Charge          ....    0
 Multiplicity           Mult            ....    1
 Number of Electrons    NEL             ....   64
 Basis Dimension        Dim             ....  339

ORBITAL ENERGIES
----------------

  NO   OCC          E(Eh)            E(eV)
   0   2.0000     -11.259424      -306.3845
   1   2.0000     -11.238830      -305.8241
   2   2.0000     -11.235243      -305.7265
   3   2.0000     -11.233881      -305.6894
   4   2.0000     -11.229168      -305.5612
   5   2.0000     -11.229138      -305.5604
   6   2.0000     -11.229107      -305.5595
   7   2.0000     -11.224371      -305.4307
   8   2.0000     -11.216836      -305.2256
   9   2.0000      -1.175578       -31.9891
  10   2.0000      -1.076161       -29.2838
  11   2.0000      -1.049397       -28.5556
  12   2.0000      -0.986447       -26.8426
  13   2.0000      -0.899463       -24.4756
  14   2.0000      -0.834569       -22.7098
  15   2.0000      -0.802330       -21.8325
  16   2.0000      -0.723087       -19.6762
  17   2.0000      -0.698096       -18.9962
  18   2.0000      -0.689501       -18.7623
  19   2.0000      -0.644259       -17.5312
  20   2.0000      -0.625255       -17.0141
  21   2.0000      -0.607876       -16.5411
  22   2.0000      -0.573172       -15.5968
  23   2.0000      -0.539136       -14.6706
  24   2.0000      -0.525751       -14.3064
  25   2.0000      -0.500827       -13.6282
  26   2.0000      -0.480896       -13.0858
  27   2.0000      -0.449122       -12.2212
  28   2.0000      -0.415330       -11.3017
  29   2.0000      -0.383322       -10.4307
  30   2.0000      -0.381187       -10.3726
  31   2.0000      -0.332020        -9.0347
  32   0.0000       0.135452         3.6858
  33   0.0000       0.147571         4.0156
  34   0.0000       0.162514         4.4222
  35   0.0000       0.164804         4.4845
  36   0.0000       0.169572         4.6143

MULLIKEN ATOMIC CHARGES
-----------------------
   0 C :   -0.156426
   1 C :   -0.053148
   2 C :   -0.134487
   3 C :   -0.200316
   4 C :   -0.163860
   5 C :   -0.228791
   6 C :    0.020550
   7 C :   -0.307896
   8 C :   -0.109601
   9 H :    0.188903
  10 H :    0.111649
  11 H :    0.136207
  12 H :    0.131621
  13 H :    0.121274
  14 H :    0.119340
  15 H :    0.124430
  16 H :    0.133535
  17 H :    0.139929
  18 H :    0.127086
Sum of atomic charges:    0.0000000

LOEWDIN ATOMIC CHARGES
----------------------
   0 C :   -0.103569
   1 C :   -0.081902
   2 C :   -0.210476
   3 C :   -0.209768
   4 C :   -0.170709
   5 C :   -0.153868
   6 C :   -0.187876
   7 C :   -0.183394
   8 C :   -0.166042
   9 H :    0.125864
  10 H :    0.178032
  11 H :    0.147824
  12 H :    0.150857
  13 H :    0.141723
  14 H :    0.145541
  15 H :    0.149099
  16 H :    0.133787
  17 H :    0.140138
  18 H :    0.154739

  Mayer bond orders larger than 0.1
B(  0-C ,  1-C ) :   2.5807 B(  0-C ,  9-H ) :   0.8895 B(  1-C ,  2-C ) :   1.1839
B(  2-C ,  3-C ) :   0.9465 B(  2-C ,  8-C ) :   0.9044 B(  2-C , 10-H ) :   0.9061
B(  3-C ,  4-C ) :   0.9187 B(  3-C , 11-H ) :   0.9260 B(  3-C , 12-H ) :   0.9109
B(  4-C ,  5-C ) :   1.7868 B(  4-C , 13-H ) :   0.9318 B(  5-C ,  6-C ) :   0.9607
B(  5-C , 14-H ) :   0.9333 B(  6-C ,  7-C ) :   0.8286 B(  6-C ,  8-C ) :   0.8283
B(  6-C , 15-H ) :   0.9294 B(  7-C ,  8-C ) :   0.9119 B(  7-C , 16-H ) :   0.9254
B(  7-C , 17-H ) :   0.9220 B(  8-C , 18-H ) :   0.9298

MP2 TOTAL ENERGY:     -348.061677804 Eh
FINAL SINGLE POINT ENERGY      -348.061677803973

DIPOLE MOMENT
-------------
                                X             Y             Z
Electronic contribution:     -0.50581      -1.91790      -1.42105
Nuclear contribution   :      0.60355       2.09054       1.42362
                        -----------------------------------------
Total Dipole Moment    :      0.09774       0.17265       0.00257
                        -----------------------------------------
Magnitude (a.u.)       :      0.19841
Magnitude (Debye)      :      0.50431

                             ****ORCA TERMINATED NORMALLY****
TOTAL RUN TIME: 0 days 0 hours 19 minutes 4 seconds 679 msec
