                         Program Version 3.0.3 - RELEASE   -
|  1> ! RI-MP2 RIJK def2-TZVP def2-TZVP/C def2-TZVP/JK TIGHTSCF
|  2> % maxcore 2000
|  3> % mp2 density relaxed end
|  4> *xyz 0 1
|  5>  O        0.0432225772     1.4743725725    -0.0607371735
|  6>  C        0.0424738527     0.0762281730     0.0178586412
|  7>  C        0.6060919717    -0.5565632815    -1.1986854692
|  8>  N        1.0586895009    -1.0253062600    -2.1519818787
|  9>  C        0.7683695951    -0.4395148365     1.2373763895
| 10>  N        1.6779446662     0.2301539559     1.8785199680
| 11>  O        2.0549936653    -0.5902833917     2.8819036894
| 12>  N        1.3204823889    -1.7720435545     2.7967875619
| 13>  N        0.5505876063    -1.6767767614     1.8080232656
| 14>  H        0.9557132315     1.7894215197    -0.0353088711
| 15>  H       -1.0055472459    -0.2332632254     0.0971168468
| 16> *
| 17>
| 18>                          ****END OF INPUT****

CARTESIAN COORDINATES (ANGSTROEM)
---------------------------------
  O      0.043223    1.474373   -0.060737
  C      0.042474    0.076228    0.017859
  C      0.606092   -0.556563   -1.198685
  N      1.058690   -1.025306   -2.151982
  C      0.768370   -0.439515    1.237376
  N      1.677945    0.230154    1.878520
  O      2.054994   -0.590283    2.881904
  N      1.320482   -1.772044    2.796788
  N      0.550588   -1.676777    1.808023
  H      0.955713    1.789422   -0.035309
  H     -1.005547   -0.233263    0.097117

 Total Charge           Charge          ....    0
 Multiplicity           Mult            ....    1
 Number of Electrons    NEL             ....   64
 Basis Dimension        Dim             ....  291

ORBITAL ENERGIES
----------------

  NO   OCC          E(Eh)            E(eV)
   0   2.0000     -20.732792      -564.1680
   1   2.0000     -20.625805      -561.2567
   2   2.0000     -15.758057      -428.7985
   3   2.0000     -15.702255      -427.2801
   4   2.0000     -15.684099      -426.7860
   5   2.0000     -15.608558      -424.7305
   6   2.0000     -11.397475      -310.1411
   7   2.0000     -11.371016      -309.4211
   8   2.0000     -11.304660      -307.6154
   9   2.0000      -1.619270       -44.0626
  10   2.0000      -1.441848       -39.2347
  11   2.0000      -1.375550       -37.4306
  12   2.0000      -1.260195       -34.2917
  13   2.0000      -1.247950       -33.9584
  14   2.0000      -1.068834       -29.0844
  15   2.0000      -0.965816       -26.2812
  16   2.0000      -0.910696       -24.7813
  17   2.0000      -0.807355       -21.9692
  18   2.0000      -0.798079       -21.7168
  19   2.0000      -0.747460       -20.3394
  20   2.0000      -0.704024       -19.1575
  21   2.0000      -0.689476       -18.7616
  22   2.0000      -0.623056       -16.9542
  23   2.0000      -0.611387       -16.6367
  24   2.0000      -0.592997       -16.1363
  25   2.0000      -0.557990       -15.1837
  26   2.0000      -0.548253       -14.9187
  27   2.0000      -0.538879       -14.6636
  28   2.0000      -0.528374       -14.3778
  29   2.0000      -0.502373       -13.6703
  30   2.0000      -0.496524       -13.5111
  31   2.0000      -0.471876       -12.8404
  32   0.0000       0.043938         1.1956
  33   0.0000       0.106361         2.8942
  34   0.0000       0.123394         3.3577
  35   0.0000       0.147054         4.0015
  36   0.0000       0.157997         4.2993

MULLIKEN ATOMIC CHARGES
-----------------------
   0 O :   -0.429229
   1 C :    0.249715
   2 C :   -0.195422
   3 N :   -0.042898
   4 C :    0.101925
   5 N :   -0.107907
   6 O :    0.009877
   7 N :    0.013329
   8 N :   -0.111707
   9 H :    0.344913
  10 H :    0.167405
Sum of atomic charges:    0.0000000

LOEWDIN ATOMIC CHARGES
----------------------
   0 O :    0.044181
   1 C :   -0.312198
   2 C :   -0.157818
   3 N :    0.094292
   4 C :   -0.346532
   5 N :    0.050932
   6 O :    0.205371
   7 N :   -0.017025
   8 N :    0.058475
   9 H :    0.193864
  10 H :    0.186459

  Mayer bond orders larger than 0.1
B(  0-O ,  1-C ) :   0.9746 B(  0-O ,  9-H ) :   0.8212 B(  1-C ,  2-C ) :   0.8975
B(  1-C ,  4-C ) :   0.9112 B(  1-C , 10-H ) :   0.8997 B(  2-C ,  3-N ) :   2.8208
B(  4-C ,  5-N ) :   1.5436 B(  4-C ,  8-N ) :   1.2206 B(  5-N ,  6-O ) :   0.9796
B(  5-N ,  7-N ) :   0.1257 B(  6-O ,  7-N ) :   0.9309 B(  7-N ,  8-N ) :   1.4261

MP2 TOTAL ENERGY:     -484.034916681 Eh
FINAL SINGLE POINT ENERGY      -484.034916681191

DIPOLE MOMENT
-------------
                                X             Y             Z
Electronic contribution:      1.45421      -1.66322       1.98919
Nuclear contribution   :     -1.75014       2.28737      -1.50577
                        -----------------------------------------
Total Dipole Moment    :     -0.29593       0.62415       0.48343
                        -----------------------------------------
Magnitude (a.u.)       :      0.84311
Magnitude (Debye)      :      2.14303

                             ****ORCA TERMINATED NORMALLY****
TOTAL RUN TIME: 0 days 0 hours 12 minutes 47 seconds 9 msec
