                         Program Version 3.0.3 - RELEASE   -
|  1> ! RI-MP2 RIJK def2-TZVP def2-TZVP/C def2-TZVP/JK TIGHTSCF
|  2> % maxcore 2000
|  3> % mp2 density relaxed end
|  4> *xyz 0 1
|  5>  O       -0.1437105234     0.0591859244    -0.0505346612
|  6>  C       -0.0834538431     1.2492601904    -0.1013860222
|  7>  O        1.0508906923     1.9203428196     0.2228253688
|  8>  C        1.0420311602     3.3296337685     0.0486002902
|  9>  C        2.2916874318     3.9616303355     0.6596219876
| 10>  C        2.5831566298     5.1688578061    -0.2614316010
| 11>  N        1.9913846716     4.7573704163    -1.5260364918
| 12>  C        1.1116850419     3.7227531739    -1.4427657838
| 13>  O        0.4852944798     3.2036933124    -2.3394496226
| 14>  H       -0.9147640749     1.9149298114    -0.3869964049
| 15>  H        0.1204450671     3.7572181572     0.4672729366
| 16>  H        2.1730407585     4.2505648521     1.7045664611
| 17>  H        3.1037809512     3.2326627811     0.5926028971
| 18>  H        2.1179182107     6.0879893906     0.1193830992
| 19>  H        3.6554564217     5.3566607499    -0.3670750547
| 20>  H        2.1370012247     5.2446899707    -2.3961298283
| 21> *
| 22>
| 23>                          ****END OF INPUT****

CARTESIAN COORDINATES (ANGSTROEM)
---------------------------------
  O     -0.143711    0.059186   -0.050535
  C     -0.083454    1.249260   -0.101386
  O      1.050891    1.920343    0.222825
  C      1.042031    3.329634    0.048600
  C      2.291687    3.961630    0.659622
  C      2.583157    5.168858   -0.261432
  N      1.991385    4.757370   -1.526036
  C      1.111685    3.722753   -1.442766
  O      0.485294    3.203693   -2.339450
  H     -0.914764    1.914930   -0.386996
  H      0.120445    3.757218    0.467273
  H      2.173041    4.250565    1.704566
  H      3.103781    3.232663    0.592603
  H      2.117918    6.087989    0.119383
  H      3.655456    5.356661   -0.367075
  H      2.137001    5.244690   -2.396130

 Total Charge           Charge          ....    0
 Multiplicity           Mult            ....    1
 Number of Electrons    NEL             ....   68
 Basis Dimension        Dim             ....  321

ORBITAL ENERGIES
----------------

  NO   OCC          E(Eh)            E(eV)
   0   2.0000     -20.614203      -560.9410
   1   2.0000     -20.547345      -559.1217
   2   2.0000     -20.539477      -558.9076
   3   2.0000     -15.607098      -424.6907
   4   2.0000     -11.379739      -309.6584
   5   2.0000     -11.366861      -309.3080
   6   2.0000     -11.328574      -308.2662
   7   2.0000     -11.300354      -307.4983
   8   2.0000     -11.264084      -306.5113
   9   2.0000      -1.466897       -39.9163
  10   2.0000      -1.403811       -38.1996
  11   2.0000      -1.371957       -37.3329
  12   2.0000      -1.274800       -34.6891
  13   2.0000      -1.080415       -29.3996
  14   2.0000      -0.994558       -27.0633
  15   2.0000      -0.869224       -23.6528
  16   2.0000      -0.860396       -23.4126
  17   2.0000      -0.818435       -22.2708
  18   2.0000      -0.737605       -20.0712
  19   2.0000      -0.713789       -19.4232
  20   2.0000      -0.703421       -19.1411
  21   2.0000      -0.667058       -18.1516
  22   2.0000      -0.654775       -17.8173
  23   2.0000      -0.628041       -17.0899
  24   2.0000      -0.590362       -16.0646
  25   2.0000      -0.588429       -16.0120
  26   2.0000      -0.571677       -15.5561
  27   2.0000      -0.565564       -15.3898
  28   2.0000      -0.548835       -14.9346
  29   2.0000      -0.511799       -13.9268
  30   2.0000      -0.485316       -13.2061
  31   2.0000      -0.456629       -12.4255
  32   2.0000      -0.424315       -11.5462
  33   2.0000      -0.414993       -11.2925
  34   0.0000       0.110591         3.0093
  35   0.0000       0.129052         3.5117
  36   0.0000       0.146069         3.9748
  37   0.0000       0.160321         4.3626
  38   0.0000       0.171552         4.6682

MULLIKEN ATOMIC CHARGES
-----------------------
   0 O :   -0.265938
   1 C :    0.202367
   2 O :   -0.218342
   3 C :    0.068610
   4 C :   -0.239656
   5 C :   -0.115397
   6 N :   -0.290367
   7 C :    0.184036
   8 O :   -0.333018
   9 H :    0.091641
  10 H :    0.116216
  11 H :    0.143971
  12 H :    0.146295
  13 H :    0.125147
  14 H :    0.137703
  15 H :    0.246730
Sum of atomic charges:   -0.0000000

LOEWDIN ATOMIC CHARGES
----------------------
   0 O :    0.126447
   1 C :   -0.430954
   2 O :    0.261021
   3 C :   -0.272317
   4 C :   -0.217069
   5 C :   -0.258243
   6 N :    0.128590
   7 C :   -0.442151
   8 O :    0.100166
   9 H :    0.110197
  10 H :    0.151284
  11 H :    0.140627
  12 H :    0.153524
  13 H :    0.128773
  14 H :    0.133069
  15 H :    0.187037

  Mayer bond orders larger than 0.1
B(  0-O ,  1-C ) :   2.0301 B(  1-C ,  2-O ) :   1.0276 B(  1-C ,  9-H ) :   0.9165
B(  2-O ,  3-C ) :   0.8999 B(  3-C ,  4-C ) :   0.9238 B(  3-C ,  7-C ) :   0.8703
B(  3-C , 10-H ) :   0.9193 B(  4-C ,  5-C ) :   0.9323 B(  4-C , 11-H ) :   0.9323
B(  4-C , 12-H ) :   0.9230 B(  5-C ,  6-N ) :   0.8657 B(  5-C , 13-H ) :   0.9254
B(  5-C , 14-H ) :   0.9324 B(  6-N ,  7-C ) :   1.2032 B(  6-N , 15-H ) :   0.8605
B(  7-C ,  8-O ) :   1.9858

MP2 TOTAL ENERGY:     -474.334255763 Eh
FINAL SINGLE POINT ENERGY      -474.334255762658

DIPOLE MOMENT
-------------
                                X             Y             Z
Electronic contribution:     -3.28777      -5.65610      -2.59650
Nuclear contribution   :      4.17164       8.16510       3.27131
                        -----------------------------------------
Total Dipole Moment    :      0.88388       2.50900       0.67481
                        -----------------------------------------
Magnitude (a.u.)       :      2.74439
Magnitude (Debye)      :      6.97569

                             ****ORCA TERMINATED NORMALLY****
TOTAL RUN TIME: 0 days 0 hours 15 minutes 18 seconds 938 msec
