                         Program Version 3.0.3 - RELEASE   -
|  1> ! RI-MP2 RIJK def2-TZVP def2-TZVP/C def2-TZVP/JK TIGHTSCF
|  2> % maxcore 2000
|  3> % mp2 density relaxed end
|  4> *xyz 0 1
|  5>  O       -0.0166101683    -0.0121581592     0.1143400204
|  6>  C       -0.0226253666     1.1681700832    -0.0325479268
|  7>  O        1.0889017856     1.9173814949     0.2646424868
|  8>  C        1.0249347719     3.2676933375     0.1294712180
|  9>  C        2.0744918188     4.1028855334    -0.0642576401
| 10>  O        1.5631419861     5.3745986499    -0.0909025680
| 11>  C        0.2390449966     5.2180474181     0.0807892960
| 12>  N       -0.1473273764     3.9892434208     0.2233535417
| 13>  H       -0.8584813659     1.7790710052    -0.3991662454
| 14>  H        3.1354646356     3.9856893931    -0.1833938782
| 15>  H       -0.3656070877     6.1107052330     0.0902104957
| 16> *
| 17>
| 18>                          ****END OF INPUT****

CARTESIAN COORDINATES (ANGSTROEM)
---------------------------------
  O     -0.016610   -0.012158    0.114340
  C     -0.022625    1.168170   -0.032548
  O      1.088902    1.917381    0.264642
  C      1.024935    3.267693    0.129471
  C      2.074492    4.102886   -0.064258
  O      1.563142    5.374599   -0.090903
  C      0.239045    5.218047    0.080789
  N     -0.147327    3.989243    0.223354
  H     -0.858481    1.779071   -0.399166
  H      3.135465    3.985689   -0.183394
  H     -0.365607    6.110705    0.090210

 Total Charge           Charge          ....    0
 Multiplicity           Mult            ....    1
 Number of Electrons    NEL             ....   58
 Basis Dimension        Dim             ....  266

ORBITAL ENERGIES
----------------

  NO   OCC          E(Eh)            E(eV)
   0   2.0000     -20.664956      -562.3220
   1   2.0000     -20.639055      -561.6172
   2   2.0000     -20.567808      -559.6785
   3   2.0000     -15.597449      -424.4282
   4   2.0000     -11.397596      -310.1443
   5   2.0000     -11.367382      -309.3222
   6   2.0000     -11.352511      -308.9175
   7   2.0000     -11.308776      -307.7274
   8   2.0000      -1.518440       -41.3189
   9   2.0000      -1.489655       -40.5356
  10   2.0000      -1.399561       -38.0840
  11   2.0000      -1.263513       -34.3819
  12   2.0000      -1.061301       -28.8795
  13   2.0000      -0.918406       -24.9911
  14   2.0000      -0.864824       -23.5330
  15   2.0000      -0.832172       -22.6446
  16   2.0000      -0.796822       -21.6826
  17   2.0000      -0.717331       -19.5196
  18   2.0000      -0.700417       -19.0593
  19   2.0000      -0.679706       -18.4957
  20   2.0000      -0.656299       -17.8588
  21   2.0000      -0.647863       -17.6292
  22   2.0000      -0.613727       -16.7003
  23   2.0000      -0.585695       -15.9376
  24   2.0000      -0.526577       -14.3289
  25   2.0000      -0.510000       -13.8778
  26   2.0000      -0.471337       -12.8257
  27   2.0000      -0.467062       -12.7094
  28   2.0000      -0.356148        -9.6913
  29   0.0000       0.111563         3.0358
  30   0.0000       0.139219         3.7883
  31   0.0000       0.159427         4.3382
  32   0.0000       0.171015         4.6535
  33   0.0000       0.179913         4.8957

MULLIKEN ATOMIC CHARGES
-----------------------
   0 O :   -0.246864
   1 C :    0.193723
   2 O :   -0.222366
   3 C :    0.211199
   4 C :   -0.051038
   5 O :   -0.185367
   6 C :    0.128429
   7 N :   -0.306446
   8 H :    0.128464
   9 H :    0.178152
  10 H :    0.172114
Sum of atomic charges:    0.0000000

LOEWDIN ATOMIC CHARGES
----------------------
   0 O :    0.143866
   1 C :   -0.397012
   2 O :    0.302108
   3 C :   -0.367958
   4 C :   -0.217384
   5 O :    0.346561
   6 C :   -0.317864
   7 N :    0.110822
   8 H :    0.118509
   9 H :    0.141375
  10 H :    0.136978

  Mayer bond orders larger than 0.1
B(  0-O ,  1-C ) :   2.0475 B(  1-C ,  2-O ) :   0.9704 B(  1-C ,  8-H ) :   0.9174
B(  2-O ,  3-C ) :   1.0017 B(  3-C ,  4-C ) :   1.5716 B(  3-C ,  7-N ) :   1.1600
B(  4-C ,  5-O ) :   1.0090 B(  4-C ,  9-H ) :   0.9121 B(  5-O ,  6-C ) :   1.1066
B(  6-C ,  7-N ) :   1.5907 B(  6-C , 10-H ) :   0.9210

MP2 TOTAL ENERGY:     -433.889126881 Eh
FINAL SINGLE POINT ENERGY      -433.889126880513

DIPOLE MOMENT
-------------
                                X             Y             Z
Electronic contribution:      0.46914      -0.95473       0.34519
Nuclear contribution   :     -0.24220       2.41590      -0.67438
                        -----------------------------------------
Total Dipole Moment    :      0.22694       1.46117      -0.32919
                        -----------------------------------------
Magnitude (a.u.)       :      1.51489
Magnitude (Debye)      :      3.85054

                             ****ORCA TERMINATED NORMALLY****
TOTAL RUN TIME: 0 days 0 hours 7 minutes 45 seconds 998 msec
