                         Program Version 3.0.3 - RELEASE   -
|  1> ! RI-MP2 RIJK def2-TZVP def2-TZVP/C def2-TZVP/JK TIGHTSCF
|  2> % maxcore 2000
|  3> % mp2 density relaxed end
|  4> *xyz 0 1
|  5>  C        0.5995394918     0.0000000000     1.0000000000
|  6>  C       -0.5995394918     0.0000000000     1.0000000000
|  7>  H       -1.6616385861     0.0000000000     1.0000000000
|  8>  H        1.6616385861     0.0000000000     1.0000000000
|  9> *
| 10>
| 11>                          ****END OF INPUT****

CARTESIAN COORDINATES (ANGSTROEM)
---------------------------------
  C      0.599539    0.000000    1.000000
  C     -0.599539    0.000000    1.000000
  H     -1.661639    0.000000    1.000000
  H      1.661639    0.000000    1.000000

 Total Charge           Charge          ....    0
 Multiplicity           Mult            ....    1
 Number of Electrons    NEL             ....   14
 Basis Dimension        Dim             ....   74

ORBITAL ENERGIES
----------------

  NO   OCC          E(Eh)            E(eV)
   0   2.0000     -11.241251      -305.8900
   1   2.0000     -11.237349      -305.7838
   2   2.0000      -1.030634       -28.0450
   3   2.0000      -0.766660       -20.8619
   4   2.0000      -0.681190       -18.5361
   5   2.0000      -0.411453       -11.1962
   6   2.0000      -0.411453       -11.1962
   7   0.0000       0.155598         4.2340
   8   0.0000       0.166081         4.5193
   9   0.0000       0.166081         4.5193
  10   0.0000       0.188557         5.1309
  11   0.0000       0.241081         6.5601

MULLIKEN ATOMIC CHARGES
-----------------------
   0 C :   -0.193145
   1 C :   -0.193145
   2 H :    0.193145
   3 H :    0.193145
Sum of atomic charges:    0.0000000

LOEWDIN ATOMIC CHARGES
----------------------
   0 C :   -0.125992
   1 C :   -0.125992
   2 H :    0.125992
   3 H :    0.125992

  Mayer bond orders larger than 0.1
B(  0-C ,  1-C ) :   2.7552 B(  0-C ,  3-H ) :   0.9208 B(  1-C ,  2-H ) :   0.9208

MP2 TOTAL ENERGY:      -77.154880394 Eh
FINAL SINGLE POINT ENERGY       -77.154880393572

DIPOLE MOMENT
-------------
                                X             Y             Z
Electronic contribution:      0.00000       0.00000      -0.00000
Nuclear contribution   :      0.00000       0.00000       0.00000
                        -----------------------------------------
Total Dipole Moment    :      0.00000       0.00000      -0.00000
                        -----------------------------------------
Magnitude (a.u.)       :      0.00000
Magnitude (Debye)      :      0.00000

                             ****ORCA TERMINATED NORMALLY****
TOTAL RUN TIME: 0 days 0 hours 8 minutes 41 seconds 653 msec
