                         Program Version 3.0.3 - RELEASE   -
|  1> ! RI-MP2 RIJK def2-TZVP def2-TZVP/C def2-TZVP/JK TIGHTSCF
|  2> % maxcore 2000
|  3> % mp2 density relaxed end
|  4> *xyz 0 1
|  5>  N       -0.4412415165    -1.1596543229    -0.1890901608
|  6>  C       -0.2600304738    -0.0226238836    -0.0933610134
|  7>  C       -0.0311062487     1.4241039643    -0.0135962519
|  8>  C       -0.6551846860     2.0036469114     1.2759217143
|  9>  O       -0.2537468305     1.3387240918     2.4431394429
| 10>  C        1.0004668429     1.7155955317     2.9805881099
| 11>  C        2.2275180800     1.3072399107     2.2012874243
| 12>  C        2.4161217036     1.3172010388     0.8822606859
| 13>  C        1.4643742718     1.7664156584    -0.1988531076
| 14>  H       -0.5731013957     1.8773682669    -0.8548536145
| 15>  H       -0.4197800169     3.0798211017     1.3233902446
| 16>  H       -1.7429133349     1.8960855379     1.2233063107
| 17>  H        1.0199321170     2.8088606403     3.1467919858
| 18>  H        1.0324511532     1.2471918053     3.9685591527
| 19>  H        3.0633947245     0.9978184965     2.8255299368
| 20>  H        3.3922540985     1.0057534353     0.5180786309
| 21>  H        1.7920546962     1.3526754617    -1.1573779702
| 22>  H        1.5331997952     2.8589838338    -0.3070928005
| 23> *
| 24>
| 25>                          ****END OF INPUT****

CARTESIAN COORDINATES (ANGSTROEM)
---------------------------------
  N     -0.441242   -1.159654   -0.189090
  C     -0.260030   -0.022624   -0.093361
  C     -0.031106    1.424104   -0.013596
  C     -0.655185    2.003647    1.275922
  O     -0.253747    1.338724    2.443139
  C      1.000467    1.715596    2.980588
  C      2.227518    1.307240    2.201287
  C      2.416122    1.317201    0.882261
  C      1.464374    1.766416   -0.198853
  H     -0.573101    1.877368   -0.854854
  H     -0.419780    3.079821    1.323390
  H     -1.742913    1.896086    1.223306
  H      1.019932    2.808861    3.146792
  H      1.032451    1.247192    3.968559
  H      3.063395    0.997818    2.825530
  H      3.392254    1.005753    0.518079
  H      1.792055    1.352675   -1.157378
  H      1.533200    2.858984   -0.307093

 Total Charge           Charge          ....    0
 Multiplicity           Mult            ....    1
 Number of Electrons    NEL             ....   66
 Basis Dimension        Dim             ....  333

ORBITAL ENERGIES
----------------

  NO   OCC          E(Eh)            E(eV)
   0   2.0000     -20.571844      -559.7883
   1   2.0000     -15.561388      -423.4469
   2   2.0000     -11.303797      -307.5919
   3   2.0000     -11.294300      -307.3335
   4   2.0000     -11.288854      -307.1853
   5   2.0000     -11.264645      -306.5266
   6   2.0000     -11.260025      -306.4009
   7   2.0000     -11.245674      -306.0104
   8   2.0000     -11.241373      -305.8933
   9   2.0000      -1.396465       -37.9997
  10   2.0000      -1.212108       -32.9831
  11   2.0000      -1.120062       -30.4784
  12   2.0000      -1.079874       -29.3849
  13   2.0000      -0.957377       -26.0515
  14   2.0000      -0.948601       -25.8128
  15   2.0000      -0.854138       -23.2423
  16   2.0000      -0.745594       -20.2886
  17   2.0000      -0.713669       -19.4199
  18   2.0000      -0.706704       -19.2304
  19   2.0000      -0.672683       -18.3046
  20   2.0000      -0.629413       -17.1272
  21   2.0000      -0.622169       -16.9301
  22   2.0000      -0.608109       -16.5475
  23   2.0000      -0.592877       -16.1330
  24   2.0000      -0.554224       -15.0812
  25   2.0000      -0.543336       -14.7849
  26   2.0000      -0.524476       -14.2717
  27   2.0000      -0.504685       -13.7332
  28   2.0000      -0.494453       -13.4548
  29   2.0000      -0.460133       -12.5209
  30   2.0000      -0.448860       -12.2141
  31   2.0000      -0.429775       -11.6948
  32   2.0000      -0.368667       -10.0319
  33   0.0000       0.113224         3.0810
  34   0.0000       0.130395         3.5482
  35   0.0000       0.153233         4.1697
  36   0.0000       0.155272         4.2252
  37   0.0000       0.164016         4.4631

MULLIKEN ATOMIC CHARGES
-----------------------
   0 N :   -0.051378
   1 C :   -0.215502
   2 C :    0.080740
   3 C :   -0.091674
   4 O :   -0.299209
   5 C :   -0.014808
   6 C :   -0.189739
   7 C :   -0.175569
   8 C :   -0.221757
   9 H :    0.131544
  10 H :    0.118034
  11 H :    0.140427
  12 H :    0.103202
  13 H :    0.141410
  14 H :    0.125900
  15 H :    0.129404
  16 H :    0.148824
  17 H :    0.140150
Sum of atomic charges:   -0.0000000

LOEWDIN ATOMIC CHARGES
----------------------
   0 N :    0.064012
   1 C :   -0.167560
   2 C :   -0.245979
   3 C :   -0.289365
   4 O :    0.180513
   5 C :   -0.306271
   6 C :   -0.175545
   7 C :   -0.169076
   8 C :   -0.217485
   9 H :    0.180402
  10 H :    0.127909
  11 H :    0.139305
  12 H :    0.130448
  13 H :    0.140236
  14 H :    0.150057
  15 H :    0.149860
  16 H :    0.154401
  17 H :    0.154138

  Mayer bond orders larger than 0.1
B(  0-N ,  1-C ) :   2.8763 B(  1-C ,  2-C ) :   0.9299 B(  2-C ,  3-C ) :   0.8908
B(  2-C ,  8-C ) :   0.8726 B(  2-C ,  9-H ) :   0.9064 B(  3-C ,  4-O ) :   0.9502
B(  3-C , 10-H ) :   0.9388 B(  3-C , 11-H ) :   0.9246 B(  4-O ,  5-C ) :   0.9264
B(  5-C ,  6-C ) :   0.9068 B(  5-C , 12-H ) :   0.9261 B(  5-C , 13-H ) :   0.9347
B(  6-C ,  7-C ) :   1.8230 B(  6-C , 14-H ) :   0.9185 B(  7-C ,  8-C ) :   0.9380
B(  7-C , 15-H ) :   0.9266 B(  8-C , 16-H ) :   0.9295 B(  8-C , 17-H ) :   0.9135

MP2 TOTAL ENERGY:     -401.260833828 Eh
FINAL SINGLE POINT ENERGY      -401.260833827663

DIPOLE MOMENT
-------------
                                X             Y             Z
Electronic contribution:     -2.89441      -4.84201      -1.01000
Nuclear contribution   :      3.51577       6.68587       1.00966
                        -----------------------------------------
Total Dipole Moment    :      0.62136       1.84385      -0.00034
                        -----------------------------------------
Magnitude (a.u.)       :      1.94573
Magnitude (Debye)      :      4.94566

                             ****ORCA TERMINATED NORMALLY****
TOTAL RUN TIME: 0 days 0 hours 18 minutes 20 seconds 733 msec
