                         Program Version 3.0.3 - RELEASE   -
|  1> ! RI-MP2 RIJK def2-TZVP def2-TZVP/C def2-TZVP/JK TIGHTSCF
|  2> % maxcore 2000
|  3> % mp2 density relaxed end
|  4> *xyz 0 1
|  5>  C       -0.4101435379     1.4595365807     0.0032522476
|  6>  C       -0.0000976806    -0.0276559628    -0.0102856791
|  7>  C        0.6314159030    -0.4144949486    -1.3541435275
|  8>  O        1.8236294914     0.2787779299    -1.6700951165
|  9>  C        2.9891115279    -0.2576254500    -1.0761590259
| 10>  C        3.2070137131     0.1598074457     0.3791562590
| 11>  C        2.1565383188    -0.2737713693     1.3730443005
| 12>  C        0.8348958500    -0.3588262839     1.2079588930
| 13>  H        0.4649877700     2.0943303519    -0.1575117938
| 14>  H       -1.1340044522     1.6702239802    -0.7916912098
| 15>  H       -0.8642758708     1.7361018374     0.9592039339
| 16>  H       -0.9203535293    -0.6257483909     0.0563212579
| 17>  H        0.8110454794    -1.5010043200    -1.3789741089
| 18>  H       -0.0748278662    -0.1723973752    -2.1573381231
| 19>  H        2.9747507700    -1.3574016925    -1.1474492112
| 20>  H        3.8279833664     0.1056468385    -1.6803083588
| 21>  H        4.1809040276    -0.2390418827     0.6908075647
| 22>  H        3.3103678415     1.2543441632     0.4155283493
| 23>  H        2.5416594410    -0.5041746164     2.3649191599
| 24>  H        0.2514352372    -0.6455987252     2.0818044587
| 25> *
| 26>
| 27>                          ****END OF INPUT****

CARTESIAN COORDINATES (ANGSTROEM)
---------------------------------
  C     -0.410144    1.459537    0.003252
  C     -0.000098   -0.027656   -0.010286
  C      0.631416   -0.414495   -1.354144
  O      1.823629    0.278778   -1.670095
  C      2.989112   -0.257625   -1.076159
  C      3.207014    0.159807    0.379156
  C      2.156538   -0.273771    1.373044
  C      0.834896   -0.358826    1.207959
  H      0.464988    2.094330   -0.157512
  H     -1.134004    1.670224   -0.791691
  H     -0.864276    1.736102    0.959204
  H     -0.920354   -0.625748    0.056321
  H      0.811045   -1.501004   -1.378974
  H     -0.074828   -0.172397   -2.157338
  H      2.974751   -1.357402   -1.147449
  H      3.827983    0.105647   -1.680308
  H      4.180904   -0.239042    0.690808
  H      3.310368    1.254344    0.415528
  H      2.541659   -0.504175    2.364919
  H      0.251435   -0.645599    2.081804

 Total Charge           Charge          ....    0
 Multiplicity           Mult            ....    1
 Number of Electrons    NEL             ....   62
 Basis Dimension        Dim             ....  320

ORBITAL ENERGIES
----------------

  NO   OCC          E(Eh)            E(eV)
   0   2.0000     -20.548513      -559.1535
   1   2.0000     -11.272126      -306.7301
   2   2.0000     -11.269654      -306.6629
   3   2.0000     -11.231163      -305.6155
   4   2.0000     -11.226361      -305.4848
   5   2.0000     -11.225738      -305.4678
   6   2.0000     -11.223378      -305.4036
   7   2.0000     -11.211189      -305.0720
   8   2.0000      -1.370521       -37.2938
   9   2.0000      -1.094765       -29.7901
  10   2.0000      -1.058239       -28.7961
  11   2.0000      -0.962975       -26.2039
  12   2.0000      -0.918643       -24.9975
  13   2.0000      -0.875222       -23.8160
  14   2.0000      -0.786142       -21.3920
  15   2.0000      -0.707938       -19.2640
  16   2.0000      -0.682964       -18.5844
  17   2.0000      -0.660672       -17.9778
  18   2.0000      -0.639770       -17.4090
  19   2.0000      -0.600519       -16.3409
  20   2.0000      -0.587815       -15.9953
  21   2.0000      -0.555985       -15.1291
  22   2.0000      -0.550567       -14.9817
  23   2.0000      -0.546243       -14.8640
  24   2.0000      -0.517736       -14.0883
  25   2.0000      -0.495863       -13.4931
  26   2.0000      -0.485297       -13.2056
  27   2.0000      -0.457254       -12.4425
  28   2.0000      -0.450098       -12.2478
  29   2.0000      -0.412580       -11.2269
  30   2.0000      -0.346018        -9.4156
  31   0.0000       0.132769         3.6128
  32   0.0000       0.150498         4.0952
  33   0.0000       0.158167         4.3039
  34   0.0000       0.174352         4.7444
  35   0.0000       0.182419         4.9639

MULLIKEN ATOMIC CHARGES
-----------------------
   0 C :   -0.411266
   1 C :    0.051190
   2 C :   -0.074011
   3 O :   -0.320513
   4 C :   -0.068530
   5 C :   -0.158637
   6 C :   -0.192276
   7 C :   -0.212182
   8 H :    0.139202
   9 H :    0.124173
  10 H :    0.129202
  11 H :    0.085169
  12 H :    0.103786
  13 H :    0.117978
  14 H :    0.093110
  15 H :    0.119567
  16 H :    0.115466
  17 H :    0.120257
  18 H :    0.118911
  19 H :    0.119403
Sum of atomic charges:   -0.0000000

LOEWDIN ATOMIC CHARGES
----------------------
   0 C :   -0.283836
   1 C :   -0.278958
   2 C :   -0.299850
   3 O :    0.158741
   4 C :   -0.321670
   5 C :   -0.264494
   6 C :   -0.177758
   7 C :   -0.158229
   8 H :    0.127140
   9 H :    0.121848
  10 H :    0.123144
  11 H :    0.159551
  12 H :    0.123831
  13 H :    0.132017
  14 H :    0.121396
  15 H :    0.129755
  16 H :    0.147020
  17 H :    0.149351
  18 H :    0.144652
  19 H :    0.146350

  Mayer bond orders larger than 0.1
B(  0-C ,  1-C ) :   0.8768 B(  0-C ,  8-H ) :   0.9341 B(  0-C ,  9-H ) :   0.9345
B(  0-C , 10-H ) :   0.9376 B(  1-C ,  2-C ) :   0.9194 B(  1-C ,  7-C ) :   0.9122
B(  1-C , 11-H ) :   0.9212 B(  2-C ,  3-O ) :   0.9157 B(  2-C , 12-H ) :   0.9358
B(  2-C , 13-H ) :   0.9313 B(  3-O ,  4-C ) :   0.9344 B(  4-C ,  5-C ) :   0.9341
B(  4-C , 14-H ) :   0.9381 B(  4-C , 15-H ) :   0.9314 B(  5-C ,  6-C ) :   0.9371
B(  5-C , 16-H ) :   0.9250 B(  5-C , 17-H ) :   0.9028 B(  6-C ,  7-C ) :   1.8328
B(  6-C , 18-H ) :   0.9235 B(  7-C , 19-H ) :   0.9244

MP2 TOTAL ENERGY:     -348.397019265 Eh
FINAL SINGLE POINT ENERGY      -348.397019265174

DIPOLE MOMENT
-------------
                                X             Y             Z
Electronic contribution:      1.40856      -1.01194      -1.11855
Nuclear contribution   :     -1.39959       0.72866       1.40626
                        -----------------------------------------
Total Dipole Moment    :      0.00897      -0.28328       0.28771
                        -----------------------------------------
Magnitude (a.u.)       :      0.40387
Magnitude (Debye)      :      1.02655

                             ****ORCA TERMINATED NORMALLY****
TOTAL RUN TIME: 0 days 0 hours 13 minutes 37 seconds 331 msec
