                         Program Version 3.0.3 - RELEASE   -
|  1> ! RI-MP2 RIJK def2-TZVP def2-TZVP/C def2-TZVP/JK TIGHTSCF
|  2> % maxcore 2000
|  3> % mp2 density relaxed end
|  4> *xyz 0 1
|  5>  C       -0.0637268654     1.4971806531     0.1673681995
|  6>  C       -0.0939871757     0.0190508087    -0.1241140767
|  7>  N       -1.0759159436    -0.6877640967     0.2500469630
|  8>  C       -1.1864981549    -2.1066049231     0.0136253867
|  9>  C        0.0846596670    -2.9142219293     0.4165449282
| 10>  C        0.5607107624    -2.7720540965    -1.0523616638
| 11>  C       -0.9135229344    -2.5231065252    -1.4636857645
| 12>  C        1.4694826918    -1.5814691615    -1.2871619593
| 13>  O        1.0527563564    -0.2981245509    -0.7987463236
| 14>  H        0.8186005028     1.7485052128     0.7646311066
| 15>  H        0.0068286464     2.0667512777    -0.7648313940
| 16>  H       -0.9666473498     1.7807051183     0.7056002558
| 17>  H       -2.1303498612    -2.4495865891     0.4433548468
| 18>  H        0.7078939886    -2.4859595138     1.2060813924
| 19>  H       -0.1546556094    -3.9511675584     0.6680236641
| 20>  H        1.0572295176    -3.6410541021    -1.4967190509
| 21>  H       -1.4253830273    -3.4532547990    -1.7255861822
| 22>  H       -1.1166360990    -1.7710390678    -2.2307173522
| 23>  H        2.4474775478    -1.7705163469    -0.8263572093
| 24>  H        1.6304848499    -1.4503283103    -2.3648609766
| 25> *
| 26>
| 27>                          ****END OF INPUT****

CARTESIAN COORDINATES (ANGSTROEM)
---------------------------------
  C     -0.063727    1.497181    0.167368
  C     -0.093987    0.019051   -0.124114
  N     -1.075916   -0.687764    0.250047
  C     -1.186498   -2.106605    0.013625
  C      0.084660   -2.914222    0.416545
  C      0.560711   -2.772054   -1.052362
  C     -0.913523   -2.523107   -1.463686
  C      1.469483   -1.581469   -1.287162
  O      1.052756   -0.298125   -0.798746
  H      0.818601    1.748505    0.764631
  H      0.006829    2.066751   -0.764831
  H     -0.966647    1.780705    0.705600
  H     -2.130350   -2.449587    0.443355
  H      0.707894   -2.485960    1.206081
  H     -0.154656   -3.951168    0.668024
  H      1.057230   -3.641054   -1.496719
  H     -1.425383   -3.453255   -1.725586
  H     -1.116636   -1.771039   -2.230717
  H      2.447478   -1.770516   -0.826357
  H      1.630485   -1.450328   -2.364861

 Total Charge           Charge          ....    0
 Multiplicity           Mult            ....    1
 Number of Electrons    NEL             ....   68
 Basis Dimension        Dim             ....  345

ORBITAL ENERGIES
----------------

  NO   OCC          E(Eh)            E(eV)
   0   2.0000     -20.583009      -560.0921
   1   2.0000     -15.526544      -422.4987
   2   2.0000     -11.331750      -308.3526
   3   2.0000     -11.290437      -307.2284
   4   2.0000     -11.253542      -306.2244
   5   2.0000     -11.238722      -305.8212
   6   2.0000     -11.222975      -305.3927
   7   2.0000     -11.222959      -305.3922
   8   2.0000     -11.218033      -305.2582
   9   2.0000      -1.409914       -38.3657
  10   2.0000      -1.216708       -33.1083
  11   2.0000      -1.132922       -30.8284
  12   2.0000      -0.994969       -27.0745
  13   2.0000      -0.973107       -26.4796
  14   2.0000      -0.906051       -24.6549
  15   2.0000      -0.878278       -23.8992
  16   2.0000      -0.770667       -20.9709
  17   2.0000      -0.708931       -19.2910
  18   2.0000      -0.688960       -18.7476
  19   2.0000      -0.668249       -18.1840
  20   2.0000      -0.662856       -18.0372
  21   2.0000      -0.615819       -16.7573
  22   2.0000      -0.588514       -16.0143
  23   2.0000      -0.588135       -16.0040
  24   2.0000      -0.550029       -14.9670
  25   2.0000      -0.541618       -14.7382
  26   2.0000      -0.523348       -14.2410
  27   2.0000      -0.519487       -14.1360
  28   2.0000      -0.487601       -13.2683
  29   2.0000      -0.472950       -12.8696
  30   2.0000      -0.448465       -12.2034
  31   2.0000      -0.448415       -12.2020
  32   2.0000      -0.381405       -10.3785
  33   2.0000      -0.366486        -9.9726
  34   0.0000       0.131338         3.5739
  35   0.0000       0.155534         4.2323
  36   0.0000       0.161362         4.3909
  37   0.0000       0.171834         4.6759
  38   0.0000       0.185115         5.0372

MULLIKEN ATOMIC CHARGES
-----------------------
   0 C :   -0.387949
   1 C :    0.210524
   2 N :   -0.314911
   3 C :    0.107653
   4 C :   -0.288281
   5 C :   -0.054640
   6 C :   -0.288277
   7 C :   -0.092897
   8 O :   -0.269777
   9 H :    0.135387
  10 H :    0.135385
  11 H :    0.147044
  12 H :    0.118066
  13 H :    0.125020
  14 H :    0.119857
  15 H :    0.112559
  16 H :    0.119856
  17 H :    0.125013
  18 H :    0.120189
  19 H :    0.120178
Sum of atomic charges:   -0.0000000

LOEWDIN ATOMIC CHARGES
----------------------
   0 C :   -0.269257
   1 C :   -0.398073
   2 N :    0.118088
   3 C :   -0.269330
   4 C :   -0.195121
   5 C :   -0.248185
   6 C :   -0.195121
   7 C :   -0.272413
   8 O :    0.244458
   9 H :    0.131607
  10 H :    0.131604
  11 H :    0.133373
  12 H :    0.133544
  13 H :    0.131628
  14 H :    0.137561
  15 H :    0.147771
  16 H :    0.137559
  17 H :    0.131627
  18 H :    0.134342
  19 H :    0.134340

  Mayer bond orders larger than 0.1
B(  0-C ,  1-C ) :   0.9020 B(  0-C ,  9-H ) :   0.9256 B(  0-C , 10-H ) :   0.9256
B(  0-C , 11-H ) :   0.9489 B(  1-C ,  2-N ) :   1.8909 B(  1-C ,  8-O ) :   1.0534
B(  2-N ,  3-C ) :   0.9187 B(  3-C ,  4-C ) :   0.8849 B(  3-C ,  6-C ) :   0.8849
B(  3-C , 12-H ) :   0.9500 B(  4-C ,  5-C ) :   0.9097 B(  4-C , 13-H ) :   0.9231
B(  4-C , 14-H ) :   0.9146 B(  5-C ,  6-C ) :   0.9097 B(  5-C ,  7-C ) :   0.9260
B(  5-C , 15-H ) :   0.9101 B(  6-C , 16-H ) :   0.9146 B(  6-C , 17-H ) :   0.9231
B(  7-C ,  8-O ) :   0.8935 B(  7-C , 18-H ) :   0.9306 B(  7-C , 19-H ) :   0.9306

MP2 TOTAL ENERGY:     -402.456028205 Eh
FINAL SINGLE POINT ENERGY      -402.456028204820

DIPOLE MOMENT
-------------
                                X             Y             Z
Electronic contribution:     -0.25725       1.06138       0.35753
Nuclear contribution   :      0.75288      -1.66381      -0.74599
                        -----------------------------------------
Total Dipole Moment    :      0.49563      -0.60243      -0.38846
                        -----------------------------------------
Magnitude (a.u.)       :      0.87148
Magnitude (Debye)      :      2.21512

                             ****ORCA TERMINATED NORMALLY****
TOTAL RUN TIME: 0 days 0 hours 19 minutes 57 seconds 934 msec
