                         Program Version 3.0.3 - RELEASE   -
|  1> ! RI-MP2 RIJK def2-TZVP def2-TZVP/C def2-TZVP/JK TIGHTSCF
|  2> % maxcore 2000
|  3> % mp2 density relaxed end
|  4> *xyz 0 1
|  5>  C        0.7777912177     1.0589061352     0.1637012483
|  6>  C       -0.2075691393     0.0154514878    -0.3931362848
|  7>  C        0.2148426430    -0.5557447054    -1.6667463072
|  8>  C        0.5779152980    -1.0169433028    -2.7184153357
|  9>  C        1.0192029870    -1.5887157836    -3.9815163440
| 10>  O        1.7761140145    -2.8048465499    -3.8082897101
| 11>  C        3.0828674696    -2.6597124443    -3.5107457604
| 12>  O        3.8024272316    -3.5896596779    -3.3068529613
| 13>  H        1.7629232342     0.6144397208     0.3281122473
| 14>  H        0.8948621395     1.8941934818    -0.5318923026
| 15>  H        0.4139118956     1.4525606013     1.1170315745
| 16>  H       -0.3382636778    -0.7957559075     0.3341503370
| 17>  H       -1.1986942771     0.4701563629    -0.5167046980
| 18>  H        0.1681791926    -1.8767626873    -4.6041976671
| 19>  H        1.6141251492    -0.8632604123    -4.5521203813
| 20>  H        3.4065585118    -1.6007583088    -3.4896071145
| 21> *
| 22>
| 23>                          ****END OF INPUT****

CARTESIAN COORDINATES (ANGSTROEM)
---------------------------------
  C      0.777791    1.058906    0.163701
  C     -0.207569    0.015451   -0.393136
  C      0.214843   -0.555745   -1.666746
  C      0.577915   -1.016943   -2.718415
  C      1.019203   -1.588716   -3.981516
  O      1.776114   -2.804847   -3.808290
  C      3.082867   -2.659712   -3.510746
  O      3.802427   -3.589660   -3.306853
  H      1.762923    0.614440    0.328112
  H      0.894862    1.894193   -0.531892
  H      0.413912    1.452561    1.117032
  H     -0.338264   -0.795756    0.334150
  H     -1.198694    0.470156   -0.516705
  H      0.168179   -1.876763   -4.604198
  H      1.614125   -0.863260   -4.552120
  H      3.406559   -1.600758   -3.489607

 Total Charge           Charge          ....    0
 Multiplicity           Mult            ....    1
 Number of Electrons    NEL             ....   60
 Basis Dimension        Dim             ....  296

ORBITAL ENERGIES
----------------

  NO   OCC          E(Eh)            E(eV)
   0   2.0000     -20.613245      -560.9149
   1   2.0000     -20.551587      -559.2371
   2   2.0000     -11.383856      -309.7705
   3   2.0000     -11.334631      -308.4310
   4   2.0000     -11.263963      -306.5080
   5   2.0000     -11.248060      -306.0753
   6   2.0000     -11.235975      -305.7464
   7   2.0000     -11.235360      -305.7297
   8   2.0000      -1.464498       -39.8510
   9   2.0000      -1.374705       -37.4076
  10   2.0000      -1.098159       -29.8824
  11   2.0000      -1.047954       -28.5163
  12   2.0000      -0.970498       -26.4086
  13   2.0000      -0.882970       -24.0268
  14   2.0000      -0.850739       -23.1498
  15   2.0000      -0.745988       -20.2994
  16   2.0000      -0.710938       -19.3456
  17   2.0000      -0.685714       -18.6592
  18   2.0000      -0.660128       -17.9630
  19   2.0000      -0.636503       -17.3201
  20   2.0000      -0.615178       -16.7398
  21   2.0000      -0.592873       -16.1329
  22   2.0000      -0.564977       -15.3738
  23   2.0000      -0.553584       -15.0638
  24   2.0000      -0.534119       -14.5341
  25   2.0000      -0.523968       -14.2579
  26   2.0000      -0.474412       -12.9094
  27   2.0000      -0.460441       -12.5292
  28   2.0000      -0.396213       -10.7815
  29   2.0000      -0.389319       -10.5939
  30   0.0000       0.119641         3.2556
  31   0.0000       0.134351         3.6559
  32   0.0000       0.146305         3.9812
  33   0.0000       0.157281         4.2798
  34   0.0000       0.166583         4.5329

MULLIKEN ATOMIC CHARGES
-----------------------
   0 C :   -0.365202
   1 C :   -0.301956
   2 C :    0.021287
   3 C :   -0.010391
   4 C :   -0.195618
   5 O :   -0.198122
   6 C :    0.206024
   7 O :   -0.267529
   8 H :    0.134538
   9 H :    0.131113
  10 H :    0.136707
  11 H :    0.149998
  12 H :    0.146057
  13 H :    0.163040
  14 H :    0.169346
  15 H :    0.080708
Sum of atomic charges:   -0.0000000

LOEWDIN ATOMIC CHARGES
----------------------
   0 C :   -0.297789
   1 C :   -0.273364
   2 C :   -0.059225
   3 C :   -0.091399
   4 C :   -0.282846
   5 O :    0.240629
   6 C :   -0.446329
   7 O :    0.124278
   8 H :    0.125400
   9 H :    0.124398
  10 H :    0.123029
  11 H :    0.157492
  12 H :    0.156168
  13 H :    0.151888
  14 H :    0.142452
  15 H :    0.105218

  Mayer bond orders larger than 0.1
B(  0-C ,  1-C ) :   0.9366 B(  0-C ,  8-H ) :   0.9347 B(  0-C ,  9-H ) :   0.9348
B(  0-C , 10-H ) :   0.9385 B(  1-C ,  2-C ) :   0.9644 B(  1-C , 11-H ) :   0.9337
B(  1-C , 12-H ) :   0.9420 B(  2-C ,  3-C ) :   2.7067 B(  3-C ,  4-C ) :   0.8855
B(  4-C ,  5-O ) :   0.8756 B(  4-C , 13-H ) :   0.9238 B(  4-C , 14-H ) :   1.0008
B(  5-O ,  6-C ) :   1.0642 B(  6-C ,  7-O ) :   2.0193 B(  6-C , 15-H ) :   0.9124

MP2 TOTAL ENERGY:     -383.084847089 Eh
FINAL SINGLE POINT ENERGY      -383.084847089416

DIPOLE MOMENT
-------------
                                X             Y             Z
Electronic contribution:      3.61241      -8.45180      -6.81174
Nuclear contribution   :     -4.47373       9.99783       6.94491
                        -----------------------------------------
Total Dipole Moment    :     -0.86132       1.54603       0.13317
                        -----------------------------------------
Magnitude (a.u.)       :      1.77477
Magnitude (Debye)      :      4.51110

                             ****ORCA TERMINATED NORMALLY****
TOTAL RUN TIME: 0 days 0 hours 9 minutes 56 seconds 377 msec
