                         Program Version 3.0.3 - RELEASE   -
|  1> ! RI-MP2 RIJK def2-TZVP def2-TZVP/C def2-TZVP/JK TIGHTSCF
|  2> % maxcore 2000
|  3> % mp2 density relaxed end
|  4> *xyz 0 1
|  5>  C        0.0088599894     1.4096838475     0.0772194275
|  6>  N       -0.0345104357    -0.0336102174    -0.0119232411
|  7>  C       -0.0464645410    -0.7888362756    -1.1510626494
|  8>  C       -0.0187866539    -2.1095690267    -0.7494005213
|  9>  N       -0.0916338044    -3.2711005672    -1.5194646279
| 10>  C        0.0116183513    -2.0427951568     0.6726537246
| 11>  N        0.0011303880    -0.7669856560     1.0998542858
| 12>  C        0.0467646411    -3.1518931246     1.5484286114
| 13>  C        0.0876418314    -4.1454517440     2.2296308496
| 14>  H        1.0005213549     1.7945563645    -0.1854207125
| 15>  H       -0.7334375366     1.8518541071    -0.5930727115
| 16>  H       -0.2207966348     1.6821149236     1.1067432381
| 17>  H       -0.0808911139    -0.3380916814    -2.1296747995
| 18>  H        0.4255604263    -3.2221835508    -2.3867331707
| 19>  H        0.1877672883    -4.0892581140    -0.9926774893
| 20>  H        0.1123604796    -5.0043479080     2.8529874761
| 21> *
| 22>
| 23>                          ****END OF INPUT****

CARTESIAN COORDINATES (ANGSTROEM)
---------------------------------
  C      0.008860    1.409684    0.077219
  N     -0.034510   -0.033610   -0.011923
  C     -0.046465   -0.788836   -1.151063
  C     -0.018787   -2.109569   -0.749401
  N     -0.091634   -3.271101   -1.519465
  C      0.011618   -2.042795    0.672654
  N      0.001130   -0.766986    1.099854
  C      0.046765   -3.151893    1.548429
  C      0.087642   -4.145452    2.229631
  H      1.000521    1.794556   -0.185421
  H     -0.733438    1.851854   -0.593073
  H     -0.220797    1.682115    1.106743
  H     -0.080891   -0.338092   -2.129675
  H      0.425560   -3.222184   -2.386733
  H      0.187767   -4.089258   -0.992677
  H      0.112360   -5.004348    2.852987

 Total Charge           Charge          ....    0
 Multiplicity           Mult            ....    1
 Number of Electrons    NEL             ....   64
 Basis Dimension        Dim             ....  321

ORBITAL ENERGIES
----------------

  NO   OCC          E(Eh)            E(eV)
   0   2.0000     -15.645475      -425.7350
   1   2.0000     -15.596044      -424.3899
   2   2.0000     -15.562502      -423.4772
   3   2.0000     -11.275458      -306.8208
   4   2.0000     -11.268576      -306.6336
   5   2.0000     -11.266661      -306.5814
   6   2.0000     -11.261510      -306.4413
   7   2.0000     -11.237195      -305.7796
   8   2.0000     -11.227107      -305.5051
   9   2.0000      -1.386606       -37.7315
  10   2.0000      -1.212968       -33.0065
  11   2.0000      -1.131085       -30.7784
  12   2.0000      -1.041606       -28.3435
  13   2.0000      -1.032479       -28.0952
  14   2.0000      -0.944739       -25.7077
  15   2.0000      -0.830729       -22.6053
  16   2.0000      -0.799419       -21.7533
  17   2.0000      -0.739489       -20.1225
  18   2.0000      -0.703325       -19.1384
  19   2.0000      -0.672082       -18.2883
  20   2.0000      -0.657957       -17.9039
  21   2.0000      -0.649830       -17.6828
  22   2.0000      -0.611956       -16.6522
  23   2.0000      -0.575263       -15.6537
  24   2.0000      -0.563275       -15.3275
  25   2.0000      -0.560363       -15.2483
  26   2.0000      -0.486756       -13.2453
  27   2.0000      -0.465126       -12.6567
  28   2.0000      -0.438072       -11.9205
  29   2.0000      -0.397161       -10.8073
  30   2.0000      -0.330020        -8.9803
  31   2.0000      -0.300329        -8.1724
  32   0.0000       0.120858         3.2887
  33   0.0000       0.133860         3.6425
  34   0.0000       0.143013         3.8916
  35   0.0000       0.163183         4.4404
  36   0.0000       0.172321         4.6891

MULLIKEN ATOMIC CHARGES
-----------------------
   0 C :   -0.337693
   1 N :    0.132571
   2 C :   -0.187912
   3 C :    0.074545
   4 N :   -0.526109
   5 C :   -0.047043
   6 N :   -0.277457
   7 C :   -0.006891
   8 C :   -0.141510
   9 H :    0.149317
  10 H :    0.148791
  11 H :    0.175553
  12 H :    0.149514
  13 H :    0.247384
  14 H :    0.256634
  15 H :    0.190305
Sum of atomic charges:   -0.0000000

LOEWDIN ATOMIC CHARGES
----------------------
   0 C :   -0.274089
   1 N :    0.171863
   2 C :   -0.209451
   3 C :   -0.248448
   4 N :   -0.079619
   5 C :   -0.259403
   6 N :    0.075187
   7 C :   -0.077819
   8 C :   -0.087524
   9 H :    0.122726
  10 H :    0.124383
  11 H :    0.134591
  12 H :    0.138182
  13 H :    0.167718
  14 H :    0.174951
  15 H :    0.126752

  Mayer bond orders larger than 0.1
B(  0-C ,  1-N ) :   0.8590 B(  0-C ,  9-H ) :   0.9267 B(  0-C , 10-H ) :   0.9303
B(  0-C , 11-H ) :   0.9290 B(  1-N ,  2-C ) :   1.1787 B(  1-N ,  6-N ) :   1.0499
B(  2-C ,  3-C ) :   1.4261 B(  2-C ,  6-N ) :   0.1112 B(  2-C , 12-H ) :   0.9054
B(  3-C ,  4-N ) :   1.0449 B(  3-C ,  5-C ) :   1.2146 B(  4-N , 13-H ) :   0.8770
B(  4-N , 14-H ) :   0.8732 B(  5-C ,  6-N ) :   1.4189 B(  5-C ,  7-C ) :   1.2174
B(  5-C ,  8-C ) :  -0.1393 B(  7-C ,  8-C ) :   2.6100 B(  8-C , 15-H ) :   0.8736

MP2 TOTAL ENERGY:     -396.214235181 Eh
FINAL SINGLE POINT ENERGY      -396.214235181245

DIPOLE MOMENT
-------------
                                X             Y             Z
Electronic contribution:     -0.22009      -3.21483       2.37479
Nuclear contribution   :      0.64647       3.67459      -3.44540
                        -----------------------------------------
Total Dipole Moment    :      0.42638       0.45976      -1.07060
                        -----------------------------------------
Magnitude (a.u.)       :      1.24071
Magnitude (Debye)      :      3.15365

                             ****ORCA TERMINATED NORMALLY****
TOTAL RUN TIME: 0 days 0 hours 17 minutes 29 seconds 301 msec
