                         Program Version 3.0.3 - RELEASE   -
|  1> ! RI-MP2 RIJK def2-TZVP def2-TZVP/C def2-TZVP/JK TIGHTSCF
|  2> % maxcore 2000
|  3> % mp2 density relaxed end
|  4> *xyz 0 1
|  5>  C        0.9355664352     1.1798044975    -0.1468436548
|  6>  O        0.9503178237    -0.2250428712    -0.2880460670
|  7>  C       -0.1251821291    -0.7244433304    -1.0354856325
|  8>  C        0.0624161435    -2.2464090479    -1.1872888182
|  9>  O       -1.1084278695    -2.8155014080    -1.6930211988
| 10>  C        1.2302621039    -2.5775792209    -2.1055925185
| 11>  O        1.0586550733    -3.1756469072    -3.1439374033
| 12>  C        2.5807281519    -2.1774622315    -1.6989240143
| 13>  N        3.6686523998    -1.9169952019    -1.4071394121
| 14>  H        0.9872834919     1.6845160523    -1.1230368697
| 15>  H        0.0290631132     1.5215184136     0.3747074910
| 16>  H        1.8125858471     1.4530228070     0.4427903576
| 17>  H       -1.0902097597    -0.5641325752    -0.5310144447
| 18>  H       -0.1886223408    -0.2530086881    -2.0304028335
| 19>  H        0.3028760226    -2.6464530754    -0.1889450202
| 20>  H       -0.8715042870    -3.2389660927    -2.5326053208
| 21> *
| 22>
| 23>                          ****END OF INPUT****

CARTESIAN COORDINATES (ANGSTROEM)
---------------------------------
  C      0.935566    1.179804   -0.146844
  O      0.950318   -0.225043   -0.288046
  C     -0.125182   -0.724443   -1.035486
  C      0.062416   -2.246409   -1.187289
  O     -1.108428   -2.815501   -1.693021
  C      1.230262   -2.577579   -2.105593
  O      1.058655   -3.175647   -3.143937
  C      2.580728   -2.177462   -1.698924
  N      3.668652   -1.916995   -1.407139
  H      0.987283    1.684516   -1.123037
  H      0.029063    1.521518    0.374707
  H      1.812586    1.453023    0.442790
  H     -1.090210   -0.564133   -0.531014
  H     -0.188622   -0.253009   -2.030403
  H      0.302876   -2.646453   -0.188945
  H     -0.871504   -3.238966   -2.532605

 Total Charge           Charge          ....    0
 Multiplicity           Mult            ....    1
 Number of Electrons    NEL             ....   68
 Basis Dimension        Dim             ....  321

ORBITAL ENERGIES
----------------

  NO   OCC          E(Eh)            E(eV)
   0   2.0000     -20.616941      -561.0155
   1   2.0000     -20.584822      -560.1415
   2   2.0000     -20.582986      -560.0915
   3   2.0000     -15.614048      -424.8798
   4   2.0000     -11.408302      -310.4357
   5   2.0000     -11.329650      -308.2955
   6   2.0000     -11.309090      -307.7360
   7   2.0000     -11.302615      -307.5598
   8   2.0000     -11.289854      -307.2126
   9   2.0000      -1.464765       -39.8583
  10   2.0000      -1.408982       -38.3404
  11   2.0000      -1.392697       -37.8972
  12   2.0000      -1.248957       -33.9858
  13   2.0000      -1.074295       -29.2331
  14   2.0000      -0.977746       -26.6058
  15   2.0000      -0.919390       -25.0179
  16   2.0000      -0.864034       -23.5116
  17   2.0000      -0.784811       -21.3558
  18   2.0000      -0.728341       -19.8192
  19   2.0000      -0.705368       -19.1940
  20   2.0000      -0.676977       -18.4215
  21   2.0000      -0.674797       -18.3622
  22   2.0000      -0.639446       -17.4002
  23   2.0000      -0.604174       -16.4404
  24   2.0000      -0.594280       -16.1712
  25   2.0000      -0.582047       -15.8383
  26   2.0000      -0.575510       -15.6604
  27   2.0000      -0.572007       -15.5651
  28   2.0000      -0.518704       -14.1147
  29   2.0000      -0.498216       -13.5571
  30   2.0000      -0.493329       -13.4242
  31   2.0000      -0.490418       -13.3450
  32   2.0000      -0.471528       -12.8309
  33   2.0000      -0.447990       -12.1904
  34   0.0000       0.047831         1.3016
  35   0.0000       0.128015         3.4835
  36   0.0000       0.145584         3.9615
  37   0.0000       0.155025         4.2185
  38   0.0000       0.173100         4.7103

MULLIKEN ATOMIC CHARGES
-----------------------
   0 C :   -0.220022
   1 O :   -0.304756
   2 C :   -0.046467
   3 C :    0.082230
   4 O :   -0.461575
   5 C :    0.306605
   6 O :   -0.263673
   7 C :   -0.142389
   8 N :   -0.033739
   9 H :    0.119557
  10 H :    0.119966
  11 H :    0.151125
  12 H :    0.122784
  13 H :    0.103282
  14 H :    0.125339
  15 H :    0.341733
Sum of atomic charges:   -0.0000000

LOEWDIN ATOMIC CHARGES
----------------------
   0 C :   -0.346993
   1 O :    0.148343
   2 C :   -0.306194
   3 C :   -0.327951
   4 O :    0.015113
   5 C :   -0.297548
   6 O :    0.197284
   7 C :   -0.132107
   8 N :    0.113923
   9 H :    0.104811
  10 H :    0.105890
  11 H :    0.118375
  12 H :    0.132263
  13 H :    0.126397
  14 H :    0.162424
  15 H :    0.185969

  Mayer bond orders larger than 0.1
B(  0-C ,  1-O ) :   0.8979 B(  0-C ,  9-H ) :   0.9378 B(  0-C , 10-H ) :   0.9342
B(  0-C , 11-H ) :   0.9380 B(  1-O ,  2-C ) :   0.9368 B(  2-C ,  3-C ) :   0.8728
B(  2-C , 12-H ) :   0.9118 B(  2-C , 13-H ) :   0.9092 B(  3-C ,  4-O ) :   1.0899
B(  3-C ,  5-C ) :   0.9393 B(  3-C , 14-H ) :   0.9125 B(  4-O , 15-H ) :   0.8016
B(  5-C ,  6-O ) :   1.8906 B(  5-C ,  7-C ) :   0.9118 B(  7-C ,  8-N ) :   2.7793

MP2 TOTAL ENERGY:     -474.267488809 Eh
FINAL SINGLE POINT ENERGY      -474.267488808702

DIPOLE MOMENT
-------------
                                X             Y             Z
Electronic contribution:      4.52291      -7.89014      -3.80830
Nuclear contribution   :     -5.35150       8.58848       3.97505
                        -----------------------------------------
Total Dipole Moment    :     -0.82859       0.69835       0.16675
                        -----------------------------------------
Magnitude (a.u.)       :      1.09638
Magnitude (Debye)      :      2.78678

                             ****ORCA TERMINATED NORMALLY****
TOTAL RUN TIME: 0 days 0 hours 13 minutes 53 seconds 313 msec
