                         Program Version 3.0.3 - RELEASE   -
|  1> ! RI-MP2 RIJK def2-TZVP def2-TZVP/C def2-TZVP/JK TIGHTSCF
|  2> % maxcore 2000
|  3> % mp2 density relaxed end
|  4> *xyz 0 1
|  5>  N        0.0009965957     1.2612944077     0.0033950016
|  6>  C        0.0295889415    -0.0910054694    -0.0008928060
|  7>  O        1.0247125892    -0.7806687570    -0.0126873230
|  8>  C       -1.3796167644    -0.6981882509     0.0106629958
|  9>  N       -2.4023852487     0.0500574928     0.0255692124
| 10>  O       -1.2987033179    -2.0462195481     0.0025565197
| 11>  C       -2.5257505034    -2.7571578868     0.0121886891
| 12>  C       -2.2343246729    -4.1900670169     0.0017428413
| 13>  N       -2.0577403890    -5.3302985747    -0.0059782436
| 14>  H        0.8707588620     1.7656622304    -0.0001850039
| 15>  H       -0.8831636318     1.7423009626     0.0166245755
| 16>  H       -3.2973399303    -0.4348831208     0.0324676885
| 17>  H       -3.1120031769    -2.5159772452     0.9093692969
| 18>  H       -3.1312251631    -2.5069324036    -0.8696193544
| 19> *
| 20>
| 21>                          ****END OF INPUT****

CARTESIAN COORDINATES (ANGSTROEM)
---------------------------------
  N      0.000997    1.261294    0.003395
  C      0.029589   -0.091005   -0.000893
  O      1.024713   -0.780669   -0.012687
  C     -1.379617   -0.698188    0.010663
  N     -2.402385    0.050057    0.025569
  O     -1.298703   -2.046220    0.002557
  C     -2.525751   -2.757158    0.012189
  C     -2.234325   -4.190067    0.001743
  N     -2.057740   -5.330299   -0.005978
  H      0.870759    1.765662   -0.000185
  H     -0.883164    1.742301    0.016625
  H     -3.297340   -0.434883    0.032468
  H     -3.112003   -2.515977    0.909369
  H     -3.131225   -2.506932   -0.869619

 Total Charge           Charge          ....    0
 Multiplicity           Mult            ....    1
 Number of Electrons    NEL             ....   66
 Basis Dimension        Dim             ....  309

ORBITAL ENERGIES
----------------

  NO   OCC          E(Eh)            E(eV)
   0   2.0000     -20.646997      -561.8333
   1   2.0000     -20.541998      -558.9762
   2   2.0000     -15.596860      -424.4121
   3   2.0000     -15.595468      -424.3742
   4   2.0000     -15.590652      -424.2432
   5   2.0000     -11.388229      -309.8895
   6   2.0000     -11.378228      -309.6173
   7   2.0000     -11.375140      -309.5333
   8   2.0000     -11.295735      -307.3726
   9   2.0000      -1.485853       -40.4321
  10   2.0000      -1.402919       -38.1754
  11   2.0000      -1.259711       -34.2785
  12   2.0000      -1.240517       -33.7562
  13   2.0000      -1.216002       -33.0891
  14   2.0000      -1.068120       -29.0650
  15   2.0000      -0.926286       -25.2055
  16   2.0000      -0.812958       -22.1217
  17   2.0000      -0.783923       -21.3316
  18   2.0000      -0.757105       -20.6019
  19   2.0000      -0.735283       -20.0081
  20   2.0000      -0.732350       -19.9283
  21   2.0000      -0.679756       -18.4971
  22   2.0000      -0.635232       -17.2855
  23   2.0000      -0.617245       -16.7961
  24   2.0000      -0.594002       -16.1636
  25   2.0000      -0.575391       -15.6572
  26   2.0000      -0.565792       -15.3960
  27   2.0000      -0.507669       -13.8144
  28   2.0000      -0.492215       -13.3939
  29   2.0000      -0.483402       -13.1540
  30   2.0000      -0.457438       -12.4475
  31   2.0000      -0.446375       -12.1465
  32   2.0000      -0.427137       -11.6230
  33   0.0000       0.090590         2.4651
  34   0.0000       0.102458         2.7880
  35   0.0000       0.138065         3.7569
  36   0.0000       0.140910         3.8344
  37   0.0000       0.154306         4.1989

MULLIKEN ATOMIC CHARGES
-----------------------
   0 N :   -0.452285
   1 C :    0.224176
   2 O :   -0.310809
   3 C :    0.267190
   4 N :   -0.429689
   5 O :   -0.180175
   6 C :   -0.027740
   7 C :   -0.154414
   8 N :   -0.039062
   9 H :    0.265230
  10 H :    0.288545
  11 H :    0.226777
  12 H :    0.161130
  13 H :    0.161125
Sum of atomic charges:    0.0000000

LOEWDIN ATOMIC CHARGES
----------------------
   0 N :    0.009753
   1 C :   -0.457771
   2 O :    0.115392
   3 C :   -0.368363
   4 N :   -0.048251
   5 O :    0.291990
   6 C :   -0.283193
   7 C :   -0.174765
   8 N :    0.090118
   9 H :    0.177275
  10 H :    0.181776
  11 H :    0.160996
  12 H :    0.152522
  13 H :    0.152520

  Mayer bond orders larger than 0.1
B(  0-N ,  1-C ) :   1.2189 B(  0-N ,  9-H ) :   0.8586 B(  0-N , 10-H ) :   0.8446
B(  1-C ,  2-O ) :   2.0105 B(  1-C ,  3-C ) :   0.8671 B(  3-C ,  4-N ) :   1.7898
B(  3-C ,  5-O ) :   1.1319 B(  4-N , 11-H ) :   0.8723 B(  5-O ,  6-C ) :   0.8949
B(  6-C ,  7-C ) :   0.9663 B(  6-C , 12-H ) :   0.8943 B(  6-C , 13-H ) :   0.8943
B(  7-C ,  8-N ) :   2.8350

MP2 TOTAL ENERGY:     -469.284510763 Eh
FINAL SINGLE POINT ENERGY      -469.284510763215

DIPOLE MOMENT
-------------
                                X             Y             Z
Electronic contribution:      1.97575      -3.74960      -0.03882
Nuclear contribution   :     -3.40586       5.42669       0.06325
                        -----------------------------------------
Total Dipole Moment    :     -1.43011       1.67708       0.02443
                        -----------------------------------------
Magnitude (a.u.)       :      2.20418
Magnitude (Debye)      :      5.60258

                             ****ORCA TERMINATED NORMALLY****
TOTAL RUN TIME: 0 days 0 hours 13 minutes 22 seconds 353 msec
