                         Program Version 3.0.3 - RELEASE   -
|  1> ! RI-MP2 RIJK def2-TZVP def2-TZVP/C def2-TZVP/JK TIGHTSCF
|  2> % maxcore 2000
|  3> % mp2 density relaxed end
|  4> *xyz 0 1
|  5>  C        0.1806553342     1.5898877418     0.1877641840
|  6>  O        1.4616176278     1.9844553165    -0.3183814917
|  7>  C        2.0940610322     0.9006567179    -0.9733938872
|  8>  C        0.9800522807    -0.1340619585    -1.2055155705
|  9>  C        0.0929435852     0.0632628513     0.0287533829
| 10>  O        0.5129995952    -0.6201212769     1.2043148034
| 11>  C        1.8696135480    -1.0184506194     1.3288733731
| 12>  C        2.9111611391     0.0825616988     1.1252949324
| 13>  O        3.1822220157     0.4006448558    -0.2324827913
| 14>  H        0.0933157105     1.8858005891     1.2372132467
| 15>  H       -0.6075471970     2.0901694295    -0.3921361183
| 16>  H        2.5456459431     1.2683354921    -1.8988763349
| 17>  H        0.4086370555     0.1414732709    -2.0975149041
| 18>  H        1.3615531607    -1.1456801489    -1.3420915940
| 19>  H       -0.9396249844    -0.2548964271    -0.1395222608
| 20>  H        1.9528515635    -1.3867907562     2.3570966063
| 21>  H        2.1026384343    -1.8597598722     0.6587170900
| 22>  H        2.6125654116     0.9819723738     1.6797265820
| 23>  H        3.8667213244    -0.2664622184     1.5290636022
| 24> *
| 25>
| 26>                          ****END OF INPUT****

CARTESIAN COORDINATES (ANGSTROEM)
---------------------------------
  C      0.180655    1.589888    0.187764
  O      1.461618    1.984455   -0.318381
  C      2.094061    0.900657   -0.973394
  C      0.980052   -0.134062   -1.205516
  C      0.092944    0.063263    0.028753
  O      0.513000   -0.620121    1.204315
  C      1.869614   -1.018451    1.328873
  C      2.911161    0.082562    1.125295
  O      3.182222    0.400645   -0.232483
  H      0.093316    1.885801    1.237213
  H     -0.607547    2.090169   -0.392136
  H      2.545646    1.268335   -1.898876
  H      0.408637    0.141473   -2.097515
  H      1.361553   -1.145680   -1.342092
  H     -0.939625   -0.254896   -0.139522
  H      1.952852   -1.386791    2.357097
  H      2.102638   -1.859760    0.658717
  H      2.612565    0.981972    1.679727
  H      3.866721   -0.266462    1.529064

 Total Charge           Charge          ....    0
 Multiplicity           Mult            ....    1
 Number of Electrons    NEL             ....   70
 Basis Dimension        Dim             ....  339

ORBITAL ENERGIES
----------------

  NO   OCC          E(Eh)            E(eV)
   0   2.0000     -20.559825      -559.4613
   1   2.0000     -20.558477      -559.4246
   2   2.0000     -20.557659      -559.4023
   3   2.0000     -11.333341      -308.3959
   4   2.0000     -11.291090      -307.2462
   5   2.0000     -11.280096      -306.9470
   6   2.0000     -11.277531      -306.8772
   7   2.0000     -11.275948      -306.8341
   8   2.0000     -11.235215      -305.7257
   9   2.0000      -1.422031       -38.6954
  10   2.0000      -1.372901       -37.3585
  11   2.0000      -1.347696       -36.6727
  12   2.0000      -1.068983       -29.0885
  13   2.0000      -1.006810       -27.3967
  14   2.0000      -0.991705       -26.9857
  15   2.0000      -0.869351       -23.6562
  16   2.0000      -0.809959       -22.0401
  17   2.0000      -0.776434       -21.1279
  18   2.0000      -0.728853       -19.8331
  19   2.0000      -0.700349       -19.0575
  20   2.0000      -0.682407       -18.5692
  21   2.0000      -0.640610       -17.4319
  22   2.0000      -0.629020       -17.1165
  23   2.0000      -0.616690       -16.7810
  24   2.0000      -0.609211       -16.5775
  25   2.0000      -0.570207       -15.5161
  26   2.0000      -0.557288       -15.1646
  27   2.0000      -0.539492       -14.6803
  28   2.0000      -0.523123       -14.2349
  29   2.0000      -0.500102       -13.6085
  30   2.0000      -0.482558       -13.1311
  31   2.0000      -0.464320       -12.6348
  32   2.0000      -0.441109       -12.0032
  33   2.0000      -0.440996       -12.0001
  34   2.0000      -0.404007       -10.9936
  35   0.0000       0.136149         3.7048
  36   0.0000       0.157817         4.2944
  37   0.0000       0.169313         4.6073
  38   0.0000       0.181134         4.9289
  39   0.0000       0.188055         5.1172

MULLIKEN ATOMIC CHARGES
-----------------------
   0 C :   -0.059532
   1 O :   -0.324335
   2 C :    0.201021
   3 C :   -0.286216
   4 C :    0.058184
   5 O :   -0.316767
   6 C :   -0.071090
   7 C :   -0.087811
   8 O :   -0.302609
   9 H :    0.117029
  10 H :    0.105097
  11 H :    0.106317
  12 H :    0.134593
  13 H :    0.141975
  14 H :    0.114213
  15 H :    0.129547
  16 H :    0.092571
  17 H :    0.118830
  18 H :    0.128982
Sum of atomic charges:   -0.0000000

LOEWDIN ATOMIC CHARGES
----------------------
   0 C :   -0.278398
   1 O :    0.171453
   2 C :   -0.399291
   3 C :   -0.224872
   4 C :   -0.319596
   5 O :    0.168464
   6 C :   -0.328557
   7 C :   -0.322116
   8 O :    0.173230
   9 H :    0.129363
  10 H :    0.124412
  11 H :    0.136696
  12 H :    0.152297
  13 H :    0.145419
  14 H :    0.145549
  15 H :    0.137140
  16 H :    0.122607
  17 H :    0.129456
  18 H :    0.136742

  Mayer bond orders larger than 0.1
B(  0-C ,  1-O ) :   0.9139 B(  0-C ,  4-C ) :   0.9207 B(  0-C ,  9-H ) :   0.9253
B(  0-C , 10-H ) :   0.9193 B(  1-O ,  2-C ) :   0.9600 B(  2-C ,  3-C ) :   0.9482
B(  2-C ,  8-O ) :   0.9908 B(  2-C , 11-H ) :   0.9328 B(  3-C ,  4-C ) :   0.9063
B(  3-C , 12-H ) :   0.9090 B(  3-C , 13-H ) :   0.9266 B(  4-C ,  5-O ) :   0.9427
B(  4-C , 14-H ) :   0.9252 B(  5-O ,  6-C ) :   0.9370 B(  6-C ,  7-C ) :   0.9257
B(  6-C , 15-H ) :   0.9184 B(  6-C , 16-H ) :   0.9235 B(  7-C ,  8-O ) :   0.9287
B(  7-C , 17-H ) :   0.9377 B(  7-C , 18-H ) :   0.9180

MP2 TOTAL ENERGY:     -459.433475116 Eh
FINAL SINGLE POINT ENERGY      -459.433475116123

DIPOLE MOMENT
-------------
                                X             Y             Z
Electronic contribution:      0.96716       1.62795      -0.37857
Nuclear contribution   :     -1.38033      -2.05192       0.20170
                        -----------------------------------------
Total Dipole Moment    :     -0.41318      -0.42397      -0.17687
                        -----------------------------------------
Magnitude (a.u.)       :      0.61786
Magnitude (Debye)      :      1.57047

                             ****ORCA TERMINATED NORMALLY****
TOTAL RUN TIME: 0 days 0 hours 17 minutes 49 seconds 848 msec
