                         Program Version 3.0.3 - RELEASE   -
|  1> ! RI-MP2 RIJK def2-TZVP def2-TZVP/C def2-TZVP/JK TIGHTSCF
|  2> % maxcore 2000
|  3> % mp2 density relaxed end
|  4> *xyz 0 1
|  5>  C       -0.3745975715     1.3849500802     0.1707807938
|  6>  O        0.9702133418     0.9389768273    -0.0556548648
|  7>  C       -0.0472410192    -0.0363814626     0.0403330408
|  8>  C       -0.0511748870    -1.1841930841     1.0557053066
|  9>  N       -0.4640437514    -2.1475364277    -0.0151804247
| 10>  C       -1.9518170368    -2.2028318519    -0.2106715487
| 11>  C       -1.8814025343    -1.2230325044    -1.4125603848
| 12>  C       -0.3897435179    -1.0422102845    -1.0617868055
| 13>  H       -0.5673320796     1.8073971544     1.1564201669
| 14>  H       -0.8362271699     1.9162953970    -0.6609942250
| 15>  H        0.9470180438    -1.4148840055     1.4419433996
| 16>  H       -0.7490720316    -1.1082601500     1.8971362683
| 17>  H       -2.3002465078    -3.2124112764    -0.4454487284
| 18>  H       -2.5201504954    -1.8362035268     0.6524830487
| 19>  H       -2.0418749509    -1.7034374689    -2.3797142233
| 20>  H       -2.5030022468    -0.3261554382    -1.3591363278
| 21>  H        0.3534872846    -1.1350538779    -1.8585354016
| 22> *
| 23>
| 24>                          ****END OF INPUT****

CARTESIAN COORDINATES (ANGSTROEM)
---------------------------------
  C     -0.374598    1.384950    0.170781
  O      0.970213    0.938977   -0.055655
  C     -0.047241   -0.036381    0.040333
  C     -0.051175   -1.184193    1.055705
  N     -0.464044   -2.147536   -0.015180
  C     -1.951817   -2.202832   -0.210672
  C     -1.881403   -1.223033   -1.412560
  C     -0.389744   -1.042210   -1.061787
  H     -0.567332    1.807397    1.156420
  H     -0.836227    1.916295   -0.660994
  H      0.947018   -1.414884    1.441943
  H     -0.749072   -1.108260    1.897136
  H     -2.300247   -3.212411   -0.445449
  H     -2.520150   -1.836204    0.652483
  H     -2.041875   -1.703437   -2.379714
  H     -2.503002   -0.326155   -1.359136
  H      0.353487   -1.135054   -1.858535

 Total Charge           Charge          ....    0
 Multiplicity           Mult            ....    1
 Number of Electrons    NEL             ....   60
 Basis Dimension        Dim             ....  302

ORBITAL ENERGIES
----------------

  NO   OCC          E(Eh)            E(eV)
   0   2.0000     -20.572817      -559.8148
   1   2.0000     -15.548005      -423.0827
   2   2.0000     -11.294577      -307.3411
   3   2.0000     -11.287365      -307.1448
   4   2.0000     -11.262867      -306.4782
   5   2.0000     -11.256674      -306.3097
   6   2.0000     -11.256322      -306.3001
   7   2.0000     -11.233666      -305.6836
   8   2.0000      -1.419225       -38.6191
   9   2.0000      -1.263077       -34.3701
  10   2.0000      -1.030747       -28.0481
  11   2.0000      -0.967152       -26.3175
  12   2.0000      -0.915639       -24.9158
  13   2.0000      -0.882436       -24.0123
  14   2.0000      -0.814384       -22.1605
  15   2.0000      -0.723626       -19.6909
  16   2.0000      -0.690380       -18.7862
  17   2.0000      -0.682932       -18.5835
  18   2.0000      -0.657417       -17.8892
  19   2.0000      -0.622007       -16.9257
  20   2.0000      -0.585990       -15.9456
  21   2.0000      -0.577323       -15.7098
  22   2.0000      -0.540551       -14.7091
  23   2.0000      -0.507326       -13.8050
  24   2.0000      -0.502543       -13.6749
  25   2.0000      -0.468345       -12.7443
  26   2.0000      -0.453488       -12.3400
  27   2.0000      -0.443299       -12.0628
  28   2.0000      -0.425631       -11.5820
  29   2.0000      -0.363071        -9.8797
  30   0.0000       0.140624         3.8266
  31   0.0000       0.154889         4.2148
  32   0.0000       0.161845         4.4040
  33   0.0000       0.169949         4.6245
  34   0.0000       0.186577         5.0770

MULLIKEN ATOMIC CHARGES
-----------------------
   0 C :   -0.078947
   1 O :   -0.323295
   2 C :    0.078070
   3 C :   -0.162005
   4 N :   -0.176117
   5 C :   -0.141272
   6 C :   -0.283665
   7 C :    0.017643
   8 H :    0.117228
   9 H :    0.119338
  10 H :    0.124657
  11 H :    0.119104
  12 H :    0.118629
  13 H :    0.103360
  14 H :    0.128360
  15 H :    0.117482
  16 H :    0.121429
Sum of atomic charges:    0.0000000

LOEWDIN ATOMIC CHARGES
----------------------
   0 C :   -0.241639
   1 O :    0.173842
   2 C :   -0.306366
   3 C :   -0.214558
   4 N :    0.092406
   5 C :   -0.248114
   6 C :   -0.228076
   7 C :   -0.173969
   8 H :    0.121533
   9 H :    0.122134
  10 H :    0.135474
  11 H :    0.124543
  12 H :    0.122376
  13 H :    0.119706
  14 H :    0.134246
  15 H :    0.128639
  16 H :    0.137822

  Mayer bond orders larger than 0.1
B(  0-C ,  1-O ) :   0.8959 B(  0-C ,  2-C ) :   0.9510 B(  0-C ,  8-H ) :   0.9069
B(  0-C ,  9-H ) :   0.9179 B(  1-O ,  2-C ) :   0.9262 B(  2-C ,  3-C ) :   0.9606
B(  2-C ,  7-C ) :   0.9284 B(  3-C ,  4-N ) :   0.9453 B(  3-C , 10-H ) :   0.8991
B(  3-C , 11-H ) :   0.9335 B(  4-N ,  5-C ) :   0.9024 B(  4-N ,  7-C ) :   0.9519
B(  5-C ,  6-C ) :   0.9610 B(  5-C , 12-H ) :   0.9234 B(  5-C , 13-H ) :   0.9250
B(  6-C ,  7-C ) :   0.9246 B(  6-C , 14-H ) :   0.9197 B(  6-C , 15-H ) :   0.9199
B(  7-C , 16-H ) :   0.8917

MP2 TOTAL ENERGY:     -363.161178151 Eh
FINAL SINGLE POINT ENERGY      -363.161178150851

DIPOLE MOMENT
-------------
                                X             Y             Z
Electronic contribution:      4.16388       1.27700       0.01783
Nuclear contribution   :     -5.18146      -0.95565       0.04004
                        -----------------------------------------
Total Dipole Moment    :     -1.01758       0.32135       0.05787
                        -----------------------------------------
Magnitude (a.u.)       :      1.06869
Magnitude (Debye)      :      2.71638

                             ****ORCA TERMINATED NORMALLY****
TOTAL RUN TIME: 0 days 0 hours 12 minutes 57 seconds 172 msec
