                         Program Version 3.0.3 - RELEASE   -
|  1> ! RI-MP2 RIJK def2-TZVP def2-TZVP/C def2-TZVP/JK TIGHTSCF
|  2> % maxcore 2000
|  3> % mp2 density relaxed end
|  4> *xyz 0 1
|  5>  C       -0.0369443668     1.5573036106    -0.0213555637
|  6>  C       -0.0077087778     0.1025569699    -0.0123333056
|  7>  C        0.0444947845    -1.0990881797    -0.0185338956
|  8>  C        0.0392282848    -2.5505538583    -0.0067120874
|  9>  C       -1.3868670173    -3.1096501433     0.1109726391
| 10>  O       -1.6422983520    -4.2869369636     0.1683507208
| 11>  C        0.8154240457    -3.1722340238    -1.2199966514
| 12>  N        0.8300600697    -4.5330276378    -1.2006147178
| 13>  O        1.3858591639    -2.4864209279    -2.0342965823
| 14>  H        0.8114096703     1.9599694863    -0.5849430923
| 15>  H       -0.9541938231     1.9332980246    -0.4871234416
| 16>  H        0.0126266990     1.9640211449     0.9945132186
| 17>  H        0.5635584383    -2.9298254105     0.8836521835
| 18>  H       -2.1817024804    -2.3392679425     0.1499557679
| 19>  H        0.1305023168    -5.0202824963    -0.6570922164
| 20>  H        1.2095212742    -4.9882712926    -2.0162818456
| 21> *
| 22>
| 23>                          ****END OF INPUT****

CARTESIAN COORDINATES (ANGSTROEM)
---------------------------------
  C     -0.036944    1.557304   -0.021356
  C     -0.007709    0.102557   -0.012333
  C      0.044495   -1.099088   -0.018534
  C      0.039228   -2.550554   -0.006712
  C     -1.386867   -3.109650    0.110973
  O     -1.642298   -4.286937    0.168351
  C      0.815424   -3.172234   -1.219997
  N      0.830060   -4.533028   -1.200615
  O      1.385859   -2.486421   -2.034297
  H      0.811410    1.959969   -0.584943
  H     -0.954194    1.933298   -0.487123
  H      0.012627    1.964021    0.994513
  H      0.563558   -2.929825    0.883652
  H     -2.181702   -2.339268    0.149956
  H      0.130502   -5.020282   -0.657092
  H      1.209521   -4.988271   -2.016282

 Total Charge           Charge          ....    0
 Multiplicity           Mult            ....    1
 Number of Electrons    NEL             ....   66
 Basis Dimension        Dim             ....  321

ORBITAL ENERGIES
----------------

  NO   OCC          E(Eh)            E(eV)
   0   2.0000     -20.587584      -560.2166
   1   2.0000     -20.531555      -558.6920
   2   2.0000     -15.583523      -424.0492
   3   2.0000     -11.369191      -309.3714
   4   2.0000     -11.365646      -309.2750
   5   2.0000     -11.294726      -307.3451
   6   2.0000     -11.254252      -306.2438
   7   2.0000     -11.241489      -305.8965
   8   2.0000     -11.231281      -305.6187
   9   2.0000      -1.429234       -38.8914
  10   2.0000      -1.396863       -38.0106
  11   2.0000      -1.219755       -33.1912
  12   2.0000      -1.106128       -30.0993
  13   2.0000      -1.045496       -28.4494
  14   2.0000      -0.951236       -25.8845
  15   2.0000      -0.857275       -23.3276
  16   2.0000      -0.803313       -21.8592
  17   2.0000      -0.744731       -20.2652
  18   2.0000      -0.711691       -19.3661
  19   2.0000      -0.679181       -18.4815
  20   2.0000      -0.668910       -18.2020
  21   2.0000      -0.653744       -17.7893
  22   2.0000      -0.621793       -16.9199
  23   2.0000      -0.608585       -16.5605
  24   2.0000      -0.594364       -16.1735
  25   2.0000      -0.593031       -16.1372
  26   2.0000      -0.562440       -15.3048
  27   2.0000      -0.549860       -14.9624
  28   2.0000      -0.464456       -12.6385
  29   2.0000      -0.437717       -11.9109
  30   2.0000      -0.422334       -11.4923
  31   2.0000      -0.385563       -10.4917
  32   2.0000      -0.382694       -10.4136
  33   0.0000       0.094886         2.5820
  34   0.0000       0.131633         3.5819
  35   0.0000       0.141762         3.8575
  36   0.0000       0.161400         4.3919
  37   0.0000       0.171856         4.6764

MULLIKEN ATOMIC CHARGES
-----------------------
   0 C :   -0.485547
   1 C :    0.039470
   2 C :   -0.057464
   3 C :   -0.110548
   4 C :    0.110122
   5 O :   -0.290047
   6 C :    0.244654
   7 N :   -0.470119
   8 O :   -0.305007
   9 H :    0.172321
  10 H :    0.162845
  11 H :    0.162867
  12 H :    0.160391
  13 H :    0.127220
  14 H :    0.280156
  15 H :    0.258684
Sum of atomic charges:   -0.0000000

LOEWDIN ATOMIC CHARGES
----------------------
   0 C :   -0.289714
   1 C :   -0.083207
   2 C :   -0.065369
   3 C :   -0.213071
   4 C :   -0.239744
   5 O :    0.130442
   6 C :   -0.447415
   7 N :   -0.012802
   8 O :    0.117915
   9 H :    0.145511
  10 H :    0.141982
  11 H :    0.141520
  12 H :    0.195620
  13 H :    0.127482
  14 H :    0.174469
  15 H :    0.176381

  Mayer bond orders larger than 0.1
B(  0-C ,  1-C ) :   0.8510 B(  0-C ,  9-H ) :   0.9463 B(  0-C , 10-H ) :   0.9452
B(  0-C , 11-H ) :   0.9483 B(  1-C ,  2-C ) :   2.6667 B(  2-C ,  3-C ) :   1.0604
B(  3-C ,  4-C ) :   0.8489 B(  3-C ,  6-C ) :   0.8199 B(  3-C ,  8-O ) :  -0.1314
B(  3-C , 12-H ) :   0.8735 B(  4-C ,  5-O ) :   1.9070 B(  4-C , 13-H ) :   0.9339
B(  6-C ,  7-N ) :   1.1975 B(  6-C ,  8-O ) :   2.0250 B(  7-N , 14-H ) :   0.8371
B(  7-N , 15-H ) :   0.8594

MP2 TOTAL ENERGY:     -437.168327939 Eh
FINAL SINGLE POINT ENERGY      -437.168327938934

DIPOLE MOMENT
-------------
                                X             Y             Z
Electronic contribution:      0.03500      -5.74784      -1.11153
Nuclear contribution   :     -0.42014       5.84844       1.64874
                        -----------------------------------------
Total Dipole Moment    :     -0.38515       0.10059       0.53721
                        -----------------------------------------
Magnitude (a.u.)       :      0.66862
Magnitude (Debye)      :      1.69950

                             ****ORCA TERMINATED NORMALLY****
TOTAL RUN TIME: 0 days 0 hours 13 minutes 2 seconds 629 msec
