                         Program Version 3.0.3 - RELEASE   -
|  1> ! RI-MP2 RIJK def2-TZVP def2-TZVP/C def2-TZVP/JK TIGHTSCF
|  2> % maxcore 2000
|  3> % mp2 density relaxed end
|  4> *xyz 0 1
|  5>  N       -0.0778263983    -1.1856465585    -0.3430012705
|  6>  C       -0.0483822417    -0.0437318611    -0.1630571091
|  7>  C       -0.0099854027     1.4027471175     0.0720836950
|  8>  C       -0.7053676372     1.7977708946     1.4137000626
|  9>  C        0.2836534241     1.9222163572     2.5950001053
| 10>  C        1.6713244544     2.3747123899     2.1086755064
| 11>  C        1.5536606826     3.2588806140     0.8300394958
| 12>  C        1.4512420815     1.9220364061     0.0393206896
| 13>  C        2.2700169258     1.2760353580     1.1883068108
| 14>  H       -0.5700450657     1.8653089238    -0.7495684023
| 15>  H       -1.1791996668     2.7689004688     1.2475885226
| 16>  H       -1.5126876200     1.0986541418     1.6436569783
| 17>  H       -0.1250794586     2.6344672539     3.3203767215
| 18>  H        0.3859587603     0.9654319619     3.1200614154
| 19>  H        2.2863889905     2.7422359996     2.9329180886
| 20>  H        0.7391109653     3.9847224125     0.7546287469
| 21>  H        2.4968752935     3.7641081895     0.6086439834
| 22>  H        1.8541006659     1.8770510161    -0.9742481942
| 23>  H        3.3431379591     1.4110298360     1.0320131899
| 24>  H        2.0699380780     0.2297216084     1.4351220138
| 25> *
| 26>
| 27>                          ****END OF INPUT****

CARTESIAN COORDINATES (ANGSTROEM)
---------------------------------
  N     -0.077826   -1.185647   -0.343001
  C     -0.048382   -0.043732   -0.163057
  C     -0.009985    1.402747    0.072084
  C     -0.705368    1.797771    1.413700
  C      0.283653    1.922216    2.595000
  C      1.671324    2.374712    2.108676
  C      1.553661    3.258881    0.830039
  C      1.451242    1.922036    0.039321
  C      2.270017    1.276035    1.188307
  H     -0.570045    1.865309   -0.749568
  H     -1.179200    2.768900    1.247589
  H     -1.512688    1.098654    1.643657
  H     -0.125079    2.634467    3.320377
  H      0.385959    0.965432    3.120061
  H      2.286389    2.742236    2.932918
  H      0.739111    3.984722    0.754629
  H      2.496875    3.764108    0.608644
  H      1.854101    1.877051   -0.974248
  H      3.343138    1.411030    1.032013
  H      2.069938    0.229722    1.435122

 Total Charge           Charge          ....    0
 Multiplicity           Mult            ....    1
 Number of Electrons    NEL             ....   66
 Basis Dimension        Dim             ....  345

ORBITAL ENERGIES
----------------

  NO   OCC          E(Eh)            E(eV)
   0   2.0000     -15.561220      -423.4423
   1   2.0000     -11.280663      -306.9624
   2   2.0000     -11.264608      -306.5256
   3   2.0000     -11.252022      -306.1831
   4   2.0000     -11.245894      -306.0163
   5   2.0000     -11.240283      -305.8637
   6   2.0000     -11.235667      -305.7380
   7   2.0000     -11.233815      -305.6876
   8   2.0000     -11.228632      -305.5466
   9   2.0000      -1.215133       -33.0655
  10   2.0000      -1.178972       -32.0815
  11   2.0000      -1.058830       -28.8122
  12   2.0000      -1.020673       -27.7739
  13   2.0000      -0.913435       -24.8558
  14   2.0000      -0.863907       -23.5081
  15   2.0000      -0.837129       -22.7794
  16   2.0000      -0.741868       -20.1873
  17   2.0000      -0.696752       -18.9596
  18   2.0000      -0.684864       -18.6361
  19   2.0000      -0.635824       -17.3016
  20   2.0000      -0.623321       -16.9614
  21   2.0000      -0.571278       -15.5453
  22   2.0000      -0.557276       -15.1643
  23   2.0000      -0.546675       -14.8758
  24   2.0000      -0.544549       -14.8179
  25   2.0000      -0.538236       -14.6461
  26   2.0000      -0.510418       -13.8892
  27   2.0000      -0.477944       -13.0055
  28   2.0000      -0.463279       -12.6065
  29   2.0000      -0.458611       -12.4794
  30   2.0000      -0.445457       -12.1215
  31   2.0000      -0.431255       -11.7350
  32   2.0000      -0.424139       -11.5414
  33   0.0000       0.117695         3.2026
  34   0.0000       0.144369         3.9285
  35   0.0000       0.151176         4.1137
  36   0.0000       0.161577         4.3967
  37   0.0000       0.178155         4.8479

MULLIKEN ATOMIC CHARGES
-----------------------
   0 N :   -0.050618
   1 C :   -0.245728
   2 C :    0.000366
   3 C :   -0.250982
   4 C :   -0.312773
   5 C :    0.058217
   6 C :   -0.330234
   7 C :    0.052468
   8 C :   -0.358236
   9 H :    0.132387
  10 H :    0.136895
  11 H :    0.150336
  12 H :    0.123779
  13 H :    0.128254
  14 H :    0.117631
  15 H :    0.121160
  16 H :    0.129233
  17 H :    0.129218
  18 H :    0.126361
  19 H :    0.142265
Sum of atomic charges:    0.0000000

LOEWDIN ATOMIC CHARGES
----------------------
   0 N :    0.055197
   1 C :   -0.173357
   2 C :   -0.213543
   3 C :   -0.211028
   4 C :   -0.234614
   5 C :   -0.218260
   6 C :   -0.193958
   7 C :   -0.184700
   8 C :   -0.192328
   9 H :    0.176645
  10 H :    0.141976
  11 H :    0.145285
  12 H :    0.139873
  13 H :    0.142337
  14 H :    0.136373
  15 H :    0.127347
  16 H :    0.140917
  17 H :    0.141878
  18 H :    0.139443
  19 H :    0.134518

  Mayer bond orders larger than 0.1
B(  0-N ,  1-C ) :   2.8867 B(  1-C ,  2-C ) :   0.9353 B(  2-C ,  3-C ) :   0.8828
B(  2-C ,  7-C ) :   0.8840 B(  2-C ,  9-H ) :   0.8996 B(  3-C ,  4-C ) :   0.9427
B(  3-C , 10-H ) :   0.9313 B(  3-C , 11-H ) :   0.9313 B(  4-C ,  5-C ) :   0.8813
B(  4-C , 12-H ) :   0.9291 B(  4-C , 13-H ) :   0.9331 B(  5-C ,  6-C ) :   0.9066
B(  5-C ,  8-C ) :   0.8866 B(  5-C , 14-H ) :   0.9288 B(  6-C ,  7-C ) :   0.8905
B(  6-C , 15-H ) :   0.9229 B(  6-C , 16-H ) :   0.9243 B(  7-C ,  8-C ) :   0.8791
B(  7-C , 17-H ) :   0.9234 B(  8-C , 18-H ) :   0.9219 B(  8-C , 19-H ) :   0.9282

MP2 TOTAL ENERGY:     -365.374901000 Eh
FINAL SINGLE POINT ENERGY      -365.374901000410

DIPOLE MOMENT
-------------
                                X             Y             Z
Electronic contribution:     -1.65980      -5.49173      -3.94882
Nuclear contribution   :      1.81760       7.06612       4.38263
                        -----------------------------------------
Total Dipole Moment    :      0.15780       1.57440       0.43382
                        -----------------------------------------
Magnitude (a.u.)       :      1.64068
Magnitude (Debye)      :      4.17027

                             ****ORCA TERMINATED NORMALLY****
TOTAL RUN TIME: 0 days 0 hours 20 minutes 37 seconds 603 msec
