                         Program Version 3.0.3 - RELEASE   -
|  1> ! RI-MP2 RIJK def2-TZVP def2-TZVP/C def2-TZVP/JK TIGHTSCF
|  2> % maxcore 2000
|  3> % mp2 density relaxed end
|  4> *xyz 0 1
|  5>  C       -0.0503802184     1.5840007061    -0.1564764028
|  6>  C        0.0064822168     0.0574188755    -0.0327542218
|  7>  C        0.9178511594    -0.5654287661    -1.1446900490
|  8>  C        2.2821784075    -0.6611440879    -0.4853235982
|  9>  C        2.1539217255    -0.5664525486     0.8409304628
| 10>  C        2.9775055468    -0.3777293197     2.0230597662
| 11>  C        2.2179042194     0.1074617005     3.0215694227
| 12>  C        0.7683696129     0.3142714531     2.6092544748
| 13>  C        0.6995772168    -0.4461912748     1.2609258495
| 14>  H        0.9492243157     2.0262476787    -0.0857018958
| 15>  H       -0.4757481800     1.8733522398    -1.1231517619
| 16>  H       -0.6734896321     2.0311207862     0.6246046452
| 17>  H       -1.0131066407    -0.3351497879    -0.1103468074
| 18>  H        0.5477816156    -1.5576565156    -1.4457025292
| 19>  H        0.9282311912     0.0448322798    -2.0558963575
| 20>  H        3.2067729714    -0.7638449303    -1.0412374947
| 21>  H        4.0473878388    -0.5419142604     2.0697005966
| 22>  H        2.5877504740     0.3884438255     4.0019738520
| 23>  H        0.0590036434    -0.0636259733     3.3532425261
| 24>  H        0.5629826224     1.3880730953     2.5036396101
| 25>  H        0.3266293036    -1.4586060459     1.4772554623
| 26> *
| 27>
| 28>                          ****END OF INPUT****

CARTESIAN COORDINATES (ANGSTROEM)
---------------------------------
  C     -0.050380    1.584001   -0.156476
  C      0.006482    0.057419   -0.032754
  C      0.917851   -0.565429   -1.144690
  C      2.282178   -0.661144   -0.485324
  C      2.153922   -0.566453    0.840930
  C      2.977506   -0.377729    2.023060
  C      2.217904    0.107462    3.021569
  C      0.768370    0.314271    2.609254
  C      0.699577   -0.446191    1.260926
  H      0.949224    2.026248   -0.085702
  H     -0.475748    1.873352   -1.123152
  H     -0.673490    2.031121    0.624605
  H     -1.013107   -0.335150   -0.110347
  H      0.547782   -1.557657   -1.445703
  H      0.928231    0.044832   -2.055896
  H      3.206773   -0.763845   -1.041237
  H      4.047388   -0.541914    2.069701
  H      2.587750    0.388444    4.001974
  H      0.059004   -0.063626    3.353243
  H      0.562983    1.388073    2.503640
  H      0.326629   -1.458606    1.477255

 Total Charge           Charge          ....    0
 Multiplicity           Mult            ....    1
 Number of Electrons    NEL             ....   66
 Basis Dimension        Dim             ....  351

ORBITAL ENERGIES
----------------

  NO   OCC          E(Eh)            E(eV)
   0   2.0000     -11.235684      -305.7385
   1   2.0000     -11.227201      -305.5077
   2   2.0000     -11.226768      -305.4959
   3   2.0000     -11.225726      -305.4675
   4   2.0000     -11.221166      -305.3434
   5   2.0000     -11.220461      -305.3243
   6   2.0000     -11.218633      -305.2745
   7   2.0000     -11.211689      -305.0856
   8   2.0000     -11.207886      -304.9821
   9   2.0000      -1.163879       -31.6708
  10   2.0000      -1.078809       -29.3559
  11   2.0000      -1.007753       -27.4224
  12   2.0000      -0.952874       -25.9290
  13   2.0000      -0.917566       -24.9682
  14   2.0000      -0.872359       -23.7381
  15   2.0000      -0.769785       -20.9469
  16   2.0000      -0.742096       -20.1935
  17   2.0000      -0.701167       -19.0797
  18   2.0000      -0.660676       -17.9779
  19   2.0000      -0.645326       -17.5602
  20   2.0000      -0.599391       -16.3103
  21   2.0000      -0.581097       -15.8125
  22   2.0000      -0.549321       -14.9478
  23   2.0000      -0.541746       -14.7417
  24   2.0000      -0.525309       -14.2944
  25   2.0000      -0.515310       -14.0223
  26   2.0000      -0.501305       -13.6412
  27   2.0000      -0.471655       -12.8344
  28   2.0000      -0.464693       -12.6449
  29   2.0000      -0.450631       -12.2623
  30   2.0000      -0.444757       -12.1024
  31   2.0000      -0.403274       -10.9736
  32   2.0000      -0.295385        -8.0378
  33   0.0000       0.120851         3.2885
  34   0.0000       0.138955         3.7812
  35   0.0000       0.162409         4.4194
  36   0.0000       0.164995         4.4898
  37   0.0000       0.177053         4.8179

MULLIKEN ATOMIC CHARGES
-----------------------
   0 C :   -0.487372
   1 C :    0.012591
   2 C :   -0.177118
   3 C :   -0.215113
   4 C :   -0.003450
   5 C :   -0.224695
   6 C :   -0.147167
   7 C :   -0.184623
   8 C :   -0.026911
   9 H :    0.145450
  10 H :    0.133018
  11 H :    0.131000
  12 H :    0.095278
  13 H :    0.114166
  14 H :    0.116288
  15 H :    0.123971
  16 H :    0.129605
  17 H :    0.125971
  18 H :    0.124837
  19 H :    0.119622
  20 H :    0.094650
Sum of atomic charges:   -0.0000000

LOEWDIN ATOMIC CHARGES
----------------------
   0 C :   -0.296128
   1 C :   -0.230787
   2 C :   -0.215611
   3 C :   -0.134718
   4 C :   -0.144291
   5 C :   -0.123269
   6 C :   -0.130505
   7 C :   -0.213190
   8 C :   -0.156165
   9 H :    0.128467
  10 H :    0.123051
  11 H :    0.120482
  12 H :    0.143583
  13 H :    0.138824
  14 H :    0.136124
  15 H :    0.134656
  16 H :    0.142184
  17 H :    0.134179
  18 H :    0.135802
  19 H :    0.144238
  20 H :    0.163075

  Mayer bond orders larger than 0.1
B(  0-C ,  1-C ) :   0.8853 B(  0-C ,  9-H ) :   0.9376 B(  0-C , 10-H ) :   0.9363
B(  0-C , 11-H ) :   0.9420 B(  1-C ,  2-C ) :   0.9185 B(  1-C ,  8-C ) :   0.9145
B(  1-C , 12-H ) :   0.9285 B(  2-C ,  3-C ) :   0.9406 B(  2-C , 13-H ) :   0.9061
B(  2-C , 14-H ) :   0.9293 B(  3-C ,  4-C ) :   1.6542 B(  3-C , 15-H ) :   0.9275
B(  4-C ,  5-C ) :   1.0220 B(  4-C ,  8-C ) :   0.9196 B(  5-C ,  6-C ) :   1.7257
B(  5-C , 16-H ) :   0.9275 B(  6-C ,  7-C ) :   0.9448 B(  6-C , 17-H ) :   0.9304
B(  7-C ,  8-C ) :   0.9418 B(  7-C , 18-H ) :   0.9283 B(  7-C , 19-H ) :   0.8975
B(  8-C , 20-H ) :   0.8996

MP2 TOTAL ENERGY:     -349.325190655 Eh
FINAL SINGLE POINT ENERGY      -349.325190654662

DIPOLE MOMENT
-------------
                                X             Y             Z
Electronic contribution:      4.02365      -3.08976       2.12776
Nuclear contribution   :     -4.14382       3.18070      -2.03652
                        -----------------------------------------
Total Dipole Moment    :     -0.12017       0.09094       0.09124
                        -----------------------------------------
Magnitude (a.u.)       :      0.17617
Magnitude (Debye)      :      0.44779

                             ****ORCA TERMINATED NORMALLY****
TOTAL RUN TIME: 0 days 0 hours 21 minutes 23 seconds 313 msec
