                         Program Version 3.0.3 - RELEASE   -
|  1> ! RI-MP2 RIJK def2-TZVP def2-TZVP/C def2-TZVP/JK TIGHTSCF
|  2> % maxcore 2000
|  3> % mp2 density relaxed end
|  4> *xyz 0 1
|  5>  N       -0.2007683756     1.5369125935     0.1060483805
|  6>  C        0.0358518844     0.0831305087     0.0212146404
|  7>  C        0.7505937918    -0.3605152449     1.2271026158
|  8>  C        1.3632128323    -0.7277993216     2.1921936332
|  9>  C       -1.2941644925    -0.5758381507    -0.0078905141
| 10>  N       -2.3268729732    -1.0873976034    -0.0769731604
| 11>  C        0.7943448868    -0.3303516515    -1.2613673477
| 12>  C        2.2749221910    -0.2927180526    -1.3086621738
| 13>  N        1.5503459165    -1.5753756461    -1.3691527963
| 14>  H        0.7013222726     2.0054387790     0.0885275318
| 15>  H       -0.7116862523     1.8372407123    -0.7206072256
| 16>  H        1.8842630931    -1.0461324800     3.0624277411
| 17>  H        0.2268353846    -0.0749489227    -2.1543406918
| 18>  H        2.7742515930    -0.0012899741    -2.2278450862
| 19>  H        2.8069865095    -0.0465305654    -0.3941217098
| 20>  H        1.5967090077    -2.0305821406    -0.4587926969
| 21> *
| 22>
| 23>                          ****END OF INPUT****

CARTESIAN COORDINATES (ANGSTROEM)
---------------------------------
  N     -0.200768    1.536913    0.106048
  C      0.035852    0.083131    0.021215
  C      0.750594   -0.360515    1.227103
  C      1.363213   -0.727799    2.192194
  C     -1.294164   -0.575838   -0.007891
  N     -2.326873   -1.087398   -0.076973
  C      0.794345   -0.330352   -1.261367
  C      2.274922   -0.292718   -1.308662
  N      1.550346   -1.575376   -1.369153
  H      0.701322    2.005439    0.088528
  H     -0.711686    1.837241   -0.720607
  H      1.884263   -1.046132    3.062428
  H      0.226835   -0.074949   -2.154341
  H      2.774252   -0.001290   -2.227845
  H      2.806987   -0.046531   -0.394122
  H      1.596709   -2.030582   -0.458793

 Total Charge           Charge          ....    0
 Multiplicity           Mult            ....    1
 Number of Electrons    NEL             ....   64
 Basis Dimension        Dim             ....  321

ORBITAL ENERGIES
----------------

  NO   OCC          E(Eh)            E(eV)
   0   2.0000     -15.588064      -424.1728
   1   2.0000     -15.582364      -424.0177
   2   2.0000     -15.579339      -423.9354
   3   2.0000     -11.365087      -309.2597
   4   2.0000     -11.294930      -307.3507
   5   2.0000     -11.282811      -307.0209
   6   2.0000     -11.276880      -306.8595
   7   2.0000     -11.268255      -306.6248
   8   2.0000     -11.262085      -306.4569
   9   2.0000      -1.296501       -35.2796
  10   2.0000      -1.248888       -33.9840
  11   2.0000      -1.214767       -33.0555
  12   2.0000      -1.078654       -29.3517
  13   2.0000      -1.005446       -27.3596
  14   2.0000      -0.915037       -24.8994
  15   2.0000      -0.856672       -23.3112
  16   2.0000      -0.794579       -21.6216
  17   2.0000      -0.739254       -20.1161
  18   2.0000      -0.721302       -19.6276
  19   2.0000      -0.673570       -18.3288
  20   2.0000      -0.662652       -18.0317
  21   2.0000      -0.633644       -17.2423
  22   2.0000      -0.577869       -15.7246
  23   2.0000      -0.565620       -15.3913
  24   2.0000      -0.516495       -14.0545
  25   2.0000      -0.512118       -13.9354
  26   2.0000      -0.482040       -13.1170
  27   2.0000      -0.474453       -12.9105
  28   2.0000      -0.448559       -12.2059
  29   2.0000      -0.430680       -11.7194
  30   2.0000      -0.427067       -11.6211
  31   2.0000      -0.408271       -11.1096
  32   0.0000       0.109392         2.9767
  33   0.0000       0.130045         3.5387
  34   0.0000       0.139605         3.7988
  35   0.0000       0.148667         4.0454
  36   0.0000       0.155757         4.2384

MULLIKEN ATOMIC CHARGES
-----------------------
   0 N :   -0.513448
   1 C :    0.223662
   2 C :   -0.116396
   3 C :   -0.091833
   4 C :   -0.180016
   5 N :   -0.039839
   6 C :   -0.094922
   7 C :   -0.178561
   8 N :   -0.344748
   9 H :    0.242662
  10 H :    0.243564
  11 H :    0.206640
  12 H :    0.137744
  13 H :    0.132413
  14 H :    0.140926
  15 H :    0.232152
Sum of atomic charges:   -0.0000000

LOEWDIN ATOMIC CHARGES
----------------------
   0 N :   -0.080683
   1 C :   -0.327983
   2 C :   -0.058504
   3 C :   -0.054906
   4 C :   -0.126296
   5 N :    0.086208
   6 C :   -0.240681
   7 C :   -0.256050
   8 N :    0.009063
   9 H :    0.166542
  10 H :    0.166688
  11 H :    0.134219
  12 H :    0.152046
  13 H :    0.128015
  14 H :    0.128939
  15 H :    0.173384

  Mayer bond orders larger than 0.1
B(  0-N ,  1-C ) :   0.8439 B(  0-N ,  9-H ) :   0.8768 B(  0-N , 10-H ) :   0.8739
B(  1-C ,  2-C ) :   1.1002 B(  1-C ,  3-C ) :  -0.1145 B(  1-C ,  4-C ) :   0.8554
B(  1-C ,  6-C ) :   0.9543 B(  2-C ,  3-C ) :   2.5687 B(  3-C , 11-H ) :   0.8723
B(  4-C ,  5-N ) :   2.8644 B(  6-C ,  7-C ) :   0.9140 B(  6-C ,  8-N ) :   0.9233
B(  6-C , 12-H ) :   0.9054 B(  7-C ,  8-N ) :   0.9297 B(  7-C , 13-H ) :   0.9179
B(  7-C , 14-H ) :   0.9138 B(  8-N , 15-H ) :   0.8681

MP2 TOTAL ENERGY:     -396.163879826 Eh
FINAL SINGLE POINT ENERGY      -396.163879826406

DIPOLE MOMENT
-------------
                                X             Y             Z
Electronic contribution:     -4.75509      -1.92700       2.16181
Nuclear contribution   :      6.37338       2.85779      -2.02803
                        -----------------------------------------
Total Dipole Moment    :      1.61828       0.93079       0.13378
                        -----------------------------------------
Magnitude (a.u.)       :      1.87166
Magnitude (Debye)      :      4.75738

                             ****ORCA TERMINATED NORMALLY****
TOTAL RUN TIME: 0 days 0 hours 17 minutes 4 seconds 930 msec
