                         Program Version 3.0.3 - RELEASE   -
|  1> ! RI-MP2 RIJK def2-TZVP def2-TZVP/C def2-TZVP/JK TIGHTSCF
|  2> % maxcore 2000
|  3> % mp2 density relaxed end
|  4> *xyz 0 1
|  5>  O        0.1856981301     1.3406746956    -0.1550917653
|  6>  C        0.0447971181    -0.0583820319    -0.0131876770
|  7>  C        0.2018802734    -0.6152448177     1.4312034086
|  8>  C       -1.3374781335    -0.4100616833     1.5919757815
|  9>  C       -1.4152929227    -0.5931388064     0.0434273899
| 10>  C       -1.4120464190    -2.0870245840    -0.3281210099
| 11>  C       -0.6186430488    -2.9121209035     0.7144610419
| 12>  C        0.5450723354    -2.1137770313     1.3513796454
| 13>  H       -0.3700462515     1.7762993123     0.4992201652
| 14>  H        0.6968374909    -0.4902671947    -0.7798841998
| 15>  H        0.8776308756    -0.0693871840     2.0952317164
| 16>  H       -1.8952249140    -1.0992302477     2.2309373720
| 17>  H       -1.5888271656     0.6089534222     1.9011084307
| 18>  H       -2.1654580339    -0.0277922462    -0.5161895035
| 19>  H       -2.4364923360    -2.4708198791    -0.3939001583
| 20>  H       -0.9742436598    -2.1983239971    -1.3282391256
| 21>  H       -1.3063473995    -3.2140098732     1.5110334253
| 22>  H       -0.2511793012    -3.8426750563     0.2714334307
| 23>  H        1.4653399439    -2.2316722283     0.7652879280
| 24>  H        0.7594192978    -2.5145081153     2.3486687240
| 25> *
| 26>
| 27>                          ****END OF INPUT****

CARTESIAN COORDINATES (ANGSTROEM)
---------------------------------
  O      0.185698    1.340675   -0.155092
  C      0.044797   -0.058382   -0.013188
  C      0.201880   -0.615245    1.431203
  C     -1.337478   -0.410062    1.591976
  C     -1.415293   -0.593139    0.043427
  C     -1.412046   -2.087025   -0.328121
  C     -0.618643   -2.912121    0.714461
  C      0.545072   -2.113777    1.351380
  H     -0.370046    1.776299    0.499220
  H      0.696837   -0.490267   -0.779884
  H      0.877631   -0.069387    2.095232
  H     -1.895225   -1.099230    2.230937
  H     -1.588827    0.608953    1.901108
  H     -2.165458   -0.027792   -0.516190
  H     -2.436492   -2.470820   -0.393900
  H     -0.974244   -2.198324   -1.328239
  H     -1.306347   -3.214010    1.511033
  H     -0.251179   -3.842675    0.271433
  H      1.465340   -2.231672    0.765288
  H      0.759419   -2.514508    2.348669

 Total Charge           Charge          ....    0
 Multiplicity           Mult            ....    1
 Number of Electrons    NEL             ....   62
 Basis Dimension        Dim             ....  320

ORBITAL ENERGIES
----------------

  NO   OCC          E(Eh)            E(eV)
   0   2.0000     -20.551696      -559.2401
   1   2.0000     -11.270706      -306.6915
   2   2.0000     -11.226149      -305.4790
   3   2.0000     -11.226065      -305.4768
   4   2.0000     -11.224446      -305.4327
   5   2.0000     -11.222173      -305.3708
   6   2.0000     -11.222065      -305.3679
   7   2.0000     -11.220712      -305.3311
   8   2.0000      -1.359158       -36.9846
   9   2.0000      -1.154312       -31.4104
  10   2.0000      -1.019928       -27.7536
  11   2.0000      -0.990251       -26.9461
  12   2.0000      -0.896760       -24.4021
  13   2.0000      -0.819800       -22.3079
  14   2.0000      -0.813523       -22.1371
  15   2.0000      -0.738742       -20.1022
  16   2.0000      -0.675008       -18.3679
  17   2.0000      -0.662116       -18.0171
  18   2.0000      -0.613631       -16.6977
  19   2.0000      -0.591937       -16.1074
  20   2.0000      -0.589666       -16.0456
  21   2.0000      -0.554277       -15.0826
  22   2.0000      -0.549977       -14.9656
  23   2.0000      -0.534156       -14.5351
  24   2.0000      -0.521203       -14.1826
  25   2.0000      -0.488096       -13.2818
  26   2.0000      -0.475988       -12.9523
  27   2.0000      -0.440779       -11.9942
  28   2.0000      -0.432781       -11.7766
  29   2.0000      -0.423133       -11.5140
  30   2.0000      -0.390488       -10.6257
  31   0.0000       0.130984         3.5643
  32   0.0000       0.148123         4.0306
  33   0.0000       0.162390         4.4189
  34   0.0000       0.165468         4.5026
  35   0.0000       0.182685         4.9711

MULLIKEN ATOMIC CHARGES
-----------------------
   0 O :   -0.457130
   1 C :   -0.063755
   2 C :    0.092726
   3 C :   -0.396793
   4 C :    0.092695
   5 C :   -0.320407
   6 C :   -0.226176
   7 C :   -0.320406
   8 H :    0.312788
   9 H :    0.106718
  10 H :    0.110182
  11 H :    0.119793
  12 H :    0.120636
  13 H :    0.110185
  14 H :    0.117601
  15 H :    0.118086
  16 H :    0.120093
  17 H :    0.127477
  18 H :    0.118085
  19 H :    0.117601
Sum of atomic charges:    0.0000000

LOEWDIN ATOMIC CHARGES
----------------------
   0 O :   -0.012987
   1 C :   -0.283048
   2 C :   -0.211430
   3 C :   -0.207766
   4 C :   -0.211433
   5 C :   -0.238404
   6 C :   -0.257571
   7 C :   -0.238404
   8 H :    0.173237
   9 H :    0.134578
  10 H :    0.136717
  11 H :    0.128065
  12 H :    0.128899
  13 H :    0.136716
  14 H :    0.137120
  15 H :    0.138604
  16 H :    0.136179
  17 H :    0.135207
  18 H :    0.138603
  19 H :    0.137120

  Mayer bond orders larger than 0.1
B(  0-O ,  1-C ) :   0.9515 B(  0-O ,  8-H ) :   0.8409 B(  1-C ,  2-C ) :   0.8550
B(  1-C ,  4-C ) :   0.8550 B(  1-C ,  9-H ) :   0.9441 B(  2-C ,  3-C ) :   0.8592
B(  2-C ,  7-C ) :   0.8704 B(  2-C , 10-H ) :   0.9286 B(  3-C ,  4-C ) :   0.8592
B(  3-C , 11-H ) :   0.9166 B(  3-C , 12-H ) :   0.9375 B(  4-C ,  5-C ) :   0.8704
B(  4-C , 13-H ) :   0.9286 B(  5-C ,  6-C ) :   0.9365 B(  5-C , 14-H ) :   0.9231
B(  5-C , 15-H ) :   0.9372 B(  6-C ,  7-C ) :   0.9365 B(  6-C , 16-H ) :   0.9333
B(  6-C , 17-H ) :   0.9336 B(  7-C , 18-H ) :   0.9372 B(  7-C , 19-H ) :   0.9231

MP2 TOTAL ENERGY:     -348.404074192 Eh
FINAL SINGLE POINT ENERGY      -348.404074192088

DIPOLE MOMENT
-------------
                                X             Y             Z
Electronic contribution:      1.10644       4.34380      -1.22008
Nuclear contribution   :     -1.49353      -4.72638       1.66493
                        -----------------------------------------
Total Dipole Moment    :     -0.38709      -0.38258       0.44485
                        -----------------------------------------
Magnitude (a.u.)       :      0.70292
Magnitude (Debye)      :      1.78669

                             ****ORCA TERMINATED NORMALLY****
TOTAL RUN TIME: 0 days 0 hours 15 minutes 18 seconds 421 msec
