                         Program Version 3.0.3 - RELEASE   -
|  1> ! RI-MP2 RIJK def2-TZVP def2-TZVP/C def2-TZVP/JK TIGHTSCF
|  2> % maxcore 2000
|  3> % mp2 density relaxed end
|  4> *xyz 0 1
|  5>  O       -0.5419093021     1.0984557751    -0.2694789662
|  6>  C        0.0637451179    -0.1191756669     0.0902439286
|  7>  C        0.6685732864    -0.7959677797    -1.0807943395
|  8>  N        1.1359047634    -1.3313294509    -1.9914431334
|  9>  C        1.1254168161     0.0986613382     1.1924234992
| 10>  O        1.9891843578     1.0989099398     0.6615534545
| 11>  C        0.4938108589     0.5397514665     2.4898844676
| 12>  C        0.1710736927    -0.4482537932     3.5461832606
| 13>  N        1.2896425120     0.4932314807     3.7334611572
| 14>  H        0.1871227668     1.7214732925    -0.4017748498
| 15>  H       -0.7257694129    -0.7693564109     0.4806591411
| 16>  H        1.6743095654    -0.8432021407     1.3521115818
| 17>  H        2.4466155901     1.5291799841     1.3912992280
| 18>  H       -0.1254954249     1.4282384612     2.4001833141
| 19>  H       -0.6837542686    -0.2812218934     4.1939354142
| 20>  H        0.4014571025    -1.4944069983     3.3602670815
| 21>  H        2.1665116183     0.0006305758     3.5688005507
| 22> *
| 23>
| 24>                          ****END OF INPUT****

CARTESIAN COORDINATES (ANGSTROEM)
---------------------------------
  O     -0.541909    1.098456   -0.269479
  C      0.063745   -0.119176    0.090244
  C      0.668573   -0.795968   -1.080794
  N      1.135905   -1.331329   -1.991443
  C      1.125417    0.098661    1.192423
  O      1.989184    1.098910    0.661553
  C      0.493811    0.539751    2.489884
  C      0.171074   -0.448254    3.546183
  N      1.289643    0.493231    3.733461
  H      0.187123    1.721473   -0.401775
  H     -0.725769   -0.769356    0.480659
  H      1.674310   -0.843202    1.352112
  H      2.446616    1.529180    1.391299
  H     -0.125495    1.428238    2.400183
  H     -0.683754   -0.281222    4.193935
  H      0.401457   -1.494407    3.360267
  H      2.166512    0.000631    3.568801

 Total Charge           Charge          ....    0
 Multiplicity           Mult            ....    1
 Number of Electrons    NEL             ....   68
 Basis Dimension        Dim             ....  327

ORBITAL ENERGIES
----------------

  NO   OCC          E(Eh)            E(eV)
   0   2.0000     -20.596327      -560.4545
   1   2.0000     -20.590412      -560.2936
   2   2.0000     -15.588077      -424.1731
   3   2.0000     -15.578542      -423.9137
   4   2.0000     -11.349355      -308.8317
   5   2.0000     -11.329417      -308.2891
   6   2.0000     -11.288143      -307.1660
   7   2.0000     -11.284163      -307.0577
   8   2.0000     -11.276120      -306.8388
   9   2.0000      -1.421829       -38.6899
  10   2.0000      -1.388576       -37.7851
  11   2.0000      -1.288616       -35.0650
  12   2.0000      -1.222723       -33.2720
  13   2.0000      -1.066417       -29.0187
  14   2.0000      -0.952294       -25.9132
  15   2.0000      -0.907601       -24.6971
  16   2.0000      -0.841748       -22.9051
  17   2.0000      -0.775692       -21.1076
  18   2.0000      -0.747428       -20.3386
  19   2.0000      -0.706033       -19.2121
  20   2.0000      -0.686928       -18.6923
  21   2.0000      -0.663702       -18.0602
  22   2.0000      -0.636069       -17.3083
  23   2.0000      -0.613104       -16.6834
  24   2.0000      -0.576103       -15.6766
  25   2.0000      -0.559310       -15.2196
  26   2.0000      -0.553666       -15.0660
  27   2.0000      -0.518239       -14.1020
  28   2.0000      -0.513477       -13.9724
  29   2.0000      -0.494001       -13.4425
  30   2.0000      -0.484540       -13.1850
  31   2.0000      -0.471697       -12.8355
  32   2.0000      -0.462250       -12.5785
  33   2.0000      -0.419893       -11.4259
  34   0.0000       0.112901         3.0722
  35   0.0000       0.126795         3.4503
  36   0.0000       0.135269         3.6809
  37   0.0000       0.159996         4.3537
  38   0.0000       0.170439         4.6379

MULLIKEN ATOMIC CHARGES
-----------------------
   0 O :   -0.455870
   1 C :    0.232527
   2 C :   -0.182998
   3 N :   -0.049330
   4 C :   -0.028514
   5 O :   -0.480277
   6 C :   -0.072581
   7 C :   -0.195422
   8 N :   -0.354797
   9 H :    0.341768
  10 H :    0.143078
  11 H :    0.115862
  12 H :    0.335349
  13 H :    0.150526
  14 H :    0.138398
  15 H :    0.137649
  16 H :    0.224632
Sum of atomic charges:    0.0000000

LOEWDIN ATOMIC CHARGES
----------------------
   0 O :    0.020010
   1 C :   -0.321391
   2 C :   -0.164661
   3 N :    0.072411
   4 C :   -0.324668
   5 O :   -0.005957
   6 C :   -0.272125
   7 C :   -0.255547
   8 N :   -0.017664
   9 H :    0.189708
  10 H :    0.172103
  11 H :    0.149986
  12 H :    0.185047
  13 H :    0.151934
  14 H :    0.130102
  15 H :    0.124843
  16 H :    0.165870

  Mayer bond orders larger than 0.1
B(  0-O ,  1-C ) :   0.9444 B(  0-O ,  9-H ) :   0.8131 B(  1-C ,  2-C ) :   0.8959
B(  1-C ,  4-C ) :   0.8886 B(  1-C , 10-H ) :   0.9160 B(  2-C ,  3-N ) :   2.8620
B(  4-C ,  5-O ) :   0.9579 B(  4-C ,  6-C ) :   0.9261 B(  4-C , 11-H ) :   0.9222
B(  5-O , 12-H ) :   0.8338 B(  6-C ,  7-C ) :   0.9312 B(  6-C ,  8-N ) :   0.9070
B(  6-C , 13-H ) :   0.9116 B(  7-C ,  8-N ) :   0.9316 B(  7-C , 14-H ) :   0.9169
B(  7-C , 15-H ) :   0.9172 B(  8-N , 16-H ) :   0.8698

MP2 TOTAL ENERGY:     -454.388797053 Eh
FINAL SINGLE POINT ENERGY      -454.388797052558

DIPOLE MOMENT
-------------
                                X             Y             Z
Electronic contribution:      0.46643      -0.23159      -6.61659
Nuclear contribution   :     -0.42044       0.29649       8.16108
                        -----------------------------------------
Total Dipole Moment    :      0.04600       0.06490       1.54449
                        -----------------------------------------
Magnitude (a.u.)       :      1.54654
Magnitude (Debye)      :      3.93098

                             ****ORCA TERMINATED NORMALLY****
TOTAL RUN TIME: 0 days 0 hours 16 minutes 39 seconds 946 msec
