                         Program Version 3.0.3 - RELEASE   -
|  1> ! RI-MP2 RIJK def2-TZVP def2-TZVP/C def2-TZVP/JK TIGHTSCF
|  2> % maxcore 2000
|  3> % mp2 density relaxed end
|  4> *xyz 0 1
|  5>  C        0.3001959447    -0.4307633553     1.5910002470
|  6>  C       -0.0685772617    -0.1299393389     0.1349186669
|  7>  C       -1.4286179741    -0.6986898416    -0.3027300381
|  8>  C       -1.8296209247    -0.2147173321    -1.7211354018
|  9>  C       -2.0061240002     1.2285403087    -1.8177323703
| 10>  C       -2.1547047594     2.4203577135    -1.8755760716
| 11>  C       -1.4331192256    -2.2133111145    -0.2885235558
| 12>  C       -2.0367643020    -3.0027857167     0.7921533598
| 13>  O       -2.7039998990    -2.8477954414    -0.4609642506
| 14>  H        1.2572347624     0.0304795162     1.8530697678
| 15>  H       -0.4564681403    -0.0368113350     2.2786591626
| 16>  H        0.3893430022    -1.5056813468     1.7766076849
| 17>  H       -0.0864697603     0.9536322634    -0.0219383344
| 18>  H        0.7123995846    -0.5212061619    -0.5323440996
| 19>  H       -2.2024171667    -0.3523803933     0.3939836586
| 20>  H       -1.0676539618    -0.5396948662    -2.4432028142
| 21>  H       -2.7608181900    -0.7180000718    -2.0056365390
| 22>  H       -2.2899613070     3.4713307276    -1.9414595561
| 23>  H       -0.6306641485    -2.6802670896    -0.8661257362
| 24>  H       -1.6690032473    -4.0055361284     1.0060280821
| 25>  H       -2.4993841355    -2.4895679656     1.6341888879
| 26> *
| 27>
| 28>                          ****END OF INPUT****

CARTESIAN COORDINATES (ANGSTROEM)
---------------------------------
  C      0.300196   -0.430763    1.591000
  C     -0.068577   -0.129939    0.134919
  C     -1.428618   -0.698690   -0.302730
  C     -1.829621   -0.214717   -1.721135
  C     -2.006124    1.228540   -1.817732
  C     -2.154705    2.420358   -1.875576
  C     -1.433119   -2.213311   -0.288524
  C     -2.036764   -3.002786    0.792153
  O     -2.704000   -2.847795   -0.460964
  H      1.257235    0.030480    1.853070
  H     -0.456468   -0.036811    2.278659
  H      0.389343   -1.505681    1.776608
  H     -0.086470    0.953632   -0.021938
  H      0.712400   -0.521206   -0.532344
  H     -2.202417   -0.352380    0.393984
  H     -1.067654   -0.539695   -2.443203
  H     -2.760818   -0.718000   -2.005637
  H     -2.289961    3.471331   -1.941460
  H     -0.630664   -2.680267   -0.866126
  H     -1.669003   -4.005536    1.006028
  H     -2.499384   -2.489568    1.634189

 Total Charge           Charge          ....    0
 Multiplicity           Mult            ....    1
 Number of Electrons    NEL             ....   68
 Basis Dimension        Dim             ....  351

ORBITAL ENERGIES
----------------

  NO   OCC          E(Eh)            E(eV)
   0   2.0000     -20.570037      -559.7392
   1   2.0000     -11.289532      -307.2038
   2   2.0000     -11.285890      -307.1047
   3   2.0000     -11.250652      -306.1458
   4   2.0000     -11.243842      -305.9605
   5   2.0000     -11.232655      -305.6561
   6   2.0000     -11.227521      -305.5164
   7   2.0000     -11.219968      -305.3108
   8   2.0000     -11.218356      -305.2670
   9   2.0000      -1.413883       -38.4737
  10   2.0000      -1.112295       -30.2671
  11   2.0000      -1.041062       -28.3287
  12   2.0000      -0.988920       -26.9099
  13   2.0000      -0.938909       -25.5490
  14   2.0000      -0.894155       -24.3312
  15   2.0000      -0.851560       -23.1721
  16   2.0000      -0.790503       -21.5107
  17   2.0000      -0.719770       -19.5859
  18   2.0000      -0.688491       -18.7348
  19   2.0000      -0.672964       -18.3123
  20   2.0000      -0.623925       -16.9779
  21   2.0000      -0.615733       -16.7549
  22   2.0000      -0.601019       -16.3546
  23   2.0000      -0.594420       -16.1750
  24   2.0000      -0.549963       -14.9652
  25   2.0000      -0.544082       -14.8052
  26   2.0000      -0.520211       -14.1557
  27   2.0000      -0.495775       -13.4907
  28   2.0000      -0.486794       -13.2463
  29   2.0000      -0.475786       -12.9468
  30   2.0000      -0.445892       -12.1333
  31   2.0000      -0.440836       -11.9957
  32   2.0000      -0.383613       -10.4386
  33   2.0000      -0.381444       -10.3796
  34   0.0000       0.133628         3.6362
  35   0.0000       0.144365         3.9284
  36   0.0000       0.159797         4.3483
  37   0.0000       0.170041         4.6270
  38   0.0000       0.172575         4.6960

MULLIKEN ATOMIC CHARGES
-----------------------
   0 C :   -0.400996
   1 C :   -0.240229
   2 C :   -0.029892
   3 C :   -0.364329
   4 C :   -0.019556
   5 C :   -0.138895
   6 C :   -0.005057
   7 C :   -0.062760
   8 O :   -0.335039
   9 H :    0.138794
  10 H :    0.125400
  11 H :    0.128385
  12 H :    0.138532
  13 H :    0.106349
  14 H :    0.104507
  15 H :    0.137319
  16 H :    0.166710
  17 H :    0.188663
  18 H :    0.128239
  19 H :    0.117124
  20 H :    0.116731
Sum of atomic charges:   -0.0000000

LOEWDIN ATOMIC CHARGES
----------------------
   0 C :   -0.314940
   1 C :   -0.262175
   2 C :   -0.235029
   3 C :   -0.219867
   4 C :   -0.112111
   5 C :   -0.110409
   6 C :   -0.273457
   7 C :   -0.265816
   8 O :    0.146377
   9 H :    0.122671
  10 H :    0.122244
  11 H :    0.120613
  12 H :    0.147419
  13 H :    0.138794
  14 H :    0.163648
  15 H :    0.159109
  16 H :    0.165769
  17 H :    0.125727
  18 H :    0.140996
  19 H :    0.119330
  20 H :    0.121106

  Mayer bond orders larger than 0.1
B(  0-C ,  1-C ) :   0.9168 B(  0-C ,  9-H ) :   0.9406 B(  0-C , 10-H ) :   0.9377
B(  0-C , 11-H ) :   0.9380 B(  1-C ,  2-C ) :   0.9255 B(  1-C , 12-H ) :   0.9256
B(  1-C , 13-H ) :   0.9244 B(  2-C ,  3-C ) :   0.9102 B(  2-C ,  6-C ) :   0.8970
B(  2-C , 14-H ) :   0.9250 B(  3-C ,  4-C ) :   1.1112 B(  3-C ,  5-C ) :  -0.1112
B(  3-C , 15-H ) :   0.9193 B(  3-C , 16-H ) :   0.9185 B(  4-C ,  5-C ) :   2.6129
B(  5-C , 17-H ) :   0.8960 B(  6-C ,  7-C ) :   0.9976 B(  6-C ,  8-O ) :   0.8566
B(  6-C , 18-H ) :   0.8980 B(  7-C ,  8-O ) :   0.9201 B(  7-C , 19-H ) :   0.9229
B(  7-C , 20-H ) :   0.9031

MP2 TOTAL ENERGY:     -386.353658374 Eh
FINAL SINGLE POINT ENERGY      -386.353658373994

DIPOLE MOMENT
-------------
                                X             Y             Z
Electronic contribution:     -5.31835      -0.31341      -4.92972
Nuclear contribution   :      5.93631       0.30310       5.42357
                        -----------------------------------------
Total Dipole Moment    :      0.61796      -0.01031       0.49385
                        -----------------------------------------
Magnitude (a.u.)       :      0.79112
Magnitude (Debye)      :      2.01087

                             ****ORCA TERMINATED NORMALLY****
TOTAL RUN TIME: 0 days 0 hours 19 minutes 8 seconds 299 msec
