                         Program Version 3.0.3 - RELEASE   -
|  1> ! RI-MP2 RIJK def2-TZVP def2-TZVP/C def2-TZVP/JK TIGHTSCF
|  2> % maxcore 2000
|  3> % mp2 density relaxed end
|  4> *xyz 0 1
|  5>  C       -0.0150317526     1.3990446786     0.0259883753
|  6>  O       -0.0341245087    -0.0254428263     0.0440230987
|  7>  C       -1.2345684681    -0.6232571769     0.0162603698
|  8>  N       -2.3343295839     0.1223893820    -0.0260599673
|  9>  C       -3.4963013540    -0.5366583413    -0.0517980358
| 10>  C       -3.5642938395    -1.9224384625    -0.0356313811
| 11>  O       -4.7156604414    -2.6484130372    -0.0601745791
| 12>  C       -2.3380993722    -2.5956140881     0.0094992089
| 13>  N       -1.1769773853    -1.9598972386     0.0355245911
| 14>  H        1.0398066014     1.6755792338     0.0537296096
| 15>  H       -0.4853047531     1.7903341868    -0.8810869804
| 16>  H       -0.5380415754     1.8135080901     0.8930103615
| 17>  H       -4.4026344360     0.0689145003    -0.0865687547
| 18>  H       -5.4708584475    -2.0510396582    -0.0905018281
| 19>  H       -2.3199927537    -3.6832123525     0.0243063418
| 20> *
| 21>
| 22>                          ****END OF INPUT****

CARTESIAN COORDINATES (ANGSTROEM)
---------------------------------
  C     -0.015032    1.399045    0.025988
  O     -0.034125   -0.025443    0.044023
  C     -1.234568   -0.623257    0.016260
  N     -2.334330    0.122389   -0.026060
  C     -3.496301   -0.536658   -0.051798
  C     -3.564294   -1.922438   -0.035631
  O     -4.715660   -2.648413   -0.060175
  C     -2.338099   -2.595614    0.009499
  N     -1.176977   -1.959897    0.035525
  H      1.039807    1.675579    0.053730
  H     -0.485305    1.790334   -0.881087
  H     -0.538042    1.813508    0.893010
  H     -4.402634    0.068915   -0.086569
  H     -5.470858   -2.051040   -0.090502
  H     -2.319993   -3.683212    0.024306

 Total Charge           Charge          ....    0
 Multiplicity           Mult            ....    1
 Number of Electrons    NEL             ....   66
 Basis Dimension        Dim             ....  315

ORBITAL ENERGIES
----------------

  NO   OCC          E(Eh)            E(eV)
   0   2.0000     -20.603139      -560.6399
   1   2.0000     -20.589064      -560.2569
   2   2.0000     -15.573197      -423.7682
   3   2.0000     -15.571356      -423.7182
   4   2.0000     -11.366700      -309.3036
   5   2.0000     -11.306362      -307.6618
   6   2.0000     -11.300574      -307.5043
   7   2.0000     -11.298595      -307.4504
   8   2.0000     -11.278241      -306.8965
   9   2.0000      -1.436178       -39.0804
  10   2.0000      -1.421202       -38.6729
  11   2.0000      -1.297989       -35.3201
  12   2.0000      -1.204032       -32.7634
  13   2.0000      -1.057360       -28.7722
  14   2.0000      -0.961515       -26.1642
  15   2.0000      -0.916892       -24.9499
  16   2.0000      -0.857049       -23.3215
  17   2.0000      -0.769677       -20.9440
  18   2.0000      -0.744418       -20.2566
  19   2.0000      -0.716203       -19.4889
  20   2.0000      -0.666945       -18.1485
  21   2.0000      -0.638854       -17.3841
  22   2.0000      -0.625795       -17.0287
  23   2.0000      -0.614861       -16.7312
  24   2.0000      -0.593917       -16.1613
  25   2.0000      -0.579998       -15.7826
  26   2.0000      -0.557444       -15.1688
  27   2.0000      -0.517193       -14.0735
  28   2.0000      -0.506106       -13.7719
  29   2.0000      -0.478761       -13.0278
  30   2.0000      -0.432549       -11.7703
  31   2.0000      -0.414682       -11.2841
  32   2.0000      -0.329466        -8.9652
  33   0.0000       0.084586         2.3017
  34   0.0000       0.124080         3.3764
  35   0.0000       0.147554         4.0151
  36   0.0000       0.152975         4.1627
  37   0.0000       0.180225         4.9042

MULLIKEN ATOMIC CHARGES
-----------------------
   0 C :   -0.203976
   1 O :   -0.241884
   2 C :    0.339564
   3 N :   -0.287465
   4 C :   -0.125249
   5 C :    0.236546
   6 O :   -0.422804
   7 C :   -0.077810
   8 N :   -0.225460
   9 H :    0.145239
  10 H :    0.128987
  11 H :    0.128990
  12 H :    0.124959
  13 H :    0.334200
  14 H :    0.146162
Sum of atomic charges:    0.0000000

LOEWDIN ATOMIC CHARGES
----------------------
   0 C :   -0.321904
   1 O :    0.242600
   2 C :   -0.434229
   3 N :    0.138382
   4 C :   -0.209758
   5 C :   -0.294414
   6 O :    0.074723
   7 C :   -0.174548
   8 N :    0.162187
   9 H :    0.114703
  10 H :    0.109960
  11 H :    0.109960
  12 H :    0.139487
  13 H :    0.194978
  14 H :    0.147871

  Mayer bond orders larger than 0.1
B(  0-C ,  1-O ) :   0.8572 B(  0-C ,  9-H ) :   0.9338 B(  0-C , 10-H ) :   0.9363
B(  0-C , 11-H ) :   0.9363 B(  1-O ,  2-C ) :   1.1418 B(  2-C ,  3-N ) :   1.3297
B(  2-C ,  8-N ) :   1.3637 B(  3-N ,  4-C ) :   1.3884 B(  4-C ,  5-C ) :   1.2882
B(  4-C , 12-H ) :   0.9544 B(  5-C ,  6-O ) :   1.0917 B(  5-C ,  7-C ) :   1.2472
B(  6-O , 13-H ) :   0.8297 B(  7-C ,  8-N ) :   1.4393 B(  7-C , 14-H ) :   0.9452

MP2 TOTAL ENERGY:     -453.248399156 Eh
FINAL SINGLE POINT ENERGY      -453.248399156438

DIPOLE MOMENT
-------------
                                X             Y             Z
Electronic contribution:     -1.55028      -4.37528       0.01124
Nuclear contribution   :      0.41516       4.99652      -0.05304
                        -----------------------------------------
Total Dipole Moment    :     -1.13512       0.62123      -0.04180
                        -----------------------------------------
Magnitude (a.u.)       :      1.29468
Magnitude (Debye)      :      3.29081

                             ****ORCA TERMINATED NORMALLY****
TOTAL RUN TIME: 0 days 0 hours 14 minutes 27 seconds 625 msec
