                         Program Version 3.0.3 - RELEASE   -
|  1> ! RI-MP2 RIJK def2-TZVP def2-TZVP/C def2-TZVP/JK TIGHTSCF
|  2> % maxcore 2000
|  3> % mp2 density relaxed end
|  4> *xyz 0 1
|  5>  C        0.0165245482     1.4319570481     0.0422424839
|  6>  N       -0.0062639554    -0.0154867175     0.1169494989
|  7>  C       -1.1051095237    -0.6339747956     0.0276409888
|  8>  N       -2.4093748955    -0.1409287204    -0.1411371222
|  9>  C       -3.3059006322    -1.1992614963    -0.0991740791
| 10>  C       -2.7007167215    -2.4035378302    -0.0061232220
| 11>  C       -1.2563277224    -2.1710273101     0.0767419590
| 12>  O       -0.3404937897    -2.9557093641     0.1592214537
| 13>  H        0.9522640335     1.7479050544    -0.4274414842
| 14>  H       -0.8160209249     1.8769700717    -0.5236008172
| 15>  H        0.0102982918     1.8544160685     1.0557685052
| 16>  H       -2.6789965442     0.8073621936     0.0530807824
| 17>  H       -4.3650986375    -0.9846562036    -0.1602365067
| 18>  H       -3.1795843665    -3.3690705685    -0.0000505207
| 19> *
| 20>
| 21>                          ****END OF INPUT****

CARTESIAN COORDINATES (ANGSTROEM)
---------------------------------
  C      0.016525    1.431957    0.042242
  N     -0.006264   -0.015487    0.116949
  C     -1.105110   -0.633975    0.027641
  N     -2.409375   -0.140929   -0.141137
  C     -3.305901   -1.199261   -0.099174
  C     -2.700717   -2.403538   -0.006123
  C     -1.256328   -2.171027    0.076742
  O     -0.340494   -2.955709    0.159221
  H      0.952264    1.747905   -0.427441
  H     -0.816021    1.876970   -0.523601
  H      0.010298    1.854416    1.055769
  H     -2.678997    0.807362    0.053081
  H     -4.365099   -0.984656   -0.160237
  H     -3.179584   -3.369071   -0.000051

 Total Charge           Charge          ....    0
 Multiplicity           Mult            ....    1
 Number of Electrons    NEL             ....   58
 Basis Dimension        Dim             ....  284

ORBITAL ENERGIES
----------------

  NO   OCC          E(Eh)            E(eV)
   0   2.0000     -20.541523      -558.9633
   1   2.0000     -15.616196      -424.9383
   2   2.0000     -15.567484      -423.6128
   3   2.0000     -11.334434      -308.4256
   4   2.0000     -11.325045      -308.1701
   5   2.0000     -11.324178      -308.1465
   6   2.0000     -11.262116      -306.4577
   7   2.0000     -11.234860      -305.7161
   8   2.0000      -1.384030       -37.6614
   9   2.0000      -1.320261       -35.9261
  10   2.0000      -1.220072       -33.1998
  11   2.0000      -1.061853       -28.8945
  12   2.0000      -0.986022       -26.8310
  13   2.0000      -0.905222       -24.6323
  14   2.0000      -0.815640       -22.1947
  15   2.0000      -0.758032       -20.6271
  16   2.0000      -0.723976       -19.7004
  17   2.0000      -0.652322       -17.7506
  18   2.0000      -0.640353       -17.4249
  19   2.0000      -0.626943       -17.0600
  20   2.0000      -0.618337       -16.8258
  21   2.0000      -0.609302       -16.5799
  22   2.0000      -0.579511       -15.7693
  23   2.0000      -0.565352       -15.3840
  24   2.0000      -0.516024       -14.0417
  25   2.0000      -0.444524       -12.0961
  26   2.0000      -0.422094       -11.4858
  27   2.0000      -0.402421       -10.9504
  28   2.0000      -0.340547        -9.2668
  29   0.0000       0.058719         1.5978
  30   0.0000       0.114038         3.1031
  31   0.0000       0.151022         4.1095
  32   0.0000       0.172283         4.6881
  33   0.0000       0.178784         4.8650

MULLIKEN ATOMIC CHARGES
-----------------------
   0 C :   -0.292260
   1 N :   -0.156776
   2 C :    0.117909
   3 N :   -0.340752
   4 C :   -0.010317
   5 C :   -0.211318
   6 C :    0.187251
   7 O :   -0.267511
   8 H :    0.156620
   9 H :    0.097247
  10 H :    0.151466
  11 H :    0.256549
  12 H :    0.158045
  13 H :    0.153846
Sum of atomic charges:   -0.0000000

LOEWDIN ATOMIC CHARGES
----------------------
   0 C :   -0.332090
   1 N :    0.120672
   2 C :   -0.276241
   3 N :    0.126062
   4 C :   -0.162944
   5 C :   -0.165910
   6 C :   -0.301652
   7 O :    0.166482
   8 H :    0.123883
   9 H :    0.102009
  10 H :    0.124629
  11 H :    0.186661
  12 H :    0.141534
  13 H :    0.146907

  Mayer bond orders larger than 0.1
B(  0-C ,  1-N ) :   0.8633 B(  0-C ,  8-H ) :   0.9406 B(  0-C ,  9-H ) :   0.9242
B(  0-C , 10-H ) :   0.9208 B(  1-N ,  2-C ) :   1.9811 B(  2-C ,  3-N ) :   0.9654
B(  2-C ,  6-C ) :   0.8148 B(  3-N ,  4-C ) :   1.0810 B(  3-N , 11-H ) :   0.8656
B(  4-C ,  5-C ) :   1.6181 B(  4-C , 12-H ) :   0.9027 B(  5-C ,  6-C ) :   1.0986
B(  5-C , 13-H ) :   0.9212 B(  6-C ,  7-O ) :   1.9777

MP2 TOTAL ENERGY:     -378.095166150 Eh
FINAL SINGLE POINT ENERGY      -378.095166150251

DIPOLE MOMENT
-------------
                                X             Y             Z
Electronic contribution:      0.04745      -5.70724       0.11242
Nuclear contribution   :     -1.78219       7.27888      -0.13889
                        -----------------------------------------
Total Dipole Moment    :     -1.73473       1.57165      -0.02647
                        -----------------------------------------
Magnitude (a.u.)       :      2.34096
Magnitude (Debye)      :      5.95024

                             ****ORCA TERMINATED NORMALLY****
TOTAL RUN TIME: 0 days 0 hours 16 minutes 30 seconds 815 msec
