                         Program Version 3.0.3 - RELEASE   -
|  1> ! RI-MP2 RIJK def2-TZVP def2-TZVP/C def2-TZVP/JK TIGHTSCF
|  2> % maxcore 2000
|  3> % mp2 density relaxed end
|  4> *xyz 0 1
|  5>  C       -0.3668946126     1.4221267883    -0.0354019634
|  6>  C        0.1983865671     0.0551880238    -0.3794381719
|  7>  O        1.3751225559    -0.2234170714    -0.2106065650
|  8>  N       -0.7020445241    -0.8442428824    -0.8741207733
|  9>  C       -0.3980867120    -2.2492933556    -1.0963367671
| 10>  C        0.3634031288    -2.5162392115    -2.4351837389
| 11>  N        1.8065746487    -2.2758376089    -2.4178002890
| 12>  C        0.1026391627    -3.8989377436    -2.8633168823
| 13>  N       -0.1257770204    -4.9915417903    -3.1614527927
| 14>  H        0.3367812367     2.1867212448    -0.3691238714
| 15>  H       -1.3482934789     1.6127991172    -0.4771548510
| 16>  H       -0.4526332776     1.5042763816     1.0526820505
| 17>  H       -1.6592321832    -0.5527514452    -0.9789520311
| 18>  H        0.2133516518    -2.6244509241    -0.2696160874
| 19>  H       -1.3467216827    -2.7925546920    -1.0968686722
| 20>  H       -0.0837675009    -1.8560445053    -3.1909853211
| 21>  H        1.9746162227    -1.4152744779    -1.8989214999
| 22>  H        2.2582335380    -3.0095908376    -1.8780997629
| 23> *
| 24>
| 25>                          ****END OF INPUT****

CARTESIAN COORDINATES (ANGSTROEM)
---------------------------------
  C     -0.366895    1.422127   -0.035402
  C      0.198387    0.055188   -0.379438
  O      1.375123   -0.223417   -0.210607
  N     -0.702045   -0.844243   -0.874121
  C     -0.398087   -2.249293   -1.096337
  C      0.363403   -2.516239   -2.435184
  N      1.806575   -2.275838   -2.417800
  C      0.102639   -3.898938   -2.863317
  N     -0.125777   -4.991542   -3.161453
  H      0.336781    2.186721   -0.369124
  H     -1.348293    1.612799   -0.477155
  H     -0.452633    1.504276    1.052682
  H     -1.659232   -0.552751   -0.978952
  H      0.213352   -2.624451   -0.269616
  H     -1.346722   -2.792555   -1.096869
  H     -0.083768   -1.856045   -3.190985
  H      1.974616   -1.415274   -1.898921
  H      2.258234   -3.009591   -1.878100

 Total Charge           Charge          ....    0
 Multiplicity           Mult            ....    1
 Number of Electrons    NEL             ....   68
 Basis Dimension        Dim             ....  333

ORBITAL ENERGIES
----------------

  NO   OCC          E(Eh)            E(eV)
   0   2.0000     -20.537793      -558.8618
   1   2.0000     -15.611274      -424.8044
   2   2.0000     -15.573447      -423.7750
   3   2.0000     -15.554751      -423.2663
   4   2.0000     -11.374118      -309.5055
   5   2.0000     -11.315328      -307.9057
   6   2.0000     -11.298179      -307.4391
   7   2.0000     -11.273585      -306.7699
   8   2.0000     -11.256062      -306.2930
   9   2.0000      -1.404642       -38.2223
  10   2.0000      -1.261993       -34.3406
  11   2.0000      -1.229651       -33.4605
  12   2.0000      -1.194942       -32.5160
  13   2.0000      -1.047374       -28.5005
  14   2.0000      -1.001654       -27.2564
  15   2.0000      -0.907330       -24.6897
  16   2.0000      -0.813654       -22.1406
  17   2.0000      -0.743529       -20.2325
  18   2.0000      -0.707480       -19.2515
  19   2.0000      -0.685048       -18.6411
  20   2.0000      -0.653086       -17.7714
  21   2.0000      -0.640079       -17.4174
  22   2.0000      -0.612193       -16.6586
  23   2.0000      -0.605654       -16.4807
  24   2.0000      -0.603623       -16.4254
  25   2.0000      -0.573590       -15.6082
  26   2.0000      -0.560320       -15.2471
  27   2.0000      -0.549263       -14.9462
  28   2.0000      -0.531370       -14.4593
  29   2.0000      -0.471870       -12.8402
  30   2.0000      -0.465338       -12.6625
  31   2.0000      -0.452776       -12.3207
  32   2.0000      -0.437804       -11.9133
  33   2.0000      -0.397895       -10.8273
  34   0.0000       0.104529         2.8444
  35   0.0000       0.136459         3.7132
  36   0.0000       0.146659         3.9908
  37   0.0000       0.156072         4.2469
  38   0.0000       0.161460         4.3936

MULLIKEN ATOMIC CHARGES
-----------------------
   0 C :   -0.417238
   1 C :    0.349754
   2 O :   -0.411370
   3 N :   -0.354215
   4 C :   -0.166948
   5 C :    0.163987
   6 N :   -0.517979
   7 C :   -0.190743
   8 N :   -0.052820
   9 H :    0.161201
  10 H :    0.123295
  11 H :    0.158564
  12 H :    0.246088
  13 H :    0.142866
  14 H :    0.160921
  15 H :    0.117904
  16 H :    0.254394
  17 H :    0.232338
Sum of atomic charges:   -0.0000000

LOEWDIN ATOMIC CHARGES
----------------------
   0 C :   -0.274499
   1 C :   -0.474785
   2 O :    0.068364
   3 N :    0.103184
   4 C :   -0.245368
   5 C :   -0.320207
   6 N :   -0.130923
   7 C :   -0.171836
   8 N :    0.066476
   9 H :    0.140775
  10 H :    0.123047
  11 H :    0.142608
  12 H :    0.188925
  13 H :    0.145611
  14 H :    0.145504
  15 H :    0.168016
  16 H :    0.162785
  17 H :    0.162323

  Mayer bond orders larger than 0.1
B(  0-C ,  1-C ) :   0.8979 B(  0-C ,  9-H ) :   0.9313 B(  0-C , 10-H ) :   0.9412
B(  0-C , 11-H ) :   0.9128 B(  1-C ,  2-O ) :   1.8043 B(  1-C ,  3-N ) :   1.1617
B(  3-N ,  4-C ) :   0.8854 B(  3-N , 12-H ) :   0.8715 B(  4-C ,  5-C ) :   0.8659
B(  4-C , 13-H ) :   0.9198 B(  4-C , 14-H ) :   0.9226 B(  5-C ,  6-N ) :   0.9825
B(  5-C ,  7-C ) :   0.9076 B(  5-C , 15-H ) :   0.9116 B(  6-N , 16-H ) :   0.8752
B(  6-N , 17-H ) :   0.8809 B(  7-C ,  8-N ) :   2.8665

MP2 TOTAL ENERGY:     -434.587023745 Eh
FINAL SINGLE POINT ENERGY      -434.587023744697

DIPOLE MOMENT
-------------
                                X             Y             Z
Electronic contribution:      1.01620      -5.92764      -2.83633
Nuclear contribution   :     -2.36777       7.46679       3.73058
                        -----------------------------------------
Total Dipole Moment    :     -1.35157       1.53915       0.89425
                        -----------------------------------------
Magnitude (a.u.)       :      2.23504
Magnitude (Debye)      :      5.68102

                             ****ORCA TERMINATED NORMALLY****
TOTAL RUN TIME: 0 days 0 hours 17 minutes 9 seconds 954 msec
