                         Program Version 3.0.3 - RELEASE   -
|  1> ! RI-MP2 RIJK def2-TZVP def2-TZVP/C def2-TZVP/JK TIGHTSCF
|  2> % maxcore 2000
|  3> % mp2 density relaxed end
|  4> *xyz 0 1
|  5>  N        0.0752421959     1.4495360945     0.1108416729
|  6>  C       -0.0142311595     0.0551783423     0.0194875993
|  7>  C       -1.0831529605    -0.7916655437     0.0282977120
|  8>  N       -0.5752674407    -2.0806112853    -0.0191970203
|  9>  C       -1.3316244568    -3.2436897209    -0.0260559021
| 10>  O       -0.8988905718    -4.3622744162    -0.0845477404
| 11>  N        0.7930092212    -2.0894348227    -0.0552354650
| 12>  C        1.1291243019    -0.8174397208    -0.0285509079
| 13>  N        2.4402604579    -0.3775933159    -0.1095773146
| 14>  H        0.7165419220     1.8330048383    -0.5751616873
| 15>  H       -0.8195216213     1.9137712991     0.0244213386
| 16>  H       -2.1454380050    -0.6090441564     0.0566952652
| 17>  H       -2.4088511061    -2.9939554717     0.0308635903
| 18>  H        3.1069436323    -1.1306739135     0.0030080212
| 19>  H        2.6413598104     0.3905855730     0.5186109882
| 20> *
| 21>
| 22>                          ****END OF INPUT****

CARTESIAN COORDINATES (ANGSTROEM)
---------------------------------
  N      0.075242    1.449536    0.110842
  C     -0.014231    0.055178    0.019488
  C     -1.083153   -0.791666    0.028298
  N     -0.575267   -2.080611   -0.019197
  C     -1.331624   -3.243690   -0.026056
  O     -0.898891   -4.362274   -0.084548
  N      0.793009   -2.089435   -0.055235
  C      1.129124   -0.817440   -0.028551
  N      2.440260   -0.377593   -0.109577
  H      0.716542    1.833005   -0.575162
  H     -0.819522    1.913771    0.024421
  H     -2.145438   -0.609044    0.056695
  H     -2.408851   -2.993955    0.030864
  H      3.106944   -1.130674    0.003008
  H      2.641360    0.390586    0.518611

 Total Charge           Charge          ....    0
 Multiplicity           Mult            ....    1
 Number of Electrons    NEL             ....   66
 Basis Dimension        Dim             ....  315

ORBITAL ENERGIES
----------------

  NO   OCC          E(Eh)            E(eV)
   0   2.0000     -20.542013      -558.9766
   1   2.0000     -15.646326      -425.7582
   2   2.0000     -15.585548      -424.1043
   3   2.0000     -15.583911      -424.0598
   4   2.0000     -15.580213      -423.9591
   5   2.0000     -11.363793      -309.2245
   6   2.0000     -11.312227      -307.8214
   7   2.0000     -11.287882      -307.1589
   8   2.0000     -11.282360      -307.0086
   9   2.0000      -1.415552       -38.5191
  10   2.0000      -1.365993       -37.1705
  11   2.0000      -1.244130       -33.8545
  12   2.0000      -1.218378       -33.1537
  13   2.0000      -1.111622       -30.2488
  14   2.0000      -1.046479       -28.4762
  15   2.0000      -0.882711       -24.0198
  16   2.0000      -0.827558       -22.5190
  17   2.0000      -0.783524       -21.3208
  18   2.0000      -0.735167       -20.0049
  19   2.0000      -0.697624       -18.9833
  20   2.0000      -0.683306       -18.5937
  21   2.0000      -0.670263       -18.2388
  22   2.0000      -0.653539       -17.7837
  23   2.0000      -0.641030       -17.4433
  24   2.0000      -0.619154       -16.8480
  25   2.0000      -0.578086       -15.7305
  26   2.0000      -0.546951       -14.8833
  27   2.0000      -0.497467       -13.5368
  28   2.0000      -0.484138       -13.1741
  29   2.0000      -0.467346       -12.7171
  30   2.0000      -0.445808       -12.1310
  31   2.0000      -0.352526        -9.5927
  32   2.0000      -0.322355        -8.7717
  33   0.0000       0.107845         2.9346
  34   0.0000       0.115664         3.1474
  35   0.0000       0.140554         3.8247
  36   0.0000       0.151665         4.1270
  37   0.0000       0.174900         4.7593

MULLIKEN ATOMIC CHARGES
-----------------------
   0 N :   -0.560753
   1 C :    0.071853
   2 C :   -0.165386
   3 N :    0.114634
   4 C :    0.128965
   5 O :   -0.268148
   6 N :   -0.255515
   7 C :    0.191279
   8 N :   -0.539882
   9 H :    0.264594
  10 H :    0.247430
  11 H :    0.158279
  12 H :    0.086426
  13 H :    0.262582
  14 H :    0.263641
Sum of atomic charges:   -0.0000000

LOEWDIN ATOMIC CHARGES
----------------------
   0 N :   -0.090011
   1 C :   -0.265679
   2 C :   -0.199614
   3 N :    0.187826
   4 C :   -0.371821
   5 O :    0.126915
   6 N :    0.080243
   7 C :   -0.350072
   8 N :   -0.070228
   9 H :    0.173820
  10 H :    0.169787
  11 H :    0.140251
  12 H :    0.116827
  13 H :    0.177401
  14 H :    0.174356

  Mayer bond orders larger than 0.1
B(  0-N ,  1-C ) :   0.9990 B(  0-N ,  9-H ) :   0.8663 B(  0-N , 10-H ) :   0.8820
B(  1-C ,  2-C ) :   1.5393 B(  1-C ,  7-C ) :   1.1656 B(  2-C ,  3-N ) :   1.1080
B(  2-C , 11-H ) :   0.8919 B(  3-N ,  4-C ) :   0.9737 B(  3-N ,  6-N ) :   0.9453
B(  4-C ,  5-O ) :   2.0035 B(  4-C , 12-H ) :   0.9263 B(  6-N ,  7-C ) :   1.5639
B(  7-C ,  8-N ) :   1.0559 B(  8-N , 13-H ) :   0.8696 B(  8-N , 14-H ) :   0.8635

MP2 TOTAL ENERGY:     -449.420165745 Eh
FINAL SINGLE POINT ENERGY      -449.420165744890

DIPOLE MOMENT
-------------
                                X             Y             Z
Electronic contribution:     -1.00049      -4.98880      -0.10107
Nuclear contribution   :      0.60349       7.05965       0.16102
                        -----------------------------------------
Total Dipole Moment    :     -0.39699       2.07085       0.05995
                        -----------------------------------------
Magnitude (a.u.)       :      2.10941
Magnitude (Debye)      :      5.36170

                             ****ORCA TERMINATED NORMALLY****
TOTAL RUN TIME: 0 days 0 hours 16 minutes 22 seconds 623 msec
