                         Program Version 3.0.3 - RELEASE   -
|  1> ! RI-MP2 RIJK def2-TZVP def2-TZVP/C def2-TZVP/JK TIGHTSCF
|  2> % maxcore 2000
|  3> % mp2 density relaxed end
|  4> *xyz 0 1
|  5>  C       -0.0628871645     1.6218511228    -0.0163048867
|  6>  C       -0.0730918550     0.0907549493    -0.0059980223
|  7>  N       -1.4218588109    -0.4764900243     0.0123742292
|  8>  C       -2.0466614547    -0.7065996005    -1.2757350311
|  9>  C       -2.0081777415    -0.6999214860     1.2301875614
| 10>  O       -1.4275978641    -0.4292588239     2.2734576898
| 11>  C       -3.4078362558    -1.3071348285     1.2511056936
| 12>  C       -3.8835557429    -1.5536925963     2.6769010735
| 13>  O       -5.1888177394    -2.1105429882     2.5839173851
| 14>  H        0.9656875246     1.9943321929    -0.0574708623
| 15>  H       -0.6000243328     2.0262178436    -0.8807754047
| 16>  H       -0.5303742609     2.0044086605     0.8943948285
| 17>  H        0.4403818407    -0.3035681992    -0.8905028395
| 18>  H        0.4465463410    -0.2732199291     0.8818712735
| 19>  H       -3.0688894843    -1.0597628487    -1.1589798490
| 20>  H       -2.0769654198     0.2173837537    -1.8670775040
| 21>  H       -1.4897058783    -1.4558246245    -1.8540879623
| 22>  H       -4.1223507403    -0.6428714208     0.7501474848
| 23>  H       -3.4289809845    -2.2533617764     0.6981478410
| 24>  H       -3.1861035151    -2.2313142864     3.1875167732
| 25>  H       -3.8806105439    -0.6085554806     3.2355195641
| 26>  H       -5.5066957877    -2.2676601895     3.4774353043
| 27> *
| 28>
| 29>                          ****END OF INPUT****

CARTESIAN COORDINATES (ANGSTROEM)
---------------------------------
  C     -0.062887    1.621851   -0.016305
  C     -0.073092    0.090755   -0.005998
  N     -1.421859   -0.476490    0.012374
  C     -2.046661   -0.706600   -1.275735
  C     -2.008178   -0.699921    1.230188
  O     -1.427598   -0.429259    2.273458
  C     -3.407836   -1.307135    1.251106
  C     -3.883556   -1.553693    2.676901
  O     -5.188818   -2.110543    2.583917
  H      0.965688    1.994332   -0.057471
  H     -0.600024    2.026218   -0.880775
  H     -0.530374    2.004409    0.894395
  H      0.440382   -0.303568   -0.890503
  H      0.446546   -0.273220    0.881871
  H     -3.068889   -1.059763   -1.158980
  H     -2.076965    0.217384   -1.867078
  H     -1.489706   -1.455825   -1.854088
  H     -4.122351   -0.642871    0.750147
  H     -3.428981   -2.253362    0.698148
  H     -3.186104   -2.231314    3.187517
  H     -3.880611   -0.608555    3.235520
  H     -5.506696   -2.267660    3.477435

 Total Charge           Charge          ....    0
 Multiplicity           Mult            ....    1
 Number of Electrons    NEL             ....   72
 Basis Dimension        Dim             ....  357

ORBITAL ENERGIES
----------------

  NO   OCC          E(Eh)            E(eV)
   0   2.0000     -20.554593      -559.3189
   1   2.0000     -20.508828      -558.0736
   2   2.0000     -15.581424      -423.9921
   3   2.0000     -11.344553      -308.7010
   4   2.0000     -11.272488      -306.7400
   5   2.0000     -11.268884      -306.6419
   6   2.0000     -11.256932      -306.3167
   7   2.0000     -11.236423      -305.7586
   8   2.0000     -11.214703      -305.1676
   9   2.0000      -1.376708       -37.4621
  10   2.0000      -1.358050       -36.9544
  11   2.0000      -1.241746       -33.7896
  12   2.0000      -1.048401       -28.5284
  13   2.0000      -1.012339       -27.5471
  14   2.0000      -0.953370       -25.9425
  15   2.0000      -0.885365       -24.0920
  16   2.0000      -0.830887       -22.6096
  17   2.0000      -0.732370       -19.9288
  18   2.0000      -0.714036       -19.4299
  19   2.0000      -0.666385       -18.1332
  20   2.0000      -0.663410       -18.0523
  21   2.0000      -0.649692       -17.6790
  22   2.0000      -0.627825       -17.0840
  23   2.0000      -0.595990       -16.2177
  24   2.0000      -0.574988       -15.6462
  25   2.0000      -0.566794       -15.4233
  26   2.0000      -0.562203       -15.2983
  27   2.0000      -0.559677       -15.2296
  28   2.0000      -0.535416       -14.5694
  29   2.0000      -0.515074       -14.0159
  30   2.0000      -0.501487       -13.6461
  31   2.0000      -0.491838       -13.3836
  32   2.0000      -0.484784       -13.1916
  33   2.0000      -0.443980       -12.0813
  34   2.0000      -0.417407       -11.3582
  35   2.0000      -0.369287       -10.0488
  36   0.0000       0.127840         3.4787
  37   0.0000       0.141250         3.8436
  38   0.0000       0.162087         4.4106
  39   0.0000       0.171702         4.6723
  40   0.0000       0.178580         4.8594

MULLIKEN ATOMIC CHARGES
-----------------------
   0 C :   -0.412195
   1 C :   -0.118213
   2 N :   -0.094500
   3 C :   -0.340027
   4 C :    0.219232
   5 O :   -0.402305
   6 C :   -0.233332
   7 C :   -0.057802
   8 O :   -0.472155
   9 H :    0.130285
  10 H :    0.116252
  11 H :    0.154352
  12 H :    0.116743
  13 H :    0.146286
  14 H :    0.158666
  15 H :    0.139138
  16 H :    0.143564
  17 H :    0.136171
  18 H :    0.137716
  19 H :    0.106031
  20 H :    0.108234
  21 H :    0.317860
Sum of atomic charges:    0.0000000

LOEWDIN ATOMIC CHARGES
----------------------
   0 C :   -0.315827
   1 C :   -0.277751
   2 N :    0.164678
   3 C :   -0.294512
   4 C :   -0.428014
   5 O :    0.071987
   6 C :   -0.245420
   7 C :   -0.341992
   8 O :   -0.057436
   9 H :    0.123996
  10 H :    0.117139
  11 H :    0.128940
  12 H :    0.131579
  13 H :    0.144567
  14 H :    0.127619
  15 H :    0.118541
  16 H :    0.118317
  17 H :    0.150070
  18 H :    0.149606
  19 H :    0.120607
  20 H :    0.120993
  21 H :    0.172314

  Mayer bond orders larger than 0.1
B(  0-C ,  1-C ) :   0.9223 B(  0-C ,  9-H ) :   0.9370 B(  0-C , 10-H ) :   0.9340
B(  0-C , 11-H ) :   0.9402 B(  1-C ,  2-N ) :   0.8418 B(  1-C , 12-H ) :   0.9294
B(  1-C , 13-H ) :   0.9173 B(  2-N ,  3-C ) :   0.9012 B(  2-N ,  4-C ) :   1.2275
B(  3-C , 14-H ) :   0.9303 B(  3-C , 15-H ) :   0.9267 B(  3-C , 16-H ) :   0.9339
B(  4-C ,  5-O ) :   1.8269 B(  4-C ,  6-C ) :   0.8984 B(  6-C ,  7-C ) :   0.9629
B(  6-C , 17-H ) :   0.9043 B(  6-C , 18-H ) :   0.9067 B(  7-C ,  8-O ) :   1.0133
B(  7-C , 19-H ) :   0.9350 B(  7-C , 20-H ) :   0.9337 B(  8-O , 21-H ) :   0.8503

MP2 TOTAL ENERGY:     -440.791884419 Eh
FINAL SINGLE POINT ENERGY      -440.791884419009

DIPOLE MOMENT
-------------
                                X             Y             Z
Electronic contribution:     -2.52257      -3.14343       5.26478
Nuclear contribution   :      2.50056       3.13479      -6.09742
                        -----------------------------------------
Total Dipole Moment    :     -0.02201      -0.00863      -0.83264
                        -----------------------------------------
Magnitude (a.u.)       :      0.83297
Magnitude (Debye)      :      2.11724

                             ****ORCA TERMINATED NORMALLY****
TOTAL RUN TIME: 0 days 0 hours 17 minutes 36 seconds 136 msec
