                         Program Version 3.0.3 - RELEASE   -
|  1> ! RI-MP2 RIJK def2-TZVP def2-TZVP/C def2-TZVP/JK TIGHTSCF
|  2> % maxcore 2000
|  3> % mp2 density relaxed end
|  4> *xyz 0 1
|  5>  C       -0.0757808361     1.6069750388    -0.0603442873
|  6>  C       -0.0446109225     0.0795814470     0.0216209862
|  7>  N        0.6799182388    -0.4118856347     1.1851527772
|  8>  C        2.0523690728    -0.5666532624     1.3133853221
|  9>  O        2.8167659626    -0.2479210137     0.2358976492
| 10>  C        2.2885104321    -1.0308814012     2.5710206870
| 11>  N        1.0746952911    -1.1696569112     3.2510750007
| 12>  C        0.1734436278    -0.7909839224     2.3970481397
| 13>  O       -1.1613364188    -0.7441448158     2.5893636554
| 14>  H        0.9381543540     2.0103298153    -0.1278810706
| 15>  H       -0.6322667442     1.9246061248    -0.9476060062
| 16>  H       -0.5620938419     2.0327266200     0.8219087391
| 17>  H       -1.0572537723    -0.3257067610     0.0821014268
| 18>  H        0.4325894625    -0.3404528398    -0.8682906903
| 19>  H        3.7318432037    -0.4619490835     0.4413520331
| 20>  H        3.2303388566    -1.2745136849     3.0360810224
| 21>  H       -1.3091653162    -1.0723710055     3.4850498256
| 22> *
| 23>
| 24>                          ****END OF INPUT****

CARTESIAN COORDINATES (ANGSTROEM)
---------------------------------
  C     -0.075781    1.606975   -0.060344
  C     -0.044611    0.079581    0.021621
  N      0.679918   -0.411886    1.185153
  C      2.052369   -0.566653    1.313385
  O      2.816766   -0.247921    0.235898
  C      2.288510   -1.030881    2.571021
  N      1.074695   -1.169657    3.251075
  C      0.173444   -0.790984    2.397048
  O     -1.161336   -0.744145    2.589364
  H      0.938154    2.010330   -0.127881
  H     -0.632267    1.924606   -0.947606
  H     -0.562094    2.032727    0.821909
  H     -1.057254   -0.325707    0.082101
  H      0.432589   -0.340453   -0.868291
  H      3.731843   -0.461949    0.441352
  H      3.230339   -1.274514    3.036081
  H     -1.309165   -1.072371    3.485050

 Total Charge           Charge          ....    0
 Multiplicity           Mult            ....    1
 Number of Electrons    NEL             ....   68
 Basis Dimension        Dim             ....  327

ORBITAL ENERGIES
----------------

  NO   OCC          E(Eh)            E(eV)
   0   2.0000     -20.604238      -560.6698
   1   2.0000     -20.604010      -560.6636
   2   2.0000     -15.609694      -424.7614
   3   2.0000     -15.531977      -422.6466
   4   2.0000     -11.349572      -308.8376
   5   2.0000     -11.318760      -307.9991
   6   2.0000     -11.277009      -306.8630
   7   2.0000     -11.230981      -305.6105
   8   2.0000     -11.223829      -305.4159
   9   2.0000      -1.440940       -39.2100
  10   2.0000      -1.422002       -38.6946
  11   2.0000      -1.317085       -35.8397
  12   2.0000      -1.185032       -32.2464
  13   2.0000      -1.031070       -28.0568
  14   2.0000      -0.980837       -26.6899
  15   2.0000      -0.881341       -23.9825
  16   2.0000      -0.852278       -23.1917
  17   2.0000      -0.790565       -21.5124
  18   2.0000      -0.739303       -20.1174
  19   2.0000      -0.688068       -18.7233
  20   2.0000      -0.676063       -18.3966
  21   2.0000      -0.660362       -17.9694
  22   2.0000      -0.637563       -17.3490
  23   2.0000      -0.604582       -16.4515
  24   2.0000      -0.597635       -16.2625
  25   2.0000      -0.584772       -15.9125
  26   2.0000      -0.561039       -15.2666
  27   2.0000      -0.558839       -15.2068
  28   2.0000      -0.529649       -14.4125
  29   2.0000      -0.507116       -13.7993
  30   2.0000      -0.499653       -13.5963
  31   2.0000      -0.436742       -11.8844
  32   2.0000      -0.385455       -10.4888
  33   2.0000      -0.289794        -7.8857
  34   0.0000       0.127094         3.4584
  35   0.0000       0.143607         3.9077
  36   0.0000       0.159837         4.3494
  37   0.0000       0.181353         4.9349
  38   0.0000       0.200237         5.4487

MULLIKEN ATOMIC CHARGES
-----------------------
   0 C :   -0.405162
   1 C :   -0.147011
   2 N :   -0.062987
   3 C :    0.206003
   4 O :   -0.447215
   5 C :   -0.196227
   6 N :   -0.309984
   7 C :    0.272986
   8 O :   -0.446108
   9 H :    0.145978
  10 H :    0.131259
  11 H :    0.140274
  12 H :    0.153149
  13 H :    0.140818
  14 H :    0.342688
  15 H :    0.131738
  16 H :    0.349800
Sum of atomic charges:    0.0000000

LOEWDIN ATOMIC CHARGES
----------------------
   0 C :   -0.309021
   1 C :   -0.261433
   2 N :    0.266915
   3 C :   -0.356629
   4 O :    0.062299
   5 C :   -0.279707
   6 N :    0.072010
   7 C :   -0.465505
   8 O :    0.068752
   9 H :    0.126473
  10 H :    0.125509
  11 H :    0.126046
  12 H :    0.144646
  13 H :    0.142266
  14 H :    0.201550
  15 H :    0.129519
  16 H :    0.206311

  Mayer bond orders larger than 0.1
B(  0-C ,  1-C ) :   0.9227 B(  0-C ,  9-H ) :   0.9364 B(  0-C , 10-H ) :   0.9332
B(  0-C , 11-H ) :   0.9347 B(  1-C ,  2-N ) :   0.8568 B(  1-C , 12-H ) :   0.9232
B(  1-C , 13-H ) :   0.9260 B(  2-N ,  3-C ) :   1.0824 B(  2-N ,  7-C ) :   1.1629
B(  3-C ,  4-O ) :   1.0618 B(  3-C ,  5-C ) :   1.5265 B(  4-O , 14-H ) :   0.8282
B(  5-C ,  6-N ) :   1.1748 B(  5-C , 15-H ) :   0.9440 B(  6-N ,  7-C ) :   1.6382
B(  7-C ,  8-O ) :   1.0746 B(  8-O , 16-H ) :   0.8139

MP2 TOTAL ENERGY:     -454.451340266 Eh
FINAL SINGLE POINT ENERGY      -454.451340265819

DIPOLE MOMENT
-------------
                                X             Y             Z
Electronic contribution:      2.04949      -4.65700       4.73006
Nuclear contribution   :     -1.88733       4.90313      -5.46624
                        -----------------------------------------
Total Dipole Moment    :      0.16216       0.24613      -0.73618
                        -----------------------------------------
Magnitude (a.u.)       :      0.79299
Magnitude (Debye)      :      2.01562

                             ****ORCA TERMINATED NORMALLY****
TOTAL RUN TIME: 0 days 0 hours 16 minutes 34 seconds 202 msec
