                         Program Version 3.0.3 - RELEASE   -
|  1> ! RI-MP2 RIJK def2-TZVP def2-TZVP/C def2-TZVP/JK TIGHTSCF
|  2> % maxcore 2000
|  3> % mp2 density relaxed end
|  4> *xyz 0 1
|  5>  O        0.0531784353     1.3653958886     0.2090396098
|  6>  C       -0.0144649002    -0.0152544107    -0.0170481433
|  7>  C       -1.4395333969    -0.4931737704    -0.0714376424
|  8>  N       -2.4190120465     0.3191966777     0.0380832140
|  9>  C       -3.6484993063    -0.4680109459    -0.0842635158
| 10>  C       -3.1955928459    -1.9721077773    -0.0186251715
| 11>  N       -1.7507110451    -1.8258082841    -0.3076447891
| 12>  C       -3.4438258201    -2.6059752462     1.2740306484
| 13>  C       -3.6366056098    -3.1310098474     2.3382749486
| 14>  H       -0.8682916491     1.6680625085     0.2336448084
| 15>  H        0.4810059238    -0.2868759496    -0.9634023937
| 16>  H        0.5154840837    -0.5637213622     0.7798319735
| 17>  H       -4.3590042666    -0.2205584945     0.7074558257
| 18>  H       -4.1280484693    -0.2578314630    -1.0474212914
| 19>  H       -3.6768135716    -2.5606246708    -0.8057496332
| 20>  H       -1.1394116231    -2.5309834817     0.0816940311
| 21>  H       -3.8134352623    -3.5916860609     3.2790054709
| 22> *
| 23>
| 24>                          ****END OF INPUT****

CARTESIAN COORDINATES (ANGSTROEM)
---------------------------------
  O      0.053178    1.365396    0.209040
  C     -0.014465   -0.015254   -0.017048
  C     -1.439533   -0.493174   -0.071438
  N     -2.419012    0.319197    0.038083
  C     -3.648499   -0.468011   -0.084264
  C     -3.195593   -1.972108   -0.018625
  N     -1.750711   -1.825808   -0.307645
  C     -3.443826   -2.605975    1.274031
  C     -3.636606   -3.131010    2.338275
  H     -0.868292    1.668063    0.233645
  H      0.481006   -0.286876   -0.963402
  H      0.515484   -0.563721    0.779832
  H     -4.359004   -0.220558    0.707456
  H     -4.128048   -0.257831   -1.047421
  H     -3.676814   -2.560625   -0.805750
  H     -1.139412   -2.530983    0.081694
  H     -3.813435   -3.591686    3.279005

 Total Charge           Charge          ....    0
 Multiplicity           Mult            ....    1
 Number of Electrons    NEL             ....   66
 Basis Dimension        Dim             ....  327

ORBITAL ENERGIES
----------------

  NO   OCC          E(Eh)            E(eV)
   0   2.0000     -20.548896      -559.1639
   1   2.0000     -15.592130      -424.2834
   2   2.0000     -15.546347      -423.0376
   3   2.0000     -11.319681      -308.0242
   4   2.0000     -11.307522      -307.6933
   5   2.0000     -11.293726      -307.3179
   6   2.0000     -11.269433      -306.6569
   7   2.0000     -11.247928      -306.0717
   8   2.0000     -11.241084      -305.8855
   9   2.0000      -1.367410       -37.2091
  10   2.0000      -1.316153       -35.8144
  11   2.0000      -1.169356       -31.8198
  12   2.0000      -1.077593       -29.3228
  13   2.0000      -1.015641       -27.6370
  14   2.0000      -0.942578       -25.6489
  15   2.0000      -0.876475       -23.8501
  16   2.0000      -0.777871       -21.1669
  17   2.0000      -0.754389       -20.5280
  18   2.0000      -0.732777       -19.9399
  19   2.0000      -0.691521       -18.8173
  20   2.0000      -0.646892       -17.6028
  21   2.0000      -0.639416       -17.3994
  22   2.0000      -0.630241       -17.1497
  23   2.0000      -0.584907       -15.9161
  24   2.0000      -0.575706       -15.6658
  25   2.0000      -0.552922       -15.0458
  26   2.0000      -0.516639       -14.0585
  27   2.0000      -0.504808       -13.7365
  28   2.0000      -0.453416       -12.3381
  29   2.0000      -0.442977       -12.0540
  30   2.0000      -0.409168       -11.1340
  31   2.0000      -0.396999       -10.8029
  32   2.0000      -0.369444       -10.0531
  33   0.0000       0.122336         3.3289
  34   0.0000       0.146393         3.9836
  35   0.0000       0.153113         4.1664
  36   0.0000       0.158877         4.3233
  37   0.0000       0.170614         4.6426

MULLIKEN ATOMIC CHARGES
-----------------------
   0 O :   -0.483175
   1 C :   -0.010847
   2 C :    0.187905
   3 N :   -0.354168
   4 C :   -0.119417
   5 C :   -0.004083
   6 N :   -0.341977
   7 C :   -0.130406
   8 C :   -0.147684
   9 H :    0.339456
  10 H :    0.116746
  11 H :    0.106406
  12 H :    0.144442
  13 H :    0.117804
  14 H :    0.140784
  15 H :    0.240813
  16 H :    0.197399
Sum of atomic charges:    0.0000000

LOEWDIN ATOMIC CHARGES
----------------------
   0 O :   -0.035513
   1 C :   -0.316373
   2 C :   -0.348343
   3 N :    0.065301
   4 C :   -0.230206
   5 C :   -0.249710
   6 N :    0.101994
   7 C :   -0.098115
   8 C :   -0.083568
   9 H :    0.180483
  10 H :    0.133691
  11 H :    0.130973
  12 H :    0.138097
  13 H :    0.134526
  14 H :    0.161318
  15 H :    0.185756
  16 H :    0.129686

  Mayer bond orders larger than 0.1
B(  0-O ,  1-C ) :   1.0266 B(  0-O ,  9-H ) :   0.8031 B(  1-C ,  2-C ) :   0.9225
B(  1-C , 10-H ) :   0.9140 B(  1-C , 11-H ) :   0.9215 B(  2-C ,  3-N ) :   1.6967
B(  2-C ,  6-N ) :   1.0955 B(  3-N ,  4-C ) :   0.9402 B(  4-C ,  5-C ) :   0.8858
B(  4-C , 12-H ) :   0.9341 B(  4-C , 13-H ) :   0.9168 B(  5-C ,  6-N ) :   0.8869
B(  5-C ,  7-C ) :   1.1024 B(  5-C , 14-H ) :   0.9321 B(  6-N , 15-H ) :   0.8687
B(  7-C ,  8-C ) :   2.5985 B(  8-C , 16-H ) :   0.8954

MP2 TOTAL ENERGY:     -417.269766921 Eh
FINAL SINGLE POINT ENERGY      -417.269766920886

DIPOLE MOMENT
-------------
                                X             Y             Z
Electronic contribution:     -0.30037      -0.31597       0.55072
Nuclear contribution   :     -0.22432      -1.02245      -0.47839
                        -----------------------------------------
Total Dipole Moment    :     -0.52469      -1.33841       0.07233
                        -----------------------------------------
Magnitude (a.u.)       :      1.43940
Magnitude (Debye)      :      3.65867

                             ****ORCA TERMINATED NORMALLY****
TOTAL RUN TIME: 0 days 0 hours 18 minutes 26 seconds 809 msec
