                         Program Version 3.0.3 - RELEASE   -
|  1> ! RI-MP2 RIJK def2-TZVP def2-TZVP/C def2-TZVP/JK TIGHTSCF
|  2> % maxcore 2000
|  3> % mp2 density relaxed end
|  4> *xyz 0 1
|  5>  C       -0.0885986849     1.6431476347     0.0722888321
|  6>  C        0.0406137884     0.1321717703     0.0889089607
|  7>  C        1.1227011865    -0.6636534076    -0.6968505854
|  8>  C        2.2249512611    -0.1848028190     0.2762762451
|  9>  C        0.9821268613    -0.6397270165     1.0860834532
| 10>  O        0.8713638378    -1.8189383450     0.2022409238
| 11>  C        0.8028620021    -0.8331434477     2.5551019100
| 12>  O        1.0552263011     0.0194821734     3.3685214475
| 13>  H        0.8713430565     2.1614946885     0.1227882228
| 14>  H       -0.5962560538     1.9660417873    -0.8431129585
| 15>  H       -0.6933390742     1.9805638116     0.9200023064
| 16>  H       -0.9309151958    -0.3650181820     0.0251616867
| 17>  H        1.1872753951    -0.8753865495    -1.7642281275
| 18>  H        3.0825385945    -0.8522825959     0.3609496437
| 19>  H        2.5035424436     0.8682722357     0.2937735658
| 20>  H        0.3936152807    -1.8281731482     2.8376342135
| 21> *
| 22>
| 23>                          ****END OF INPUT****

CARTESIAN COORDINATES (ANGSTROEM)
---------------------------------
  C     -0.088599    1.643148    0.072289
  C      0.040614    0.132172    0.088909
  C      1.122701   -0.663653   -0.696851
  C      2.224951   -0.184803    0.276276
  C      0.982127   -0.639727    1.086083
  O      0.871364   -1.818938    0.202241
  C      0.802862   -0.833143    2.555102
  O      1.055226    0.019482    3.368521
  H      0.871343    2.161495    0.122788
  H     -0.596256    1.966042   -0.843113
  H     -0.693339    1.980564    0.920002
  H     -0.930915   -0.365018    0.025162
  H      1.187275   -0.875387   -1.764228
  H      3.082539   -0.852283    0.360950
  H      2.503542    0.868272    0.293774
  H      0.393615   -1.828173    2.837634

 Total Charge           Charge          ....    0
 Multiplicity           Mult            ....    1
 Number of Electrons    NEL             ....   60
 Basis Dimension        Dim             ....  296

ORBITAL ENERGIES
----------------

  NO   OCC          E(Eh)            E(eV)
   0   2.0000     -20.569334      -559.7200
   1   2.0000     -20.563336      -559.5568
   2   2.0000     -11.342136      -308.6352
   3   2.0000     -11.317613      -307.9679
   4   2.0000     -11.313815      -307.8646
   5   2.0000     -11.261975      -306.4539
   6   2.0000     -11.251599      -306.1716
   7   2.0000     -11.232433      -305.6500
   8   2.0000      -1.416437       -38.5432
   9   2.0000      -1.401857       -38.1465
  10   2.0000      -1.101140       -29.9635
  11   2.0000      -0.998446       -27.1691
  12   2.0000      -0.963430       -26.2163
  13   2.0000      -0.897399       -24.4195
  14   2.0000      -0.816739       -22.2246
  15   2.0000      -0.737418       -20.0662
  16   2.0000      -0.714844       -19.4519
  17   2.0000      -0.664842       -18.0913
  18   2.0000      -0.656856       -17.8740
  19   2.0000      -0.614147       -16.7118
  20   2.0000      -0.595788       -16.2122
  21   2.0000      -0.558171       -15.1886
  22   2.0000      -0.554075       -15.0772
  23   2.0000      -0.549720       -14.9587
  24   2.0000      -0.509441       -13.8626
  25   2.0000      -0.505005       -13.7419
  26   2.0000      -0.487589       -13.2680
  27   2.0000      -0.464074       -12.6281
  28   2.0000      -0.423405       -11.5214
  29   2.0000      -0.415375       -11.3029
  30   0.0000       0.108836         2.9616
  31   0.0000       0.136943         3.7264
  32   0.0000       0.165900         4.5144
  33   0.0000       0.175508         4.7758
  34   0.0000       0.179898         4.8953

MULLIKEN ATOMIC CHARGES
-----------------------
   0 C :   -0.392271
   1 C :   -0.011639
   2 C :   -0.030586
   3 C :   -0.156542
   4 C :    0.091782
   5 O :   -0.309156
   6 C :    0.039777
   7 O :   -0.260667
   8 H :    0.128193
   9 H :    0.139058
  10 H :    0.144737
  11 H :    0.115645
  12 H :    0.145162
  13 H :    0.125275
  14 H :    0.126313
  15 H :    0.104919
Sum of atomic charges:    0.0000000

LOEWDIN ATOMIC CHARGES
----------------------
   0 C :   -0.290384
   1 C :   -0.180635
   2 C :   -0.201283
   3 C :   -0.164507
   4 C :   -0.263071
   5 O :    0.149542
   6 C :   -0.253437
   7 O :    0.147099
   8 H :    0.125063
   9 H :    0.130013
  10 H :    0.132918
  11 H :    0.153585
  12 H :    0.125255
  13 H :    0.137189
  14 H :    0.131178
  15 H :    0.121475

  Mayer bond orders larger than 0.1
B(  0-C ,  1-C ) :   0.9237 B(  0-C ,  8-H ) :   0.9279 B(  0-C ,  9-H ) :   0.9321
B(  0-C , 10-H ) :   0.9277 B(  1-C ,  2-C ) :   0.9187 B(  1-C ,  4-C ) :   0.8868
B(  1-C , 11-H ) :   0.9179 B(  2-C ,  3-C ) :   0.9098 B(  2-C ,  5-O ) :   0.8865
B(  2-C , 12-H ) :   0.8892 B(  3-C ,  4-C ) :   0.8678 B(  3-C , 13-H ) :   0.9165
B(  3-C , 14-H ) :   0.9154 B(  4-C ,  5-O ) :   0.9291 B(  4-C ,  6-C ) :   0.7584
B(  6-C ,  7-O ) :   2.0167 B(  6-C , 15-H ) :   0.9733

MP2 TOTAL ENERGY:     -383.038367414 Eh
FINAL SINGLE POINT ENERGY      -383.038367413899

DIPOLE MOMENT
-------------
                                X             Y             Z
Electronic contribution:      0.98760      -4.64146       3.95805
Nuclear contribution   :     -1.08282       5.00838      -4.81588
                        -----------------------------------------
Total Dipole Moment    :     -0.09522       0.36692      -0.85783
                        -----------------------------------------
Magnitude (a.u.)       :      0.93785
Magnitude (Debye)      :      2.38382

                             ****ORCA TERMINATED NORMALLY****
TOTAL RUN TIME: 0 days 0 hours 11 minutes 36 seconds 949 msec
