                         Program Version 3.0.3 - RELEASE   -
|  1> ! RI-MP2 RIJK def2-TZVP def2-TZVP/C def2-TZVP/JK TIGHTSCF
|  2> % maxcore 2000
|  3> % mp2 density relaxed end
|  4> *xyz 0 1
|  5>  C        0.1298365241     1.4761918259     0.1251020967
|  6>  C        0.0284875318     0.0271073808     0.0386954963
|  7>  C       -0.0695515749    -1.1720678564    -0.0235294189
|  8>  C       -0.1069764631    -2.6134737626    -0.1223225195
|  9>  C        1.1703390827    -3.2560795971    -0.6270994781
| 10>  O       -0.7304171998    -3.3068243098     0.9845232579
| 11>  C       -1.3957225069    -3.3256396578    -0.2853678711
| 12>  C       -2.7394812251    -2.6412355550    -0.3064160519
| 13>  O       -3.6930849613    -3.3866851798     0.4337357941
| 14>  H        1.1454782542     1.8169437150    -0.1032407667
| 15>  H       -0.5529096524     1.9663134877    -0.5775171021
| 16>  H       -0.1202074367     1.8277579928     1.1320280976
| 17>  H        2.0046068608    -3.0057658355     0.0345416861
| 18>  H        1.0606295067    -4.3427454830    -0.6567884486
| 19>  H        1.4113713894    -2.8923195992    -1.6303976740
| 20>  H       -1.3655899297    -4.2971144820    -0.7827918786
| 21>  H       -2.6360533103    -1.6164492688     0.0737331381
| 22>  H       -3.1173663329    -2.5886589936    -1.3332088761
| 23>  H       -3.3435546165    -3.4648844214     1.3288660788
| 24> *
| 25>
| 26>                          ****END OF INPUT****

CARTESIAN COORDINATES (ANGSTROEM)
---------------------------------
  C      0.129837    1.476192    0.125102
  C      0.028488    0.027107    0.038695
  C     -0.069552   -1.172068   -0.023529
  C     -0.106976   -2.613474   -0.122323
  C      1.170339   -3.256080   -0.627099
  O     -0.730417   -3.306824    0.984523
  C     -1.395723   -3.325640   -0.285368
  C     -2.739481   -2.641236   -0.306416
  O     -3.693085   -3.386685    0.433736
  H      1.145478    1.816944   -0.103241
  H     -0.552910    1.966313   -0.577517
  H     -0.120207    1.827758    1.132028
  H      2.004607   -3.005766    0.034542
  H      1.060630   -4.342745   -0.656788
  H      1.411371   -2.892320   -1.630398
  H     -1.365590   -4.297114   -0.782792
  H     -2.636053   -1.616449    0.073733
  H     -3.117366   -2.588659   -1.333209
  H     -3.343555   -3.464884    1.328866

 Total Charge           Charge          ....    0
 Multiplicity           Mult            ....    1
 Number of Electrons    NEL             ....   68
 Basis Dimension        Dim             ....  339

ORBITAL ENERGIES
----------------

  NO   OCC          E(Eh)            E(eV)
   0   2.0000     -20.575054      -559.8757
   1   2.0000     -20.555913      -559.3548
   2   2.0000     -11.321700      -308.0791
   3   2.0000     -11.292775      -307.2920
   4   2.0000     -11.280000      -306.9444
   5   2.0000     -11.255568      -306.2796
   6   2.0000     -11.240531      -305.8704
   7   2.0000     -11.233033      -305.6664
   8   2.0000     -11.227963      -305.5284
   9   2.0000      -1.420401       -38.6511
  10   2.0000      -1.358841       -36.9759
  11   2.0000      -1.078615       -29.3506
  12   2.0000      -1.030605       -28.0442
  13   2.0000      -0.991481       -26.9796
  14   2.0000      -0.962866       -26.2009
  15   2.0000      -0.865582       -23.5537
  16   2.0000      -0.832685       -22.6585
  17   2.0000      -0.722497       -19.6601
  18   2.0000      -0.694214       -18.8905
  19   2.0000      -0.645633       -17.5686
  20   2.0000      -0.639225       -17.3942
  21   2.0000      -0.611039       -16.6272
  22   2.0000      -0.604952       -16.4616
  23   2.0000      -0.595536       -16.2054
  24   2.0000      -0.593563       -16.1517
  25   2.0000      -0.570565       -15.5259
  26   2.0000      -0.560741       -15.2585
  27   2.0000      -0.532157       -14.4807
  28   2.0000      -0.512610       -13.9488
  29   2.0000      -0.476126       -12.9560
  30   2.0000      -0.465606       -12.6698
  31   2.0000      -0.439685       -11.9644
  32   2.0000      -0.385075       -10.4784
  33   2.0000      -0.370090       -10.0707
  34   0.0000       0.128800         3.5048
  35   0.0000       0.150182         4.0867
  36   0.0000       0.161140         4.3849
  37   0.0000       0.166639         4.5345
  38   0.0000       0.179854         4.8941

MULLIKEN ATOMIC CHARGES
-----------------------
   0 C :   -0.478217
   1 C :    0.090888
   2 C :    0.061156
   3 C :   -0.045097
   4 C :   -0.411050
   5 O :   -0.335251
   6 C :   -0.006034
   7 C :    0.005020
   8 O :   -0.475335
   9 H :    0.165030
  10 H :    0.164790
  11 H :    0.168228
  12 H :    0.143350
  13 H :    0.141228
  14 H :    0.138134
  15 H :    0.114564
  16 H :    0.125708
  17 H :    0.106092
  18 H :    0.326795
Sum of atomic charges:   -0.0000000

LOEWDIN ATOMIC CHARGES
----------------------
   0 C :   -0.290978
   1 C :   -0.081701
   2 C :   -0.044139
   3 C :   -0.312295
   4 C :   -0.247250
   5 O :    0.180377
   6 C :   -0.249530
   7 C :   -0.326091
   8 O :   -0.044436
   9 H :    0.142779
  10 H :    0.142383
  11 H :    0.144214
  12 H :    0.134471
  13 H :    0.132561
  14 H :    0.134365
  15 H :    0.140900
  16 H :    0.130043
  17 H :    0.134269
  18 H :    0.180059

  Mayer bond orders larger than 0.1
B(  0-C ,  1-C ) :   0.8544 B(  0-C ,  9-H ) :   0.9484 B(  0-C , 10-H ) :   0.9447
B(  0-C , 11-H ) :   0.9430 B(  1-C ,  2-C ) :   2.6838 B(  1-C ,  3-C ) :  -0.1735
B(  2-C ,  3-C ) :   1.0762 B(  3-C ,  4-C ) :   0.9307 B(  3-C ,  5-O ) :   0.9087
B(  3-C ,  6-C ) :   0.9793 B(  4-C , 12-H ) :   0.9363 B(  4-C , 13-H ) :   0.9356
B(  4-C , 14-H ) :   0.9305 B(  5-O ,  6-C ) :   0.8660 B(  6-C ,  7-C ) :   0.9314
B(  6-C , 15-H ) :   0.9121 B(  7-C ,  8-O ) :   0.8973 B(  7-C , 16-H ) :   0.9220
B(  7-C , 17-H ) :   0.9182 B(  8-O , 18-H ) :   0.8387

MP2 TOTAL ENERGY:     -422.269261759 Eh
FINAL SINGLE POINT ENERGY      -422.269261758986

DIPOLE MOMENT
-------------
                                X             Y             Z
Electronic contribution:     -2.45957      -3.15509       2.30755
Nuclear contribution   :      3.12907       3.87634      -2.76590
                        -----------------------------------------
Total Dipole Moment    :      0.66950       0.72125      -0.45835
                        -----------------------------------------
Magnitude (a.u.)       :      1.08559
Magnitude (Debye)      :      2.75936

                             ****ORCA TERMINATED NORMALLY****
TOTAL RUN TIME: 0 days 0 hours 21 minutes 8 seconds 707 msec
