                         Program Version 3.0.3 - RELEASE   -
|  1> ! RI-MP2 RIJK def2-TZVP def2-TZVP/C def2-TZVP/JK TIGHTSCF
|  2> % maxcore 2000
|  3> % mp2 density relaxed end
|  4> *xyz 0 1
|  5>  O       -0.1060528265     1.3357269870     0.0483713087
|  6>  C        0.0585841256    -0.0516802909     0.0310252048
|  7>  C        1.0648376974    -0.6709752477     0.9745016163
|  8>  C        1.3570129533    -1.9023865261     0.5378549211
|  9>  C        0.5512948633    -2.1749105194    -0.7093778770
| 10>  C       -0.9920360263    -2.1527893940    -0.5023704164
| 11>  C       -1.3073212240    -0.7800552175    -0.0280418030
| 12>  N       -1.2452892901    -1.0631467711    -1.4971591298
| 13>  C        0.2663637354    -0.7830296336    -1.3317112329
| 14>  H        0.7582818619     1.7402656472    -0.0841686723
| 15>  H        1.4070725899    -0.1955549296     1.8862273240
| 16>  H        1.9963752346    -2.6268861582     1.0276706550
| 17>  H        0.8954049896    -2.9653045435    -1.3752360358
| 18>  H       -1.6650383972    -2.9952182252    -0.3925942335
| 19>  H       -2.2259543738    -0.4956985823     0.4707096037
| 20>  H        0.8469505869    -0.3535380650    -2.1482526030
| 21> *
| 22>
| 23>                          ****END OF INPUT****

CARTESIAN COORDINATES (ANGSTROEM)
---------------------------------
  O     -0.106053    1.335727    0.048371
  C      0.058584   -0.051680    0.031025
  C      1.064838   -0.670975    0.974502
  C      1.357013   -1.902387    0.537855
  C      0.551295   -2.174911   -0.709378
  C     -0.992036   -2.152789   -0.502370
  C     -1.307321   -0.780055   -0.028042
  N     -1.245289   -1.063147   -1.497159
  C      0.266364   -0.783030   -1.331711
  H      0.758282    1.740266   -0.084169
  H      1.407073   -0.195555    1.886227
  H      1.996375   -2.626886    1.027671
  H      0.895405   -2.965305   -1.375236
  H     -1.665038   -2.995218   -0.392594
  H     -2.225954   -0.495699    0.470710
  H      0.846951   -0.353538   -2.148253

 Total Charge           Charge          ....    0
 Multiplicity           Mult            ....    1
 Number of Electrons    NEL             ....   64
 Basis Dimension        Dim             ....  321

ORBITAL ENERGIES
----------------

  NO   OCC          E(Eh)            E(eV)
   0   2.0000     -20.570860      -559.7616
   1   2.0000     -15.560467      -423.4218
   2   2.0000     -11.302225      -307.5492
   3   2.0000     -11.268797      -306.6396
   4   2.0000     -11.267045      -306.5919
   5   2.0000     -11.262439      -306.4665
   6   2.0000     -11.250332      -306.1371
   7   2.0000     -11.241440      -305.8951
   8   2.0000     -11.235674      -305.7382
   9   2.0000      -1.386743       -37.7352
  10   2.0000      -1.318639       -35.8820
  11   2.0000      -1.116419       -30.3793
  12   2.0000      -0.982654       -26.7394
  13   2.0000      -0.954538       -25.9743
  14   2.0000      -0.896939       -24.4069
  15   2.0000      -0.818356       -22.2686
  16   2.0000      -0.751609       -20.4523
  17   2.0000      -0.725708       -19.7475
  18   2.0000      -0.718422       -19.5492
  19   2.0000      -0.673904       -18.3379
  20   2.0000      -0.642091       -17.4722
  21   2.0000      -0.603748       -16.4288
  22   2.0000      -0.593180       -16.1413
  23   2.0000      -0.570276       -15.5180
  24   2.0000      -0.542903       -14.7731
  25   2.0000      -0.531986       -14.4761
  26   2.0000      -0.497339       -13.5333
  27   2.0000      -0.451784       -12.2937
  28   2.0000      -0.435341       -11.8462
  29   2.0000      -0.397405       -10.8140
  30   2.0000      -0.380132       -10.3439
  31   2.0000      -0.358726        -9.7614
  32   0.0000       0.119556         3.2533
  33   0.0000       0.144079         3.9206
  34   0.0000       0.153117         4.1665
  35   0.0000       0.176327         4.7981
  36   0.0000       0.181417         4.9366

MULLIKEN ATOMIC CHARGES
-----------------------
   0 O :   -0.451509
   1 C :    0.244071
   2 C :   -0.267841
   3 C :   -0.192236
   4 C :   -0.069379
   5 C :   -0.082880
   6 C :   -0.113777
   7 N :   -0.241593
   8 C :    0.004688
   9 H :    0.321117
  10 H :    0.143118
  11 H :    0.136683
  12 H :    0.134126
  13 H :    0.138339
  14 H :    0.143627
  15 H :    0.153446
Sum of atomic charges:    0.0000000

LOEWDIN ATOMIC CHARGES
----------------------
   0 O :    0.033267
   1 C :   -0.323110
   2 C :   -0.119960
   3 C :   -0.121711
   4 C :   -0.169148
   5 C :   -0.175707
   6 C :   -0.157817
   7 N :    0.133261
   8 C :   -0.114706
   9 H :    0.182354
  10 H :    0.139215
  11 H :    0.136828
  12 H :    0.148281
  13 H :    0.135440
  14 H :    0.140522
  15 H :    0.132989

  Mayer bond orders larger than 0.1
B(  0-O ,  1-C ) :   1.0537 B(  0-O ,  9-H ) :   0.8365 B(  1-C ,  2-C ) :   0.9903
B(  1-C ,  6-C ) :   0.8691 B(  1-C ,  8-C ) :   0.9151 B(  2-C ,  3-C ) :   1.7056
B(  2-C , 10-H ) :   0.9195 B(  3-C ,  4-C ) :   0.9628 B(  3-C , 11-H ) :   0.9125
B(  4-C ,  5-C ) :   0.8466 B(  4-C ,  8-C ) :   0.9081 B(  4-C , 12-H ) :   0.9071
B(  5-C ,  6-C ) :   0.9527 B(  5-C ,  7-N ) :   0.8975 B(  5-C , 13-H ) :   0.9124
B(  6-C ,  7-N ) :   0.9053 B(  6-C , 14-H ) :   0.9079 B(  7-N ,  8-C ) :   0.9356
B(  8-C , 15-H ) :   0.8837

MP2 TOTAL ENERGY:     -399.992770296 Eh
FINAL SINGLE POINT ENERGY      -399.992770295956

DIPOLE MOMENT
-------------
                                X             Y             Z
Electronic contribution:     -1.18774       1.36522      -0.73529
Nuclear contribution   :      2.15834      -1.74767       1.21846
                        -----------------------------------------
Total Dipole Moment    :      0.97059      -0.38246       0.48317
                        -----------------------------------------
Magnitude (a.u.)       :      1.14969
Magnitude (Debye)      :      2.92227

                             ****ORCA TERMINATED NORMALLY****
TOTAL RUN TIME: 0 days 0 hours 17 minutes 9 seconds 230 msec
