                         Program Version 3.0.3 - RELEASE   -
|  1> ! RI-MP2 RIJK def2-TZVP def2-TZVP/C def2-TZVP/JK TIGHTSCF
|  2> % maxcore 2000
|  3> % mp2 density relaxed end
|  4> *xyz 0 1
|  5>  C        0.0440116165     1.5072315628    -0.0335264232
|  6>  C        0.0389041576    -0.0021516405    -0.0029546530
|  7>  C        0.1033773946    -0.7227818717    -1.1960680905
|  8>  O        0.1681559457    -0.1180851054    -2.4299819352
|  9>  C        0.1003871398    -2.1283544860    -1.2114741684
| 10>  N        0.2263686547    -2.7968424548    -2.4312819628
| 11>  C        0.0238819625    -2.8027593404     0.0085872903
| 12>  C       -0.0423952976    -2.0976461108     1.2067086887
| 13>  C       -0.0332793804    -0.7081111835     1.2025603764
| 14>  H        0.9540806805     1.9090756961    -0.4994080105
| 15>  H       -0.8141483225     1.9151471248    -0.5859807162
| 16>  H       -0.0060819957     1.9152048734     0.9784292249
| 17>  H        0.1166951418     0.8353267881    -2.3193335703
| 18>  H       -0.0498074488    -2.2374446419    -3.2255539852
| 19>  H       -0.1954569192    -3.7138735082    -2.4483349766
| 20>  H        0.0211571472    -3.8888319426     0.0089362717
| 21>  H       -0.1010288956    -2.6385581587     2.1450039211
| 22>  H       -0.0833234712    -0.1563339907     2.1355708990
| 23> *
| 24>
| 25>                          ****END OF INPUT****

CARTESIAN COORDINATES (ANGSTROEM)
---------------------------------
  C      0.044012    1.507232   -0.033526
  C      0.038904   -0.002152   -0.002955
  C      0.103377   -0.722782   -1.196068
  O      0.168156   -0.118085   -2.429982
  C      0.100387   -2.128354   -1.211474
  N      0.226369   -2.796842   -2.431282
  C      0.023882   -2.802759    0.008587
  C     -0.042395   -2.097646    1.206709
  C     -0.033279   -0.708111    1.202560
  H      0.954081    1.909076   -0.499408
  H     -0.814148    1.915147   -0.585981
  H     -0.006082    1.915205    0.978429
  H      0.116695    0.835327   -2.319334
  H     -0.049807   -2.237445   -3.225554
  H     -0.195457   -3.713874   -2.448335
  H      0.021157   -3.888832    0.008936
  H     -0.101029   -2.638558    2.145004
  H     -0.083323   -0.156334    2.135571

 Total Charge           Charge          ....    0
 Multiplicity           Mult            ....    1
 Number of Electrons    NEL             ....   66
 Basis Dimension        Dim             ....  333

ORBITAL ENERGIES
----------------

  NO   OCC          E(Eh)            E(eV)
   0   2.0000     -20.584438      -560.1310
   1   2.0000     -15.553335      -423.2278
   2   2.0000     -11.283624      -307.0430
   3   2.0000     -11.267665      -306.6088
   4   2.0000     -11.238418      -305.8129
   5   2.0000     -11.235894      -305.7442
   6   2.0000     -11.223440      -305.4053
   7   2.0000     -11.220132      -305.3153
   8   2.0000     -11.218509      -305.2712
   9   2.0000      -1.400906       -38.1206
  10   2.0000      -1.212543       -32.9950
  11   2.0000      -1.128994       -30.7215
  12   2.0000      -1.036984       -28.2178
  13   2.0000      -0.981870       -26.7180
  14   2.0000      -0.938212       -25.5301
  15   2.0000      -0.824004       -22.4223
  16   2.0000      -0.810567       -22.0567
  17   2.0000      -0.724664       -19.7191
  18   2.0000      -0.697271       -18.9737
  19   2.0000      -0.669442       -18.2164
  20   2.0000      -0.624347       -16.9893
  21   2.0000      -0.610407       -16.6100
  22   2.0000      -0.604048       -16.4370
  23   2.0000      -0.577569       -15.7164
  24   2.0000      -0.572383       -15.5753
  25   2.0000      -0.564572       -15.3628
  26   2.0000      -0.545857       -14.8535
  27   2.0000      -0.507159       -13.8005
  28   2.0000      -0.499160       -13.5828
  29   2.0000      -0.490574       -13.3492
  30   2.0000      -0.439656       -11.9636
  31   2.0000      -0.316431        -8.6105
  32   2.0000      -0.284306        -7.7364
  33   0.0000       0.125825         3.4239
  34   0.0000       0.134595         3.6625
  35   0.0000       0.149473         4.0674
  36   0.0000       0.154855         4.2138
  37   0.0000       0.165692         4.5087

MULLIKEN ATOMIC CHARGES
-----------------------
   0 C :   -0.538552
   1 C :    0.152073
   2 C :    0.130265
   3 O :   -0.456650
   4 C :    0.170641
   5 N :   -0.512624
   6 C :   -0.247148
   7 C :   -0.106119
   8 C :   -0.219143
   9 H :    0.156167
  10 H :    0.150042
  11 H :    0.147470
  12 H :    0.339093
  13 H :    0.259928
  14 H :    0.241689
  15 H :    0.107728
  16 H :    0.115487
  17 H :    0.109653
Sum of atomic charges:   -0.0000000

LOEWDIN ATOMIC CHARGES
----------------------
   0 C :   -0.279946
   1 C :   -0.174056
   2 C :   -0.217656
   3 O :    0.059995
   4 C :   -0.223495
   5 N :   -0.066605
   6 C :   -0.138166
   7 C :   -0.166171
   8 C :   -0.145075
   9 H :    0.128917
  10 H :    0.127508
  11 H :    0.135083
  12 H :    0.188311
  13 H :    0.170524
  14 H :    0.165743
  15 H :    0.145232
  16 H :    0.144619
  17 H :    0.145238

  Mayer bond orders larger than 0.1
B(  0-C ,  1-C ) :   0.8202 B(  0-C ,  9-H ) :   0.9413 B(  0-C , 10-H ) :   0.9391
B(  0-C , 11-H ) :   0.9370 B(  1-C ,  2-C ) :   1.2948 B(  1-C ,  8-C ) :   1.2883
B(  2-C ,  3-O ) :   1.0503 B(  2-C ,  4-C ) :   1.2810 B(  3-O , 12-H ) :   0.8294
B(  4-C ,  5-N ) :   1.0292 B(  4-C ,  6-C ) :   1.3194 B(  5-N , 13-H ) :   0.8644
B(  5-N , 14-H ) :   0.8771 B(  6-C ,  7-C ) :   1.3617 B(  6-C , 15-H ) :   0.9325
B(  7-C ,  8-C ) :   1.3590 B(  7-C , 16-H ) :   0.9384 B(  8-C , 17-H ) :   0.9311

MP2 TOTAL ENERGY:     -401.325296123 Eh
FINAL SINGLE POINT ENERGY      -401.325296123348

DIPOLE MOMENT
-------------
                                X             Y             Z
Electronic contribution:      0.30339      -2.87867      -1.82202
Nuclear contribution   :     -0.73017       3.27998       1.67348
                        -----------------------------------------
Total Dipole Moment    :     -0.42678       0.40130      -0.14854
                        -----------------------------------------
Magnitude (a.u.)       :      0.60436
Magnitude (Debye)      :      1.53616

                             ****ORCA TERMINATED NORMALLY****
TOTAL RUN TIME: 0 days 0 hours 17 minutes 57 seconds 469 msec
