                         Program Version 3.0.3 - RELEASE   -
|  1> ! RI-MP2 RIJK def2-TZVP def2-TZVP/C def2-TZVP/JK TIGHTSCF
|  2> % maxcore 2000
|  3> % mp2 density relaxed end
|  4> *xyz 0 1
|  5>  C       -0.1301242685     1.4969458795     0.0116652861
|  6>  N       -0.0194500375     0.0441567119     0.0279757482
|  7>  C        0.0569425158    -0.6012795783    -1.2103244224
|  8>  O        0.0464910968     0.0061008649    -2.2687215362
|  9>  N        0.1849676744    -1.9636544356    -1.1638964562
| 10>  C       -0.0572424140    -2.8241922165    -0.0162177703
| 11>  C        0.0492638625    -2.0180614074     1.2400845086
| 12>  C        0.0559794576    -0.6803565909     1.2324102489
| 13>  C        0.1551757465     0.1207105644     2.5012609938
| 14>  H        0.7288297918     1.9744600915     0.4943686656
| 15>  H       -0.1608319708     1.7992328887    -1.0331344288
| 16>  H       -1.0448632910     1.8340823358     0.5105639220
| 17>  H        0.1709813226    -2.3739466160    -2.0840503515
| 18>  H       -1.0450702900    -3.3152157169    -0.0885838681
| 19>  H        0.6842150148    -3.6360904106    -0.0166761036
| 20>  H        0.1116882941    -2.5489347911     2.1809295647
| 21>  H        0.2044342150    -0.5525272911     3.3584053787
| 22>  H        1.0495303074     0.7533695683     2.5132266627
| 23>  H       -0.7079996274     0.7809432892     2.6373473078
| 24> *
| 25>
| 26>                          ****END OF INPUT****

CARTESIAN COORDINATES (ANGSTROEM)
---------------------------------
  C     -0.130124    1.496946    0.011665
  N     -0.019450    0.044157    0.027976
  C      0.056943   -0.601280   -1.210324
  O      0.046491    0.006101   -2.268722
  N      0.184968   -1.963654   -1.163896
  C     -0.057242   -2.824192   -0.016218
  C      0.049264   -2.018061    1.240085
  C      0.055979   -0.680357    1.232410
  C      0.155176    0.120711    2.501261
  H      0.728830    1.974460    0.494369
  H     -0.160832    1.799233   -1.033134
  H     -1.044863    1.834082    0.510564
  H      0.170981   -2.373947   -2.084050
  H     -1.045070   -3.315216   -0.088584
  H      0.684215   -3.636090   -0.016676
  H      0.111688   -2.548935    2.180930
  H      0.204434   -0.552527    3.358405
  H      1.049530    0.753370    2.513227
  H     -0.708000    0.780943    2.637347

 Total Charge           Charge          ....    0
 Multiplicity           Mult            ....    1
 Number of Electrons    NEL             ....   68
 Basis Dimension        Dim             ....  339

ORBITAL ENERGIES
----------------

  NO   OCC          E(Eh)            E(eV)
   0   2.0000     -20.502329      -557.8967
   1   2.0000     -15.591694      -424.2716
   2   2.0000     -15.575782      -423.8386
   3   2.0000     -11.372029      -309.4486
   4   2.0000     -11.287629      -307.1520
   5   2.0000     -11.276837      -306.8583
   6   2.0000     -11.254755      -306.2574
   7   2.0000     -11.239154      -305.8329
   8   2.0000     -11.220045      -305.3129
   9   2.0000      -1.390140       -37.8276
  10   2.0000      -1.268019       -34.5045
  11   2.0000      -1.216290       -33.0969
  12   2.0000      -1.075748       -29.2726
  13   2.0000      -0.991466       -26.9792
  14   2.0000      -0.965366       -26.2689
  15   2.0000      -0.876433       -23.8490
  16   2.0000      -0.838854       -22.8264
  17   2.0000      -0.732476       -19.9317
  18   2.0000      -0.706988       -19.2381
  19   2.0000      -0.661191       -17.9919
  20   2.0000      -0.651390       -17.7252
  21   2.0000      -0.617594       -16.8056
  22   2.0000      -0.612349       -16.6629
  23   2.0000      -0.606008       -16.4903
  24   2.0000      -0.577620       -15.7178
  25   2.0000      -0.575306       -15.6549
  26   2.0000      -0.561107       -15.2685
  27   2.0000      -0.544271       -14.8104
  28   2.0000      -0.537812       -14.6346
  29   2.0000      -0.504193       -13.7198
  30   2.0000      -0.452480       -12.3126
  31   2.0000      -0.432886       -11.7794
  32   2.0000      -0.393087       -10.6964
  33   2.0000      -0.311657        -8.4806
  34   0.0000       0.129459         3.5228
  35   0.0000       0.139035         3.7833
  36   0.0000       0.155753         4.2382
  37   0.0000       0.167517         4.5584
  38   0.0000       0.184671         5.0252

MULLIKEN ATOMIC CHARGES
-----------------------
   0 C :   -0.338889
   1 N :   -0.087919
   2 C :    0.307471
   3 O :   -0.405465
   4 N :   -0.341089
   5 C :   -0.047893
   6 C :   -0.251306
   7 C :    0.080106
   8 C :   -0.418413
   9 H :    0.130067
  10 H :    0.194828
  11 H :    0.134485
  12 H :    0.245252
  13 H :    0.113561
  14 H :    0.120640
  15 H :    0.129742
  16 H :    0.143006
  17 H :    0.148030
  18 H :    0.143786
Sum of atomic charges:   -0.0000000

LOEWDIN ATOMIC CHARGES
----------------------
   0 C :   -0.279819
   1 N :    0.202877
   2 C :   -0.507190
   3 O :    0.045633
   4 N :    0.108245
   5 C :   -0.271625
   6 C :   -0.186490
   7 C :   -0.226342
   8 C :   -0.261485
   9 H :    0.116437
  10 H :    0.139637
  11 H :    0.116202
  12 H :    0.192779
  13 H :    0.129469
  14 H :    0.135342
  15 H :    0.147013
  16 H :    0.135249
  17 H :    0.132307
  18 H :    0.131760

  Mayer bond orders larger than 0.1
B(  0-C ,  1-N ) :   0.8701 B(  0-C ,  9-H ) :   0.9313 B(  0-C , 10-H ) :   0.9162
B(  0-C , 11-H ) :   0.9346 B(  1-N ,  2-C ) :   1.0516 B(  1-N ,  7-C ) :   1.0495
B(  2-C ,  3-O ) :   1.9066 B(  2-C ,  4-N ) :   1.1675 B(  4-N ,  5-C ) :   0.8850
B(  4-N , 12-H ) :   0.8660 B(  5-C ,  6-C ) :   0.9317 B(  5-C , 13-H ) :   0.9262
B(  5-C , 14-H ) :   0.9269 B(  6-C ,  7-C ) :   1.7239 B(  6-C , 15-H ) :   0.9201
B(  7-C ,  8-C ) :   0.9014 B(  8-C , 16-H ) :   0.9401 B(  8-C , 17-H ) :   0.9346
B(  8-C , 18-H ) :   0.9263

MP2 TOTAL ENERGY:     -418.550942355 Eh
FINAL SINGLE POINT ENERGY      -418.550942355003

DIPOLE MOMENT
-------------
                                X             Y             Z
Electronic contribution:      0.24881      -1.95911      -6.58097
Nuclear contribution   :     -0.35102       1.46245       7.79844
                        -----------------------------------------
Total Dipole Moment    :     -0.10221      -0.49665       1.21747
                        -----------------------------------------
Magnitude (a.u.)       :      1.31884
Magnitude (Debye)      :      3.35223

                             ****ORCA TERMINATED NORMALLY****
TOTAL RUN TIME: 0 days 0 hours 18 minutes 2 seconds 39 msec
