                         Program Version 3.0.3 - RELEASE   -
|  1> ! RI-MP2 RIJK def2-TZVP def2-TZVP/C def2-TZVP/JK TIGHTSCF
|  2> % maxcore 2000
|  3> % mp2 density relaxed end
|  4> *xyz 0 1
|  5>  C       -0.1167888143     1.4978740812    -0.1341526292
|  6>  C        0.0265495073     0.0031904458     0.0482425847
|  7>  C        1.3563246495    -0.7032801639    -0.1614437459
|  8>  C        0.7261962011    -0.6226568939     1.2150179267
|  9>  C        1.3781561859     0.1719721683     2.3299941438
| 10>  C        2.3583635174    -0.7210117258     3.1101240432
| 11>  C        1.6647193589    -2.0225938475     3.5351779058
| 12>  C        1.0030263935    -2.6811406298     2.3239175661
| 13>  O        0.0965052363    -1.7935100252     1.6796436300
| 14>  H        0.7842611167     2.0368007756     0.1737329998
| 15>  H       -0.2971901306     1.7414027859    -1.1869177380
| 16>  H       -0.9566875867     1.8941742082     0.4474160692
| 17>  H       -0.8357103541    -0.5742174512    -0.2749894106
| 18>  H        1.3456617599    -1.6639443222    -0.6641140439
| 19>  H        2.2304755970    -0.0917115816    -0.3657380520
| 20>  H        1.8942416272     1.0492089195     1.9297434238
| 21>  H        0.5951404758     0.5362389550     3.0083721046
| 22>  H        3.2162385509    -0.9605562293     2.4678485287
| 23>  H        2.7526747533    -0.1871520877     3.9812238957
| 24>  H        2.3777124568    -2.7184881887     3.9921679315
| 25>  H        0.8933164318    -1.8057867974     4.2847320983
| 26>  H        1.7743624122    -3.0130121495     1.6091415923
| 27>  H        0.4128104242    -3.5551250056     2.6145439052
| 28> *
| 29>
| 30>                          ****END OF INPUT****

CARTESIAN COORDINATES (ANGSTROEM)
---------------------------------
  C     -0.116789    1.497874   -0.134153
  C      0.026550    0.003190    0.048243
  C      1.356325   -0.703280   -0.161444
  C      0.726196   -0.622657    1.215018
  C      1.378156    0.171972    2.329994
  C      2.358364   -0.721012    3.110124
  C      1.664719   -2.022594    3.535178
  C      1.003026   -2.681141    2.323918
  O      0.096505   -1.793510    1.679644
  H      0.784261    2.036801    0.173733
  H     -0.297190    1.741403   -1.186918
  H     -0.956688    1.894174    0.447416
  H     -0.835710   -0.574217   -0.274989
  H      1.345662   -1.663944   -0.664114
  H      2.230476   -0.091712   -0.365738
  H      1.894242    1.049209    1.929743
  H      0.595140    0.536239    3.008372
  H      3.216239   -0.960556    2.467849
  H      2.752675   -0.187152    3.981224
  H      2.377712   -2.718488    3.992168
  H      0.893316   -1.805787    4.284732
  H      1.774362   -3.013012    1.609142
  H      0.412810   -3.555125    2.614544

 Total Charge           Charge          ....    0
 Multiplicity           Mult            ....    1
 Number of Electrons    NEL             ....   70
 Basis Dimension        Dim             ....  363

ORBITAL ENERGIES
----------------

  NO   OCC          E(Eh)            E(eV)
   0   2.0000     -20.548676      -559.1579
   1   2.0000     -11.275845      -306.8313
   2   2.0000     -11.267391      -306.6013
   3   2.0000     -11.223186      -305.3984
   4   2.0000     -11.221441      -305.3509
   5   2.0000     -11.220787      -305.3331
   6   2.0000     -11.218557      -305.2725
   7   2.0000     -11.215305      -305.1840
   8   2.0000     -11.215082      -305.1779
   9   2.0000      -1.374272       -37.3959
  10   2.0000      -1.135878       -30.9088
  11   2.0000      -1.071084       -29.1457
  12   2.0000      -0.989944       -26.9377
  13   2.0000      -0.950016       -25.8513
  14   2.0000      -0.870701       -23.6930
  15   2.0000      -0.826028       -22.4774
  16   2.0000      -0.779940       -21.2233
  17   2.0000      -0.732786       -19.9401
  18   2.0000      -0.672174       -18.2908
  19   2.0000      -0.657997       -17.9050
  20   2.0000      -0.618930       -16.8419
  21   2.0000      -0.605813       -16.4850
  22   2.0000      -0.589446       -16.0396
  23   2.0000      -0.570749       -15.5309
  24   2.0000      -0.563504       -15.3337
  25   2.0000      -0.549222       -14.9451
  26   2.0000      -0.537441       -14.6245
  27   2.0000      -0.528243       -14.3742
  28   2.0000      -0.494424       -13.4540
  29   2.0000      -0.486072       -13.2267
  30   2.0000      -0.476824       -12.9750
  31   2.0000      -0.455908       -12.4059
  32   2.0000      -0.431758       -11.7487
  33   2.0000      -0.386682       -10.5221
  34   2.0000      -0.376024       -10.2321
  35   0.0000       0.136163         3.7052
  36   0.0000       0.152547         4.1510
  37   0.0000       0.162005         4.4084
  38   0.0000       0.167607         4.5608
  39   0.0000       0.190958         5.1962

MULLIKEN ATOMIC CHARGES
-----------------------
   0 C :   -0.409079
   1 C :   -0.062272
   2 C :   -0.348371
   3 C :    0.181464
   4 C :   -0.225901
   5 C :   -0.200926
   6 C :   -0.214442
   7 C :   -0.072989
   8 O :   -0.302040
   9 H :    0.119534
  10 H :    0.137272
  11 H :    0.133422
  12 H :    0.120334
  13 H :    0.134650
  14 H :    0.119670
  15 H :    0.113380
  16 H :    0.108954
  17 H :    0.106528
  18 H :    0.123863
  19 H :    0.117031
  20 H :    0.104056
  21 H :    0.089642
  22 H :    0.126220
Sum of atomic charges:    0.0000000

LOEWDIN ATOMIC CHARGES
----------------------
   0 C :   -0.293583
   1 C :   -0.213036
   2 C :   -0.198154
   3 C :   -0.323322
   4 C :   -0.221930
   5 C :   -0.260511
   6 C :   -0.272467
   7 C :   -0.308904
   8 O :    0.207376
   9 H :    0.122985
  10 H :    0.126352
  11 H :    0.126277
  12 H :    0.155506
  13 H :    0.135491
  14 H :    0.132996
  15 H :    0.141696
  16 H :    0.145119
  17 H :    0.138397
  18 H :    0.134685
  19 H :    0.137665
  20 H :    0.138669
  21 H :    0.120924
  22 H :    0.127769

  Mayer bond orders larger than 0.1
B(  0-C ,  1-C ) :   0.8947 B(  0-C ,  9-H ) :   0.9375 B(  0-C , 10-H ) :   0.9401
B(  0-C , 11-H ) :   0.9403 B(  1-C ,  2-C ) :   0.9320 B(  1-C ,  3-C ) :   0.8479
B(  1-C , 12-H ) :   0.9214 B(  2-C ,  3-C ) :   0.8736 B(  2-C , 13-H ) :   0.9160
B(  2-C , 14-H ) :   0.9146 B(  3-C ,  4-C ) :   0.9373 B(  3-C ,  8-O ) :   0.9768
B(  4-C ,  5-C ) :   0.9338 B(  4-C , 15-H ) :   0.9201 B(  4-C , 16-H ) :   0.9221
B(  5-C ,  6-C ) :   0.9258 B(  5-C , 17-H ) :   0.9312 B(  5-C , 18-H ) :   0.9345
B(  6-C ,  7-C ) :   0.9451 B(  6-C , 19-H ) :   0.9245 B(  6-C , 20-H ) :   0.9222
B(  7-C ,  8-O ) :   0.9091 B(  7-C , 21-H ) :   0.9315 B(  7-C , 22-H ) :   0.9323

MP2 TOTAL ENERGY:     -387.617635012 Eh
FINAL SINGLE POINT ENERGY      -387.617635012115

DIPOLE MOMENT
-------------
                                X             Y             Z
Electronic contribution:     -2.35150      -3.10021      -0.07311
Nuclear contribution   :      2.81885       3.22574       0.21664
                        -----------------------------------------
Total Dipole Moment    :      0.46736       0.12553       0.14353
                        -----------------------------------------
Magnitude (a.u.)       :      0.50476
Magnitude (Debye)      :      1.28299

                             ****ORCA TERMINATED NORMALLY****
TOTAL RUN TIME: 0 days 0 hours 20 minutes 9 seconds 133 msec
