                         Program Version 3.0.3 - RELEASE   -
|  1> ! RI-MP2 RIJK def2-TZVP def2-TZVP/C def2-TZVP/JK TIGHTSCF
|  2> % maxcore 2000
|  3> % mp2 density relaxed end
|  4> *xyz 0 1
|  5>  C       -0.0716254143     1.5311832844    -0.2801942687
|  6>  C        0.0276950743     0.0333789914     0.0277391772
|  7>  C       -1.3399530465    -0.6283641208     0.0980243228
|  8>  N       -2.0864029467    -0.6851451023    -1.1866198572
|  9>  C       -2.6376101519    -2.0090707523    -0.8382512314
| 10>  C       -2.7352912752    -2.9612331788    -1.9458778468
| 11>  N       -2.8163637702    -3.7292662733    -2.8059357251
| 12>  C       -1.4826657241    -2.1816470163     0.2074971568
| 13>  C       -0.3009202082    -3.0209362514    -0.2591930930
| 14>  H        0.9191376946     1.9923221105    -0.3256633952
| 15>  H       -0.5593291372     1.6969071414    -1.2463400612
| 16>  H       -0.6504034519     2.0591007210     0.4864079012
| 17>  H        0.6304176383    -0.4594945562    -0.7414582152
| 18>  H        0.5405464681    -0.1174540747     0.9867334802
| 19>  H       -1.9271750021    -0.1508344924     0.8998906066
| 20>  H       -2.7775030639     0.0398453220    -1.3461106598
| 21>  H       -3.6155527564    -1.9758951929    -0.3367480216
| 22>  H       -1.8342660907    -2.5308886215     1.1802662994
| 23>  H        0.0392725571    -2.7230877419    -1.2544173360
| 24>  H        0.5399569110    -2.9248249542     0.4346158880
| 25>  H       -0.5778492040    -4.0785020217    -0.3067467110
| 26> *
| 27>
| 28>                          ****END OF INPUT****

CARTESIAN COORDINATES (ANGSTROEM)
---------------------------------
  C     -0.071625    1.531183   -0.280194
  C      0.027695    0.033379    0.027739
  C     -1.339953   -0.628364    0.098024
  N     -2.086403   -0.685145   -1.186620
  C     -2.637610   -2.009071   -0.838251
  C     -2.735291   -2.961233   -1.945878
  N     -2.816364   -3.729266   -2.805936
  C     -1.482666   -2.181647    0.207497
  C     -0.300920   -3.020936   -0.259193
  H      0.919138    1.992322   -0.325663
  H     -0.559329    1.696907   -1.246340
  H     -0.650403    2.059101    0.486408
  H      0.630418   -0.459495   -0.741458
  H      0.540546   -0.117454    0.986733
  H     -1.927175   -0.150834    0.899891
  H     -2.777503    0.039845   -1.346111
  H     -3.615553   -1.975895   -0.336748
  H     -1.834266   -2.530889    1.180266
  H      0.039273   -2.723088   -1.254417
  H      0.539957   -2.924825    0.434616
  H     -0.577849   -4.078502   -0.306747

 Total Charge           Charge          ....    0
 Multiplicity           Mult            ....    1
 Number of Electrons    NEL             ....   68
 Basis Dimension        Dim             ....  351

ORBITAL ENERGIES
----------------

  NO   OCC          E(Eh)            E(eV)
   0   2.0000     -15.567162      -423.6040
   1   2.0000     -15.565828      -423.5677
   2   2.0000     -11.308407      -307.7174
   3   2.0000     -11.273804      -306.7758
   4   2.0000     -11.265642      -306.5537
   5   2.0000     -11.257823      -306.3409
   6   2.0000     -11.228851      -305.5526
   7   2.0000     -11.225913      -305.4726
   8   2.0000     -11.222435      -305.3780
   9   2.0000      -1.267684       -34.4954
  10   2.0000      -1.208840       -32.8942
  11   2.0000      -1.058389       -28.8002
  12   2.0000      -1.043853       -28.4047
  13   2.0000      -0.963577       -26.2203
  14   2.0000      -0.919286       -25.0150
  15   2.0000      -0.853763       -23.2321
  16   2.0000      -0.755462       -20.5572
  17   2.0000      -0.733233       -19.9523
  18   2.0000      -0.692148       -18.8343
  19   2.0000      -0.636972       -17.3329
  20   2.0000      -0.613476       -16.6935
  21   2.0000      -0.588409       -16.0114
  22   2.0000      -0.585946       -15.9444
  23   2.0000      -0.564585       -15.3631
  24   2.0000      -0.552007       -15.0209
  25   2.0000      -0.532369       -14.4865
  26   2.0000      -0.521649       -14.1948
  27   2.0000      -0.514753       -14.0071
  28   2.0000      -0.491886       -13.3849
  29   2.0000      -0.483282       -13.1508
  30   2.0000      -0.465994       -12.6803
  31   2.0000      -0.454079       -12.3561
  32   2.0000      -0.437428       -11.9030
  33   2.0000      -0.401308       -10.9201
  34   0.0000       0.114601         3.1185
  35   0.0000       0.135862         3.6970
  36   0.0000       0.142982         3.8907
  37   0.0000       0.154965         4.2168
  38   0.0000       0.175969         4.7884

MULLIKEN ATOMIC CHARGES
-----------------------
   0 C :   -0.413743
   1 C :   -0.176247
   2 C :   -0.075909
   3 N :   -0.362242
   4 C :    0.058756
   5 C :   -0.199914
   6 N :   -0.051868
   7 C :    0.060486
   8 C :   -0.478278
   9 H :    0.139418
  10 H :    0.138635
  11 H :    0.121587
  12 H :    0.114689
  13 H :    0.109372
  14 H :    0.098124
  15 H :    0.213468
  16 H :    0.131350
  17 H :    0.119231
  18 H :    0.161232
  19 H :    0.139985
  20 H :    0.151869
Sum of atomic charges:    0.0000000

LOEWDIN ATOMIC CHARGES
----------------------
   0 C :   -0.316751
   1 C :   -0.276965
   2 C :   -0.254968
   3 N :    0.040356
   4 C :   -0.249977
   5 C :   -0.169371
   6 N :    0.064647
   7 C :   -0.194719
   8 C :   -0.287941
   9 H :    0.123098
  10 H :    0.123603
  11 H :    0.119974
  12 H :    0.141762
  13 H :    0.139858
  14 H :    0.139044
  15 H :    0.161004
  16 H :    0.158281
  17 H :    0.144721
  18 H :    0.134371
  19 H :    0.128001
  20 H :    0.131971

  Mayer bond orders larger than 0.1
B(  0-C ,  1-C ) :   0.9063 B(  0-C ,  9-H ) :   0.9406 B(  0-C , 10-H ) :   0.9416
B(  0-C , 11-H ) :   0.9373 B(  1-C ,  2-C ) :   0.9115 B(  1-C , 12-H ) :   0.9302
B(  1-C , 13-H ) :   0.9329 B(  2-C ,  3-N ) :   0.9295 B(  2-C ,  7-C ) :   0.8792
B(  2-C , 14-H ) :   0.9244 B(  3-N ,  4-C ) :   0.9785 B(  3-N , 15-H ) :   0.8730
B(  4-C ,  5-C ) :   0.9078 B(  4-C ,  7-C ) :   0.8953 B(  4-C , 16-H ) :   0.9070
B(  5-C ,  6-N ) :   2.8742 B(  7-C ,  8-C ) :   0.8948 B(  7-C , 17-H ) :   0.9144
B(  8-C , 18-H ) :   0.9430 B(  8-C , 19-H ) :   0.9320 B(  8-C , 20-H ) :   0.9280

MP2 TOTAL ENERGY:     -382.595400504 Eh
FINAL SINGLE POINT ENERGY      -382.595400503896

DIPOLE MOMENT
-------------
                                X             Y             Z
Electronic contribution:     -7.56946      -6.83765      -5.45125
Nuclear contribution   :      7.66161       7.88713       6.98288
                        -----------------------------------------
Total Dipole Moment    :      0.09215       1.04948       1.53163
                        -----------------------------------------
Magnitude (a.u.)       :      1.85897
Magnitude (Debye)      :      4.72513

                             ****ORCA TERMINATED NORMALLY****
TOTAL RUN TIME: 0 days 0 hours 33 minutes 6 seconds 167 msec
