                         Program Version 3.0.3 - RELEASE   -
|  1> ! RI-MP2 RIJK def2-TZVP def2-TZVP/C def2-TZVP/JK TIGHTSCF
|  2> % maxcore 2000
|  3> % mp2 density relaxed end
|  4> *xyz 0 1
|  5>  C       -0.1292936520     1.3520547013    -0.2671694386
|  6>  N       -0.0476092664     0.0129277222     0.2777436862
|  7>  C       -1.0496092299    -1.0521890519     0.1908052661
|  8>  C       -0.8965841803    -1.8227758961    -1.0889239492
|  9>  C        0.0582522494    -2.0835266660     0.0818805579
| 10>  C        0.2583861062    -3.4146630163     0.7418409635
| 11>  C        1.0127480948    -0.8857697324     0.1177985724
| 12>  O        2.1971506291    -0.7096839433     0.0218342177
| 13>  H        0.8861851589     1.7526639086    -0.3176559308
| 14>  H       -0.5642600347     1.3644526506    -1.2765368531
| 15>  H       -0.7291124607     2.0011698736     0.3784098967
| 16>  H       -1.9196824584    -1.0598338511     0.8348494405
| 17>  H       -1.6131192466    -2.6204426537    -1.2695715992
| 18>  H       -0.5508260728    -1.3186011181    -1.9870653364
| 19>  H       -0.6557539767    -4.0156752632     0.7074077678
| 20>  H        1.0489067040    -3.9806785612     0.2379984174
| 21>  H        0.5495831161    -3.2982752328     1.7907093212
| 22> *
| 23>
| 24>                          ****END OF INPUT****

CARTESIAN COORDINATES (ANGSTROEM)
---------------------------------
  C     -0.129294    1.352055   -0.267169
  N     -0.047609    0.012928    0.277744
  C     -1.049609   -1.052189    0.190805
  C     -0.896584   -1.822776   -1.088924
  C      0.058252   -2.083527    0.081881
  C      0.258386   -3.414663    0.741841
  C      1.012748   -0.885770    0.117799
  O      2.197151   -0.709684    0.021834
  H      0.886185    1.752664   -0.317656
  H     -0.564260    1.364453   -1.276537
  H     -0.729112    2.001170    0.378410
  H     -1.919682   -1.059834    0.834849
  H     -1.613119   -2.620443   -1.269572
  H     -0.550826   -1.318601   -1.987065
  H     -0.655754   -4.015675    0.707408
  H      1.048907   -3.980679    0.237998
  H      0.549583   -3.298275    1.790709

 Total Charge           Charge          ....    0
 Multiplicity           Mult            ....    1
 Number of Electrons    NEL             ....   60
 Basis Dimension        Dim             ....  302

ORBITAL ENERGIES
----------------

  NO   OCC          E(Eh)            E(eV)
   0   2.0000     -20.530429      -558.6614
   1   2.0000     -15.580273      -423.9608
   2   2.0000     -11.349415      -308.8333
   3   2.0000     -11.282567      -307.0143
   4   2.0000     -11.260079      -306.4023
   5   2.0000     -11.259681      -306.3915
   6   2.0000     -11.254964      -306.2631
   7   2.0000     -11.233827      -305.6880
   8   2.0000      -1.391844       -37.8740
   9   2.0000      -1.292911       -35.1819
  10   2.0000      -1.125288       -30.6206
  11   2.0000      -0.986563       -26.8457
  12   2.0000      -0.964466       -26.2444
  13   2.0000      -0.854222       -23.2446
  14   2.0000      -0.819287       -22.2939
  15   2.0000      -0.699428       -19.0324
  16   2.0000      -0.688119       -18.7247
  17   2.0000      -0.676852       -18.4181
  18   2.0000      -0.645020       -17.5519
  19   2.0000      -0.603472       -16.4213
  20   2.0000      -0.591033       -16.0828
  21   2.0000      -0.580552       -15.7976
  22   2.0000      -0.564702       -15.3663
  23   2.0000      -0.555112       -15.1054
  24   2.0000      -0.535634       -14.5753
  25   2.0000      -0.520319       -14.1586
  26   2.0000      -0.469235       -12.7685
  27   2.0000      -0.421117       -11.4592
  28   2.0000      -0.411128       -11.1874
  29   2.0000      -0.365594        -9.9483
  30   0.0000       0.136584         3.7166
  31   0.0000       0.145542         3.9604
  32   0.0000       0.162391         4.4189
  33   0.0000       0.168254         4.5784
  34   0.0000       0.184551         5.0219

MULLIKEN ATOMIC CHARGES
-----------------------
   0 C :   -0.318918
   1 N :   -0.130052
   2 C :   -0.036865
   3 C :   -0.256176
   4 C :   -0.019073
   5 C :   -0.415905
   6 C :    0.203995
   7 O :   -0.308323
   8 H :    0.164944
   9 H :    0.125433
  10 H :    0.142320
  11 H :    0.144362
  12 H :    0.132325
  13 H :    0.145906
  14 H :    0.131207
  15 H :    0.151330
  16 H :    0.143490
Sum of atomic charges:   -0.0000000

LOEWDIN ATOMIC CHARGES
----------------------
   0 C :   -0.304521
   1 N :    0.185143
   2 C :   -0.182092
   3 C :   -0.171139
   4 C :   -0.186724
   5 C :   -0.268091
   6 C :   -0.372958
   7 O :    0.118392
   8 H :    0.132808
   9 H :    0.113751
  10 H :    0.118179
  11 H :    0.137871
  12 H :    0.141567
  13 H :    0.136995
  14 H :    0.130684
  15 H :    0.136669
  16 H :    0.133466

  Mayer bond orders larger than 0.1
B(  0-C ,  1-N ) :   0.8724 B(  0-C ,  8-H ) :   0.9272 B(  0-C ,  9-H ) :   0.9252
B(  0-C , 10-H ) :   0.9383 B(  1-N ,  2-C ) :   0.9335 B(  1-N ,  6-C ) :   1.1168
B(  2-C ,  3-C ) :   0.9039 B(  2-C ,  4-C ) :   0.8349 B(  2-C , 11-H ) :   0.9076
B(  3-C ,  4-C ) :   0.8416 B(  3-C , 12-H ) :   0.9207 B(  3-C , 13-H ) :   0.9127
B(  4-C ,  5-C ) :   0.8936 B(  4-C ,  6-C ) :   0.8733 B(  5-C , 14-H ) :   0.9350
B(  5-C , 15-H ) :   0.9377 B(  5-C , 16-H ) :   0.9384 B(  6-C ,  7-O ) :   2.0237

MP2 TOTAL ENERGY:     -363.232724023 Eh
FINAL SINGLE POINT ENERGY      -363.232724022990

DIPOLE MOMENT
-------------
                                X             Y             Z
Electronic contribution:      3.56484       1.39332       0.73871
Nuclear contribution   :     -4.96785      -1.55391      -0.89286
                        -----------------------------------------
Total Dipole Moment    :     -1.40300      -0.16059      -0.15415
                        -----------------------------------------
Magnitude (a.u.)       :      1.42055
Magnitude (Debye)      :      3.61076

                             ****ORCA TERMINATED NORMALLY****
TOTAL RUN TIME: 0 days 0 hours 13 minutes 12 seconds 95 msec
