                         Program Version 3.0.3 - RELEASE   -
|  1> ! RI-MP2 RIJK def2-TZVP def2-TZVP/C def2-TZVP/JK TIGHTSCF
|  2> % maxcore 2000
|  3> % mp2 density relaxed end
|  4> *xyz 0 1
|  5>  C        0.1116525680     1.2202630758    -0.5926198437
|  6>  C       -0.1487684647    -0.2500568272    -0.2537355506
|  7>  C       -1.5574026150    -0.5092079799     0.2805372347
|  8>  C       -2.6911046250    -0.4560936257    -0.7978993293
|  9>  C       -2.7407207834    -1.9855293936    -0.7462082074
| 10>  C       -1.8882695109    -2.0168612603     0.5237867259
| 11>  O       -3.9069240054    -2.7663417788    -0.9463534192
| 12>  C       -2.7991788333    -2.9556347384    -1.8453240312
| 13>  C       -3.0185295078    -2.5655540002    -3.2833297771
| 14>  H        1.1252022816     1.3667358562    -0.9786051318
| 15>  H       -0.5885256753     1.5858024547    -1.3514295346
| 16>  H       -0.0030348491     1.8542464197     0.2936749800
| 17>  H        0.0200678127    -0.8709141017    -1.1445258890
| 18>  H        0.5803794357    -0.5884608462     0.4940731690
| 19>  H       -1.7420838561     0.1315410614     1.1477043964
| 20>  H       -3.6175396582    -0.0086629080    -0.4272674930
| 21>  H       -2.4397173847     0.0057121354    -1.7573350318
| 22>  H       -1.0427202189    -2.7110999828     0.5441579051
| 23>  H       -2.5015776380    -2.1814314849     1.4144285939
| 24>  H       -2.2788074479    -3.9046776108    -1.6958927645
| 25>  H       -3.5159372543    -1.5949808442    -3.3547008620
| 26>  H       -2.0630265352    -2.5104922922    -3.8169599447
| 27>  H       -3.6435711348    -3.3071430881    -3.7918883549
| 28> *
| 29>
| 30>                          ****END OF INPUT****

CARTESIAN COORDINATES (ANGSTROEM)
---------------------------------
  C      0.111653    1.220263   -0.592620
  C     -0.148768   -0.250057   -0.253736
  C     -1.557403   -0.509208    0.280537
  C     -2.691105   -0.456094   -0.797899
  C     -2.740721   -1.985529   -0.746208
  C     -1.888270   -2.016861    0.523787
  O     -3.906924   -2.766342   -0.946353
  C     -2.799179   -2.955635   -1.845324
  C     -3.018530   -2.565554   -3.283330
  H      1.125202    1.366736   -0.978605
  H     -0.588526    1.585802   -1.351430
  H     -0.003035    1.854246    0.293675
  H      0.020068   -0.870914   -1.144526
  H      0.580379   -0.588461    0.494073
  H     -1.742084    0.131541    1.147704
  H     -3.617540   -0.008663   -0.427267
  H     -2.439717    0.005712   -1.757335
  H     -1.042720   -2.711100    0.544158
  H     -2.501578   -2.181431    1.414429
  H     -2.278807   -3.904678   -1.695893
  H     -3.515937   -1.594981   -3.354701
  H     -2.063027   -2.510492   -3.816960
  H     -3.643571   -3.307143   -3.791888

 Total Charge           Charge          ....    0
 Multiplicity           Mult            ....    1
 Number of Electrons    NEL             ....   70
 Basis Dimension        Dim             ....  363

ORBITAL ENERGIES
----------------

  NO   OCC          E(Eh)            E(eV)
   0   2.0000     -20.555336      -559.3391
   1   2.0000     -11.281430      -306.9833
   2   2.0000     -11.279756      -306.9378
   3   2.0000     -11.230924      -305.6090
   4   2.0000     -11.223705      -305.4125
   5   2.0000     -11.222880      -305.3901
   6   2.0000     -11.222526      -305.3805
   7   2.0000     -11.221642      -305.3564
   8   2.0000     -11.215776      -305.1968
   9   2.0000      -1.402830       -38.1729
  10   2.0000      -1.130994       -30.7759
  11   2.0000      -1.025485       -27.9049
  12   2.0000      -1.007159       -27.4062
  13   2.0000      -0.913026       -24.8447
  14   2.0000      -0.890378       -24.2284
  15   2.0000      -0.844446       -22.9785
  16   2.0000      -0.787377       -21.4256
  17   2.0000      -0.725674       -19.7466
  18   2.0000      -0.675805       -18.3896
  19   2.0000      -0.652294       -17.7498
  20   2.0000      -0.638532       -17.3753
  21   2.0000      -0.598185       -16.2774
  22   2.0000      -0.588281       -16.0079
  23   2.0000      -0.573769       -15.6130
  24   2.0000      -0.558432       -15.1957
  25   2.0000      -0.538694       -14.6586
  26   2.0000      -0.526376       -14.3234
  27   2.0000      -0.522230       -14.2106
  28   2.0000      -0.503048       -13.6886
  29   2.0000      -0.483008       -13.1433
  30   2.0000      -0.473513       -12.8849
  31   2.0000      -0.444941       -12.1074
  32   2.0000      -0.439782       -11.9671
  33   2.0000      -0.420587       -11.4447
  34   2.0000      -0.403161       -10.9706
  35   0.0000       0.129854         3.5335
  36   0.0000       0.147924         4.0252
  37   0.0000       0.160321         4.3626
  38   0.0000       0.166283         4.5248
  39   0.0000       0.184590         5.0229

MULLIKEN ATOMIC CHARGES
-----------------------
   0 C :   -0.390013
   1 C :   -0.262546
   2 C :   -0.030528
   3 C :   -0.205638
   4 C :    0.052482
   5 C :   -0.170490
   6 O :   -0.341564
   7 C :    0.037637
   8 C :   -0.399365
   9 H :    0.134148
  10 H :    0.122590
  11 H :    0.123960
  12 H :    0.112198
  13 H :    0.114939
  14 H :    0.099574
  15 H :    0.122343
  16 H :    0.122629
  17 H :    0.119482
  18 H :    0.120656
  19 H :    0.109978
  20 H :    0.140575
  21 H :    0.125704
  22 H :    0.141249
Sum of atomic charges:    0.0000000

LOEWDIN ATOMIC CHARGES
----------------------
   0 C :   -0.317102
   1 C :   -0.278784
   2 C :   -0.218255
   3 C :   -0.179336
   4 C :   -0.298262
   5 C :   -0.177320
   6 O :    0.180583
   7 C :   -0.270456
   8 C :   -0.294850
   9 H :    0.120975
  10 H :    0.119804
  11 H :    0.121241
  12 H :    0.138750
  13 H :    0.137942
  14 H :    0.141650
  15 H :    0.141668
  16 H :    0.131940
  17 H :    0.132463
  18 H :    0.141562
  19 H :    0.136829
  20 H :    0.130080
  21 H :    0.129080
  22 H :    0.129796

  Mayer bond orders larger than 0.1
B(  0-C ,  1-C ) :   0.9231 B(  0-C ,  9-H ) :   0.9406 B(  0-C , 10-H ) :   0.9387
B(  0-C , 11-H ) :   0.9387 B(  1-C ,  2-C ) :   0.9129 B(  1-C , 12-H ) :   0.9287
B(  1-C , 13-H ) :   0.9353 B(  2-C ,  3-C ) :   0.9147 B(  2-C ,  5-C ) :   0.9047
B(  2-C , 14-H ) :   0.9261 B(  3-C ,  4-C ) :   0.9065 B(  3-C , 15-H ) :   0.9027
B(  3-C , 16-H ) :   0.9213 B(  4-C ,  5-C ) :   0.8961 B(  4-C ,  6-O ) :   0.9318
B(  4-C ,  7-C ) :   0.9904 B(  5-C , 17-H ) :   0.9212 B(  5-C , 18-H ) :   0.9060
B(  6-O ,  7-C ) :   0.8774 B(  7-C ,  8-C ) :   0.8887 B(  7-C , 19-H ) :   0.9150
B(  8-C , 20-H ) :   0.9430 B(  8-C , 21-H ) :   0.9254 B(  8-C , 22-H ) :   0.9350

MP2 TOTAL ENERGY:     -387.591788386 Eh
FINAL SINGLE POINT ENERGY      -387.591788386158

DIPOLE MOMENT
-------------
                                X             Y             Z
Electronic contribution:     -6.09044      -5.61350       1.84986
Nuclear contribution   :      6.80394       5.87389      -2.05078
                        -----------------------------------------
Total Dipole Moment    :      0.71350       0.26039      -0.20091
                        -----------------------------------------
Magnitude (a.u.)       :      0.78565
Magnitude (Debye)      :      1.99697

                             ****ORCA TERMINATED NORMALLY****
TOTAL RUN TIME: 0 days 0 hours 31 minutes 16 seconds 43 msec
