                         Program Version 3.0.3 - RELEASE   -
|  1> ! RI-MP2 RIJK def2-TZVP def2-TZVP/C def2-TZVP/JK TIGHTSCF
|  2> % maxcore 2000
|  3> % mp2 density relaxed end
|  4> *xyz 0 1
|  5>  C        0.0081785668     1.5496805065     0.1260765931
|  6>  C        1.5455663290     1.5476612403    -0.1075422043
|  7>  C        1.4267989915     0.0843702261    -0.6297703151
|  8>  C        2.4124265576    -0.9639073241    -0.1756281234
|  9>  O        2.8491466330    -0.8991141381     1.1904218510
| 10>  C        1.9678487761    -1.9547865789     0.8163281956
| 11>  C        0.5569096813    -1.8612775805     1.3637033837
| 12>  O        0.0441008284    -0.5471450272     1.3224312687
| 13>  C        0.0122169984     0.0103301776     0.0214306518
| 14>  H       -0.3594517252     1.9459368234     1.0742727658
| 15>  H       -0.5444274676     2.0111236150    -0.6965623975
| 16>  H        1.9536217473     2.2907102535    -0.7955133116
| 17>  H        2.1018306312     1.5768449127     0.8305714917
| 18>  H        1.3460884601     0.0546066932    -1.7209362740
| 19>  H        3.2053218671    -1.2351037981    -0.8726634136
| 20>  H        2.4053579871    -2.9541680279     0.8214866491
| 21>  H       -0.0852148271    -2.5649111703     0.8040259003
| 22>  H        0.5401306126    -2.1591262258     2.4173341180
| 23>  H       -0.7789612476    -0.4700553174    -0.5737100792
| 24> *
| 25>
| 26>                          ****END OF INPUT****

CARTESIAN COORDINATES (ANGSTROEM)
---------------------------------
  C      0.008179    1.549681    0.126077
  C      1.545566    1.547661   -0.107542
  C      1.426799    0.084370   -0.629770
  C      2.412427   -0.963907   -0.175628
  O      2.849147   -0.899114    1.190422
  C      1.967849   -1.954787    0.816328
  C      0.556910   -1.861278    1.363703
  O      0.044101   -0.547145    1.322431
  C      0.012217    0.010330    0.021431
  H     -0.359452    1.945937    1.074273
  H     -0.544427    2.011124   -0.696562
  H      1.953622    2.290710   -0.795513
  H      2.101831    1.576845    0.830571
  H      1.346088    0.054607   -1.720936
  H      3.205322   -1.235104   -0.872663
  H      2.405358   -2.954168    0.821487
  H     -0.085215   -2.564911    0.804026
  H      0.540131   -2.159126    2.417334
  H     -0.778961   -0.470055   -0.573710

 Total Charge           Charge          ....    0
 Multiplicity           Mult            ....    1
 Number of Electrons    NEL             ....   68
 Basis Dimension        Dim             ....  339

ORBITAL ENERGIES
----------------

  NO   OCC          E(Eh)            E(eV)
   0   2.0000     -20.564189      -559.5800
   1   2.0000     -20.557360      -559.3942
   2   2.0000     -11.286502      -307.1213
   3   2.0000     -11.285347      -307.0899
   4   2.0000     -11.283030      -307.0269
   5   2.0000     -11.279064      -306.9189
   6   2.0000     -11.233917      -305.6904
   7   2.0000     -11.220090      -305.3142
   8   2.0000     -11.219482      -305.2976
   9   2.0000      -1.416458       -38.5438
  10   2.0000      -1.375311       -37.4241
  11   2.0000      -1.126264       -30.6472
  12   2.0000      -1.003597       -27.3093
  13   2.0000      -0.955152       -25.9910
  14   2.0000      -0.899358       -24.4728
  15   2.0000      -0.848428       -23.0869
  16   2.0000      -0.805463       -21.9178
  17   2.0000      -0.733758       -19.9666
  18   2.0000      -0.718028       -19.5385
  19   2.0000      -0.681242       -18.5375
  20   2.0000      -0.663360       -18.0509
  21   2.0000      -0.620944       -16.8967
  22   2.0000      -0.608893       -16.5688
  23   2.0000      -0.586112       -15.9489
  24   2.0000      -0.565769       -15.3953
  25   2.0000      -0.530177       -14.4268
  26   2.0000      -0.527764       -14.3612
  27   2.0000      -0.508927       -13.8486
  28   2.0000      -0.484114       -13.1734
  29   2.0000      -0.474930       -12.9235
  30   2.0000      -0.442694       -12.0463
  31   2.0000      -0.432656       -11.7732
  32   2.0000      -0.419560       -11.4168
  33   2.0000      -0.394788       -10.7427
  34   0.0000       0.138406         3.7662
  35   0.0000       0.153293         4.1713
  36   0.0000       0.166695         4.5360
  37   0.0000       0.172374         4.6905
  38   0.0000       0.183019         4.9802

MULLIKEN ATOMIC CHARGES
-----------------------
   0 C :   -0.169984
   1 C :   -0.314962
   2 C :    0.075079
   3 C :   -0.061141
   4 O :   -0.330965
   5 C :    0.002424
   6 C :   -0.033704
   7 O :   -0.294158
   8 C :   -0.023488
   9 H :    0.119032
  10 H :    0.115033
  11 H :    0.116050
  12 H :    0.141338
  13 H :    0.105709
  14 H :    0.126175
  15 H :    0.117457
  16 H :    0.091351
  17 H :    0.132162
  18 H :    0.086592
Sum of atomic charges:    0.0000000

LOEWDIN ATOMIC CHARGES
----------------------
   0 C :   -0.216903
   1 C :   -0.210130
   2 C :   -0.199329
   3 C :   -0.244319
   4 O :    0.172891
   5 C :   -0.274850
   6 C :   -0.302349
   7 O :    0.192773
   8 C :   -0.270054
   9 H :    0.132679
  10 H :    0.134783
  11 H :    0.122689
  12 H :    0.143305
  13 H :    0.156668
  14 H :    0.137143
  15 H :    0.137879
  16 H :    0.127148
  17 H :    0.137480
  18 H :    0.122497

  Mayer bond orders larger than 0.1
B(  0-C ,  1-C ) :   0.9510 B(  0-C ,  8-C ) :   0.9099 B(  0-C ,  9-H ) :   0.9152
B(  0-C , 10-H ) :   0.9188 B(  1-C ,  2-C ) :   0.8952 B(  1-C , 11-H ) :   0.9305
B(  1-C , 12-H ) :   0.9079 B(  2-C ,  3-C ) :   0.8899 B(  2-C ,  8-C ) :   0.9177
B(  2-C , 13-H ) :   0.9052 B(  3-C ,  4-O ) :   0.8880 B(  3-C ,  5-C ) :   0.9775
B(  3-C , 14-H ) :   0.9263 B(  4-O ,  5-C ) :   0.9055 B(  5-C ,  6-C ) :   0.9263
B(  5-C , 15-H ) :   0.9183 B(  6-C ,  7-O ) :   0.9477 B(  6-C , 16-H ) :   0.9285
B(  6-C , 17-H ) :   0.9178 B(  7-O ,  8-C ) :   1.0060 B(  8-C , 18-H ) :   0.9533

MP2 TOTAL ENERGY:     -422.290830008 Eh
FINAL SINGLE POINT ENERGY      -422.290830008345

DIPOLE MOMENT
-------------
                                X             Y             Z
Electronic contribution:      1.84212      -2.28391       2.27063
Nuclear contribution   :     -2.07234       1.82959      -3.11780
                        -----------------------------------------
Total Dipole Moment    :     -0.23022      -0.45432      -0.84717
                        -----------------------------------------
Magnitude (a.u.)       :      0.98849
Magnitude (Debye)      :      2.51254

                             ****ORCA TERMINATED NORMALLY****
TOTAL RUN TIME: 0 days 0 hours 17 minutes 15 seconds 958 msec
