                         Program Version 3.0.3 - RELEASE   -
|  1> ! RI-MP2 RIJK def2-TZVP def2-TZVP/C def2-TZVP/JK TIGHTSCF
|  2> % maxcore 2000
|  3> % mp2 density relaxed end
|  4> *xyz 0 1
|  5>  O        0.2886536540     1.1450308746    -0.0835697401
|  6>  C       -0.0784466166    -0.2042318934     0.0105307772
|  7>  C        0.1386632228    -0.8604309253     1.3922262847
|  8>  C       -0.7531040529    -0.0038680898     2.3112872491
|  9>  N       -1.9715499911    -0.5444483300     1.6075267417
| 10>  C       -1.1772188278    -1.6833135956     1.1276537167
| 11>  C       -1.5469418569    -0.5987997373     0.1528495846
| 12>  C       -2.5910924027    -0.5469668599    -0.8776300376
| 13>  O       -2.3779546021    -0.1346137199    -1.9957240811
| 14>  H       -0.0223645471     1.4737476664    -0.9342561624
| 15>  H        0.3756814432    -0.8135911426    -0.7819898152
| 16>  H        1.1163810135    -1.2335620663     1.6867331525
| 17>  H       -0.7789632146    -0.3607449583     3.3429302910
| 18>  H       -0.6338971838     1.0808588971     2.2715505058
| 19>  H       -1.4706263806    -2.7233895900     1.1753158235
| 20>  H       -3.5933354273    -0.9017296695    -0.5595612703
| 21> *
| 22>
| 23>                          ****END OF INPUT****

CARTESIAN COORDINATES (ANGSTROEM)
---------------------------------
  O      0.288654    1.145031   -0.083570
  C     -0.078447   -0.204232    0.010531
  C      0.138663   -0.860431    1.392226
  C     -0.753104   -0.003868    2.311287
  N     -1.971550   -0.544448    1.607527
  C     -1.177219   -1.683314    1.127654
  C     -1.546942   -0.598800    0.152850
  C     -2.591092   -0.546967   -0.877630
  O     -2.377955   -0.134614   -1.995724
  H     -0.022365    1.473748   -0.934256
  H      0.375681   -0.813591   -0.781990
  H      1.116381   -1.233562    1.686733
  H     -0.778963   -0.360745    3.342930
  H     -0.633897    1.080859    2.271551
  H     -1.470626   -2.723390    1.175316
  H     -3.593335   -0.901730   -0.559561

 Total Charge           Charge          ....    0
 Multiplicity           Mult            ....    1
 Number of Electrons    NEL             ....   66
 Basis Dimension        Dim             ....  321

ORBITAL ENERGIES
----------------

  NO   OCC          E(Eh)            E(eV)
   0   2.0000     -20.567733      -559.6765
   1   2.0000     -20.563779      -559.5689
   2   2.0000     -15.591114      -424.2558
   3   2.0000     -11.342011      -308.6318
   4   2.0000     -11.304727      -307.6173
   5   2.0000     -11.294553      -307.3404
   6   2.0000     -11.281168      -306.9762
   7   2.0000     -11.269487      -306.6583
   8   2.0000     -11.262239      -306.4611
   9   2.0000      -1.402857       -38.1737
  10   2.0000      -1.383607       -37.6499
  11   2.0000      -1.334056       -36.3015
  12   2.0000      -1.041332       -28.3361
  13   2.0000      -1.025629       -27.9088
  14   2.0000      -0.913891       -24.8682
  15   2.0000      -0.864488       -23.5239
  16   2.0000      -0.775148       -21.0929
  17   2.0000      -0.762456       -20.7475
  18   2.0000      -0.714909       -19.4537
  19   2.0000      -0.710116       -19.3233
  20   2.0000      -0.674267       -18.3477
  21   2.0000      -0.636324       -17.3152
  22   2.0000      -0.622608       -16.9420
  23   2.0000      -0.601642       -16.3715
  24   2.0000      -0.575141       -15.6504
  25   2.0000      -0.547185       -14.8897
  26   2.0000      -0.515331       -14.0229
  27   2.0000      -0.494441       -13.4544
  28   2.0000      -0.491897       -13.3852
  29   2.0000      -0.447451       -12.1758
  30   2.0000      -0.432875       -11.7791
  31   2.0000      -0.426956       -11.6181
  32   2.0000      -0.394874       -10.7451
  33   0.0000       0.112126         3.0511
  34   0.0000       0.142254         3.8709
  35   0.0000       0.158157         4.3037
  36   0.0000       0.162390         4.4188
  37   0.0000       0.169705         4.6179

MULLIKEN ATOMIC CHARGES
-----------------------
   0 O :   -0.470305
   1 C :    0.036696
   2 C :   -0.037702
   3 C :   -0.130680
   4 N :   -0.235338
   5 C :   -0.154780
   6 C :    0.117130
   7 C :    0.035809
   8 O :   -0.286397
   9 H :    0.335551
  10 H :    0.111909
  11 H :    0.146911
  12 H :    0.131573
  13 H :    0.136485
  14 H :    0.160406
  15 H :    0.102731
Sum of atomic charges:   -0.0000000

LOEWDIN ATOMIC CHARGES
----------------------
   0 O :   -0.003712
   1 C :   -0.288121
   2 C :   -0.154095
   3 C :   -0.211225
   4 N :    0.156110
   5 C :   -0.133015
   6 C :   -0.226421
   7 C :   -0.263020
   8 O :    0.124926
   9 H :    0.186626
  10 H :    0.150669
  11 H :    0.135753
  12 H :    0.135318
  13 H :    0.129847
  14 H :    0.136597
  15 H :    0.123762

  Mayer bond orders larger than 0.1
B(  0-O ,  1-C ) :   1.1201 B(  0-O ,  2-C ) :  -0.1040 B(  0-O ,  9-H ) :   0.8325
B(  1-C ,  2-C ) :   0.8885 B(  1-C ,  6-C ) :   0.8378 B(  1-C , 10-H ) :   0.9695
B(  2-C ,  3-C ) :   0.9325 B(  2-C ,  5-C ) :   0.9028 B(  2-C , 11-H ) :   0.9109
B(  3-C ,  4-N ) :   0.8920 B(  3-C , 12-H ) :   0.9297 B(  3-C , 13-H ) :   0.9152
B(  4-N ,  5-C ) :   0.9227 B(  4-N ,  6-C ) :   0.8031 B(  5-C ,  6-C ) :   0.7900
B(  5-C , 14-H ) :   0.8841 B(  6-C ,  7-C ) :   0.8634 B(  7-C ,  8-O ) :   1.9789
B(  7-C , 15-H ) :   0.9718

MP2 TOTAL ENERGY:     -437.105387566 Eh
FINAL SINGLE POINT ENERGY      -437.105387566039

DIPOLE MOMENT
-------------
                                X             Y             Z
Electronic contribution:     -2.06898       0.36315      -2.90641
Nuclear contribution   :      2.55560      -1.04685       3.42376
                        -----------------------------------------
Total Dipole Moment    :      0.48662      -0.68371       0.51735
                        -----------------------------------------
Magnitude (a.u.)       :      0.98585
Magnitude (Debye)      :      2.50584

                             ****ORCA TERMINATED NORMALLY****
TOTAL RUN TIME: 0 days 0 hours 17 minutes 8 seconds 402 msec
