                         Program Version 3.0.3 - RELEASE   -
|  1> ! RI-MP2 RIJK def2-TZVP def2-TZVP/C def2-TZVP/JK TIGHTSCF
|  2> % maxcore 2000
|  3> % mp2 density relaxed end
|  4> *xyz 0 1
|  5>  C        0.0267665194     1.6193094334     0.0372293653
|  6>  C        0.1633648802     0.1008620257    -0.0957075473
|  7>  C        0.6099196737    -0.5671877467     1.2048092634
|  8>  C        0.7115542543    -2.0821536366     1.1238836297
|  9>  O        0.3171618551    -2.7096100407     0.1682793705
| 10>  C        1.3633651464    -2.7749549579     2.3219356437
| 11>  C        1.0699042908    -4.2783615947     2.3782224361
| 12>  C        2.0454202962    -5.0097810452     3.2670418932
| 13>  O        1.7477295821    -5.7291765981     4.1846787010
| 14>  H        0.9774146694     2.0841835139     0.3221973509
| 15>  H       -0.2922328445     2.0698721702    -0.9073674931
| 16>  H       -0.7128838689     1.8883786268     0.7998129695
| 17>  H       -0.7875266441    -0.3404278649    -0.4107571070
| 18>  H        0.8799487016    -0.1448162449    -0.8874512067
| 19>  H        1.5771045984    -0.1717777998     1.5468332297
| 20>  H       -0.0908559176    -0.3350157588     2.0214040261
| 21>  H        2.4464717691    -2.5994607240     2.2278990866
| 22>  H        1.0665181548    -2.2704037082     3.2485141781
| 23>  H        0.0520326086    -4.4798045190     2.7210051401
| 24>  H        1.1646499154    -4.6754519300     1.3585658221
| 25>  H        3.1169341796    -4.8323227905     3.0041758283
| 26> *
| 27>
| 28>                          ****END OF INPUT****

CARTESIAN COORDINATES (ANGSTROEM)
---------------------------------
  C      0.026767    1.619309    0.037229
  C      0.163365    0.100862   -0.095708
  C      0.609920   -0.567188    1.204809
  C      0.711554   -2.082154    1.123884
  O      0.317162   -2.709610    0.168279
  C      1.363365   -2.774955    2.321936
  C      1.069904   -4.278362    2.378222
  C      2.045420   -5.009781    3.267042
  O      1.747730   -5.729177    4.184679
  H      0.977415    2.084184    0.322197
  H     -0.292233    2.069872   -0.907367
  H     -0.712884    1.888379    0.799813
  H     -0.787527   -0.340428   -0.410757
  H      0.879949   -0.144816   -0.887451
  H      1.577105   -0.171778    1.546833
  H     -0.090856   -0.335016    2.021404
  H      2.446472   -2.599461    2.227899
  H      1.066518   -2.270404    3.248514
  H      0.052033   -4.479805    2.721005
  H      1.164650   -4.675452    1.358566
  H      3.116934   -4.832323    3.004176

 Total Charge           Charge          ....    0
 Multiplicity           Mult            ....    1
 Number of Electrons    NEL             ....   70
 Basis Dimension        Dim             ....  351

ORBITAL ENERGIES
----------------

  NO   OCC          E(Eh)            E(eV)
   0   2.0000     -20.559822      -559.4612
   1   2.0000     -20.556003      -559.3573
   2   2.0000     -11.341976      -308.6309
   3   2.0000     -11.335322      -308.4498
   4   2.0000     -11.260895      -306.4245
   5   2.0000     -11.247850      -306.0696
   6   2.0000     -11.245813      -306.0141
   7   2.0000     -11.230713      -305.6032
   8   2.0000     -11.223199      -305.3988
   9   2.0000      -1.401642       -38.1406
  10   2.0000      -1.398669       -38.0597
  11   2.0000      -1.096133       -29.8273
  12   2.0000      -1.075367       -29.2622
  13   2.0000      -0.987670       -26.8759
  14   2.0000      -0.926061       -25.1994
  15   2.0000      -0.828611       -22.5477
  16   2.0000      -0.797695       -21.7064
  17   2.0000      -0.744812       -20.2674
  18   2.0000      -0.689817       -18.7709
  19   2.0000      -0.666555       -18.1379
  20   2.0000      -0.659742       -17.9525
  21   2.0000      -0.639780       -17.4093
  22   2.0000      -0.631429       -17.1820
  23   2.0000      -0.606668       -16.5083
  24   2.0000      -0.573548       -15.6070
  25   2.0000      -0.569146       -15.4872
  26   2.0000      -0.561002       -15.2656
  27   2.0000      -0.531193       -14.4545
  28   2.0000      -0.514316       -13.9953
  29   2.0000      -0.501981       -13.6596
  30   2.0000      -0.499297       -13.5866
  31   2.0000      -0.492395       -13.3987
  32   2.0000      -0.483360       -13.1529
  33   2.0000      -0.431090       -11.7306
  34   2.0000      -0.414157       -11.2698
  35   0.0000       0.114133         3.1057
  36   0.0000       0.129892         3.5345
  37   0.0000       0.131985         3.5915
  38   0.0000       0.145801         3.9674
  39   0.0000       0.165392         4.5006

MULLIKEN ATOMIC CHARGES
-----------------------
   0 C :   -0.382541
   1 C :   -0.174074
   2 C :   -0.281623
   3 C :    0.217524
   4 O :   -0.296032
   5 C :   -0.318980
   6 C :   -0.134485
   7 C :    0.093798
   8 O :   -0.261955
   9 H :    0.120985
  10 H :    0.139408
  11 H :    0.122667
  12 H :    0.124651
  13 H :    0.114488
  14 H :    0.135623
  15 H :    0.138109
  16 H :    0.141254
  17 H :    0.153139
  18 H :    0.125368
  19 H :    0.155073
  20 H :    0.067604
Sum of atomic charges:    0.0000000

LOEWDIN ATOMIC CHARGES
----------------------
   0 C :   -0.319891
   1 C :   -0.288012
   2 C :   -0.246766
   3 C :   -0.320466
   4 O :    0.158308
   5 C :   -0.237286
   6 C :   -0.255533
   7 C :   -0.300895
   8 O :    0.131499
   9 H :    0.119835
  10 H :    0.122935
  11 H :    0.120335
  12 H :    0.142145
  13 H :    0.140064
  14 H :    0.151777
  15 H :    0.155543
  16 H :    0.156457
  17 H :    0.151152
  18 H :    0.147937
  19 H :    0.162466
  20 H :    0.108396

  Mayer bond orders larger than 0.1
B(  0-C ,  1-C ) :   0.9138 B(  0-C ,  9-H ) :   0.9370 B(  0-C , 10-H ) :   0.9449
B(  0-C , 11-H ) :   0.9383 B(  1-C ,  2-C ) :   0.9407 B(  1-C , 12-H ) :   0.9341
B(  1-C , 13-H ) :   0.9346 B(  2-C ,  3-C ) :   0.9199 B(  2-C , 14-H ) :   0.9122
B(  2-C , 15-H ) :   0.9026 B(  3-C ,  4-O ) :   1.9506 B(  3-C ,  5-C ) :   0.9050
B(  5-C ,  6-C ) :   0.8966 B(  5-C , 16-H ) :   0.9091 B(  5-C , 17-H ) :   0.9161
B(  6-C ,  7-C ) :   0.8727 B(  6-C , 18-H ) :   0.9042 B(  6-C , 19-H ) :   0.9124
B(  7-C ,  8-O ) :   2.0060 B(  7-C , 20-H ) :   0.9383

MP2 TOTAL ENERGY:     -423.546761244 Eh
FINAL SINGLE POINT ENERGY      -423.546761243877

DIPOLE MOMENT
-------------
                                X             Y             Z
Electronic contribution:      1.56916     -12.46884       3.97687
Nuclear contribution   :     -1.23294      13.78055      -4.11867
                        -----------------------------------------
Total Dipole Moment    :      0.33622       1.31171      -0.14181
                        -----------------------------------------
Magnitude (a.u.)       :      1.36152
Magnitude (Debye)      :      3.46071

                             ****ORCA TERMINATED NORMALLY****
TOTAL RUN TIME: 0 days 0 hours 14 minutes 53 seconds 103 msec
