                         Program Version 3.0.3 - RELEASE   -
|  1> ! RI-MP2 RIJK def2-TZVP def2-TZVP/C def2-TZVP/JK TIGHTSCF
|  2> % maxcore 2000
|  3> % mp2 density relaxed end
|  4> *xyz 0 1
|  5>  C        0.0374402761     1.3401122246     0.2889392651
|  6>  O       -0.0263750186     0.0111083484    -0.1818872705
|  7>  C       -1.3136474223    -0.5841261392    -0.0616274211
|  8>  C       -1.2628714091    -1.9156945117    -0.8221488040
|  9>  C       -0.9810671828    -1.7366815752    -2.3158511567
| 10>  O       -0.9943401527    -2.9717991330    -3.0166962591
| 11>  C       -1.7143215990    -0.7712117611     1.3389754668
| 12>  C       -2.0389852844    -0.9367038303     2.4871655038
| 13>  C       -2.4344257861    -1.1395347490     3.8735026660
| 14>  H        1.0598963328     1.6879772064     0.1243052135
| 15>  H       -0.6553494231     1.9972115265    -0.2601953425
| 16>  H       -0.1978383157     1.4042081133     1.3598353564
| 17>  H       -2.0560951328     0.0740929335    -0.5491962363
| 18>  H       -0.4839305564    -2.5378546422    -0.3645153860
| 19>  H       -2.2160838638    -2.4371358515    -0.6924002941
| 20>  H       -1.7714579054    -1.1301516128    -2.7734550419
| 21>  H       -0.0341915733    -1.1993103841    -2.4556097781
| 22>  H       -0.2432652401    -3.4892593796    -2.7095347220
| 23>  H       -3.0562094012    -2.0353193804     3.9792704955
| 24>  H       -1.5590444173    -1.2672609642     4.5196019601
| 25>  H       -3.0092766049    -0.2888393984     4.2556043251
| 26> *
| 27>
| 28>                          ****END OF INPUT****

CARTESIAN COORDINATES (ANGSTROEM)
---------------------------------
  C      0.037440    1.340112    0.288939
  O     -0.026375    0.011108   -0.181887
  C     -1.313647   -0.584126   -0.061627
  C     -1.262871   -1.915695   -0.822149
  C     -0.981067   -1.736682   -2.315851
  O     -0.994340   -2.971799   -3.016696
  C     -1.714322   -0.771212    1.338975
  C     -2.038985   -0.936704    2.487166
  C     -2.434426   -1.139535    3.873503
  H      1.059896    1.687977    0.124305
  H     -0.655349    1.997212   -0.260195
  H     -0.197838    1.404208    1.359835
  H     -2.056095    0.074093   -0.549196
  H     -0.483931   -2.537855   -0.364515
  H     -2.216084   -2.437136   -0.692400
  H     -1.771458   -1.130152   -2.773455
  H     -0.034192   -1.199310   -2.455610
  H     -0.243265   -3.489259   -2.709535
  H     -3.056209   -2.035319    3.979270
  H     -1.559044   -1.267261    4.519602
  H     -3.009277   -0.288839    4.255604

 Total Charge           Charge          ....    0
 Multiplicity           Mult            ....    1
 Number of Electrons    NEL             ....   70
 Basis Dimension        Dim             ....  351

ORBITAL ENERGIES
----------------

  NO   OCC          E(Eh)            E(eV)
   0   2.0000     -20.561619      -559.5101
   1   2.0000     -20.550807      -559.2159
   2   2.0000     -11.308240      -307.7128
   3   2.0000     -11.270371      -306.6824
   4   2.0000     -11.269320      -306.6538
   5   2.0000     -11.250801      -306.1499
   6   2.0000     -11.230913      -305.6087
   7   2.0000     -11.225396      -305.4585
   8   2.0000     -11.219029      -305.2853
   9   2.0000      -1.382223       -37.6122
  10   2.0000      -1.354259       -36.8513
  11   2.0000      -1.081762       -29.4362
  12   2.0000      -1.045675       -28.4543
  13   2.0000      -0.972267       -26.4567
  14   2.0000      -0.936031       -25.4707
  15   2.0000      -0.885689       -24.1008
  16   2.0000      -0.822472       -22.3806
  17   2.0000      -0.707518       -19.2525
  18   2.0000      -0.687834       -18.7169
  19   2.0000      -0.666752       -18.1432
  20   2.0000      -0.646314       -17.5871
  21   2.0000      -0.631620       -17.1872
  22   2.0000      -0.612430       -16.6651
  23   2.0000      -0.591509       -16.0958
  24   2.0000      -0.589645       -16.0451
  25   2.0000      -0.583447       -15.8764
  26   2.0000      -0.566498       -15.4152
  27   2.0000      -0.537923       -14.6376
  28   2.0000      -0.509450       -13.8628
  29   2.0000      -0.494718       -13.4620
  30   2.0000      -0.475620       -12.9423
  31   2.0000      -0.448750       -12.2111
  32   2.0000      -0.432221       -11.7613
  33   2.0000      -0.380393       -10.3510
  34   2.0000      -0.371269       -10.1028
  35   0.0000       0.129660         3.5282
  36   0.0000       0.144653         3.9362
  37   0.0000       0.149939         4.0801
  38   0.0000       0.173490         4.7209
  39   0.0000       0.176662         4.8072

MULLIKEN ATOMIC CHARGES
-----------------------
   0 C :   -0.221661
   1 O :   -0.299396
   2 C :   -0.115747
   3 C :   -0.180900
   4 C :   -0.044975
   5 O :   -0.472306
   6 C :   -0.008722
   7 C :    0.080574
   8 C :   -0.488446
   9 H :    0.138428
  10 H :    0.108431
  11 H :    0.129085
  12 H :    0.104645
  13 H :    0.108251
  14 H :    0.127142
  15 H :    0.101950
  16 H :    0.126799
  17 H :    0.313898
  18 H :    0.164796
  19 H :    0.164889
  20 H :    0.163266
Sum of atomic charges:    0.0000000

LOEWDIN ATOMIC CHARGES
----------------------
   0 C :   -0.352203
   1 O :    0.161471
   2 C :   -0.320387
   3 C :   -0.245162
   4 C :   -0.345967
   5 O :   -0.053512
   6 C :   -0.066588
   7 C :   -0.095746
   8 C :   -0.293480
   9 H :    0.113582
  10 H :    0.101886
  11 H :    0.108033
  12 H :    0.152787
  13 H :    0.142488
  14 H :    0.147735
  15 H :    0.127300
  16 H :    0.119368
  17 H :    0.172794
  18 H :    0.142483
  19 H :    0.142240
  20 H :    0.140876

  Mayer bond orders larger than 0.1
B(  0-C ,  1-O ) :   0.9110 B(  0-C ,  9-H ) :   0.9390 B(  0-C , 10-H ) :   0.9305
B(  0-C , 11-H ) :   0.9350 B(  1-O ,  2-C ) :   0.9781 B(  2-C ,  3-C ) :   0.9113
B(  2-C ,  6-C ) :   1.0046 B(  2-C ,  7-C ) :  -0.1084 B(  2-C , 12-H ) :   0.9843
B(  3-C ,  4-C ) :   0.9110 B(  3-C , 13-H ) :   0.9191 B(  3-C , 14-H ) :   0.9195
B(  4-C ,  5-O ) :   0.9282 B(  4-C , 15-H ) :   0.9198 B(  4-C , 16-H ) :   0.9479
B(  5-O , 17-H ) :   0.8487 B(  6-C ,  7-C ) :   2.7148 B(  7-C ,  8-C ) :   0.8451
B(  8-C , 18-H ) :   0.9487 B(  8-C , 19-H ) :   0.9446 B(  8-C , 20-H ) :   0.9498

MP2 TOTAL ENERGY:     -423.472512771 Eh
FINAL SINGLE POINT ENERGY      -423.472512770986

DIPOLE MOMENT
-------------
                                X             Y             Z
Electronic contribution:      0.42199      -1.99620      -2.25178
Nuclear contribution   :     -0.38908       2.37061       3.15983
                        -----------------------------------------
Total Dipole Moment    :      0.03291       0.37441       0.90805
                        -----------------------------------------
Magnitude (a.u.)       :      0.98276
Magnitude (Debye)      :      2.49797

                             ****ORCA TERMINATED NORMALLY****
TOTAL RUN TIME: 0 days 0 hours 16 minutes 50 seconds 989 msec
