                         Program Version 3.0.3 - RELEASE   -
|  1> ! RI-MP2 RIJK def2-TZVP def2-TZVP/C def2-TZVP/JK TIGHTSCF
|  2> % maxcore 2000
|  3> % mp2 density relaxed end
|  4> *xyz 0 1
|  5>  C       -0.1308067457     1.5141739391    -0.0727976020
|  6>  C        0.0156516560    -0.0090859441    -0.0353762827
|  7>  C        0.9890266581    -0.5083761061    -1.1649177231
|  8>  C        2.3374316701    -0.6286156087    -0.4608113983
|  9>  C        2.1350306677    -0.7175063578     0.8484236300
| 10>  C        2.6717465659    -0.3337978220     2.2071616616
| 11>  C        1.2518702501     0.3031750683     2.4535295071
| 12>  C        0.6912921847    -0.5640110597     1.2569504515
| 13>  C        0.0064693662    -1.8378619225     1.7643758169
| 14>  H        0.8444503462     2.0100510248    -0.0138715915
| 15>  H       -0.6044290447     1.8309417971    -1.0080768388
| 16>  H       -0.7467196531     1.8812896213     0.7548875797
| 17>  H       -0.9786607490    -0.4514572723    -0.1652714142
| 18>  H        0.6557321533    -1.4629121219    -1.5955000631
| 19>  H        1.0283095346     0.2034547431    -1.9983676475
| 20>  H        3.2867728233    -0.5542483992    -0.9793234560
| 21>  H        2.8536692781    -1.1848876207     2.8715112364
| 22>  H        3.5427612881     0.3250329805     2.2392842330
| 23>  H        0.8000412062     0.1270792407     3.4337732562
| 24>  H        1.2539948542     1.3738837792     2.2442365041
| 25>  H       -0.9794145235    -1.6044432298     2.1837799560
| 26>  H       -0.1359779664    -2.5597007912     0.9529758287
| 27>  H        0.5923880197    -2.3300274882     2.5480220361
| 28> *
| 29>
| 30>                          ****END OF INPUT****

CARTESIAN COORDINATES (ANGSTROEM)
---------------------------------
  C     -0.130807    1.514174   -0.072798
  C      0.015652   -0.009086   -0.035376
  C      0.989027   -0.508376   -1.164918
  C      2.337432   -0.628616   -0.460811
  C      2.135031   -0.717506    0.848424
  C      2.671747   -0.333798    2.207162
  C      1.251870    0.303175    2.453530
  C      0.691292   -0.564011    1.256950
  C      0.006469   -1.837862    1.764376
  H      0.844450    2.010051   -0.013872
  H     -0.604429    1.830942   -1.008077
  H     -0.746720    1.881290    0.754888
  H     -0.978661   -0.451457   -0.165271
  H      0.655732   -1.462912   -1.595500
  H      1.028310    0.203455   -1.998368
  H      3.286773   -0.554248   -0.979323
  H      2.853669   -1.184888    2.871511
  H      3.542761    0.325033    2.239284
  H      0.800041    0.127079    3.433773
  H      1.253995    1.373884    2.244237
  H     -0.979415   -1.604443    2.183780
  H     -0.135978   -2.559701    0.952976
  H      0.592388   -2.330027    2.548022

 Total Charge           Charge          ....    0
 Multiplicity           Mult            ....    1
 Number of Electrons    NEL             ....   68
 Basis Dimension        Dim             ....  363

ORBITAL ENERGIES
----------------

  NO   OCC          E(Eh)            E(eV)
   0   2.0000     -11.229994      -305.5837
   1   2.0000     -11.224813      -305.4427
   2   2.0000     -11.224296      -305.4286
   3   2.0000     -11.223691      -305.4122
   4   2.0000     -11.218420      -305.2687
   5   2.0000     -11.217313      -305.2386
   6   2.0000     -11.211919      -305.0918
   7   2.0000     -11.211834      -305.0895
   8   2.0000     -11.208834      -305.0079
   9   2.0000      -1.168369       -31.7929
  10   2.0000      -1.056634       -28.7525
  11   2.0000      -1.004246       -27.3269
  12   2.0000      -0.967321       -26.3222
  13   2.0000      -0.887848       -24.1596
  14   2.0000      -0.858888       -23.3715
  15   2.0000      -0.835475       -22.7344
  16   2.0000      -0.752417       -20.4743
  17   2.0000      -0.667577       -18.1657
  18   2.0000      -0.648336       -17.6421
  19   2.0000      -0.629337       -17.1251
  20   2.0000      -0.612779       -16.6746
  21   2.0000      -0.574260       -15.6264
  22   2.0000      -0.563857       -15.3433
  23   2.0000      -0.548466       -14.9245
  24   2.0000      -0.543437       -14.7877
  25   2.0000      -0.533616       -14.5204
  26   2.0000      -0.502439       -13.6720
  27   2.0000      -0.486140       -13.2285
  28   2.0000      -0.472766       -12.8646
  29   2.0000      -0.464150       -12.6302
  30   2.0000      -0.446719       -12.1558
  31   2.0000      -0.430953       -11.7268
  32   2.0000      -0.413084       -11.2406
  33   2.0000      -0.324285        -8.8242
  34   0.0000       0.133441         3.6311
  35   0.0000       0.153250         4.1701
  36   0.0000       0.157663         4.2902
  37   0.0000       0.162926         4.4335
  38   0.0000       0.171781         4.6744

MULLIKEN ATOMIC CHARGES
-----------------------
   0 C :   -0.480657
   1 C :   -0.028558
   2 C :   -0.180003
   3 C :   -0.248608
   4 C :   -0.098971
   5 C :   -0.212084
   6 C :   -0.265533
   7 C :    0.233538
   8 C :   -0.463809
   9 H :    0.136406
  10 H :    0.136140
  11 H :    0.135644
  12 H :    0.097919
  13 H :    0.114743
  14 H :    0.115753
  15 H :    0.121967
  16 H :    0.127357
  17 H :    0.119983
  18 H :    0.114551
  19 H :    0.126797
  20 H :    0.134153
  21 H :    0.133598
  22 H :    0.129674
Sum of atomic charges:    0.0000000

LOEWDIN ATOMIC CHARGES
----------------------
   0 C :   -0.296307
   1 C :   -0.210326
   2 C :   -0.210265
   3 C :   -0.140655
   4 C :   -0.135042
   5 C :   -0.195820
   6 C :   -0.178316
   7 C :   -0.203114
   8 C :   -0.263616
   9 H :    0.125596
  10 H :    0.122985
  11 H :    0.122940
  12 H :    0.146873
  13 H :    0.135607
  14 H :    0.136569
  15 H :    0.133626
  16 H :    0.139364
  17 H :    0.129931
  18 H :    0.125329
  19 H :    0.134874
  20 H :    0.125414
  21 H :    0.127942
  22 H :    0.126411

  Mayer bond orders larger than 0.1
B(  0-C ,  1-C ) :   0.8730 B(  0-C ,  9-H ) :   0.9385 B(  0-C , 10-H ) :   0.9380
B(  0-C , 11-H ) :   0.9437 B(  1-C ,  2-C ) :   0.9270 B(  1-C ,  7-C ) :   0.8642
B(  1-C , 12-H ) :   0.9350 B(  2-C ,  3-C ) :   0.9358 B(  2-C , 13-H ) :   0.9053
B(  2-C , 14-H ) :   0.9275 B(  3-C ,  4-C ) :   1.7624 B(  3-C , 15-H ) :   0.9257
B(  4-C ,  5-C ) :   0.9192 B(  4-C ,  7-C ) :   0.8946 B(  5-C ,  6-C ) :   0.9533
B(  5-C , 16-H ) :   0.9187 B(  5-C , 17-H ) :   0.9106 B(  6-C ,  7-C ) :   0.8796
B(  6-C , 18-H ) :   0.9208 B(  6-C , 19-H ) :   0.9138 B(  7-C ,  8-C ) :   0.8749
B(  8-C , 20-H ) :   0.9402 B(  8-C , 21-H ) :   0.9376 B(  8-C , 22-H ) :   0.9328

MP2 TOTAL ENERGY:     -350.495841719 Eh
FINAL SINGLE POINT ENERGY      -350.495841719083

DIPOLE MOMENT
-------------
                                X             Y             Z
Electronic contribution:      3.30494      -1.48626      -0.65154
Nuclear contribution   :     -3.39606       1.60281       0.74326
                        -----------------------------------------
Total Dipole Moment    :     -0.09112       0.11656       0.09172
                        -----------------------------------------
Magnitude (a.u.)       :      0.17407
Magnitude (Debye)      :      0.44245

                             ****ORCA TERMINATED NORMALLY****
TOTAL RUN TIME: 0 days 0 hours 25 minutes 18 seconds 572 msec
