                         Program Version 3.0.3 - RELEASE   -
|  1> ! RI-MP2 RIJK def2-TZVP def2-TZVP/C def2-TZVP/JK TIGHTSCF
|  2> % maxcore 2000
|  3> % mp2 density relaxed end
|  4> *xyz 0 1
|  5>  O        0.1028381421     0.0490498761     0.4507483498
|  6>  C        0.0729266713     1.2212166735     0.1456603747
|  7>  N        1.0939118009     1.9024440531    -0.4676676734
|  8>  C        2.5621975528     1.6726224762    -0.2123312589
|  9>  C        2.8124106609     2.9617631745    -1.0467610929
| 10>  C        1.6305401815     3.2635883506    -0.0836386927
| 11>  C        2.4480136858     2.5796825072     1.0532731691
| 12>  H       -0.8362138032     1.8505107086     0.2452397780
| 13>  H        3.0095629128     0.6866732452    -0.3129729970
| 14>  H        3.7442340583     3.4938456158    -0.8524120678
| 15>  H        2.5637832676     2.9037235376    -2.1064417757
| 16>  H        0.9885411671     4.1432453424    -0.0413449969
| 17>  H        1.8757927394     2.1685006673     1.8861673531
| 18>  H        3.3576899928     3.0873239820     1.3842826207
| 19> *
| 20>
| 21>                          ****END OF INPUT****

CARTESIAN COORDINATES (ANGSTROEM)
---------------------------------
  O      0.102838    0.049050    0.450748
  C      0.072927    1.221217    0.145660
  N      1.093912    1.902444   -0.467668
  C      2.562198    1.672622   -0.212331
  C      2.812411    2.961763   -1.046761
  C      1.630540    3.263588   -0.083639
  C      2.448014    2.579683    1.053273
  H     -0.836214    1.850511    0.245240
  H      3.009563    0.686673   -0.312973
  H      3.744234    3.493846   -0.852412
  H      2.563783    2.903724   -2.106442
  H      0.988541    4.143245   -0.041345
  H      1.875793    2.168501    1.886167
  H      3.357690    3.087324    1.384283

 Total Charge           Charge          ....    0
 Multiplicity           Mult            ....    1
 Number of Electrons    NEL             ....   52
 Basis Dimension        Dim             ....  259

ORBITAL ENERGIES
----------------

  NO   OCC          E(Eh)            E(eV)
   0   2.0000     -20.527943      -558.5937
   1   2.0000     -15.581878      -424.0045
   2   2.0000     -11.343655      -308.6765
   3   2.0000     -11.303321      -307.5790
   4   2.0000     -11.295993      -307.3796
   5   2.0000     -11.252304      -306.1908
   6   2.0000     -11.251245      -306.1620
   7   2.0000      -1.385307       -37.6961
   8   2.0000      -1.308117       -35.5957
   9   2.0000      -1.080865       -29.4118
  10   2.0000      -0.934022       -25.4160
  11   2.0000      -0.896821       -24.4037
  12   2.0000      -0.847147       -23.0520
  13   2.0000      -0.736066       -20.0294
  14   2.0000      -0.713743       -19.4219
  15   2.0000      -0.669681       -18.2229
  16   2.0000      -0.640884       -17.4393
  17   2.0000      -0.630400       -17.1541
  18   2.0000      -0.547704       -14.9038
  19   2.0000      -0.535345       -14.5675
  20   2.0000      -0.513987       -13.9863
  21   2.0000      -0.500285       -13.6135
  22   2.0000      -0.484671       -13.1886
  23   2.0000      -0.472881       -12.8678
  24   2.0000      -0.429660       -11.6917
  25   2.0000      -0.380901       -10.3648
  26   0.0000       0.144961         3.9446
  27   0.0000       0.152556         4.1513
  28   0.0000       0.160956         4.3798
  29   0.0000       0.170703         4.6451
  30   0.0000       0.173162         4.7120

MULLIKEN ATOMIC CHARGES
-----------------------
   0 O :   -0.331242
   1 C :    0.112509
   2 N :   -0.120099
   3 C :   -0.093676
   4 C :   -0.171207
   5 C :   -0.101415
   6 C :   -0.201140
   7 H :    0.080104
   8 H :    0.160143
   9 H :    0.125691
  10 H :    0.127759
  11 H :    0.150643
  12 H :    0.140775
  13 H :    0.121158
Sum of atomic charges:   -0.0000000

LOEWDIN ATOMIC CHARGES
----------------------
   0 O :    0.076699
   1 C :   -0.423158
   2 N :    0.187691
   3 C :   -0.172309
   4 C :   -0.193040
   5 C :   -0.183334
   6 C :   -0.192523
   7 H :    0.109627
   8 H :    0.133119
   9 H :    0.131607
  10 H :    0.133103
  11 H :    0.128050
  12 H :    0.134191
  13 H :    0.130279

  Mayer bond orders larger than 0.1
B(  0-O ,  1-C ) :   1.9308 B(  1-C ,  2-N ) :   1.0979 B(  1-C ,  7-H ) :   0.9349
B(  2-N ,  3-C ) :   0.8333 B(  2-N ,  5-C ) :   0.8296 B(  3-C ,  4-C ) :   0.9094
B(  3-C ,  6-C ) :   0.9047 B(  3-C ,  8-H ) :   0.8965 B(  4-C ,  5-C ) :   0.9189
B(  4-C ,  9-H ) :   0.9253 B(  4-C , 10-H ) :   0.9187 B(  5-C ,  6-C ) :   0.9075
B(  5-C , 11-H ) :   0.8956 B(  6-C , 12-H ) :   0.9216 B(  6-C , 13-H ) :   0.9230

MP2 TOTAL ENERGY:     -323.972477405 Eh
FINAL SINGLE POINT ENERGY      -323.972477404887

DIPOLE MOMENT
-------------
                                X             Y             Z
Electronic contribution:     -3.11715      -3.17674      -0.25649
Nuclear contribution   :      3.88460       4.56599       0.25257
                        -----------------------------------------
Total Dipole Moment    :      0.76745       1.38925      -0.00392
                        -----------------------------------------
Magnitude (a.u.)       :      1.58714
Magnitude (Debye)      :      4.03418

                             ****ORCA TERMINATED NORMALLY****
TOTAL RUN TIME: 0 days 0 hours 8 minutes 25 seconds 478 msec
