                         Program Version 3.0.3 - RELEASE   -
|  1> ! RI-MP2 RIJK def2-TZVP def2-TZVP/C def2-TZVP/JK TIGHTSCF
|  2> % maxcore 2000
|  3> % mp2 density relaxed end
|  4> *xyz 0 1
|  5>  C       -0.3879719150     1.8380344981    -0.2830864812
|  6>  C       -0.0086219151     0.3899908210     0.0737728243
|  7>  C        0.7860108890    -0.2932210746    -0.9828028336
|  8>  C        2.0396941645    -0.8125947907    -1.0727554177
|  9>  C        3.1263254918    -0.8991002749    -0.0485264392
| 10>  C        3.4964368890    -2.3484297084     0.3054681066
| 11>  N        2.2239409530    -1.3259289822    -2.3609410941
| 12>  C        1.1071541256    -1.0939428721    -2.9619232597
| 13>  O        0.1764205544    -0.4719006911    -2.2064968871
| 14>  H        0.5059663310     2.4509535023    -0.4323233125
| 15>  H       -0.9752012174     1.8686032341    -1.2048994271
| 16>  H       -0.9837584681     2.2885704460     0.5161949346
| 17>  H        0.5748633607     0.3723604961     0.9995935563
| 18>  H       -0.9225821083    -0.1850287877     0.2723873080
| 19>  H        4.0163484326    -0.3865150162    -0.4343651047
| 20>  H        2.8215590390    -0.3578250582     0.8537087926
| 21>  H        2.6460241506    -2.8724913217     0.7532212371
| 22>  H        3.7925386686    -2.8950543847    -0.5937107178
| 23>  H        4.3276899407    -2.3758610532     1.0166005029
| 24>  H        0.8292405834    -1.3305235120    -3.9773707079
| 25> *
| 26>
| 27>                          ****END OF INPUT****

CARTESIAN COORDINATES (ANGSTROEM)
---------------------------------
  C     -0.387972    1.838034   -0.283086
  C     -0.008622    0.389991    0.073773
  C      0.786011   -0.293221   -0.982803
  C      2.039694   -0.812595   -1.072755
  C      3.126325   -0.899100   -0.048526
  C      3.496437   -2.348430    0.305468
  N      2.223941   -1.325929   -2.360941
  C      1.107154   -1.093943   -2.961923
  O      0.176421   -0.471901   -2.206497
  H      0.505966    2.450954   -0.432323
  H     -0.975201    1.868603   -1.204899
  H     -0.983758    2.288570    0.516195
  H      0.574863    0.372360    0.999594
  H     -0.922582   -0.185029    0.272387
  H      4.016348   -0.386515   -0.434365
  H      2.821559   -0.357825    0.853709
  H      2.646024   -2.872491    0.753221
  H      3.792539   -2.895054   -0.593711
  H      4.327690   -2.375861    1.016601
  H      0.829241   -1.330524   -3.977371

 Total Charge           Charge          ....    0
 Multiplicity           Mult            ....    1
 Number of Electrons    NEL             ....   68
 Basis Dimension        Dim             ....  345

ORBITAL ENERGIES
----------------

  NO   OCC          E(Eh)            E(eV)
   0   2.0000     -20.627108      -561.2922
   1   2.0000     -15.556661      -423.3183
   2   2.0000     -11.326172      -308.2008
   3   2.0000     -11.284262      -307.0604
   4   2.0000     -11.253133      -306.2133
   5   2.0000     -11.242846      -305.9334
   6   2.0000     -11.230189      -305.5890
   7   2.0000     -11.222895      -305.3905
   8   2.0000     -11.212200      -305.0995
   9   2.0000      -1.476478       -40.1770
  10   2.0000      -1.226392       -33.3718
  11   2.0000      -1.088956       -29.6320
  12   2.0000      -1.040602       -28.3162
  13   2.0000      -0.979898       -26.6644
  14   2.0000      -0.880497       -23.9595
  15   2.0000      -0.863111       -23.4865
  16   2.0000      -0.811882       -22.0924
  17   2.0000      -0.764743       -20.8097
  18   2.0000      -0.707374       -19.2486
  19   2.0000      -0.660320       -17.9682
  20   2.0000      -0.626403       -17.0453
  21   2.0000      -0.610391       -16.6096
  22   2.0000      -0.599855       -16.3229
  23   2.0000      -0.589010       -16.0278
  24   2.0000      -0.569524       -15.4975
  25   2.0000      -0.533957       -14.5297
  26   2.0000      -0.522756       -14.2249
  27   2.0000      -0.515187       -14.0189
  28   2.0000      -0.504959       -13.7406
  29   2.0000      -0.497855       -13.5473
  30   2.0000      -0.489998       -13.3335
  31   2.0000      -0.448773       -12.2117
  32   2.0000      -0.436048       -11.8655
  33   2.0000      -0.321075        -8.7369
  34   0.0000       0.129153         3.5144
  35   0.0000       0.145676         3.9640
  36   0.0000       0.161410         4.3922
  37   0.0000       0.178288         4.8515
  38   0.0000       0.180857         4.9214

MULLIKEN ATOMIC CHARGES
-----------------------
   0 C :   -0.388214
   1 C :   -0.206905
   2 C :    0.131378
   3 C :    0.025381
   4 C :   -0.210287
   5 C :   -0.385566
   6 N :   -0.287242
   7 C :    0.096232
   8 O :   -0.218535
   9 H :    0.130316
  10 H :    0.139651
  11 H :    0.134285
  12 H :    0.126446
  13 H :    0.130156
  14 H :    0.124866
  15 H :    0.108492
  16 H :    0.120126
  17 H :    0.146830
  18 H :    0.128324
  19 H :    0.154267
Sum of atomic charges:   -0.0000000

LOEWDIN ATOMIC CHARGES
----------------------
   0 C :   -0.306082
   1 C :   -0.258510
   2 C :   -0.227214
   3 C :   -0.233803
   4 C :   -0.254218
   5 C :   -0.308106
   6 N :    0.120322
   7 C :   -0.333004
   8 O :    0.345206
   9 H :    0.123529
  10 H :    0.125004
  11 H :    0.121725
  12 H :    0.149411
  13 H :    0.149045
  14 H :    0.147716
  15 H :    0.140535
  16 H :    0.120501
  17 H :    0.127420
  18 H :    0.119301
  19 H :    0.131222

  Mayer bond orders larger than 0.1
B(  0-C ,  1-C ) :   0.9167 B(  0-C ,  9-H ) :   0.9345 B(  0-C , 10-H ) :   0.9377
B(  0-C , 11-H ) :   0.9367 B(  1-C ,  2-C ) :   0.8906 B(  1-C , 12-H ) :   0.9460
B(  1-C , 13-H ) :   0.9237 B(  2-C ,  3-C ) :   1.5845 B(  2-C ,  8-O ) :   1.0096
B(  3-C ,  4-C ) :   0.9034 B(  3-C ,  6-N ) :   1.1686 B(  4-C ,  5-C ) :   0.9189
B(  4-C , 14-H ) :   0.9292 B(  4-C , 15-H ) :   0.9454 B(  5-C , 16-H ) :   0.9353
B(  5-C , 17-H ) :   0.9367 B(  5-C , 18-H ) :   0.9370 B(  6-N ,  7-C ) :   1.6598
B(  7-C ,  8-O ) :   1.0877 B(  7-C , 19-H ) :   0.9275

MP2 TOTAL ENERGY:     -402.500825207 Eh
FINAL SINGLE POINT ENERGY      -402.500825207288

DIPOLE MOMENT
-------------
                                X             Y             Z
Electronic contribution:     -1.79523      -2.04405      -8.13083
Nuclear contribution   :      1.34781       2.41167       8.62635
                        -----------------------------------------
Total Dipole Moment    :     -0.44741       0.36762       0.49552
                        -----------------------------------------
Magnitude (a.u.)       :      0.76215
Magnitude (Debye)      :      1.93722

                             ****ORCA TERMINATED NORMALLY****
TOTAL RUN TIME: 0 days 0 hours 18 minutes 7 seconds 916 msec
