                         Program Version 3.0.3 - RELEASE   -
|  1> ! RI-MP2 RIJK def2-TZVP def2-TZVP/C def2-TZVP/JK TIGHTSCF
|  2> % maxcore 2000
|  3> % mp2 density relaxed end
|  4> *xyz 0 1
|  5>  O        0.5645060647     0.4462272271    -0.9913622921
|  6>  C       -0.0550760407     0.2830604330     0.2784937102
|  7>  C       -1.4638528333    -0.2179573322     0.1503583919
|  8>  N       -1.8335885136    -1.3087363440    -0.7775692111
|  9>  C       -2.4824950810     0.0309016205    -0.8896322605
| 10>  C       -3.6007050676     0.1581189910     0.1843874953
| 11>  C       -3.6953846687    -1.0783541665     1.0636407524
| 12>  C       -2.5719417546    -0.1018995875     1.2603392060
| 13>  O       -2.3584949928     0.6279337611     2.4170684951
| 14>  H        0.1401718847     1.1947855681    -1.4238533816
| 15>  H        0.5642876202    -0.4454005246     0.8162239644
| 16>  H       -0.0468415271     1.2128801513     0.8642484917
| 17>  H       -1.0920393195    -1.3229473503    -1.4811916395
| 18>  H       -2.4248172046     0.5975281430    -1.8109049280
| 19>  H       -4.3803647133     0.9072023196     0.1551866351
| 20>  H       -4.4680423694    -0.9955307904     1.8226543676
| 21>  H       -3.5294258192    -2.0681163054     0.6577649260
| 22>  H       -2.1161467540     0.0143251562     3.1200193571
| 23> *
| 24>
| 25>                          ****END OF INPUT****

CARTESIAN COORDINATES (ANGSTROEM)
---------------------------------
  O      0.564506    0.446227   -0.991362
  C     -0.055076    0.283060    0.278494
  C     -1.463853   -0.217957    0.150358
  N     -1.833589   -1.308736   -0.777569
  C     -2.482495    0.030902   -0.889632
  C     -3.600705    0.158119    0.184387
  C     -3.695385   -1.078354    1.063641
  C     -2.571942   -0.101900    1.260339
  O     -2.358495    0.627934    2.417068
  H      0.140172    1.194786   -1.423853
  H      0.564288   -0.445401    0.816224
  H     -0.046842    1.212880    0.864248
  H     -1.092039   -1.322947   -1.481192
  H     -2.424817    0.597528   -1.810905
  H     -4.380365    0.907202    0.155187
  H     -4.468042   -0.995531    1.822654
  H     -3.529426   -2.068116    0.657765
  H     -2.116147    0.014325    3.120019

 Total Charge           Charge          ....    0
 Multiplicity           Mult            ....    1
 Number of Electrons    NEL             ....   68
 Basis Dimension        Dim             ....  333

ORBITAL ENERGIES
----------------

  NO   OCC          E(Eh)            E(eV)
   0   2.0000     -20.575572      -559.8898
   1   2.0000     -20.569162      -559.7153
   2   2.0000     -15.558483      -423.3679
   3   2.0000     -11.293362      -307.3080
   4   2.0000     -11.288425      -307.1737
   5   2.0000     -11.266055      -306.5650
   6   2.0000     -11.264591      -306.5251
   7   2.0000     -11.235088      -305.7223
   8   2.0000     -11.228231      -305.5357
   9   2.0000      -1.386496       -37.7285
  10   2.0000      -1.373237       -37.3677
  11   2.0000      -1.283851       -34.9354
  12   2.0000      -1.125727       -30.6326
  13   2.0000      -0.980105       -26.6700
  14   2.0000      -0.915832       -24.9210
  15   2.0000      -0.845345       -23.0030
  16   2.0000      -0.790337       -21.5062
  17   2.0000      -0.746033       -20.3006
  18   2.0000      -0.724022       -19.7016
  19   2.0000      -0.688589       -18.7375
  20   2.0000      -0.666374       -18.1330
  21   2.0000      -0.649289       -17.6680
  22   2.0000      -0.618937       -16.8421
  23   2.0000      -0.605691       -16.4817
  24   2.0000      -0.581569       -15.8253
  25   2.0000      -0.535646       -14.5757
  26   2.0000      -0.530757       -14.4426
  27   2.0000      -0.519288       -14.1305
  28   2.0000      -0.503931       -13.7126
  29   2.0000      -0.473577       -12.8867
  30   2.0000      -0.452695       -12.3185
  31   2.0000      -0.410918       -11.1816
  32   2.0000      -0.398835       -10.8528
  33   2.0000      -0.331214        -9.0128
  34   0.0000       0.127801         3.4776
  35   0.0000       0.133944         3.6448
  36   0.0000       0.170045         4.6272
  37   0.0000       0.180602         4.9144
  38   0.0000       0.183755         5.0002

MULLIKEN ATOMIC CHARGES
-----------------------
   0 O :   -0.471487
   1 C :   -0.040541
   2 C :    0.021269
   3 N :   -0.366453
   4 C :   -0.176769
   5 C :   -0.095671
   6 C :   -0.324230
   7 C :    0.190044
   8 O :   -0.461631
   9 H :    0.319700
  10 H :    0.114474
  11 H :    0.142661
  12 H :    0.226524
  13 H :    0.137010
  14 H :    0.147940
  15 H :    0.134414
  16 H :    0.169757
  17 H :    0.332986
Sum of atomic charges:    0.0000000

LOEWDIN ATOMIC CHARGES
----------------------
   0 O :   -0.041929
   1 C :   -0.310693
   2 C :   -0.241509
   3 N :    0.025269
   4 C :   -0.195059
   5 C :   -0.144261
   6 C :   -0.189162
   7 C :   -0.295270
   8 O :    0.029922
   9 H :    0.176041
  10 H :    0.136351
  11 H :    0.131719
  12 H :    0.176350
  13 H :    0.129824
  14 H :    0.141063
  15 H :    0.144035
  16 H :    0.139580
  17 H :    0.187729

  Mayer bond orders larger than 0.1
B(  0-O ,  1-C ) :   0.8861 B(  0-O ,  9-H ) :   0.8430 B(  1-C ,  2-C ) :   0.8866
B(  1-C , 10-H ) :   0.9222 B(  1-C , 11-H ) :   0.9444 B(  2-C ,  3-N ) :   0.9141
B(  2-C ,  4-C ) :   0.9600 B(  2-C ,  7-C ) :   0.8673 B(  3-N ,  4-C ) :   0.9465
B(  3-N , 12-H ) :   0.8588 B(  4-C ,  5-C ) :   0.8642 B(  4-C , 13-H ) :   0.9243
B(  5-C ,  6-C ) :   0.8775 B(  5-C ,  7-C ) :   0.9269 B(  5-C , 14-H ) :   0.9055
B(  6-C ,  7-C ) :   0.9185 B(  6-C , 15-H ) :   0.9267 B(  6-C , 16-H ) :   0.8848
B(  7-C ,  8-O ) :   1.0396 B(  8-O , 17-H ) :   0.8329

MP2 TOTAL ENERGY:     -438.269520639 Eh
FINAL SINGLE POINT ENERGY      -438.269520638746

DIPOLE MOMENT
-------------
                                X             Y             Z
Electronic contribution:      0.34452       0.35898       0.21572
Nuclear contribution   :     -0.41483       0.03844      -0.04891
                        -----------------------------------------
Total Dipole Moment    :     -0.07031       0.39743       0.16681
                        -----------------------------------------
Magnitude (a.u.)       :      0.43671
Magnitude (Debye)      :      1.11004

                             ****ORCA TERMINATED NORMALLY****
TOTAL RUN TIME: 0 days 0 hours 16 minutes 55 seconds 295 msec
