                         Program Version 3.0.3 - RELEASE   -
|  1> ! RI-MP2 RIJK def2-TZVP def2-TZVP/C def2-TZVP/JK TIGHTSCF
|  2> % maxcore 2000
|  3> % mp2 density relaxed end
|  4> *xyz 0 1
|  5>  N        0.0265330144     1.3269338652     0.2012574650
|  6>  C       -0.0672948866    -0.0258121970     0.0178067367
|  7>  N       -1.1934598912    -0.6334972550     0.0103169569
|  8>  C       -1.2664961243    -2.0621318699    -0.2136571324
|  9>  C       -0.0475673130    -2.7386764620    -0.8102555695
| 10>  N        0.5044710706    -2.1150945753    -2.0070224671
| 11>  C        1.2741609730    -2.0433287369    -0.7326733228
| 12>  C        1.2886756910    -0.6916123045    -0.1234912360
| 13>  O        2.2955529176    -0.1538984507     0.2901723153
| 14>  H        0.9245802421     1.6545020777     0.5234763502
| 15>  H       -0.7931772059     1.7863216435     0.5650436029
| 16>  H       -1.5098873422    -2.5521576865     0.7408513261
| 17>  H       -2.1258110285    -2.2547210967    -0.8705311447
| 18>  H       -0.0329428601    -3.8253752330    -0.7469511830
| 19>  H        0.9408686960    -2.8141254244    -2.6028834769
| 20>  H        2.1968437271    -2.6066528344    -0.6396315307
| 21> *
| 22>
| 23>                          ****END OF INPUT****

CARTESIAN COORDINATES (ANGSTROEM)
---------------------------------
  N      0.026533    1.326934    0.201257
  C     -0.067295   -0.025812    0.017807
  N     -1.193460   -0.633497    0.010317
  C     -1.266496   -2.062132   -0.213657
  C     -0.047567   -2.738676   -0.810256
  N      0.504471   -2.115095   -2.007022
  C      1.274161   -2.043329   -0.732673
  C      1.288676   -0.691612   -0.123491
  O      2.295553   -0.153898    0.290172
  H      0.924580    1.654502    0.523476
  H     -0.793177    1.786322    0.565044
  H     -1.509887   -2.552158    0.740851
  H     -2.125811   -2.254721   -0.870531
  H     -0.032943   -3.825375   -0.746951
  H      0.940869   -2.814125   -2.602883
  H      2.196844   -2.606653   -0.639632

 Total Charge           Charge          ....    0
 Multiplicity           Mult            ....    1
 Number of Electrons    NEL             ....   66
 Basis Dimension        Dim             ....  321

ORBITAL ENERGIES
----------------

  NO   OCC          E(Eh)            E(eV)
   0   2.0000     -20.570506      -559.7519
   1   2.0000     -15.586797      -424.1383
   2   2.0000     -15.565898      -423.5696
   3   2.0000     -15.546999      -423.0553
   4   2.0000     -11.351332      -308.8854
   5   2.0000     -11.321560      -308.0753
   6   2.0000     -11.287976      -307.1614
   7   2.0000     -11.284796      -307.0749
   8   2.0000     -11.264703      -306.5282
   9   2.0000      -1.412972       -38.4489
  10   2.0000      -1.300285       -35.3826
  11   2.0000      -1.262981       -34.3674
  12   2.0000      -1.169305       -31.8184
  13   2.0000      -0.996895       -27.1269
  14   2.0000      -0.973313       -26.4852
  15   2.0000      -0.864160       -23.5150
  16   2.0000      -0.843292       -22.9471
  17   2.0000      -0.746876       -20.3235
  18   2.0000      -0.722287       -19.6544
  19   2.0000      -0.709219       -19.2988
  20   2.0000      -0.669390       -18.2150
  21   2.0000      -0.641907       -17.4672
  22   2.0000      -0.609441       -16.5837
  23   2.0000      -0.597190       -16.2504
  24   2.0000      -0.584081       -15.8937
  25   2.0000      -0.570559       -15.5257
  26   2.0000      -0.514498       -14.0002
  27   2.0000      -0.506660       -13.7869
  28   2.0000      -0.487635       -13.2692
  29   2.0000      -0.477834       -13.0025
  30   2.0000      -0.409862       -11.1529
  31   2.0000      -0.392928       -10.6921
  32   2.0000      -0.357298        -9.7226
  33   0.0000       0.085967         2.3393
  34   0.0000       0.123489         3.3603
  35   0.0000       0.154577         4.2063
  36   0.0000       0.165383         4.5003
  37   0.0000       0.182510         4.9663

MULLIKEN ATOMIC CHARGES
-----------------------
   0 N :   -0.487207
   1 C :    0.147074
   2 N :   -0.249811
   3 C :   -0.095922
   4 C :   -0.030163
   5 N :   -0.381436
   6 C :   -0.071869
   7 C :    0.190844
   8 O :   -0.301615
   9 H :    0.272854
  10 H :    0.252609
  11 H :    0.118716
  12 H :    0.125067
  13 H :    0.138189
  14 H :    0.227859
  15 H :    0.144811
Sum of atomic charges:    0.0000000

LOEWDIN ATOMIC CHARGES
----------------------
   0 N :   -0.025127
   1 C :   -0.343720
   2 N :    0.106718
   3 C :   -0.282686
   4 C :   -0.253567
   5 N :    0.027903
   6 C :   -0.207051
   7 C :   -0.276482
   8 O :    0.155221
   9 H :    0.176869
  10 H :    0.171390
  11 H :    0.141793
  12 H :    0.144421
  13 H :    0.142631
  14 H :    0.174383
  15 H :    0.147303

  Mayer bond orders larger than 0.1
B(  0-N ,  1-C ) :   1.1366 B(  0-N ,  9-H ) :   0.8520 B(  0-N , 10-H ) :   0.8633
B(  1-C ,  2-N ) :   1.7646 B(  1-C ,  7-C ) :   0.9084 B(  2-N ,  3-C ) :   0.9850
B(  3-C ,  4-C ) :   0.9322 B(  3-C , 11-H ) :   0.9291 B(  3-C , 12-H ) :   0.9095
B(  4-C ,  5-N ) :   0.8925 B(  4-C ,  6-C ) :   0.8586 B(  4-C , 13-H ) :   0.9091
B(  5-N ,  6-C ) :   0.9002 B(  5-N , 14-H ) :   0.8637 B(  6-C ,  7-C ) :   0.9728
B(  6-C , 15-H ) :   0.9276 B(  7-C ,  8-O ) :   1.8922

MP2 TOTAL ENERGY:     -433.351248940 Eh
FINAL SINGLE POINT ENERGY      -433.351248940477

DIPOLE MOMENT
-------------
                                X             Y             Z
Electronic contribution:      2.55190       2.45003       0.53386
Nuclear contribution   :     -2.51900      -3.43289      -0.42688
                        -----------------------------------------
Total Dipole Moment    :      0.03290      -0.98286       0.10698
                        -----------------------------------------
Magnitude (a.u.)       :      0.98921
Magnitude (Debye)      :      2.51438

                             ****ORCA TERMINATED NORMALLY****
TOTAL RUN TIME: 0 days 0 hours 16 minutes 21 seconds 3 msec
