                         Program Version 3.0.3 - RELEASE   -
|  1> ! RI-MP2 RIJK def2-TZVP def2-TZVP/C def2-TZVP/JK TIGHTSCF
|  2> % maxcore 2000
|  3> % mp2 density relaxed end
|  4> *xyz 0 1
|  5>  C       -0.0605295431     1.4145764889    -0.0004651022
|  6>  C        0.0400979403    -0.0821528313    -0.0171070405
|  7>  C        0.9607851582    -0.9397520838    -0.8891265447
|  8>  C        0.0805742173    -2.1429515453    -0.4716467194
|  9>  C        0.3322412266    -2.2993210104     1.0579873547
| 10>  O        1.6237068553    -2.5579499519     1.5533108125
| 11>  C       -0.3245162504    -0.9363791738     1.2170005523
| 12>  C       -1.0662781640    -1.1126983234    -0.0994038198
| 13>  C       -2.5188507145    -1.0407881968    -0.4394546149
| 14>  H        0.8393549996     1.8707691949     0.4295107242
| 15>  H       -0.1847205503     1.8174652163    -1.0123234533
| 16>  H       -0.9143032204     1.7509673919     0.5975854598
| 17>  H        0.8347385098    -0.6955606479    -1.9483543515
| 18>  H        2.0357257271    -0.9875080461    -0.6643001553
| 19>  H       -0.0165271735    -3.0183670518    -1.1109789493
| 20>  H       -0.3064079504    -3.0879248331     1.4667410322
| 21>  H        2.1807762532    -1.8024574414     1.3415772830
| 22>  H       -0.6954867405    -0.4701812373     2.1225392512
| 23>  H       -2.9810589505    -0.1559935209     0.0117749737
| 24>  H       -2.6788184020    -0.9814631056    -1.5224804445
| 25>  H       -3.0639281379    -1.9185280914    -0.0730806781
| 26> *
| 27>
| 28>                          ****END OF INPUT****

CARTESIAN COORDINATES (ANGSTROEM)
---------------------------------
  C     -0.060530    1.414576   -0.000465
  C      0.040098   -0.082153   -0.017107
  C      0.960785   -0.939752   -0.889127
  C      0.080574   -2.142952   -0.471647
  C      0.332241   -2.299321    1.057987
  O      1.623707   -2.557950    1.553311
  C     -0.324516   -0.936379    1.217001
  C     -1.066278   -1.112698   -0.099404
  C     -2.518851   -1.040788   -0.439455
  H      0.839355    1.870769    0.429511
  H     -0.184721    1.817465   -1.012323
  H     -0.914303    1.750967    0.597585
  H      0.834739   -0.695561   -1.948354
  H      2.035726   -0.987508   -0.664300
  H     -0.016527   -3.018367   -1.110979
  H     -0.306408   -3.087925    1.466741
  H      2.180776   -1.802457    1.341577
  H     -0.695487   -0.470181    2.122539
  H     -2.981059   -0.155994    0.011775
  H     -2.678818   -0.981463   -1.522480
  H     -3.063928   -1.918528   -0.073081

 Total Charge           Charge          ....    0
 Multiplicity           Mult            ....    1
 Number of Electrons    NEL             ....   68
 Basis Dimension        Dim             ....  351

ORBITAL ENERGIES
----------------

  NO   OCC          E(Eh)            E(eV)
   0   2.0000     -20.547618      -559.1291
   1   2.0000     -11.276947      -306.8613
   2   2.0000     -11.239723      -305.8484
   3   2.0000     -11.238137      -305.8053
   4   2.0000     -11.231676      -305.6295
   5   2.0000     -11.226139      -305.4788
   6   2.0000     -11.225972      -305.4742
   7   2.0000     -11.225495      -305.4612
   8   2.0000     -11.222955      -305.3921
   9   2.0000      -1.357692       -36.9447
  10   2.0000      -1.228095       -33.4182
  11   2.0000      -1.007104       -27.4047
  12   2.0000      -0.995465       -27.0880
  13   2.0000      -0.963670       -26.2228
  14   2.0000      -0.905246       -24.6330
  15   2.0000      -0.820405       -22.3244
  16   2.0000      -0.751544       -20.4506
  17   2.0000      -0.699888       -19.0449
  18   2.0000      -0.685236       -18.6462
  19   2.0000      -0.628349       -17.0982
  20   2.0000      -0.622588       -16.9415
  21   2.0000      -0.599648       -16.3173
  22   2.0000      -0.589578       -16.0432
  23   2.0000      -0.565500       -15.3880
  24   2.0000      -0.557067       -15.1586
  25   2.0000      -0.553512       -15.0618
  26   2.0000      -0.534821       -14.5532
  27   2.0000      -0.532421       -14.4879
  28   2.0000      -0.504436       -13.7264
  29   2.0000      -0.460762       -12.5380
  30   2.0000      -0.444143       -12.0857
  31   2.0000      -0.409932       -11.1548
  32   2.0000      -0.379256       -10.3201
  33   2.0000      -0.356950        -9.7131
  34   0.0000       0.127413         3.4671
  35   0.0000       0.147853         4.0233
  36   0.0000       0.163400         4.4463
  37   0.0000       0.177743         4.8366
  38   0.0000       0.181374         4.9354

MULLIKEN ATOMIC CHARGES
-----------------------
   0 C :   -0.435205
   1 C :   -0.010533
   2 C :   -0.236753
   3 C :   -0.051251
   4 C :    0.059007
   5 O :   -0.462744
   6 C :   -0.176727
   7 C :    0.024331
   8 C :   -0.412789
   9 H :    0.137107
  10 H :    0.134094
  11 H :    0.132090
  12 H :    0.113614
  13 H :    0.094453
  14 H :    0.127194
  15 H :    0.105519
  16 H :    0.315066
  17 H :    0.130938
  18 H :    0.134753
  19 H :    0.137302
  20 H :    0.140533
Sum of atomic charges:   -0.0000000

LOEWDIN ATOMIC CHARGES
----------------------
   0 C :   -0.272761
   1 C :   -0.199531
   2 C :   -0.182523
   3 C :   -0.126770
   4 C :   -0.299894
   5 O :   -0.013873
   6 C :   -0.124117
   7 C :   -0.137791
   8 C :   -0.277372
   9 H :    0.129258
  10 H :    0.128307
  11 H :    0.130936
  12 H :    0.141874
  13 H :    0.117939
  14 H :    0.131296
  15 H :    0.149606
  16 H :    0.172414
  17 H :    0.140294
  18 H :    0.132515
  19 H :    0.129709
  20 H :    0.130484

  Mayer bond orders larger than 0.1
B(  0-C ,  1-C ) :   0.8991 B(  0-C ,  9-H ) :   0.9432 B(  0-C , 10-H ) :   0.9429
B(  0-C , 11-H ) :   0.9343 B(  1-C ,  2-C ) :   0.9498 B(  1-C ,  6-C ) :   0.8192
B(  1-C ,  7-C ) :   0.8122 B(  2-C ,  3-C ) :   0.8971 B(  2-C , 12-H ) :   0.9161
B(  2-C , 13-H ) :   0.9267 B(  3-C ,  4-C ) :   0.9206 B(  3-C ,  7-C ) :   0.8723
B(  3-C , 14-H ) :   0.9144 B(  4-C ,  5-O ) :   0.9809 B(  4-C ,  6-C ) :   0.9364
B(  4-C , 15-H ) :   0.9443 B(  5-O , 16-H ) :   0.8404 B(  6-C ,  7-C ) :   0.7823
B(  6-C , 17-H ) :   0.9313 B(  7-C ,  8-C ) :   0.8014 B(  8-C , 18-H ) :   0.9475
B(  8-C , 19-H ) :   0.9449 B(  8-C , 20-H ) :   0.9454

MP2 TOTAL ENERGY:     -386.380162855 Eh
FINAL SINGLE POINT ENERGY      -386.380162855221

DIPOLE MOMENT
-------------
                                X             Y             Z
Electronic contribution:      3.33412      -4.32102       2.51656
Nuclear contribution   :     -3.73837       4.96003      -2.92937
                        -----------------------------------------
Total Dipole Moment    :     -0.40425       0.63901      -0.41281
                        -----------------------------------------
Magnitude (a.u.)       :      0.86149
Magnitude (Debye)      :      2.18972

                             ****ORCA TERMINATED NORMALLY****
TOTAL RUN TIME: 0 days 0 hours 19 minutes 10 seconds 434 msec
