                         Program Version 3.0.3 - RELEASE   -
|  1> ! RI-MP2 RIJK def2-TZVP def2-TZVP/C def2-TZVP/JK TIGHTSCF
|  2> % maxcore 2000
|  3> % mp2 density relaxed end
|  4> *xyz 0 1
|  5>  C        1.1453626850     0.4467964806     0.4152009743
|  6>  C       -0.2574525801    -0.0542904624     0.2207423250
|  7>  N       -1.2481749468     0.2530442407     0.9723084466
|  8>  O       -0.8531365126     1.0545165240     2.0501351728
|  9>  C       -0.6308768404    -0.9203005067    -0.9379123711
| 10>  O        0.2821928177    -1.0001952046    -2.0384511603
| 11>  C        0.0051981237    -2.2086499354    -1.3097781502
| 12>  C        1.1574225366    -2.8066206341    -0.5327674438
| 13>  C       -0.8279933511    -3.2146910305    -2.0776332654
| 14>  H        1.7425810484     0.2577745672    -0.4763511052
| 15>  H        1.1220834230     1.5193908227     0.6266018609
| 16>  H        1.6186143055    -0.0296260932     1.2811538591
| 17>  H       -1.6922700373     1.2345426920     2.4872269665
| 18>  H       -1.6779481116    -0.8061186181    -1.2176053067
| 19>  H        1.7479741656    -2.0516570690    -0.0155472629
| 20>  H        0.7824785822    -3.5203707829     0.2084564158
| 21>  H        1.8217401882    -3.3523582082    -1.2119841100
| 22>  H       -0.1995946305    -3.7656150020    -2.7861964055
| 23>  H       -1.2840898799    -3.9420082344    -1.3977828886
| 24>  H       -1.6205315255    -2.7157398755    -2.6399406712
| 25> *
| 26>
| 27>                          ****END OF INPUT****

CARTESIAN COORDINATES (ANGSTROEM)
---------------------------------
  C      1.145363    0.446796    0.415201
  C     -0.257453   -0.054290    0.220742
  N     -1.248175    0.253044    0.972308
  O     -0.853137    1.054517    2.050135
  C     -0.630877   -0.920301   -0.937912
  O      0.282193   -1.000195   -2.038451
  C      0.005198   -2.208650   -1.309778
  C      1.157423   -2.806621   -0.532767
  C     -0.827993   -3.214691   -2.077633
  H      1.742581    0.257775   -0.476351
  H      1.122083    1.519391    0.626602
  H      1.618614   -0.029626    1.281154
  H     -1.692270    1.234543    2.487227
  H     -1.677948   -0.806119   -1.217605
  H      1.747974   -2.051657   -0.015547
  H      0.782479   -3.520371    0.208456
  H      1.821740   -3.352358   -1.211984
  H     -0.199595   -3.765615   -2.786196
  H     -1.284090   -3.942008   -1.397783
  H     -1.620532   -2.715740   -2.639941

 Total Charge           Charge          ....    0
 Multiplicity           Mult            ....    1
 Number of Electrons    NEL             ....   70
 Basis Dimension        Dim             ....  345

ORBITAL ENERGIES
----------------

  NO   OCC          E(Eh)            E(eV)
   0   2.0000     -20.594235      -560.3976
   1   2.0000     -20.569304      -559.7192
   2   2.0000     -15.617043      -424.9613
   3   2.0000     -11.300932      -307.5140
   4   2.0000     -11.292123      -307.2743
   5   2.0000     -11.284374      -307.0634
   6   2.0000     -11.229041      -305.5577
   7   2.0000     -11.227674      -305.5206
   8   2.0000     -11.226960      -305.5011
   9   2.0000      -1.423889       -38.7460
  10   2.0000      -1.414641       -38.4943
  11   2.0000      -1.169861       -31.8335
  12   2.0000      -1.046871       -28.4868
  13   2.0000      -0.986585       -26.8463
  14   2.0000      -0.953944       -25.9581
  15   2.0000      -0.926023       -25.1984
  16   2.0000      -0.799685       -21.7605
  17   2.0000      -0.736213       -20.0334
  18   2.0000      -0.698295       -19.0016
  19   2.0000      -0.687739       -18.7143
  20   2.0000      -0.643109       -17.4999
  21   2.0000      -0.616362       -16.7721
  22   2.0000      -0.610974       -16.6255
  23   2.0000      -0.609746       -16.5920
  24   2.0000      -0.582424       -15.8486
  25   2.0000      -0.559682       -15.2297
  26   2.0000      -0.552125       -15.0241
  27   2.0000      -0.547344       -14.8940
  28   2.0000      -0.537529       -14.6269
  29   2.0000      -0.518418       -14.1069
  30   2.0000      -0.503526       -13.7016
  31   2.0000      -0.456396       -12.4192
  32   2.0000      -0.449296       -12.2260
  33   2.0000      -0.435025       -11.8376
  34   2.0000      -0.368742       -10.0340
  35   0.0000       0.131872         3.5884
  36   0.0000       0.141342         3.8461
  37   0.0000       0.149806         4.0764
  38   0.0000       0.169181         4.6036
  39   0.0000       0.181924         4.9504

MULLIKEN ATOMIC CHARGES
-----------------------
   0 C :   -0.441492
   1 C :    0.062805
   2 N :   -0.103647
   3 O :   -0.364913
   4 C :    0.008962
   5 O :   -0.343187
   6 C :    0.201534
   7 C :   -0.389913
   8 C :   -0.395880
   9 H :    0.171339
  10 H :    0.162063
  11 H :    0.149439
  12 H :    0.337393
  13 H :    0.120247
  14 H :    0.145071
  15 H :    0.136269
  16 H :    0.136133
  17 H :    0.134256
  18 H :    0.131838
  19 H :    0.141680
Sum of atomic charges:   -0.0000000

LOEWDIN ATOMIC CHARGES
----------------------
   0 C :   -0.286850
   1 C :   -0.289892
   2 N :    0.026269
   3 O :   -0.066722
   4 C :   -0.223845
   5 O :    0.183382
   6 C :   -0.339906
   7 C :   -0.262852
   8 C :   -0.265655
   9 H :    0.136214
  10 H :    0.139805
  11 H :    0.137262
  12 H :    0.171018
  13 H :    0.149808
  14 H :    0.131804
  15 H :    0.134327
  16 H :    0.132205
  17 H :    0.130363
  18 H :    0.131177
  19 H :    0.132089

  Mayer bond orders larger than 0.1
B(  0-C ,  1-C ) :   0.9306 B(  0-C ,  9-H ) :   0.9281 B(  0-C , 10-H ) :   0.9126
B(  0-C , 11-H ) :   0.9187 B(  1-C ,  2-N ) :   1.7897 B(  1-C ,  4-C ) :   0.9534
B(  2-N ,  3-O ) :   0.8209 B(  3-O , 12-H ) :   0.8441 B(  4-C ,  5-O ) :   0.9003
B(  4-C ,  6-C ) :   0.9433 B(  4-C , 13-H ) :   0.9124 B(  5-O ,  6-C ) :   0.8657
B(  6-C ,  7-C ) :   0.9048 B(  6-C ,  8-C ) :   0.9000 B(  7-C , 14-H ) :   0.9360
B(  7-C , 15-H ) :   0.9286 B(  7-C , 16-H ) :   0.9352 B(  8-C , 17-H ) :   0.9355
B(  8-C , 18-H ) :   0.9290 B(  8-C , 19-H ) :   0.9370

MP2 TOTAL ENERGY:     -439.512108916 Eh
FINAL SINGLE POINT ENERGY      -439.512108916388

DIPOLE MOMENT
-------------
                                X             Y             Z
Electronic contribution:     -3.65894       6.19786       1.85344
Nuclear contribution   :      3.57322      -6.64077      -1.44414
                        -----------------------------------------
Total Dipole Moment    :     -0.08572      -0.44291       0.40931
                        -----------------------------------------
Magnitude (a.u.)       :      0.60914
Magnitude (Debye)      :      1.54830

                             ****ORCA TERMINATED NORMALLY****
TOTAL RUN TIME: 0 days 0 hours 16 minutes 32 seconds 783 msec
