                         Program Version 3.0.3 - RELEASE   -
|  1> ! RI-MP2 RIJK def2-TZVP def2-TZVP/C def2-TZVP/JK TIGHTSCF
|  2> % maxcore 2000
|  3> % mp2 density relaxed end
|  4> *xyz 0 1
|  5>  C       -0.1154553932     1.5042626625     0.0122634929
|  6>  C        0.0162158147    -0.0071922693     0.0037225209
|  7>  O       -1.3144514468    -0.5477480725     0.0109725620
|  8>  C       -1.4522769001    -1.8758154905     0.0056404498
|  9>  N       -0.3580836175    -2.6401490039    -0.0060497562
| 10>  C       -0.5708530025    -3.9585773371    -0.0104200875
| 11>  C       -1.8416600568    -4.5126544661    -0.0033290947
| 12>  C       -2.8998938937    -3.6050655292     0.0088643113
| 13>  N       -2.7257218165    -2.2883398456     0.0135210752
| 14>  H        0.8779097841     1.9626568661     0.0070545579
| 15>  H       -0.6626426695     1.8522917513    -0.8681880151
| 16>  H       -0.6492724016     1.8434483246     0.9042974093
| 17>  H        0.5484826246    -0.3655786550    -0.8835946946
| 18>  H        0.5616883310    -0.3744038147     0.8793303364
| 19>  H        0.3180754055    -4.5858542594    -0.0200221032
| 20>  H       -2.0027601439    -5.5827937228    -0.0069997835
| 21>  H       -3.9318176977    -3.9506730286     0.0151138488
| 22> *
| 23>
| 24>                          ****END OF INPUT****

CARTESIAN COORDINATES (ANGSTROEM)
---------------------------------
  C     -0.115455    1.504263    0.012263
  C      0.016216   -0.007192    0.003723
  O     -1.314451   -0.547748    0.010973
  C     -1.452277   -1.875815    0.005640
  N     -0.358084   -2.640149   -0.006050
  C     -0.570853   -3.958577   -0.010420
  C     -1.841660   -4.512654   -0.003329
  C     -2.899894   -3.605066    0.008864
  N     -2.725722   -2.288340    0.013521
  H      0.877910    1.962657    0.007055
  H     -0.662643    1.852292   -0.868188
  H     -0.649272    1.843448    0.904297
  H      0.548483   -0.365579   -0.883595
  H      0.561688   -0.374404    0.879330
  H      0.318075   -4.585854   -0.020022
  H     -2.002760   -5.582794   -0.007000
  H     -3.931818   -3.950673    0.015114

 Total Charge           Charge          ....    0
 Multiplicity           Mult            ....    1
 Number of Electrons    NEL             ....   66
 Basis Dimension        Dim             ....  327

ORBITAL ENERGIES
----------------

  NO   OCC          E(Eh)            E(eV)
   0   2.0000     -20.588414      -560.2392
   1   2.0000     -15.565588      -423.5612
   2   2.0000     -15.562783      -423.4848
   3   2.0000     -11.370406      -309.4045
   4   2.0000     -11.300547      -307.5035
   5   2.0000     -11.299189      -307.4666
   6   2.0000     -11.282368      -307.0089
   7   2.0000     -11.236502      -305.7608
   8   2.0000     -11.218273      -305.2647
   9   2.0000      -1.436744       -39.0958
  10   2.0000      -1.295255       -35.2457
  11   2.0000      -1.199390       -32.6371
  12   2.0000      -1.070420       -29.1276
  13   2.0000      -1.021620       -27.7997
  14   2.0000      -0.907532       -24.6952
  15   2.0000      -0.881996       -24.0003
  16   2.0000      -0.833004       -22.6672
  17   2.0000      -0.746611       -20.3163
  18   2.0000      -0.714100       -19.4316
  19   2.0000      -0.675483       -18.3808
  20   2.0000      -0.671388       -18.2694
  21   2.0000      -0.611753       -16.6466
  22   2.0000      -0.601604       -16.3705
  23   2.0000      -0.592848       -16.1322
  24   2.0000      -0.563275       -15.3275
  25   2.0000      -0.541824       -14.7438
  26   2.0000      -0.529458       -14.4073
  27   2.0000      -0.505003       -13.7418
  28   2.0000      -0.487023       -13.2526
  29   2.0000      -0.473558       -12.8862
  30   2.0000      -0.427310       -11.6277
  31   2.0000      -0.411055       -11.1854
  32   2.0000      -0.351338        -9.5604
  33   0.0000       0.093730         2.5505
  34   0.0000       0.134577         3.6620
  35   0.0000       0.142320         3.8727
  36   0.0000       0.158468         4.3121
  37   0.0000       0.178038         4.8447

MULLIKEN ATOMIC CHARGES
-----------------------
   0 C :   -0.360450
   1 C :   -0.052591
   2 O :   -0.219448
   3 C :    0.335539
   4 N :   -0.288535
   5 C :   -0.055263
   6 C :   -0.122718
   7 C :   -0.039911
   8 N :   -0.235574
   9 H :    0.127345
  10 H :    0.133896
  11 H :    0.133893
  12 H :    0.114550
  13 H :    0.114553
  14 H :    0.133961
  15 H :    0.143120
  16 H :    0.137633
Sum of atomic charges:   -0.0000000

LOEWDIN ATOMIC CHARGES
----------------------
   0 C :   -0.315108
   1 C :   -0.313022
   2 O :    0.270931
   3 C :   -0.423351
   4 N :    0.133765
   5 C :   -0.200245
   6 C :   -0.169596
   7 C :   -0.198702
   8 N :    0.153207
   9 H :    0.126693
  10 H :    0.125622
  11 H :    0.125621
  12 H :    0.125651
  13 H :    0.125652
  14 H :    0.140928
  15 H :    0.150147
  16 H :    0.141807

  Mayer bond orders larger than 0.1
B(  0-C ,  1-C ) :   0.9415 B(  0-C ,  9-H ) :   0.9348 B(  0-C , 10-H ) :   0.9340
B(  0-C , 11-H ) :   0.9340 B(  1-C ,  2-O ) :   0.8378 B(  1-C , 12-H ) :   0.9278
B(  1-C , 13-H ) :   0.9278 B(  2-O ,  3-C ) :   1.1700 B(  3-C ,  4-N ) :   1.3184
B(  3-C ,  8-N ) :   1.3765 B(  4-N ,  5-C ) :   1.4013 B(  5-C ,  6-C ) :   1.3533
B(  5-C , 14-H ) :   0.9447 B(  6-C ,  7-C ) :   1.2977 B(  6-C , 15-H ) :   0.9135
B(  7-C ,  8-N ) :   1.4320 B(  7-C , 16-H ) :   0.9442

MP2 TOTAL ENERGY:     -417.348611546 Eh
FINAL SINGLE POINT ENERGY      -417.348611546348

DIPOLE MOMENT
-------------
                                X             Y             Z
Electronic contribution:     -4.03937      -6.31924      -0.00110
Nuclear contribution   :      4.52845       5.69035      -0.00532
                        -----------------------------------------
Total Dipole Moment    :      0.48908      -0.62889      -0.00642
                        -----------------------------------------
Magnitude (a.u.)       :      0.79671
Magnitude (Debye)      :      2.02507

                             ****ORCA TERMINATED NORMALLY****
TOTAL RUN TIME: 0 days 0 hours 14 minutes 56 seconds 876 msec
