                         Program Version 3.0.3 - RELEASE   -
|  1> ! RI-MP2 RIJK def2-TZVP def2-TZVP/C def2-TZVP/JK TIGHTSCF
|  2> % maxcore 2000
|  3> % mp2 density relaxed end
|  4> *xyz 0 1
|  5>  C       -0.4104494730     2.5842633276    -1.6438767598
|  6>  C        0.0450249040     1.3551006696    -0.8436213938
|  7>  C       -1.1400771684     0.5930439872    -0.2261910022
|  8>  O       -1.9050104356     1.3745786725     0.6764847183
|  9>  C        0.8383184428     0.4233789301    -1.7360812106
| 10>  O        2.1463306657     0.8448368321    -2.1436973440
| 11>  C        2.0345567871    -0.3542689478    -1.3526930076
| 12>  C        2.6435455246    -0.2803411119     0.0311254339
| 13>  C        2.3464081725    -1.6278695299    -2.1119764406
| 14>  H        0.4510842231     3.0899951130    -2.0877138374
| 15>  H       -1.0892576999     2.2997207800    -2.4577388753
| 16>  H       -0.9259137247     3.3063324848    -1.0026493886
| 17>  H        0.6813261430     1.6990578553    -0.0223645892
| 18>  H       -1.7732134068     0.1789715311    -1.0290465495
| 19>  H       -0.7682614793    -0.2545689949     0.3593010102
| 20>  H       -2.3746544234     2.0421549885     0.1679012114
| 21>  H        0.2467335533     0.0118947742    -2.5608372137
| 22>  H        2.4527373201     0.6794987869     0.5126358139
| 23>  H        2.2503412097    -1.0781431633     0.6706974257
| 24>  H        3.7292266963    -0.4127253074    -0.0333638972
| 25>  H        3.4295006367    -1.7525469201    -2.2197581471
| 26>  H        1.9605166385    -2.5041929172    -1.5797794138
| 27>  H        1.9049312136    -1.6035803702    -3.1111851430
| 28> *
| 29>
| 30>                          ****END OF INPUT****

CARTESIAN COORDINATES (ANGSTROEM)
---------------------------------
  C     -0.410449    2.584263   -1.643877
  C      0.045025    1.355101   -0.843621
  C     -1.140077    0.593044   -0.226191
  O     -1.905010    1.374579    0.676485
  C      0.838318    0.423379   -1.736081
  O      2.146331    0.844837   -2.143697
  C      2.034557   -0.354269   -1.352693
  C      2.643546   -0.280341    0.031125
  C      2.346408   -1.627870   -2.111976
  H      0.451084    3.089995   -2.087714
  H     -1.089258    2.299721   -2.457739
  H     -0.925914    3.306332   -1.002649
  H      0.681326    1.699058   -0.022365
  H     -1.773213    0.178972   -1.029047
  H     -0.768261   -0.254569    0.359301
  H     -2.374654    2.042155    0.167901
  H      0.246734    0.011895   -2.560837
  H      2.452737    0.679499    0.512636
  H      2.250341   -1.078143    0.670697
  H      3.729227   -0.412725   -0.033364
  H      3.429501   -1.752547   -2.219758
  H      1.960517   -2.504193   -1.579779
  H      1.904931   -1.603580   -3.111185

 Total Charge           Charge          ....    0
 Multiplicity           Mult            ....    1
 Number of Electrons    NEL             ....   72
 Basis Dimension        Dim             ....  363

ORBITAL ENERGIES
----------------

  NO   OCC          E(Eh)            E(eV)
   0   2.0000     -20.559080      -559.4410
   1   2.0000     -20.558433      -559.4234
   2   2.0000     -11.292041      -307.2721
   3   2.0000     -11.281644      -306.9891
   4   2.0000     -11.279827      -306.9397
   5   2.0000     -11.234556      -305.7078
   6   2.0000     -11.223964      -305.4196
   7   2.0000     -11.223444      -305.4054
   8   2.0000     -11.221023      -305.3396
   9   2.0000      -1.404229       -38.2110
  10   2.0000      -1.363704       -37.1083
  11   2.0000      -1.076944       -29.3051
  12   2.0000      -1.040841       -28.3227
  13   2.0000      -0.950515       -25.8648
  14   2.0000      -0.934306       -25.4238
  15   2.0000      -0.893781       -24.3210
  16   2.0000      -0.804689       -21.8967
  17   2.0000      -0.761698       -20.7269
  18   2.0000      -0.705712       -19.2034
  19   2.0000      -0.662845       -18.0369
  20   2.0000      -0.651574       -17.7302
  21   2.0000      -0.613673       -16.6989
  22   2.0000      -0.609245       -16.5784
  23   2.0000      -0.596003       -16.2181
  24   2.0000      -0.575690       -15.6653
  25   2.0000      -0.564165       -15.3517
  26   2.0000      -0.546597       -14.8737
  27   2.0000      -0.541749       -14.7417
  28   2.0000      -0.529190       -14.4000
  29   2.0000      -0.517089       -14.0707
  30   2.0000      -0.509076       -13.8527
  31   2.0000      -0.487875       -13.2758
  32   2.0000      -0.475420       -12.9368
  33   2.0000      -0.447839       -12.1863
  34   2.0000      -0.429649       -11.6913
  35   2.0000      -0.410429       -11.1684
  36   0.0000       0.129425         3.5218
  37   0.0000       0.138261         3.7623
  38   0.0000       0.158986         4.3262
  39   0.0000       0.171961         4.6793
  40   0.0000       0.182471         4.9653

MULLIKEN ATOMIC CHARGES
-----------------------
   0 C :   -0.457055
   1 C :    0.021251
   2 C :   -0.084767
   3 O :   -0.468304
   4 C :   -0.002183
   5 O :   -0.347353
   6 C :    0.171190
   7 C :   -0.396244
   8 C :   -0.397700
   9 H :    0.157697
  10 H :    0.126063
  11 H :    0.130992
  12 H :    0.081328
  13 H :    0.105736
  14 H :    0.121289
  15 H :    0.318523
  16 H :    0.107316
  17 H :    0.140164
  18 H :    0.132074
  19 H :    0.138568
  20 H :    0.134897
  21 H :    0.128221
  22 H :    0.138298
Sum of atomic charges:    0.0000000

LOEWDIN ATOMIC CHARGES
----------------------
   0 C :   -0.293990
   1 C :   -0.281429
   2 C :   -0.322057
   3 O :   -0.042810
   4 C :   -0.235129
   5 O :    0.176518
   6 C :   -0.346125
   7 C :   -0.267091
   8 C :   -0.267897
   9 H :    0.133546
  10 H :    0.123850
  11 H :    0.119879
  12 H :    0.156958
  13 H :    0.118429
  14 H :    0.131600
  15 H :    0.171692
  16 H :    0.141580
  17 H :    0.128833
  18 H :    0.131203
  19 H :    0.132132
  20 H :    0.129847
  21 H :    0.129670
  22 H :    0.130791

  Mayer bond orders larger than 0.1
B(  0-C ,  1-C ) :   0.8915 B(  0-C ,  9-H ) :   0.9360 B(  0-C , 10-H ) :   0.9317
B(  0-C , 11-H ) :   0.9429 B(  1-C ,  2-C ) :   0.9065 B(  1-C ,  4-C ) :   0.8709
B(  1-C , 12-H ) :   0.9154 B(  2-C ,  3-O ) :   0.9438 B(  2-C , 13-H ) :   0.9338
B(  2-C , 14-H ) :   0.9287 B(  3-O , 15-H ) :   0.8472 B(  4-C ,  5-O ) :   0.8380
B(  4-C ,  6-C ) :   0.9963 B(  4-C , 16-H ) :   0.8925 B(  5-O ,  6-C ) :   0.9239
B(  6-C ,  7-C ) :   0.8934 B(  6-C ,  8-C ) :   0.8928 B(  7-C , 17-H ) :   0.9413
B(  7-C , 18-H ) :   0.9290 B(  7-C , 19-H ) :   0.9337 B(  8-C , 20-H ) :   0.9366
B(  8-C , 21-H ) :   0.9270 B(  8-C , 22-H ) :   0.9394

MP2 TOTAL ENERGY:     -424.714639309 Eh
FINAL SINGLE POINT ENERGY      -424.714639309261

DIPOLE MOMENT
-------------
                                X             Y             Z
Electronic contribution:     -0.66208       1.70700      -0.09392
Nuclear contribution   :      0.40107      -2.06052      -0.11065
                        -----------------------------------------
Total Dipole Moment    :     -0.26101      -0.35351      -0.20457
                        -----------------------------------------
Magnitude (a.u.)       :      0.48471
Magnitude (Debye)      :      1.23204

                             ****ORCA TERMINATED NORMALLY****
TOTAL RUN TIME: 0 days 0 hours 18 minutes 17 seconds 820 msec
