                         Program Version 3.0.3 - RELEASE   -
|  1> ! RI-MP2 RIJK def2-TZVP def2-TZVP/C def2-TZVP/JK TIGHTSCF
|  2> % maxcore 2000
|  3> % mp2 density relaxed end
|  4> *xyz 0 1
|  5>  C       -0.0232010614     1.4267659356    -0.0446106643
|  6>  N       -0.0085352026    -0.0117388463     0.0336896815
|  7>  C       -1.1376466024    -0.9188716580    -0.0355714888
|  8>  C       -0.8155758881    -2.1703387481     0.8316859991
|  9>  N       -1.6151814775    -3.0117896337    -0.1303119280
| 10>  C       -0.7911137240    -2.0974882841    -0.9990101631
| 11>  C        0.4747707313    -2.2051179237    -0.0673828890
| 12>  C        1.1116989434    -0.8134127462    -0.0120461653
| 13>  O        2.2727817683    -0.4722010827    -0.0194900711
| 14>  H        1.0169022776     1.7595266953    -0.0168972505
| 15>  H       -0.4824378971     1.7847148632    -0.9750347577
| 16>  H       -0.5597222741     1.8733703118     0.8007385092
| 17>  H       -2.1274486922    -0.4694448322    -0.0279355406
| 18>  H       -0.8823777645    -2.2807079956     1.9155533403
| 19>  H       -1.2144104823    -3.9530675536    -0.1624216317
| 20>  H       -0.8283623613    -2.1241721903    -2.0896906656
| 21>  H        1.1227416868    -3.0790131916    -0.0935763944
| 22> *
| 23>
| 24>                          ****END OF INPUT****

CARTESIAN COORDINATES (ANGSTROEM)
---------------------------------
  C     -0.023201    1.426766   -0.044611
  N     -0.008535   -0.011739    0.033690
  C     -1.137647   -0.918872   -0.035571
  C     -0.815576   -2.170339    0.831686
  N     -1.615181   -3.011790   -0.130312
  C     -0.791114   -2.097488   -0.999010
  C      0.474771   -2.205118   -0.067383
  C      1.111699   -0.813413   -0.012046
  O      2.272782   -0.472201   -0.019490
  H      1.016902    1.759527   -0.016897
  H     -0.482438    1.784715   -0.975035
  H     -0.559722    1.873370    0.800739
  H     -2.127449   -0.469445   -0.027936
  H     -0.882378   -2.280708    1.915553
  H     -1.214410   -3.953068   -0.162422
  H     -0.828362   -2.124172   -2.089691
  H      1.122742   -3.079013   -0.093576

 Total Charge           Charge          ....    0
 Multiplicity           Mult            ....    1
 Number of Electrons    NEL             ....   66
 Basis Dimension        Dim             ....  327

ORBITAL ENERGIES
----------------

  NO   OCC          E(Eh)            E(eV)
   0   2.0000     -20.524457      -558.4989
   1   2.0000     -15.582447      -424.0199
   2   2.0000     -15.569296      -423.6621
   3   2.0000     -11.348778      -308.8160
   4   2.0000     -11.295033      -307.3535
   5   2.0000     -11.294653      -307.3431
   6   2.0000     -11.293375      -307.3084
   7   2.0000     -11.265704      -306.5554
   8   2.0000     -11.260769      -306.4211
   9   2.0000      -1.389150       -37.8007
  10   2.0000      -1.323566       -36.0161
  11   2.0000      -1.238544       -33.7025
  12   2.0000      -1.053265       -28.6608
  13   2.0000      -0.953124       -25.9358
  14   2.0000      -0.935269       -25.4500
  15   2.0000      -0.894262       -24.3341
  16   2.0000      -0.789059       -21.4714
  17   2.0000      -0.744026       -20.2460
  18   2.0000      -0.712420       -19.3859
  19   2.0000      -0.687550       -18.7092
  20   2.0000      -0.641953       -17.4684
  21   2.0000      -0.633927       -17.2500
  22   2.0000      -0.613235       -16.6870
  23   2.0000      -0.575385       -15.6570
  24   2.0000      -0.564205       -15.3528
  25   2.0000      -0.543328       -14.7847
  26   2.0000      -0.517188       -14.0734
  27   2.0000      -0.510045       -13.8790
  28   2.0000      -0.496716       -13.5163
  29   2.0000      -0.458843       -12.4857
  30   2.0000      -0.446040       -12.1374
  31   2.0000      -0.385807       -10.4983
  32   2.0000      -0.364459        -9.9174
  33   0.0000       0.134796         3.6680
  34   0.0000       0.141202         3.8423
  35   0.0000       0.152173         4.1408
  36   0.0000       0.171817         4.6754
  37   0.0000       0.175998         4.7891

MULLIKEN ATOMIC CHARGES
-----------------------
   0 C :   -0.339169
   1 N :   -0.120725
   2 C :   -0.050299
   3 C :   -0.055993
   4 N :   -0.326424
   5 C :   -0.059382
   6 C :   -0.090445
   7 C :    0.167864
   8 O :   -0.339438
   9 H :    0.174988
  10 H :    0.135520
  11 H :    0.139233
  12 H :    0.146036
  13 H :    0.137212
  14 H :    0.204970
  15 H :    0.137275
  16 H :    0.138775
Sum of atomic charges:   -0.0000000

LOEWDIN ATOMIC CHARGES
----------------------
   0 C :   -0.295097
   1 N :    0.189395
   2 C :   -0.175982
   3 C :   -0.177249
   4 N :    0.000685
   5 C :   -0.177077
   6 C :   -0.133001
   7 C :   -0.402889
   8 O :    0.093612
   9 H :    0.137441
  10 H :    0.117188
  11 H :    0.118235
  12 H :    0.146025
  13 H :    0.127079
  14 H :    0.160921
  15 H :    0.126522
  16 H :    0.144193

  Mayer bond orders larger than 0.1
B(  0-C ,  1-N ) :   0.8695 B(  0-C ,  9-H ) :   0.9262 B(  0-C , 10-H ) :   0.9314
B(  0-C , 11-H ) :   0.9332 B(  1-N ,  2-C ) :   0.8664 B(  1-N ,  7-C ) :   1.1551
B(  2-C ,  3-C ) :   0.8691 B(  2-C ,  5-C ) :   0.8622 B(  2-C , 12-H ) :   0.8879
B(  3-C ,  4-N ) :   0.9359 B(  3-C ,  6-C ) :   0.8800 B(  3-C , 13-H ) :   0.8966
B(  4-N ,  5-C ) :   0.9356 B(  4-N , 14-H ) :   0.8792 B(  5-C ,  6-C ) :   0.8728
B(  5-C , 15-H ) :   0.8975 B(  6-C ,  7-C ) :   0.9106 B(  6-C , 16-H ) :   0.9325
B(  7-C ,  8-O ) :   1.9721

MP2 TOTAL ENERGY:     -417.259999669 Eh
FINAL SINGLE POINT ENERGY      -417.259999668865

DIPOLE MOMENT
-------------
                                X             Y             Z
Electronic contribution:      2.56283      -2.27276       0.19013
Nuclear contribution   :     -3.40967       2.25223      -0.23100
                        -----------------------------------------
Total Dipole Moment    :     -0.84684      -0.02053      -0.04087
                        -----------------------------------------
Magnitude (a.u.)       :      0.84807
Magnitude (Debye)      :      2.15562

                             ****ORCA TERMINATED NORMALLY****
TOTAL RUN TIME: 0 days 0 hours 17 minutes 13 seconds 92 msec
