                         Program Version 3.0.3 - RELEASE   -
|  1> ! RI-MP2 RIJK def2-TZVP def2-TZVP/C def2-TZVP/JK TIGHTSCF
|  2> % maxcore 2000
|  3> % mp2 density relaxed end
|  4> *xyz 0 1
|  5>  N        0.0829405196     1.1073478094     0.7640909412
|  6>  C       -0.0333942882    -0.1165342837     0.1548523143
|  7>  C       -0.6059265471    -1.3016213857     0.5256384469
|  8>  C       -0.4325666133    -2.1107281027    -0.6282848768
|  9>  N        0.1794104882    -1.4834108974    -1.6064121930
| 10>  O        0.4448144962    -0.1960494174    -1.0946884527
| 11>  C       -0.8477051031    -3.5160719108    -0.8213006665
| 12>  C       -0.6356419640    -4.5322728524     0.2245244477
| 13>  O       -1.9273230485    -3.9753410427    -0.0012601764
| 14>  H        0.8068792228     1.6970849117     0.3791573927
| 15>  H        0.0850537902     1.0846895836     1.7721447792
| 16>  H       -1.1054592842    -1.5507849605     1.4452167664
| 17>  H       -0.8799985092    -3.8417684695    -1.8589989777
| 18>  H       -0.5141162539    -5.5751393209    -0.0647787140
| 19>  H       -0.1553453756    -4.2424211410     1.1574932588
| 20> *
| 21>
| 22>                          ****END OF INPUT****

CARTESIAN COORDINATES (ANGSTROEM)
---------------------------------
  N      0.082941    1.107348    0.764091
  C     -0.033394   -0.116534    0.154852
  C     -0.605927   -1.301621    0.525638
  C     -0.432567   -2.110728   -0.628285
  N      0.179410   -1.483411   -1.606412
  O      0.444814   -0.196049   -1.094688
  C     -0.847705   -3.516072   -0.821301
  C     -0.635642   -4.532273    0.224524
  O     -1.927323   -3.975341   -0.001260
  H      0.806879    1.697085    0.379157
  H      0.085054    1.084690    1.772145
  H     -1.105459   -1.550785    1.445217
  H     -0.879999   -3.841768   -1.858999
  H     -0.514116   -5.575139   -0.064779
  H     -0.155345   -4.242421    1.157493

 Total Charge           Charge          ....    0
 Multiplicity           Mult            ....    1
 Number of Electrons    NEL             ....   66
 Basis Dimension        Dim             ....  315

ORBITAL ENERGIES
----------------

  NO   OCC          E(Eh)            E(eV)
   0   2.0000     -20.636760      -561.5548
   1   2.0000     -20.583840      -560.1148
   2   2.0000     -15.607042      -424.6892
   3   2.0000     -15.599192      -424.4756
   4   2.0000     -11.359010      -309.0944
   5   2.0000     -11.305480      -307.6377
   6   2.0000     -11.297695      -307.4259
   7   2.0000     -11.287242      -307.1415
   8   2.0000     -11.222045      -305.3674
   9   2.0000      -1.489903       -40.5423
  10   2.0000      -1.427192       -38.8359
  11   2.0000      -1.249882       -34.0110
  12   2.0000      -1.164794       -31.6956
  13   2.0000      -1.045861       -28.4593
  14   2.0000      -0.958034       -26.0694
  15   2.0000      -0.897831       -24.4312
  16   2.0000      -0.823857       -22.4183
  17   2.0000      -0.794270       -21.6132
  18   2.0000      -0.743126       -20.2215
  19   2.0000      -0.704624       -19.1738
  20   2.0000      -0.690225       -18.7820
  21   2.0000      -0.665902       -18.1201
  22   2.0000      -0.642248       -17.4765
  23   2.0000      -0.625118       -17.0103
  24   2.0000      -0.578694       -15.7471
  25   2.0000      -0.555902       -15.1268
  26   2.0000      -0.547743       -14.9049
  27   2.0000      -0.511582       -13.9208
  28   2.0000      -0.486863       -13.2482
  29   2.0000      -0.475813       -12.9475
  30   2.0000      -0.466497       -12.6940
  31   2.0000      -0.403905       -10.9908
  32   2.0000      -0.331391        -9.0176
  33   0.0000       0.119913         3.2630
  34   0.0000       0.137447         3.7401
  35   0.0000       0.163451         4.4477
  36   0.0000       0.172487         4.6936
  37   0.0000       0.184398         5.0177

MULLIKEN ATOMIC CHARGES
-----------------------
   0 N :   -0.509894
   1 C :    0.299782
   2 C :   -0.321034
   3 C :    0.125305
   4 N :   -0.131421
   5 O :   -0.134641
   6 C :   -0.038046
   7 C :   -0.059919
   8 O :   -0.321556
   9 H :    0.269588
  10 H :    0.265143
  11 H :    0.160605
  12 H :    0.145846
  13 H :    0.126437
  14 H :    0.123805
Sum of atomic charges:    0.0000000

LOEWDIN ATOMIC CHARGES
----------------------
   0 N :   -0.049519
   1 C :   -0.380092
   2 C :   -0.171312
   3 C :   -0.285231
   4 N :    0.055191
   5 O :    0.273154
   6 C :   -0.247030
   7 C :   -0.254688
   8 O :    0.157453
   9 H :    0.179761
  10 H :    0.179123
  11 H :    0.149658
  12 H :    0.150069
  13 H :    0.121490
  14 H :    0.121974

  Mayer bond orders larger than 0.1
B(  0-N ,  1-C ) :   1.0869 B(  0-N ,  9-H ) :   0.8637 B(  0-N , 10-H ) :   0.8709
B(  1-C ,  2-C ) :   1.4797 B(  1-C ,  5-O ) :   1.1491 B(  2-C ,  3-C ) :   1.2176
B(  2-C , 11-H ) :   0.8988 B(  3-C ,  4-N ) :   1.6090 B(  3-C ,  6-C ) :   0.9303
B(  4-N ,  5-O ) :   0.8521 B(  6-C ,  7-C ) :   0.9607 B(  6-C ,  8-O ) :   0.9419
B(  6-C , 12-H ) :   0.9264 B(  7-C ,  8-O ) :   0.8883 B(  7-C , 13-H ) :   0.9237
B(  7-C , 14-H ) :   0.9117

MP2 TOTAL ENERGY:     -453.171071258 Eh
FINAL SINGLE POINT ENERGY      -453.171071258061

DIPOLE MOMENT
-------------
                                X             Y             Z
Electronic contribution:      0.00362       1.99716      -2.83294
Nuclear contribution   :      0.68626      -1.67210       4.11889
                        -----------------------------------------
Total Dipole Moment    :      0.68988       0.32506       1.28595
                        -----------------------------------------
Magnitude (a.u.)       :      1.49508
Magnitude (Debye)      :      3.80019

                             ****ORCA TERMINATED NORMALLY****
TOTAL RUN TIME: 0 days 0 hours 15 minutes 36 seconds 788 msec
