                         Program Version 3.0.3 - RELEASE   -
|  1> ! RI-MP2 RIJK def2-TZVP def2-TZVP/C def2-TZVP/JK TIGHTSCF
|  2> % maxcore 2000
|  3> % mp2 density relaxed end
|  4> *xyz 0 1
|  5>  O       -0.6928364352     0.7449671484    -0.5764712261
|  6>  C        0.0584794687     1.0748937909     0.2954099489
|  7>  C        1.3324285333     1.9155191451     0.0978957698
|  8>  C        1.4473936755     2.4430278860    -1.2784732540
|  9>  N        1.5689997912     2.9384868682    -2.3152375132
| 10>  N        1.4064167273     2.9191614367     1.1361964889
| 11>  C        0.5678037638     4.1440215710     1.0681568359
| 12>  C        1.7385438192     4.9272555691     1.7098031579
| 13>  C        2.6346484155     3.7325152409     1.3020512949
| 14>  H       -0.0872983925     0.8042112931     1.3620778310
| 15>  H        2.1669790523     1.2153455620     0.2597739043
| 16>  H        0.3636261232     4.4692880119     0.0386668091
| 17>  H       -0.3748063004     4.0768012425     1.6190833077
| 18>  H        1.9804999588     5.8948606842     1.2719763870
| 19>  H        1.6368889505     5.0277978024     2.7912632596
| 20>  H        3.3407725244     3.3357566707     2.0379089838
| 21>  H        3.1611716644     3.9154702267     0.3546535944
| 22> *
| 23>
| 24>                          ****END OF INPUT****

CARTESIAN COORDINATES (ANGSTROEM)
---------------------------------
  O     -0.692836    0.744967   -0.576471
  C      0.058479    1.074894    0.295410
  C      1.332429    1.915519    0.097896
  C      1.447394    2.443028   -1.278473
  N      1.569000    2.938487   -2.315238
  N      1.406417    2.919161    1.136196
  C      0.567804    4.144022    1.068157
  C      1.738544    4.927256    1.709803
  C      2.634648    3.732515    1.302051
  H     -0.087298    0.804211    1.362078
  H      2.166979    1.215346    0.259774
  H      0.363626    4.469288    0.038667
  H     -0.374806    4.076801    1.619083
  H      1.980500    5.894861    1.271976
  H      1.636889    5.027798    2.791263
  H      3.340773    3.335757    2.037909
  H      3.161172    3.915470    0.354654

 Total Charge           Charge          ....    0
 Multiplicity           Mult            ....    1
 Number of Electrons    NEL             ....   66
 Basis Dimension        Dim             ....  327

ORBITAL ENERGIES
----------------

  NO   OCC          E(Eh)            E(eV)
   0   2.0000     -20.585758      -560.1670
   1   2.0000     -15.587287      -424.1517
   2   2.0000     -15.580577      -423.9691
   3   2.0000     -11.359613      -309.1108
   4   2.0000     -11.332206      -308.3650
   5   2.0000     -11.279474      -306.9301
   6   2.0000     -11.277734      -306.8827
   7   2.0000     -11.275716      -306.8278
   8   2.0000     -11.246798      -306.0409
   9   2.0000      -1.427020       -38.8312
  10   2.0000      -1.289171       -35.0801
  11   2.0000      -1.223554       -33.2946
  12   2.0000      -1.096686       -29.8424
  13   2.0000      -0.955149       -25.9909
  14   2.0000      -0.944524       -25.7018
  15   2.0000      -0.855832       -23.2884
  16   2.0000      -0.794786       -21.6272
  17   2.0000      -0.727531       -19.7971
  18   2.0000      -0.708587       -19.2816
  19   2.0000      -0.695122       -18.9152
  20   2.0000      -0.669886       -18.2285
  21   2.0000      -0.662111       -18.0170
  22   2.0000      -0.580932       -15.8080
  23   2.0000      -0.571385       -15.5482
  24   2.0000      -0.556522       -15.1437
  25   2.0000      -0.545807       -14.8522
  26   2.0000      -0.542203       -14.7541
  27   2.0000      -0.505272       -13.7492
  28   2.0000      -0.486630       -13.2419
  29   2.0000      -0.480967       -13.0878
  30   2.0000      -0.470322       -12.7981
  31   2.0000      -0.440649       -11.9907
  32   2.0000      -0.403202       -10.9717
  33   0.0000       0.105719         2.8768
  34   0.0000       0.126753         3.4491
  35   0.0000       0.137023         3.7286
  36   0.0000       0.152190         4.1413
  37   0.0000       0.161364         4.3909

MULLIKEN ATOMIC CHARGES
-----------------------
   0 O :   -0.221990
   1 C :    0.072550
   2 C :    0.138993
   3 C :   -0.222328
   4 N :   -0.044852
   5 N :   -0.165436
   6 C :   -0.196642
   7 C :   -0.205960
   8 C :   -0.183059
   9 H :    0.110575
  10 H :    0.154052
  11 H :    0.132479
  12 H :    0.125996
  13 H :    0.132444
  14 H :    0.125264
  15 H :    0.122731
  16 H :    0.125185
Sum of atomic charges:   -0.0000000

LOEWDIN ATOMIC CHARGES
----------------------
   0 O :    0.171625
   1 C :   -0.257473
   2 C :   -0.297431
   3 C :   -0.174139
   4 N :    0.074907
   5 N :    0.119523
   6 C :   -0.238677
   7 C :   -0.234897
   8 C :   -0.241694
   9 H :    0.123037
  10 H :    0.186313
  11 H :    0.131168
  12 H :    0.122390
  13 H :    0.129995
  14 H :    0.135477
  15 H :    0.121351
  16 H :    0.128524

  Mayer bond orders larger than 0.1
B(  0-O ,  1-C ) :   2.0454 B(  1-C ,  2-C ) :   0.8188 B(  1-C ,  9-H ) :   0.9421
B(  2-C ,  3-C ) :   0.8603 B(  2-C ,  5-N ) :   0.9422 B(  2-C , 10-H ) :   0.8933
B(  3-C ,  4-N ) :   2.8376 B(  5-N ,  6-C ) :   0.9102 B(  5-N ,  8-C ) :   0.9151
B(  6-C ,  7-C ) :   0.9412 B(  6-C , 11-H ) :   0.9193 B(  6-C , 12-H ) :   0.9255
B(  7-C ,  8-C ) :   0.9433 B(  7-C , 13-H ) :   0.9299 B(  7-C , 14-H ) :   0.9230
B(  8-C , 15-H ) :   0.9225 B(  8-C , 16-H ) :   0.9225

MP2 TOTAL ENERGY:     -417.281408381 Eh
FINAL SINGLE POINT ENERGY      -417.281408380721

DIPOLE MOMENT
-------------
                                X             Y             Z
Electronic contribution:     -2.56876      -6.00850      -6.02753
Nuclear contribution   :      3.17087       6.25937       7.75664
                        -----------------------------------------
Total Dipole Moment    :      0.60211       0.25087       1.72911
                        -----------------------------------------
Magnitude (a.u.)       :      1.84805
Magnitude (Debye)      :      4.69738

                             ****ORCA TERMINATED NORMALLY****
TOTAL RUN TIME: 0 days 0 hours 16 minutes 5 seconds 565 msec
