                         Program Version 3.0.3 - RELEASE   -
|  1> ! RI-MP2 RIJK def2-TZVP def2-TZVP/C def2-TZVP/JK TIGHTSCF
|  2> % maxcore 2000
|  3> % mp2 density relaxed end
|  4> *xyz 0 1
|  5>  C        0.0083627300     1.5087883483     0.1871490109
|  6>  C       -0.0387705057    -0.0148133138     0.0661456451
|  7>  C       -1.4703765758    -0.5463244049    -0.0435471805
|  8>  O       -2.1158119235    -0.0712031173    -1.2084201561
|  9>  O        0.5975519460    -0.4863038623    -1.1250711863
| 10>  C        2.0106509313    -0.4185738536    -1.1227638282
| 11>  C        2.5343757523    -1.0799297993    -2.3112715837
| 12>  C        2.9897939709    -1.6159076797    -3.2844431781
| 13>  H        1.0333516028     1.8894836976     0.1891111519
| 14>  H       -0.5392828237     1.9628435054    -0.6419450085
| 15>  H       -0.4608105517     1.8229728067     1.1250218450
| 16>  H        0.4446970244    -0.4782114723     0.9426155055
| 17>  H       -1.4396097101    -1.6462709116    -0.0223614737
| 18>  H       -2.0617619661    -0.2055347715     0.8125961845
| 19>  H       -1.5311061891    -0.2956833694    -1.9423772205
| 20>  H        2.3627198676     0.6243945862    -1.1040123281
| 21>  H        2.4137240710    -0.9063749145    -0.2190828018
| 22>  H        3.3886838895    -2.0924108241    -4.1456602074
| 23> *
| 24>
| 25>                          ****END OF INPUT****

CARTESIAN COORDINATES (ANGSTROEM)
---------------------------------
  C      0.008363    1.508788    0.187149
  C     -0.038771   -0.014813    0.066146
  C     -1.470377   -0.546324   -0.043547
  O     -2.115812   -0.071203   -1.208420
  O      0.597552   -0.486304   -1.125071
  C      2.010651   -0.418574   -1.122764
  C      2.534376   -1.079930   -2.311272
  C      2.989794   -1.615908   -3.284443
  H      1.033352    1.889484    0.189111
  H     -0.539283    1.962844   -0.641945
  H     -0.460811    1.822973    1.125022
  H      0.444697   -0.478211    0.942616
  H     -1.439610   -1.646271   -0.022361
  H     -2.061762   -0.205535    0.812596
  H     -1.531106   -0.295683   -1.942377
  H      2.362720    0.624395   -1.104012
  H      2.413724   -0.906375   -0.219083
  H      3.388684   -2.092411   -4.145660

 Total Charge           Charge          ....    0
 Multiplicity           Mult            ....    1
 Number of Electrons    NEL             ....   62
 Basis Dimension        Dim             ....  308

ORBITAL ENERGIES
----------------

  NO   OCC          E(Eh)            E(eV)
   0   2.0000     -20.572314      -559.8011
   1   2.0000     -20.549165      -559.1712
   2   2.0000     -11.314880      -307.8935
   3   2.0000     -11.291107      -307.2466
   4   2.0000     -11.274423      -306.7927
   5   2.0000     -11.239959      -305.8548
   6   2.0000     -11.231754      -305.6316
   7   2.0000     -11.221495      -305.3524
   8   2.0000      -1.397053       -38.0157
   9   2.0000      -1.352457       -36.8022
  10   2.0000      -1.075113       -29.2553
  11   2.0000      -1.031001       -28.0550
  12   2.0000      -0.953661       -25.9504
  13   2.0000      -0.924327       -25.1522
  14   2.0000      -0.807154       -21.9638
  15   2.0000      -0.739217       -20.1151
  16   2.0000      -0.697332       -18.9754
  17   2.0000      -0.691039       -18.8041
  18   2.0000      -0.670945       -18.2573
  19   2.0000      -0.655400       -17.8344
  20   2.0000      -0.618887       -16.8408
  21   2.0000      -0.583955       -15.8902
  22   2.0000      -0.569846       -15.5063
  23   2.0000      -0.544806       -14.8249
  24   2.0000      -0.542174       -14.7533
  25   2.0000      -0.506914       -13.7938
  26   2.0000      -0.480553       -13.0765
  27   2.0000      -0.453408       -12.3378
  28   2.0000      -0.432305       -11.7636
  29   2.0000      -0.403697       -10.9851
  30   2.0000      -0.392419       -10.6783
  31   0.0000       0.130377         3.5477
  32   0.0000       0.160368         4.3638
  33   0.0000       0.163209         4.4411
  34   0.0000       0.166860         4.5405
  35   0.0000       0.169204         4.6043

MULLIKEN ATOMIC CHARGES
-----------------------
   0 C :   -0.398875
   1 C :    0.034583
   2 C :    0.019477
   3 O :   -0.485128
   4 O :   -0.307142
   5 C :   -0.219124
   6 C :   -0.043245
   7 C :   -0.071852
   8 H :    0.129894
   9 H :    0.146701
  10 H :    0.128793
  11 H :    0.075202
  12 H :    0.107794
  13 H :    0.102818
  14 H :    0.330761
  15 H :    0.126487
  16 H :    0.127424
  17 H :    0.195431
Sum of atomic charges:   -0.0000000

LOEWDIN ATOMIC CHARGES
----------------------
   0 C :   -0.297520
   1 C :   -0.358474
   2 C :   -0.329401
   3 O :   -0.043173
   4 O :    0.173184
   5 C :   -0.308872
   6 C :   -0.105035
   7 C :   -0.085735
   8 H :    0.119888
   9 H :    0.131602
  10 H :    0.129181
  11 H :    0.136461
  12 H :    0.121014
  13 H :    0.130936
  14 H :    0.179325
  15 H :    0.138793
  16 H :    0.139428
  17 H :    0.128396

  Mayer bond orders larger than 0.1
B(  0-C ,  1-C ) :   0.9134 B(  0-C ,  8-H ) :   0.9400 B(  0-C ,  9-H ) :   0.9259
B(  0-C , 10-H ) :   0.9280 B(  1-C ,  2-C ) :   0.9311 B(  1-C ,  4-O ) :   0.8871
B(  1-C , 11-H ) :   0.9336 B(  2-C ,  3-O ) :   0.9364 B(  2-C , 12-H ) :   0.9300
B(  2-C , 13-H ) :   0.9253 B(  3-O , 14-H ) :   0.8287 B(  4-O ,  5-C ) :   1.0026
B(  5-C ,  6-C ) :   1.1347 B(  5-C ,  7-C ) :  -0.1118 B(  5-C , 15-H ) :   0.9126
B(  5-C , 16-H ) :   0.9267 B(  6-C ,  7-C ) :   2.6220 B(  7-C , 17-H ) :   0.8957

MP2 TOTAL ENERGY:     -384.250124922 Eh
FINAL SINGLE POINT ENERGY      -384.250124922491

DIPOLE MOMENT
-------------
                                X             Y             Z
Electronic contribution:      1.69965      -3.46337      -4.72063
Nuclear contribution   :     -0.90801       3.45033       5.20891
                        -----------------------------------------
Total Dipole Moment    :      0.79164      -0.01304       0.48828
                        -----------------------------------------
Magnitude (a.u.)       :      0.93021
Magnitude (Debye)      :      2.36440

                             ****ORCA TERMINATED NORMALLY****
TOTAL RUN TIME: 0 days 0 hours 11 minutes 36 seconds 44 msec
