                         Program Version 3.0.3 - RELEASE   -
|  1> ! RI-MP2 RIJK def2-TZVP def2-TZVP/C def2-TZVP/JK TIGHTSCF
|  2> % maxcore 2000
|  3> % mp2 density relaxed end
|  4> *xyz 0 1
|  5>  C        0.0982433826     1.4605786060     0.0450743651
|  6>  C       -0.0133667943    -0.0301605703    -0.0044070151
|  7>  C       -0.0856930937    -0.8237304294    -1.0829963852
|  8>  C        0.0023275025    -2.2830603898    -0.6592783030
|  9>  C        1.4986104550    -2.5708558477    -0.7084603138
| 10>  C        2.0375457750    -2.3151268314     0.4892766794
| 11>  C        0.9730663007    -2.0058186997     1.4586803023
| 12>  C       -0.0511463424    -0.8743703155     1.2091186002
| 13>  N       -0.3272005763    -2.2641773904     0.8148083748
| 14>  H        1.0617214147     1.7701365742     0.4697291946
| 15>  H        0.0123715665     1.9005883427    -0.9516673740
| 16>  H       -0.6808215818     1.9000192810     0.6799717619
| 17>  H       -0.0261383561    -0.5019358439    -2.1166650395
| 18>  H       -0.6356943652    -2.9803836291    -1.2075692206
| 19>  H        2.0330111212    -2.7729060776    -1.6291273506
| 20>  H        3.0910029742    -2.3195793447     0.7382812984
| 21>  H        1.0754278913    -2.3320929292     2.4912278993
| 22>  H       -0.5732562041    -0.5057749952     2.0905648558
| 23> *
| 24>
| 25>                          ****END OF INPUT****

CARTESIAN COORDINATES (ANGSTROEM)
---------------------------------
  C      0.098243    1.460579    0.045074
  C     -0.013367   -0.030161   -0.004407
  C     -0.085693   -0.823730   -1.082996
  C      0.002328   -2.283060   -0.659278
  C      1.498610   -2.570856   -0.708460
  C      2.037546   -2.315127    0.489277
  C      0.973066   -2.005819    1.458680
  C     -0.051146   -0.874370    1.209119
  N     -0.327201   -2.264177    0.814808
  H      1.061721    1.770137    0.469729
  H      0.012372    1.900588   -0.951667
  H     -0.680822    1.900019    0.679972
  H     -0.026138   -0.501936   -2.116665
  H     -0.635694   -2.980384   -1.207569
  H      2.033011   -2.772906   -1.629127
  H      3.091003   -2.319579    0.738281
  H      1.075428   -2.332093    2.491228
  H     -0.573256   -0.505775    2.090565

 Total Charge           Charge          ....    0
 Multiplicity           Mult            ....    1
 Number of Electrons    NEL             ....   64
 Basis Dimension        Dim             ....  333

ORBITAL ENERGIES
----------------

  NO   OCC          E(Eh)            E(eV)
   0   2.0000     -15.556177      -423.3051
   1   2.0000     -11.265168      -306.5408
   2   2.0000     -11.263859      -306.5052
   3   2.0000     -11.261989      -306.4543
   4   2.0000     -11.235786      -305.7413
   5   2.0000     -11.233481      -305.6786
   6   2.0000     -11.228356      -305.5391
   7   2.0000     -11.227872      -305.5259
   8   2.0000     -11.224902      -305.4451
   9   2.0000      -1.298003       -35.3205
  10   2.0000      -1.083185       -29.4750
  11   2.0000      -1.068017       -29.0622
  12   2.0000      -1.000984       -27.2382
  13   2.0000      -0.924148       -25.1474
  14   2.0000      -0.851529       -23.1713
  15   2.0000      -0.790758       -21.5176
  16   2.0000      -0.761567       -20.7233
  17   2.0000      -0.717445       -19.5227
  18   2.0000      -0.682043       -18.5593
  19   2.0000      -0.641599       -17.4588
  20   2.0000      -0.597675       -16.2636
  21   2.0000      -0.583561       -15.8795
  22   2.0000      -0.569771       -15.5042
  23   2.0000      -0.546674       -14.8757
  24   2.0000      -0.539493       -14.6804
  25   2.0000      -0.515478       -14.0269
  26   2.0000      -0.489637       -13.3237
  27   2.0000      -0.485186       -13.2026
  28   2.0000      -0.455798       -12.4029
  29   2.0000      -0.428232       -11.6528
  30   2.0000      -0.332524        -9.0484
  31   2.0000      -0.318404        -8.6642
  32   0.0000       0.134334         3.6554
  33   0.0000       0.145199         3.9511
  34   0.0000       0.154530         4.2050
  35   0.0000       0.161295         4.3891
  36   0.0000       0.175966         4.7883

MULLIKEN ATOMIC CHARGES
-----------------------
   0 C :   -0.446450
   1 C :    0.025448
   2 C :   -0.235920
   3 C :    0.171737
   4 C :   -0.218925
   5 C :   -0.192374
   6 C :   -0.013118
   7 C :   -0.070031
   8 N :   -0.223775
   9 H :    0.143702
  10 H :    0.139863
  11 H :    0.143401
  12 H :    0.125991
  13 H :    0.133616
  14 H :    0.128986
  15 H :    0.131170
  16 H :    0.128772
  17 H :    0.127904
Sum of atomic charges:   -0.0000000

LOEWDIN ATOMIC CHARGES
----------------------
   0 C :   -0.268683
   1 C :   -0.177143
   2 C :   -0.107034
   3 C :   -0.208257
   4 C :   -0.124885
   5 C :   -0.148564
   6 C :   -0.203439
   7 C :   -0.177744
   8 N :    0.168194
   9 H :    0.133524
  10 H :    0.131682
  11 H :    0.132148
  12 H :    0.139900
  13 H :    0.140218
  14 H :    0.139030
  15 H :    0.141239
  16 H :    0.143948
  17 H :    0.145867

  Mayer bond orders larger than 0.1
B(  0-C ,  1-C ) :   0.8846 B(  0-C ,  9-H ) :   0.9261 B(  0-C , 10-H ) :   0.9465
B(  0-C , 11-H ) :   0.9389 B(  1-C ,  2-C ) :   1.7515 B(  1-C ,  7-C ) :   0.9812
B(  2-C ,  3-C ) :   0.8796 B(  2-C , 12-H ) :   0.9200 B(  3-C ,  4-C ) :   0.8810
B(  3-C ,  8-N ) :   0.9249 B(  3-C , 13-H ) :   0.9151 B(  4-C ,  5-C ) :   1.7718
B(  4-C , 14-H ) :   0.9173 B(  5-C ,  6-C ) :   0.9890 B(  5-C , 15-H ) :   0.9231
B(  6-C ,  7-C ) :   0.8881 B(  6-C ,  8-N ) :   0.9114 B(  6-C , 16-H ) :   0.9084
B(  7-C ,  8-N ) :   0.9313 B(  7-C , 17-H ) :   0.9001

MP2 TOTAL ENERGY:     -364.131700366 Eh
FINAL SINGLE POINT ENERGY      -364.131700365987

DIPOLE MOMENT
-------------
                                X             Y             Z
Electronic contribution:     -0.66871      -4.66374       0.73503
Nuclear contribution   :      1.16888       5.21410      -0.95139
                        -----------------------------------------
Total Dipole Moment    :      0.50016       0.55036      -0.21636
                        -----------------------------------------
Magnitude (a.u.)       :      0.77451
Magnitude (Debye)      :      1.96865

                             ****ORCA TERMINATED NORMALLY****
TOTAL RUN TIME: 0 days 0 hours 20 minutes 54 seconds 429 msec
