                         Program Version 3.0.3 - RELEASE   -
|  1> ! RI-MP2 RIJK def2-TZVP def2-TZVP/C def2-TZVP/JK TIGHTSCF
|  2> % maxcore 2000
|  3> % mp2 density relaxed end
|  4> *xyz 0 1
|  5>  C        0.0077021025     1.4637494251     0.0048719258
|  6>  N       -0.0054204156     0.0114309978     0.0182669049
|  7>  C       -0.1194850152    -0.8166610703    -1.0660949407
|  8>  N       -0.0998530437    -2.0831433325    -0.7366730363
|  9>  C        0.0341907202    -2.0856199256     0.6371636209
| 10>  C        0.0939694916    -0.7952190106     1.1182902961
| 11>  C        0.0971574096    -3.2797127131     1.4037006055
| 12>  N        0.1509335598    -4.2373817558     2.0519136903
| 13>  H        0.9465104204     1.8456596305     0.4151280322
| 14>  H       -0.0894450096     1.8065489187    -1.0263477248
| 15>  H       -0.8264818102     1.8632670583     0.5880053543
| 16>  H       -0.2134731343    -0.4256191878    -2.0686474798
| 17>  H        0.1952746546    -0.4034830846     2.1165486518
| 18> *
| 19>
| 20>                          ****END OF INPUT****

CARTESIAN COORDINATES (ANGSTROEM)
---------------------------------
  C      0.007702    1.463749    0.004872
  N     -0.005420    0.011431    0.018267
  C     -0.119485   -0.816661   -1.066095
  N     -0.099853   -2.083143   -0.736673
  C      0.034191   -2.085620    0.637164
  C      0.093969   -0.795219    1.118290
  C      0.097157   -3.279713    1.403701
  N      0.150934   -4.237382    2.051914
  H      0.946510    1.845660    0.415128
  H     -0.089445    1.806549   -1.026348
  H     -0.826482    1.863267    0.588005
  H     -0.213473   -0.425619   -2.068647
  H      0.195275   -0.403483    2.116549

 Total Charge           Charge          ....    0
 Multiplicity           Mult            ....    1
 Number of Electrons    NEL             ....   56
 Basis Dimension        Dim             ....  278

ORBITAL ENERGIES
----------------

  NO   OCC          E(Eh)            E(eV)
   0   2.0000     -15.653963      -425.9660
   1   2.0000     -15.575631      -423.8345
   2   2.0000     -15.565144      -423.5491
   3   2.0000     -11.320733      -308.0528
   4   2.0000     -11.308665      -307.7244
   5   2.0000     -11.299944      -307.4871
   6   2.0000     -11.295775      -307.3737
   7   2.0000     -11.269856      -306.6684
   8   2.0000      -1.378924       -37.5224
   9   2.0000      -1.225220       -33.3399
  10   2.0000      -1.203586       -32.7512
  11   2.0000      -1.058678       -28.8081
  12   2.0000      -1.002888       -27.2900
  13   2.0000      -0.884098       -24.0575
  14   2.0000      -0.821247       -22.3473
  15   2.0000      -0.770165       -20.9573
  16   2.0000      -0.679015       -18.4769
  17   2.0000      -0.678177       -18.4541
  18   2.0000      -0.632597       -17.2138
  19   2.0000      -0.630764       -17.1640
  20   2.0000      -0.596033       -16.2189
  21   2.0000      -0.588841       -16.0232
  22   2.0000      -0.551325       -15.0023
  23   2.0000      -0.492137       -13.3917
  24   2.0000      -0.474642       -12.9157
  25   2.0000      -0.456240       -12.4149
  26   2.0000      -0.411305       -11.1922
  27   2.0000      -0.343697        -9.3525
  28   0.0000       0.107718         2.9312
  29   0.0000       0.112203         3.0532
  30   0.0000       0.145450         3.9579
  31   0.0000       0.155324         4.2266
  32   0.0000       0.159506         4.3404

MULLIKEN ATOMIC CHARGES
-----------------------
   0 C :   -0.331877
   1 N :   -0.023234
   2 C :    0.010945
   3 N :   -0.279571
   4 C :    0.193529
   5 C :   -0.109368
   6 C :   -0.231157
   7 N :   -0.049565
   8 H :    0.165567
   9 H :    0.156328
  10 H :    0.165566
  11 H :    0.162494
  12 H :    0.170343
Sum of atomic charges:   -0.0000000

LOEWDIN ATOMIC CHARGES
----------------------
   0 C :   -0.258779
   1 N :    0.231529
   2 C :   -0.280032
   3 N :    0.135981
   4 C :   -0.262041
   5 C :   -0.162453
   6 C :   -0.151152
   7 N :    0.072751
   8 H :    0.128667
   9 H :    0.132392
  10 H :    0.128665
  11 H :    0.137455
  12 H :    0.147017

  Mayer bond orders larger than 0.1
B(  0-C ,  1-N ) :   0.8562 B(  0-C ,  8-H ) :   0.9283 B(  0-C ,  9-H ) :   0.9300
B(  0-C , 10-H ) :   0.9283 B(  1-N ,  2-C ) :   1.1675 B(  1-N ,  5-C ) :   1.1547
B(  2-C ,  3-N ) :   1.5538 B(  2-C , 11-H ) :   0.9170 B(  3-N ,  4-C ) :   1.2421
B(  4-C ,  5-C ) :   1.4545 B(  4-C ,  6-C ) :   0.9177 B(  5-C , 12-H ) :   0.8984
B(  6-C ,  7-N ) :   2.8721

MP2 TOTAL ENERGY:     -357.070594919 Eh
FINAL SINGLE POINT ENERGY      -357.070594919473

DIPOLE MOMENT
-------------
                                X             Y             Z
Electronic contribution:      0.06231      -7.83225       1.43471
Nuclear contribution   :     -0.07671      10.94820      -1.89883
                        -----------------------------------------
Total Dipole Moment    :     -0.01440       3.11595      -0.46411
                        -----------------------------------------
Magnitude (a.u.)       :      3.15036
Magnitude (Debye)      :      8.00757

                             ****ORCA TERMINATED NORMALLY****
TOTAL RUN TIME: 0 days 0 hours 10 minutes 22 seconds 407 msec
