                         Program Version 3.0.3 - RELEASE   -
|  1> ! RI-MP2 RIJK def2-TZVP def2-TZVP/C def2-TZVP/JK TIGHTSCF
|  2> % maxcore 2000
|  3> % mp2 density relaxed end
|  4> *xyz 0 1
|  5>  O        0.0215755810    -0.0459855765    -0.1534453474
|  6>  C        0.0083551026     1.1609157818    -0.0559967201
|  7>  N       -1.1358212241     1.9570478116     0.0436056540
|  8>  C       -0.8126219310     3.3577198003    -0.0770823670
|  9>  C       -1.1841087370     4.3664622524     1.0264781800
| 10>  C       -0.1173663709     5.4748833144     0.8243299106
| 11>  C        1.1857924288     4.7345562401     0.3739521679
| 12>  C        0.6951167792     3.3598307269     0.0219521054
| 13>  C        1.1616925108     2.1103237036     0.0323544392
| 14>  H       -2.0134238957     1.5729235397    -0.2695753104
| 15>  H       -1.1378806758     3.7606789066    -1.0505465165
| 16>  H       -2.2071124037     4.7448370007     0.9544488466
| 17>  H       -1.0661306964     3.8827280199     2.0020242193
| 18>  H       -0.4437725092     6.1633067881     0.0379834385
| 19>  H        0.0351898356     6.0730871709     1.7251846064
| 20>  H        1.6632688837     5.2395296120    -0.4728000469
| 21>  H        1.9328858983     4.6891289661     1.1719599715
| 22>  H        2.1778788939     1.7629693414     0.1559580586
| 23> *
| 24>
| 25>                          ****END OF INPUT****

CARTESIAN COORDINATES (ANGSTROEM)
---------------------------------
  O      0.021576   -0.045986   -0.153445
  C      0.008355    1.160916   -0.055997
  N     -1.135821    1.957048    0.043606
  C     -0.812622    3.357720   -0.077082
  C     -1.184109    4.366462    1.026478
  C     -0.117366    5.474883    0.824330
  C      1.185792    4.734556    0.373952
  C      0.695117    3.359831    0.021952
  C      1.161693    2.110324    0.032354
  H     -2.013424    1.572924   -0.269575
  H     -1.137881    3.760679   -1.050547
  H     -2.207112    4.744837    0.954449
  H     -1.066131    3.882728    2.002024
  H     -0.443773    6.163307    0.037983
  H      0.035190    6.073087    1.725185
  H      1.663269    5.239530   -0.472800
  H      1.932886    4.689129    1.171960
  H      2.177879    1.762969    0.155958

 Total Charge           Charge          ....    0
 Multiplicity           Mult            ....    1
 Number of Electrons    NEL             ....   66
 Basis Dimension        Dim             ....  333

ORBITAL ENERGIES
----------------

  NO   OCC          E(Eh)            E(eV)
   0   2.0000     -20.512033      -558.1608
   1   2.0000     -15.574177      -423.7949
   2   2.0000     -11.343296      -308.6668
   3   2.0000     -11.280215      -306.9502
   4   2.0000     -11.263431      -306.4936
   5   2.0000     -11.250527      -306.1424
   6   2.0000     -11.244428      -305.9764
   7   2.0000     -11.240248      -305.8627
   8   2.0000     -11.235136      -305.7236
   9   2.0000      -1.374527       -37.4028
  10   2.0000      -1.256011       -34.1778
  11   2.0000      -1.130231       -30.7551
  12   2.0000      -1.051152       -28.6033
  13   2.0000      -0.976069       -26.5602
  14   2.0000      -0.925263       -25.1777
  15   2.0000      -0.813289       -22.1307
  16   2.0000      -0.783112       -21.3095
  17   2.0000      -0.756117       -20.5750
  18   2.0000      -0.705606       -19.2005
  19   2.0000      -0.668482       -18.1903
  20   2.0000      -0.630000       -17.1432
  21   2.0000      -0.615020       -16.7356
  22   2.0000      -0.603788       -16.4299
  23   2.0000      -0.580310       -15.7910
  24   2.0000      -0.569924       -15.5084
  25   2.0000      -0.544313       -14.8115
  26   2.0000      -0.509637       -13.8679
  27   2.0000      -0.500865       -13.6292
  28   2.0000      -0.492301       -13.3962
  29   2.0000      -0.487388       -13.2625
  30   2.0000      -0.418134       -11.3780
  31   2.0000      -0.391221       -10.6457
  32   2.0000      -0.372603       -10.1390
  33   0.0000       0.103427         2.8144
  34   0.0000       0.127950         3.4817
  35   0.0000       0.146304         3.9811
  36   0.0000       0.160960         4.3799
  37   0.0000       0.166072         4.5190

MULLIKEN ATOMIC CHARGES
-----------------------
   0 O :   -0.339976
   1 C :    0.254549
   2 N :   -0.328259
   3 C :    0.071914
   4 C :   -0.195135
   5 C :   -0.259685
   6 C :   -0.204669
   7 C :   -0.042900
   8 C :   -0.226343
   9 H :    0.234098
  10 H :    0.113440
  11 H :    0.126008
  12 H :    0.120123
  13 H :    0.122295
  14 H :    0.132617
  15 H :    0.139335
  16 H :    0.136023
  17 H :    0.146565
Sum of atomic charges:    0.0000000

LOEWDIN ATOMIC CHARGES
----------------------
   0 O :    0.088102
   1 C :   -0.424642
   2 N :    0.126565
   3 C :   -0.236803
   4 C :   -0.225776
   5 C :   -0.237244
   6 C :   -0.208217
   7 C :   -0.120457
   8 C :   -0.091352
   9 H :    0.181733
  10 H :    0.158308
  11 H :    0.133128
  12 H :    0.144044
  13 H :    0.136512
  14 H :    0.134647
  15 H :    0.146997
  16 H :    0.147215
  17 H :    0.147240

  Mayer bond orders larger than 0.1
B(  0-O ,  1-C ) :   1.9778 B(  1-C ,  2-N ) :   1.1150 B(  1-C ,  8-C ) :   0.9827
B(  2-N ,  3-C ) :   0.9369 B(  2-N ,  9-H ) :   0.8663 B(  3-C ,  4-C ) :   0.8754
B(  3-C ,  7-C ) :   0.9321 B(  3-C , 10-H ) :   0.9164 B(  4-C ,  5-C ) :   0.9190
B(  4-C , 11-H ) :   0.9271 B(  4-C , 12-H ) :   0.9243 B(  5-C ,  6-C ) :   0.9446
B(  5-C , 13-H ) :   0.9316 B(  5-C , 14-H ) :   0.9297 B(  6-C ,  7-C ) :   0.9090
B(  6-C , 15-H ) :   0.9181 B(  6-C , 16-H ) :   0.9197 B(  7-C ,  8-C ) :   1.6608
B(  8-C , 17-H ) :   0.9367

MP2 TOTAL ENERGY:     -401.314697675 Eh
FINAL SINGLE POINT ENERGY      -401.314697674648

DIPOLE MOMENT
-------------
                                X             Y             Z
Electronic contribution:      0.38468      -8.95667      -2.02794
Nuclear contribution   :     -0.62987      10.82149       2.05014
                        -----------------------------------------
Total Dipole Moment    :     -0.24519       1.86482       0.02220
                        -----------------------------------------
Magnitude (a.u.)       :      1.88100
Magnitude (Debye)      :      4.78112

                             ****ORCA TERMINATED NORMALLY****
TOTAL RUN TIME: 0 days 0 hours 18 minutes 16 seconds 513 msec
