                         Program Version 3.0.3 - RELEASE   -
|  1> ! RI-MP2 RIJK def2-TZVP def2-TZVP/C def2-TZVP/JK TIGHTSCF
|  2> % maxcore 2000
|  3> % mp2 density relaxed end
|  4> *xyz 0 1
|  5>  C        0.0516228219     1.4900754179    -0.0091702135
|  6>  C       -0.0433339456    -0.0006504000    -0.0179527093
|  7>  C       -0.0521966162    -0.8087984096    -1.0984825981
|  8>  C       -0.0792842266    -2.1973379795    -0.6776486198
|  9>  C        0.2615831707    -3.4092410772    -1.1275563869
| 10>  C        0.2282150633    -4.4167352522     0.0100113262
| 11>  C        0.2445050964    -3.5148753214     1.2809818860
| 12>  C       -0.4375658372    -2.2230643742     0.7986528565
| 13>  C       -0.0589007973    -0.8058143011     1.2795254230
| 14>  H        0.9446828208     1.8258206591     0.5344799928
| 15>  H        0.0944794738     1.9010994910    -1.0214389139
| 16>  H       -0.8077702805     1.9385242070     0.5064565310
| 17>  H        0.0240518281    -0.4679820794    -2.1249306469
| 18>  H        0.5557183046    -3.6653754126    -2.1387023014
| 19>  H       -0.6831557853    -5.0340323920    -0.0219902228
| 20>  H        1.0707422410    -5.1171133931    -0.0174504624
| 21>  H       -0.2420117197    -3.9811852715     2.1427009612
| 22>  H        1.2842258632    -3.3019465281     1.5571929222
| 23>  H       -1.5295067431    -2.3303419773     0.8869906648
| 24>  H        0.9416583683    -0.7833120443     1.7387315710
| 25>  H       -0.7500158305    -0.3918905714     2.0225034402
| 26> *
| 27>
| 28>                          ****END OF INPUT****

CARTESIAN COORDINATES (ANGSTROEM)
---------------------------------
  C      0.051623    1.490075   -0.009170
  C     -0.043334   -0.000650   -0.017953
  C     -0.052197   -0.808798   -1.098483
  C     -0.079284   -2.197338   -0.677649
  C      0.261583   -3.409241   -1.127556
  C      0.228215   -4.416735    0.010011
  C      0.244505   -3.514875    1.280982
  C     -0.437566   -2.223064    0.798653
  C     -0.058901   -0.805814    1.279525
  H      0.944683    1.825821    0.534480
  H      0.094479    1.901099   -1.021439
  H     -0.807770    1.938524    0.506457
  H      0.024052   -0.467982   -2.124931
  H      0.555718   -3.665375   -2.138702
  H     -0.683156   -5.034032   -0.021990
  H      1.070742   -5.117113   -0.017450
  H     -0.242012   -3.981185    2.142701
  H      1.284226   -3.301947    1.557193
  H     -1.529507   -2.330342    0.886991
  H      0.941658   -0.783312    1.738732
  H     -0.750016   -0.391891    2.022503

 Total Charge           Charge          ....    0
 Multiplicity           Mult            ....    1
 Number of Electrons    NEL             ....   66
 Basis Dimension        Dim             ....  351

ORBITAL ENERGIES
----------------

  NO   OCC          E(Eh)            E(eV)
   0   2.0000     -11.241587      -305.8991
   1   2.0000     -11.225924      -305.4729
   2   2.0000     -11.225558      -305.4630
   3   2.0000     -11.219853      -305.3077
   4   2.0000     -11.219090      -305.2870
   5   2.0000     -11.218260      -305.2644
   6   2.0000     -11.217842      -305.2530
   7   2.0000     -11.215992      -305.2027
   8   2.0000     -11.207689      -304.9767
   9   2.0000      -1.162628       -31.6367
  10   2.0000      -1.082176       -29.4475
  11   2.0000      -0.987287       -26.8655
  12   2.0000      -0.983510       -26.7627
  13   2.0000      -0.906174       -24.6583
  14   2.0000      -0.887820       -24.1588
  15   2.0000      -0.774218       -21.0675
  16   2.0000      -0.725872       -19.7520
  17   2.0000      -0.703170       -19.1342
  18   2.0000      -0.652377       -17.7521
  19   2.0000      -0.641541       -17.4572
  20   2.0000      -0.592832       -16.1318
  21   2.0000      -0.580494       -15.7960
  22   2.0000      -0.564752       -15.3677
  23   2.0000      -0.552328       -15.0296
  24   2.0000      -0.516390       -14.0517
  25   2.0000      -0.510517       -13.8919
  26   2.0000      -0.501415       -13.6442
  27   2.0000      -0.483844       -13.1661
  28   2.0000      -0.474265       -12.9054
  29   2.0000      -0.453584       -12.3426
  30   2.0000      -0.448868       -12.2143
  31   2.0000      -0.395401       -10.7594
  32   2.0000      -0.288804        -7.8588
  33   0.0000       0.127007         3.4560
  34   0.0000       0.138791         3.7767
  35   0.0000       0.150656         4.0995
  36   0.0000       0.170517         4.6400
  37   0.0000       0.174205         4.7404

MULLIKEN ATOMIC CHARGES
-----------------------
   0 C :   -0.431104
   1 C :    0.077096
   2 C :   -0.272817
   3 C :    0.038405
   4 C :   -0.210813
   5 C :   -0.158862
   6 C :   -0.261480
   7 C :    0.017419
   8 C :   -0.238659
   9 H :    0.138878
  10 H :    0.137812
  11 H :    0.140554
  12 H :    0.124125
  13 H :    0.123924
  14 H :    0.109601
  15 H :    0.117551
  16 H :    0.117896
  17 H :    0.104724
  18 H :    0.088997
  19 H :    0.110719
  20 H :    0.126034
Sum of atomic charges:    0.0000000

LOEWDIN ATOMIC CHARGES
----------------------
   0 C :   -0.276556
   1 C :   -0.160119
   2 C :   -0.103349
   3 C :   -0.143153
   4 C :   -0.139566
   5 C :   -0.239109
   6 C :   -0.221154
   7 C :   -0.179045
   8 C :   -0.187666
   9 H :    0.132556
  10 H :    0.130402
  11 H :    0.132391
  12 H :    0.142724
  13 H :    0.134093
  14 H :    0.136845
  15 H :    0.132940
  16 H :    0.128802
  17 H :    0.137576
  18 H :    0.160214
  19 H :    0.144553
  20 H :    0.136621

  Mayer bond orders larger than 0.1
B(  0-C ,  1-C ) :   0.8890 B(  0-C ,  9-H ) :   0.9269 B(  0-C , 10-H ) :   0.9476
B(  0-C , 11-H ) :   0.9318 B(  1-C ,  2-C ) :   1.6942 B(  1-C ,  8-C ) :   0.9409
B(  2-C ,  3-C ) :   1.0298 B(  2-C , 12-H ) :   0.9215 B(  3-C ,  4-C ) :   1.6611
B(  3-C ,  7-C ) :   0.9092 B(  4-C ,  5-C ) :   0.9314 B(  4-C , 13-H ) :   0.9279
B(  5-C ,  6-C ) :   0.9503 B(  5-C , 14-H ) :   0.9096 B(  5-C , 15-H ) :   0.9293
B(  6-C ,  7-C ) :   0.9296 B(  6-C , 16-H ) :   0.9339 B(  6-C , 17-H ) :   0.9228
B(  7-C ,  8-C ) :   0.9524 B(  7-C , 18-H ) :   0.8987 B(  8-C , 19-H ) :   0.8790
B(  8-C , 20-H ) :   0.9318

MP2 TOTAL ENERGY:     -349.331138113 Eh
FINAL SINGLE POINT ENERGY      -349.331138112911

DIPOLE MOMENT
-------------
                                X             Y             Z
Electronic contribution:     -0.59152      -1.24480      -2.77097
Nuclear contribution   :      0.63302       1.49699       2.93634
                        -----------------------------------------
Total Dipole Moment    :      0.04150       0.25219       0.16537
                        -----------------------------------------
Magnitude (a.u.)       :      0.30442
Magnitude (Debye)      :      0.77377

                             ****ORCA TERMINATED NORMALLY****
TOTAL RUN TIME: 0 days 0 hours 20 minutes 12 seconds 135 msec
