                         Program Version 3.0.3 - RELEASE   -
|  1> ! RI-MP2 RIJK def2-TZVP def2-TZVP/C def2-TZVP/JK TIGHTSCF
|  2> % maxcore 2000
|  3> % mp2 density relaxed end
|  4> *xyz 0 1
|  5>  C        0.0918650625     1.5478033795    -0.0166751270
|  6>  C        0.0163027542     0.0456892868    -0.0099512828
|  7>  C       -0.1343680510    -0.6716591229    -1.1422494450
|  8>  O       -0.2052765556    -2.0159979315    -1.1692040112
|  9>  C       -0.1280888101    -2.7942054290    -0.0126079704
| 10>  O       -0.2009253022    -3.9901552968    -0.1331289787
| 11>  C        0.0354133480    -2.0585292238     1.2379641545
| 12>  C        0.1188850973    -2.8900053425     2.4835653782
| 13>  C        0.1016473515    -0.7037714306     1.2129020526
| 14>  H        1.0395344448     1.9011702532     0.4057827399
| 15>  H        0.0098344944     1.9449629775    -1.0318518671
| 16>  H       -0.7126219175     1.9900949653     0.5821520502
| 17>  H       -0.2130562281    -0.2461724959    -2.1362062514
| 18>  H        0.9583413752    -3.5909939280     2.4261887305
| 19>  H        0.2402615385    -2.2625474967     3.3698395911
| 20>  H       -0.7812755785    -3.5024643182     2.6018342236
| 21>  H        0.2235555768    -0.1589447563     2.1466019028
| 22> *
| 23>
| 24>                          ****END OF INPUT****

CARTESIAN COORDINATES (ANGSTROEM)
---------------------------------
  C      0.091865    1.547803   -0.016675
  C      0.016303    0.045689   -0.009951
  C     -0.134368   -0.671659   -1.142249
  O     -0.205277   -2.015998   -1.169204
  C     -0.128089   -2.794205   -0.012608
  O     -0.200925   -3.990155   -0.133129
  C      0.035413   -2.058529    1.237964
  C      0.118885   -2.890005    2.483565
  C      0.101647   -0.703771    1.212902
  H      1.039534    1.901170    0.405783
  H      0.009834    1.944963   -1.031852
  H     -0.712622    1.990095    0.582152
  H     -0.213056   -0.246172   -2.136206
  H      0.958341   -3.590994    2.426189
  H      0.240262   -2.262547    3.369840
  H     -0.781276   -3.502464    2.601834
  H      0.223556   -0.158945    2.146602

 Total Charge           Charge          ....    0
 Multiplicity           Mult            ....    1
 Number of Electrons    NEL             ....   66
 Basis Dimension        Dim             ....  327

ORBITAL ENERGIES
----------------

  NO   OCC          E(Eh)            E(eV)
   0   2.0000     -20.627104      -561.2920
   1   2.0000     -20.534194      -558.7638
   2   2.0000     -11.382865      -309.7435
   3   2.0000     -11.318084      -307.9807
   4   2.0000     -11.273117      -306.7571
   5   2.0000     -11.259792      -306.3945
   6   2.0000     -11.252890      -306.2067
   7   2.0000     -11.244981      -305.9915
   8   2.0000     -11.231218      -305.6170
   9   2.0000      -1.472535       -40.0697
  10   2.0000      -1.371163       -37.3112
  11   2.0000      -1.144823       -31.1522
  12   2.0000      -1.077923       -29.3318
  13   2.0000      -0.965778       -26.2802
  14   2.0000      -0.961792       -26.1717
  15   2.0000      -0.879567       -23.9342
  16   2.0000      -0.839378       -22.8406
  17   2.0000      -0.734554       -19.9882
  18   2.0000      -0.702428       -19.1140
  19   2.0000      -0.658840       -17.9279
  20   2.0000      -0.643446       -17.5091
  21   2.0000      -0.621750       -16.9187
  22   2.0000      -0.610601       -16.6153
  23   2.0000      -0.589796       -16.0492
  24   2.0000      -0.576342       -15.6831
  25   2.0000      -0.575562       -15.6618
  26   2.0000      -0.561221       -15.2716
  27   2.0000      -0.527799       -14.3622
  28   2.0000      -0.517721       -14.0879
  29   2.0000      -0.507310       -13.8046
  30   2.0000      -0.446436       -12.1482
  31   2.0000      -0.433350       -11.7920
  32   2.0000      -0.320385        -8.7181
  33   0.0000       0.074126         2.0171
  34   0.0000       0.128434         3.4949
  35   0.0000       0.151103         4.1117
  36   0.0000       0.155575         4.2334
  37   0.0000       0.170229         4.6322

MULLIKEN ATOMIC CHARGES
-----------------------
   0 C :   -0.424956
   1 C :    0.082344
   2 C :    0.002895
   3 O :   -0.167254
   4 C :    0.260312
   5 O :   -0.303131
   6 C :    0.007143
   7 C :   -0.383607
   8 C :   -0.219829
   9 H :    0.146967
  10 H :    0.139823
  11 H :    0.146970
  12 H :    0.140755
  13 H :    0.151921
  14 H :    0.131449
  15 H :    0.151912
  16 H :    0.136287
Sum of atomic charges:   -0.0000000

LOEWDIN ATOMIC CHARGES
----------------------
   0 C :   -0.262407
   1 C :   -0.210008
   2 C :   -0.201757
   3 O :    0.337686
   4 C :   -0.412290
   5 O :    0.128893
   6 C :   -0.154098
   7 C :   -0.255632
   8 C :   -0.075713
   9 H :    0.132443
  10 H :    0.132924
  11 H :    0.132443
  12 H :    0.143361
  13 H :    0.139978
  14 H :    0.128401
  15 H :    0.139980
  16 H :    0.155797

  Mayer bond orders larger than 0.1
B(  0-C ,  1-C ) :   0.8682 B(  0-C ,  9-H ) :   0.9331 B(  0-C , 10-H ) :   0.9459
B(  0-C , 11-H ) :   0.9331 B(  1-C ,  2-C ) :   1.5533 B(  1-C ,  8-C ) :   1.0812
B(  2-C ,  3-O ) :   1.0777 B(  2-C , 12-H ) :   0.9472 B(  3-O ,  4-C ) :   1.0257
B(  4-C ,  5-O ) :   2.0084 B(  4-C ,  6-C ) :   1.0340 B(  6-C ,  7-C ) :   0.9025
B(  6-C ,  8-C ) :   1.5518 B(  7-C , 13-H ) :   0.9196 B(  7-C , 14-H ) :   0.9484
B(  7-C , 15-H ) :   0.9196 B(  8-C , 16-H ) :   0.9265

MP2 TOTAL ENERGY:     -421.175757342 Eh
FINAL SINGLE POINT ENERGY      -421.175757341510

DIPOLE MOMENT
-------------
                                X             Y             Z
Electronic contribution:     -0.83916      -6.09874      -5.24990
Nuclear contribution   :      0.98487       7.78751       5.84485
                        -----------------------------------------
Total Dipole Moment    :      0.14571       1.68877       0.59495
                        -----------------------------------------
Magnitude (a.u.)       :      1.79642
Magnitude (Debye)      :      4.56614

                             ****ORCA TERMINATED NORMALLY****
TOTAL RUN TIME: 0 days 0 hours 16 minutes 11 seconds 624 msec
