                         Program Version 3.0.3 - RELEASE   -
|  1> ! RI-MP2 RIJK def2-TZVP def2-TZVP/C def2-TZVP/JK TIGHTSCF
|  2> % maxcore 2000
|  3> % mp2 density relaxed end
|  4> *xyz 0 1
|  5>  C       -0.0286875034     1.4542163288     0.0730709337
|  6>  N       -0.0240776341    -0.0046364401     0.0886851380
|  7>  C       -1.2134633243    -0.6625275021     0.0469599374
|  8>  N       -2.3988246277    -0.1041370103     0.1360912352
|  9>  C       -3.2454626279    -1.1859667606     0.0909222828
| 10>  N       -2.6912046559    -2.3631138463    -0.0266990567
| 11>  N       -1.3431196033    -2.0427179038    -0.0477177229
| 12>  C       -0.3437463500    -3.0140359924    -0.0841014478
| 13>  O       -0.5296746685    -4.1936506038    -0.1686009759
| 14>  H        0.9916804668     1.8040108220     0.2406984370
| 15>  H       -0.4044689713     1.8635431485    -0.8725262993
| 16>  H       -0.6685363687     1.8186760295     0.8779399720
| 17>  H        0.7559939155    -0.4454578154    -0.3705245509
| 18>  H       -4.3191671767    -1.0748741206     0.1409493551
| 19>  H        0.6604636194    -2.5554964435    -0.0149427277
| 20> *
| 21>
| 22>                          ****END OF INPUT****

CARTESIAN COORDINATES (ANGSTROEM)
---------------------------------
  C     -0.028688    1.454216    0.073071
  N     -0.024078   -0.004636    0.088685
  C     -1.213463   -0.662528    0.046960
  N     -2.398825   -0.104137    0.136091
  C     -3.245463   -1.185967    0.090922
  N     -2.691205   -2.363114   -0.026699
  N     -1.343120   -2.042718   -0.047718
  C     -0.343746   -3.014036   -0.084101
  O     -0.529675   -4.193651   -0.168601
  H      0.991680    1.804011    0.240698
  H     -0.404469    1.863543   -0.872526
  H     -0.668536    1.818676    0.877940
  H      0.755994   -0.445458   -0.370525
  H     -4.319167   -1.074874    0.140949
  H      0.660464   -2.555496   -0.014943

 Total Charge           Charge          ....    0
 Multiplicity           Mult            ....    1
 Number of Electrons    NEL             ....   66
 Basis Dimension        Dim             ....  315

ORBITAL ENERGIES
----------------

  NO   OCC          E(Eh)            E(eV)
   0   2.0000     -20.565602      -559.6185
   1   2.0000     -15.663346      -426.2213
   2   2.0000     -15.617015      -424.9606
   3   2.0000     -15.596571      -424.4043
   4   2.0000     -15.562261      -423.4707
   5   2.0000     -11.385982      -309.8283
   6   2.0000     -11.382246      -309.7267
   7   2.0000     -11.306154      -307.6561
   8   2.0000     -11.282426      -307.0104
   9   2.0000      -1.443881       -39.2900
  10   2.0000      -1.400818       -38.1182
  11   2.0000      -1.285347       -34.9761
  12   2.0000      -1.215730       -33.0817
  13   2.0000      -1.128722       -30.7141
  14   2.0000      -0.972869       -26.4731
  15   2.0000      -0.921550       -25.0766
  16   2.0000      -0.841955       -22.9108
  17   2.0000      -0.820624       -22.3303
  18   2.0000      -0.772282       -21.0149
  19   2.0000      -0.687488       -18.7075
  20   2.0000      -0.672640       -18.3035
  21   2.0000      -0.660652       -17.9772
  22   2.0000      -0.654332       -17.8053
  23   2.0000      -0.623527       -16.9670
  24   2.0000      -0.616156       -16.7665
  25   2.0000      -0.574340       -15.6286
  26   2.0000      -0.554210       -15.0808
  27   2.0000      -0.512665       -13.9503
  28   2.0000      -0.483749       -13.1635
  29   2.0000      -0.475522       -12.9396
  30   2.0000      -0.449500       -12.2315
  31   2.0000      -0.428604       -11.6629
  32   2.0000      -0.355480        -9.6731
  33   0.0000       0.091692         2.4951
  34   0.0000       0.115089         3.1317
  35   0.0000       0.148406         4.0383
  36   0.0000       0.173572         4.7231
  37   0.0000       0.184357         5.0166

MULLIKEN ATOMIC CHARGES
-----------------------
   0 C :   -0.266563
   1 N :   -0.369682
   2 C :    0.315592
   3 N :   -0.353964
   4 C :    0.041338
   5 N :   -0.235911
   6 N :    0.059346
   7 C :    0.130918
   8 O :   -0.240119
   9 H :    0.142556
  10 H :    0.140810
  11 H :    0.162597
  12 H :    0.240935
  13 H :    0.148388
  14 H :    0.083759
Sum of atomic charges:    0.0000000

LOEWDIN ATOMIC CHARGES
----------------------
   0 C :   -0.302924
   1 N :    0.062223
   2 C :   -0.368419
   3 N :    0.084154
   4 C :   -0.323128
   5 N :    0.065133
   6 N :    0.192534
   7 C :   -0.359903
   8 O :    0.152191
   9 H :    0.119934
  10 H :    0.115892
  11 H :    0.129494
  12 H :    0.182723
  13 H :    0.135117
  14 H :    0.114978

  Mayer bond orders larger than 0.1
B(  0-C ,  1-N ) :   0.8770 B(  0-C ,  9-H ) :   0.9288 B(  0-C , 10-H ) :   0.9372
B(  0-C , 11-H ) :   0.9332 B(  1-N ,  2-C ) :   1.1155 B(  1-N , 12-H ) :   0.8724
B(  2-C ,  3-N ) :   1.5207 B(  2-C ,  6-N ) :   1.1365 B(  3-N ,  4-C ) :   1.2119
B(  4-C ,  5-N ) :   1.5792 B(  4-C , 13-H ) :   0.9339 B(  5-N ,  6-N ) :   0.9018
B(  6-N ,  7-C ) :   0.9639 B(  7-C ,  8-O ) :   2.0273 B(  7-C , 14-H ) :   0.9276

MP2 TOTAL ENERGY:     -449.416829475 Eh
FINAL SINGLE POINT ENERGY      -449.416829475040

DIPOLE MOMENT
-------------
                                X             Y             Z
Electronic contribution:     -3.06465      -7.40707      -0.12304
Nuclear contribution   :      4.34314       8.86662      -0.04212
                        -----------------------------------------
Total Dipole Moment    :      1.27849       1.45955      -0.16516
                        -----------------------------------------
Magnitude (a.u.)       :      1.94733
Magnitude (Debye)      :      4.94973

                             ****ORCA TERMINATED NORMALLY****
TOTAL RUN TIME: 0 days 0 hours 15 minutes 35 seconds 934 msec
