                         Program Version 3.0.3 - RELEASE   -
|  1> ! RI-MP2 RIJK def2-TZVP def2-TZVP/C def2-TZVP/JK TIGHTSCF
|  2> % maxcore 2000
|  3> % mp2 density relaxed end
|  4> *xyz 0 1
|  5>  C        0.1297888878    -1.1541235608    -0.6280474188
|  6>  C        0.0340850613    -0.0281995570    -0.2199300272
|  7>  C       -0.0487745153     1.3379362398     0.2861787318
|  8>  C        1.3148402216     2.0156007174     0.3216383719
|  9>  N        1.7370395993     2.7389509083    -0.8813808392
| 10>  C        1.5204393764     3.4894062984     0.3579563315
| 11>  C        0.3826177023     4.5013923156     0.3539231392
| 12>  C        0.8256183893     5.8098498360    -0.1293453581
| 13>  N        1.1959677126     6.8394929656    -0.5000430111
| 14>  H        0.2007609566    -2.1474187762    -0.9965913233
| 15>  H       -0.7311511164     1.9183735831    -0.3433935525
| 16>  H       -0.4752808691     1.3279401286     1.2981482823
| 17>  H        2.0688136436     1.4299644009     0.8447424434
| 18>  H        2.7251148391     2.6102715646    -1.0761287720
| 19>  H        2.3971533901     3.8319828977     0.9044198811
| 20>  H       -0.4315239516     4.1523563827    -0.2867184535
| 21>  H       -0.0206767479     4.6247023952     1.3661410947
| 22> *
| 23>
| 24>                          ****END OF INPUT****

CARTESIAN COORDINATES (ANGSTROEM)
---------------------------------
  C      0.129789   -1.154124   -0.628047
  C      0.034085   -0.028200   -0.219930
  C     -0.048775    1.337936    0.286179
  C      1.314840    2.015601    0.321638
  N      1.737040    2.738951   -0.881381
  C      1.520439    3.489406    0.357956
  C      0.382618    4.501392    0.353923
  C      0.825618    5.809850   -0.129345
  N      1.195968    6.839493   -0.500043
  H      0.200761   -2.147419   -0.996591
  H     -0.731151    1.918374   -0.343394
  H     -0.475281    1.327940    1.298148
  H      2.068814    1.429964    0.844742
  H      2.725115    2.610272   -1.076129
  H      2.397153    3.831983    0.904420
  H     -0.431524    4.152356   -0.286718
  H     -0.020677    4.624702    1.366141

 Total Charge           Charge          ....    0
 Multiplicity           Mult            ....    1
 Number of Electrons    NEL             ....   64
 Basis Dimension        Dim             ....  327

ORBITAL ENERGIES
----------------

  NO   OCC          E(Eh)            E(eV)
   0   2.0000     -15.579851      -423.9493
   1   2.0000     -15.570742      -423.7014
   2   2.0000     -11.295189      -307.3577
   3   2.0000     -11.291500      -307.2573
   4   2.0000     -11.291001      -307.2438
   5   2.0000     -11.275421      -306.8198
   6   2.0000     -11.272611      -306.7433
   7   2.0000     -11.243524      -305.9518
   8   2.0000     -11.230571      -305.5994
   9   2.0000      -1.294450       -35.2238
  10   2.0000      -1.219715       -33.1901
  11   2.0000      -1.083674       -29.4883
  12   2.0000      -1.062707       -28.9177
  13   2.0000      -0.991652       -26.9842
  14   2.0000      -0.889281       -24.1986
  15   2.0000      -0.818572       -22.2745
  16   2.0000      -0.755477       -20.5576
  17   2.0000      -0.726006       -19.7556
  18   2.0000      -0.696132       -18.9427
  19   2.0000      -0.645076       -17.5534
  20   2.0000      -0.643474       -17.5098
  21   2.0000      -0.636516       -17.3205
  22   2.0000      -0.607742       -16.5375
  23   2.0000      -0.557841       -15.1796
  24   2.0000      -0.544656       -14.8209
  25   2.0000      -0.498496       -13.5648
  26   2.0000      -0.486199       -13.2301
  27   2.0000      -0.466148       -12.6845
  28   2.0000      -0.459497       -12.5035
  29   2.0000      -0.425360       -11.5746
  30   2.0000      -0.396188       -10.7808
  31   2.0000      -0.393126       -10.6975
  32   0.0000       0.116850         3.1797
  33   0.0000       0.131483         3.5778
  34   0.0000       0.151889         4.1331
  35   0.0000       0.155147         4.2218
  36   0.0000       0.164059         4.4643

MULLIKEN ATOMIC CHARGES
-----------------------
   0 C :   -0.109595
   1 C :   -0.042579
   2 C :   -0.358334
   3 C :   -0.007558
   4 N :   -0.393357
   5 C :   -0.031947
   6 C :   -0.124733
   7 C :   -0.184191
   8 N :   -0.054596
   9 H :    0.193687
  10 H :    0.147509
  11 H :    0.144155
  12 H :    0.136316
  13 H :    0.228463
  14 H :    0.141928
  15 H :    0.157654
  16 H :    0.157178
Sum of atomic charges:    0.0000000

LOEWDIN ATOMIC CHARGES
----------------------
   0 C :   -0.098197
   1 C :   -0.106773
   2 C :   -0.230094
   3 C :   -0.240567
   4 N :    0.022662
   5 C :   -0.246616
   6 C :   -0.226075
   7 C :   -0.186243
   8 N :    0.059510
   9 H :    0.127526
  10 H :    0.161710
  11 H :    0.161576
  12 H :    0.146669
  13 H :    0.172035
  14 H :    0.146822
  15 H :    0.168555
  16 H :    0.167500

  Mayer bond orders larger than 0.1
B(  0-C ,  1-C ) :   2.6035 B(  0-C ,  2-C ) :  -0.1119 B(  0-C ,  9-H ) :   0.8961
B(  1-C ,  2-C ) :   1.1447 B(  2-C ,  3-C ) :   0.8914 B(  2-C , 10-H ) :   0.9334
B(  2-C , 11-H ) :   0.9190 B(  3-C ,  4-N ) :   0.9131 B(  3-C ,  5-C ) :   0.8938
B(  3-C , 12-H ) :   0.9201 B(  4-N ,  5-C ) :   0.9295 B(  4-N , 13-H ) :   0.8665
B(  5-C ,  6-C ) :   0.8837 B(  5-C , 14-H ) :   0.9151 B(  6-C ,  7-C ) :   0.9512
B(  6-C , 15-H ) :   0.9125 B(  6-C , 16-H ) :   0.9085 B(  7-C ,  8-N ) :   2.8736

MP2 TOTAL ENERGY:     -380.138204122 Eh
FINAL SINGLE POINT ENERGY      -380.138204122447

DIPOLE MOMENT
-------------
                                X             Y             Z
Electronic contribution:      0.64937       3.46449      -1.46970
Nuclear contribution   :     -0.66119      -4.80896       2.44258
                        -----------------------------------------
Total Dipole Moment    :     -0.01182      -1.34447       0.97288
                        -----------------------------------------
Magnitude (a.u.)       :      1.65958
Magnitude (Debye)      :      4.21833

                             ****ORCA TERMINATED NORMALLY****
TOTAL RUN TIME: 0 days 0 hours 13 minutes 48 seconds 630 msec
