                         Program Version 3.0.3 - RELEASE   -
|  1> ! RI-MP2 RIJK def2-TZVP def2-TZVP/C def2-TZVP/JK TIGHTSCF
|  2> % maxcore 2000
|  3> % mp2 density relaxed end
|  4> *xyz 0 1
|  5>  C       -0.0150022762     1.4695868219     0.0035798641
|  6>  N       -0.0176595696     0.0228198208     0.0385903399
|  7>  C       -0.0709383366    -0.8250757000    -1.0488625382
|  8>  N       -0.0595794759    -2.1043322668    -0.7184678458
|  9>  C        0.0039116001    -2.0853263386     0.6448630703
| 10>  C        0.0306685563    -0.8020917400     1.1340313549
| 11>  C        0.0978565385    -0.8016699379     2.5841043126
| 12>  C        0.1120998940    -2.0949512799     2.9814649456
| 13>  C        0.0539308098    -3.0484124322     1.7929428316
| 14>  H        0.8978237160     1.8717238219     0.4546289331
| 15>  H       -0.0628288473     1.7998277227    -1.0359813597
| 16>  H       -0.8792010231     1.8769454456     0.5380164953
| 17>  H       -0.1163997532    -0.4330404013    -2.0547314208
| 18>  H        0.1306787166     0.0650650889     3.2311549994
| 19>  H        0.1585678462    -2.4380262652     4.0064532715
| 20>  H       -0.8249028580    -3.7039746679     1.8490007169
| 21>  H        0.9299173426    -3.7096737320     1.7678012593
| 22> *
| 23>
| 24>                          ****END OF INPUT****

CARTESIAN COORDINATES (ANGSTROEM)
---------------------------------
  C     -0.015002    1.469587    0.003580
  N     -0.017660    0.022820    0.038590
  C     -0.070938   -0.825076   -1.048863
  N     -0.059579   -2.104332   -0.718468
  C      0.003912   -2.085326    0.644863
  C      0.030669   -0.802092    1.134031
  C      0.097857   -0.801670    2.584104
  C      0.112100   -2.094951    2.981465
  C      0.053931   -3.048412    1.792943
  H      0.897824    1.871724    0.454629
  H     -0.062829    1.799828   -1.035981
  H     -0.879201    1.876945    0.538016
  H     -0.116400   -0.433040   -2.054731
  H      0.130679    0.065065    3.231155
  H      0.158568   -2.438026    4.006453
  H     -0.824903   -3.703975    1.849001
  H      0.929917   -3.709674    1.767801

 Total Charge           Charge          ....    0
 Multiplicity           Mult            ....    1
 Number of Electrons    NEL             ....   64
 Basis Dimension        Dim             ....  327

ORBITAL ENERGIES
----------------

  NO   OCC          E(Eh)            E(eV)
   0   2.0000     -15.619181      -425.0195
   1   2.0000     -15.541490      -422.9054
   2   2.0000     -11.288235      -307.1685
   3   2.0000     -11.283632      -307.0432
   4   2.0000     -11.243668      -305.9558
   5   2.0000     -11.241106      -305.8860
   6   2.0000     -11.232220      -305.6442
   7   2.0000     -11.231442      -305.6231
   8   2.0000     -11.228865      -305.5529
   9   2.0000      -1.338081       -36.4110
  10   2.0000      -1.183839       -32.2139
  11   2.0000      -1.132310       -30.8117
  12   2.0000      -0.988745       -26.9051
  13   2.0000      -0.954668       -25.9778
  14   2.0000      -0.937373       -25.5072
  15   2.0000      -0.806570       -21.9479
  16   2.0000      -0.765904       -20.8413
  17   2.0000      -0.743414       -20.2293
  18   2.0000      -0.687582       -18.7101
  19   2.0000      -0.651224       -17.7207
  20   2.0000      -0.630417       -17.1545
  21   2.0000      -0.600219       -16.3328
  22   2.0000      -0.594052       -16.1650
  23   2.0000      -0.567551       -15.4438
  24   2.0000      -0.557247       -15.1635
  25   2.0000      -0.535607       -14.5746
  26   2.0000      -0.522861       -14.2278
  27   2.0000      -0.500900       -13.6302
  28   2.0000      -0.422286       -11.4910
  29   2.0000      -0.412124       -11.2145
  30   2.0000      -0.370462       -10.0808
  31   2.0000      -0.270491        -7.3604
  32   0.0000       0.117709         3.2030
  33   0.0000       0.128574         3.4987
  34   0.0000       0.160184         4.3588
  35   0.0000       0.170152         4.6301
  36   0.0000       0.180268         4.9053

MULLIKEN ATOMIC CHARGES
-----------------------
   0 C :   -0.325802
   1 N :   -0.048877
   2 C :   -0.005323
   3 N :   -0.271693
   4 C :   -0.060752
   5 C :    0.139109
   6 C :   -0.265776
   7 C :   -0.139408
   8 C :   -0.164933
   9 H :    0.154597
  10 H :    0.150572
  11 H :    0.154596
  12 H :    0.143236
  13 H :    0.132099
  14 H :    0.131946
  15 H :    0.138204
  16 H :    0.138203
Sum of atomic charges:   -0.0000000

LOEWDIN ATOMIC CHARGES
----------------------
   0 C :   -0.268744
   1 N :    0.241048
   2 C :   -0.293957
   3 N :    0.104427
   4 C :   -0.220707
   5 C :   -0.191191
   6 C :   -0.134449
   7 C :   -0.139526
   8 C :   -0.196412
   9 H :    0.124768
  10 H :    0.129894
  11 H :    0.124775
  12 H :    0.129532
  13 H :    0.139297
  14 H :    0.134551
  15 H :    0.158350
  16 H :    0.158347

  Mayer bond orders larger than 0.1
B(  0-C ,  1-N ) :   0.8651 B(  0-C ,  9-H ) :   0.9302 B(  0-C , 10-H ) :   0.9309
B(  0-C , 11-H ) :   0.9302 B(  1-N ,  2-C ) :   1.1465 B(  1-N ,  5-C ) :   1.1237
B(  2-C ,  3-N ) :   1.5299 B(  2-C , 12-H ) :   0.9233 B(  3-N ,  4-C ) :   1.3762
B(  4-C ,  5-C ) :   1.3439 B(  4-C ,  8-C ) :   1.0536 B(  5-C ,  6-C ) :   1.0011
B(  6-C ,  7-C ) :   1.7026 B(  6-C , 13-H ) :   0.9175 B(  7-C ,  8-C ) :   0.9739
B(  7-C , 14-H ) :   0.9288 B(  8-C , 15-H ) :   0.8874 B(  8-C , 16-H ) :   0.8874

MP2 TOTAL ENERGY:     -380.224635342 Eh
FINAL SINGLE POINT ENERGY      -380.224635341566

DIPOLE MOMENT
-------------
                                X             Y             Z
Electronic contribution:     -0.08435      -2.52922      -1.66563
Nuclear contribution   :      0.11205       3.87669       2.17472
                        -----------------------------------------
Total Dipole Moment    :      0.02769       1.34747       0.50909
                        -----------------------------------------
Magnitude (a.u.)       :      1.44070
Magnitude (Debye)      :      3.66196

                             ****ORCA TERMINATED NORMALLY****
TOTAL RUN TIME: 0 days 0 hours 17 minutes 33 seconds 341 msec
