                         Program Version 3.0.3 - RELEASE   -
|  1> ! RI-MP2 RIJK def2-TZVP def2-TZVP/C def2-TZVP/JK TIGHTSCF
|  2> % maxcore 2000
|  3> % mp2 density relaxed end
|  4> *xyz 0 1
|  5>  C       -0.0121703574     1.3019003236    -0.2112226117
|  6>  C        0.0121188872    -0.0918052756    -0.8118736293
|  7>  O        1.2617137773    -0.6919604763    -0.4745164059
|  8>  C        1.3954470619    -2.0302142652    -0.8595463650
|  9>  C        1.5501934158    -2.2234684368    -2.3628703896
| 10>  C        1.1795744350    -3.5041758773    -2.9984425201
| 11>  O        0.3404319861    -2.3619003866    -3.1224007007
| 12>  C        2.5706084402    -1.4064493024    -2.9989126729
| 13>  N        3.3944149880    -0.7633574135    -3.4912994354
| 14>  H        0.0985743788     1.2552575496     0.8757459962
| 15>  H        0.8046862106     1.9063292195    -0.6148566547
| 16>  H       -0.9590879128     1.7972203781    -0.4451558205
| 17>  H       -0.8099880169    -0.7078261824    -0.4137100540
| 18>  H       -0.1123376088    -0.0475636682    -1.9022046748
| 19>  H        2.2954376157    -2.4066167919    -0.3608768826
| 20>  H        0.5341965914    -2.6389341182    -0.5405699125
| 21>  H        1.6921524673    -3.8146567966    -3.9058760805
| 22>  H        0.7976091504    -4.3053839998    -2.3674384064
| 23> *
| 24>
| 25>                          ****END OF INPUT****

CARTESIAN COORDINATES (ANGSTROEM)
---------------------------------
  C     -0.012170    1.301900   -0.211223
  C      0.012119   -0.091805   -0.811874
  O      1.261714   -0.691960   -0.474516
  C      1.395447   -2.030214   -0.859546
  C      1.550193   -2.223468   -2.362870
  C      1.179574   -3.504176   -2.998443
  O      0.340432   -2.361900   -3.122401
  C      2.570608   -1.406449   -2.998913
  N      3.394415   -0.763357   -3.491299
  H      0.098574    1.255258    0.875746
  H      0.804686    1.906329   -0.614857
  H     -0.959088    1.797220   -0.445156
  H     -0.809988   -0.707826   -0.413710
  H     -0.112338   -0.047564   -1.902205
  H      2.295438   -2.406617   -0.360877
  H      0.534197   -2.638934   -0.540570
  H      1.692152   -3.814657   -3.905876
  H      0.797609   -4.305384   -2.367438

 Total Charge           Charge          ....    0
 Multiplicity           Mult            ....    1
 Number of Electrons    NEL             ....   68
 Basis Dimension        Dim             ....  333

ORBITAL ENERGIES
----------------

  NO   OCC          E(Eh)            E(eV)
   0   2.0000     -20.611949      -560.8796
   1   2.0000     -20.572930      -559.8179
   2   2.0000     -15.584082      -424.0644
   3   2.0000     -11.352366      -308.9136
   4   2.0000     -11.326331      -308.2051
   5   2.0000     -11.311824      -307.8104
   6   2.0000     -11.282954      -307.0248
   7   2.0000     -11.282770      -307.0198
   8   2.0000     -11.218425      -305.2689
   9   2.0000      -1.459416       -39.7127
  10   2.0000      -1.394590       -37.9487
  11   2.0000      -1.227287       -33.3962
  12   2.0000      -1.062412       -28.9097
  13   2.0000      -1.009900       -27.4808
  14   2.0000      -0.939954       -25.5774
  15   2.0000      -0.903076       -24.5740
  16   2.0000      -0.845391       -23.0043
  17   2.0000      -0.754311       -20.5258
  18   2.0000      -0.715074       -19.4582
  19   2.0000      -0.676833       -18.4176
  20   2.0000      -0.665506       -18.1093
  21   2.0000      -0.648016       -17.6334
  22   2.0000      -0.607272       -16.5247
  23   2.0000      -0.602210       -16.3870
  24   2.0000      -0.565685       -15.3931
  25   2.0000      -0.546980       -14.8841
  26   2.0000      -0.537907       -14.6372
  27   2.0000      -0.529394       -14.4055
  28   2.0000      -0.513127       -13.9629
  29   2.0000      -0.498786       -13.5727
  30   2.0000      -0.485450       -13.2098
  31   2.0000      -0.476438       -12.9645
  32   2.0000      -0.451320       -12.2810
  33   2.0000      -0.435247       -11.8437
  34   0.0000       0.133086         3.6215
  35   0.0000       0.140137         3.8133
  36   0.0000       0.155099         4.2205
  37   0.0000       0.157754         4.2927
  38   0.0000       0.160456         4.3662

MULLIKEN ATOMIC CHARGES
-----------------------
   0 C :   -0.366678
   1 C :   -0.067495
   2 O :   -0.296712
   3 C :   -0.045303
   4 C :    0.246384
   5 C :   -0.072989
   6 O :   -0.309556
   7 C :   -0.196859
   8 N :   -0.039672
   9 H :    0.128896
  10 H :    0.140185
  11 H :    0.125105
  12 H :    0.096116
  13 H :    0.123749
  14 H :    0.140568
  15 H :    0.116490
  16 H :    0.145250
  17 H :    0.132522
Sum of atomic charges:   -0.0000000

LOEWDIN ATOMIC CHARGES
----------------------
   0 C :   -0.314318
   1 C :   -0.335702
   2 O :    0.171195
   3 C :   -0.286187
   4 C :   -0.324698
   5 C :   -0.214173
   6 O :    0.193415
   7 C :   -0.140437
   8 N :    0.087009
   9 H :    0.124171
  10 H :    0.127542
  11 H :    0.126183
  12 H :    0.119089
  13 H :    0.124222
  14 H :    0.146229
  15 H :    0.135785
  16 H :    0.132643
  17 H :    0.128030

  Mayer bond orders larger than 0.1
B(  0-C ,  1-C ) :   0.9491 B(  0-C ,  9-H ) :   0.9352 B(  0-C , 10-H ) :   0.9351
B(  0-C , 11-H ) :   0.9311 B(  1-C ,  2-O ) :   0.8906 B(  1-C , 12-H ) :   0.9199
B(  1-C , 13-H ) :   0.9260 B(  2-O ,  3-C ) :   0.9926 B(  3-C ,  4-C ) :   0.8817
B(  3-C , 14-H ) :   0.9203 B(  3-C , 15-H ) :   0.9384 B(  4-C ,  5-C ) :   0.9299
B(  4-C ,  6-O ) :   0.8474 B(  4-C ,  7-C ) :   0.9391 B(  5-C ,  6-O ) :   0.9051
B(  5-C , 16-H ) :   0.9078 B(  5-C , 17-H ) :   0.9100 B(  7-C ,  8-N ) :   2.8449

MP2 TOTAL ENERGY:     -438.337452464 Eh
FINAL SINGLE POINT ENERGY      -438.337452463950

DIPOLE MOMENT
-------------
                                X             Y             Z
Electronic contribution:      5.55578      -3.70117      -6.14367
Nuclear contribution   :     -6.41965       2.48726       6.80404
                        -----------------------------------------
Total Dipole Moment    :     -0.86387      -1.21391       0.66037
                        -----------------------------------------
Magnitude (a.u.)       :      1.62970
Magnitude (Debye)      :      4.14238

                             ****ORCA TERMINATED NORMALLY****
TOTAL RUN TIME: 0 days 0 hours 16 minutes 7 seconds 573 msec
