                         Program Version 3.0.3 - RELEASE   -
|  1> ! RI-MP2 RIJK def2-TZVP def2-TZVP/C def2-TZVP/JK TIGHTSCF
|  2> % maxcore 2000
|  3> % mp2 density relaxed end
|  4> *xyz 0 1
|  5>  O       -0.0401054310    -0.1009570943     0.0039776808
|  6>  C       -0.0434568713     1.1255880735     0.0099648046
|  7>  C       -1.2661956060     1.9335604843     0.0310391965
|  8>  C       -1.2230756216     3.2855805079     0.0367025525
|  9>  N       -0.0353068276     3.9633489948     0.0229082294
| 10>  C        1.1690140678     3.2873363073     0.0025562294
| 11>  C        1.1857092904     1.9251729730    -0.0040036737
| 12>  C        2.3392056814     4.0966152415    -0.0104478796
| 13>  C        3.3134292334     4.8028930769    -0.0212091499
| 14>  H       -2.2177774906     1.4170154886     0.0421647695
| 15>  H       -2.1091740044     3.9092900903     0.0522129318
| 16>  H       -0.0218141342     4.9694590605     0.0274080894
| 17>  H        2.1333301097     1.4025184109    -0.0200208271
| 18>  H        4.1857998440     5.4092045848    -0.0311068936
| 19> *
| 20>
| 21>                          ****END OF INPUT****

CARTESIAN COORDINATES (ANGSTROEM)
---------------------------------
  O     -0.040105   -0.100957    0.003978
  C     -0.043457    1.125588    0.009965
  C     -1.266196    1.933560    0.031039
  C     -1.223076    3.285581    0.036703
  N     -0.035307    3.963349    0.022908
  C      1.169014    3.287336    0.002556
  C      1.185709    1.925173   -0.004004
  C      2.339206    4.096615   -0.010448
  C      3.313429    4.802893   -0.021209
  H     -2.217777    1.417015    0.042165
  H     -2.109174    3.909290    0.052213
  H     -0.021814    4.969459    0.027408
  H      2.133330    1.402518   -0.020021
  H      4.185800    5.409205   -0.031107

 Total Charge           Charge          ....    0
 Multiplicity           Mult            ....    1
 Number of Electrons    NEL             ....   62
 Basis Dimension        Dim             ....  309

ORBITAL ENERGIES
----------------

  NO   OCC          E(Eh)            E(eV)
   0   2.0000     -20.503693      -557.9339
   1   2.0000     -15.639277      -425.5664
   2   2.0000     -11.336020      -308.4688
   3   2.0000     -11.316985      -307.9508
   4   2.0000     -11.313634      -307.8596
   5   2.0000     -11.270339      -306.6815
   6   2.0000     -11.266246      -306.5701
   7   2.0000     -11.244343      -305.9741
   8   2.0000     -11.235408      -305.7310
   9   2.0000      -1.349570       -36.7237
  10   2.0000      -1.320239       -35.9255
  11   2.0000      -1.109719       -30.1970
  12   2.0000      -1.071633       -29.1606
  13   2.0000      -1.036600       -28.2073
  14   2.0000      -0.896537       -24.3960
  15   2.0000      -0.870272       -23.6813
  16   2.0000      -0.801326       -21.8052
  17   2.0000      -0.748684       -20.3727
  18   2.0000      -0.706274       -19.2187
  19   2.0000      -0.695945       -18.9376
  20   2.0000      -0.648683       -17.6516
  21   2.0000      -0.623852       -16.9759
  22   2.0000      -0.613888       -16.7047
  23   2.0000      -0.574253       -15.6262
  24   2.0000      -0.552804       -15.0426
  25   2.0000      -0.516569       -14.0566
  26   2.0000      -0.467742       -12.7279
  27   2.0000      -0.437196       -11.8967
  28   2.0000      -0.401795       -10.9334
  29   2.0000      -0.369049       -10.0423
  30   2.0000      -0.328718        -8.9449
  31   0.0000       0.073352         1.9960
  32   0.0000       0.113700         3.0939
  33   0.0000       0.115124         3.1327
  34   0.0000       0.144736         3.9385
  35   0.0000       0.149323         4.0633

MULLIKEN ATOMIC CHARGES
-----------------------
   0 O :   -0.362754
   1 C :    0.242031
   2 C :   -0.229499
   3 C :   -0.002330
   4 N :   -0.294050
   5 C :    0.111493
   6 C :   -0.306670
   7 C :    0.006862
   8 C :   -0.070375
   9 H :    0.141652
  10 H :    0.154920
  11 H :    0.255849
  12 H :    0.146955
  13 H :    0.205916
Sum of atomic charges:    0.0000000

LOEWDIN ATOMIC CHARGES
----------------------
   0 O :    0.080387
   1 C :   -0.375776
   2 C :   -0.130060
   3 C :   -0.191920
   4 N :    0.202066
   5 C :   -0.201646
   6 C :   -0.069144
   7 C :   -0.067599
   8 C :   -0.051117
   9 H :    0.155785
  10 H :    0.146818
  11 H :    0.207227
  12 H :    0.162055
  13 H :    0.132926

  Mayer bond orders larger than 0.1
B(  0-O ,  1-C ) :   1.8650 B(  1-C ,  2-C ) :   1.0918 B(  1-C ,  6-C ) :   1.0465
B(  2-C ,  3-C ) :   1.5516 B(  2-C ,  9-H ) :   0.9130 B(  3-C ,  4-N ) :   1.1280
B(  3-C , 10-H ) :   0.8998 B(  4-N ,  5-C ) :   1.1310 B(  4-N , 11-H ) :   0.8715
B(  5-C ,  6-C ) :   1.4458 B(  5-C ,  7-C ) :   1.1131 B(  5-C ,  8-C ) :  -0.1520
B(  6-C , 12-H ) :   0.9410 B(  7-C ,  8-C ) :   2.5874 B(  8-C , 13-H ) :   0.8733

MP2 TOTAL ENERGY:     -398.859255981 Eh
FINAL SINGLE POINT ENERGY      -398.859255981167

DIPOLE MOMENT
-------------
                                X             Y             Z
Electronic contribution:      0.80797      -0.98978      -0.01575
Nuclear contribution   :     -0.78642       3.53913       0.02726
                        -----------------------------------------
Total Dipole Moment    :      0.02155       2.54935       0.01152
                        -----------------------------------------
Magnitude (a.u.)       :      2.54946
Magnitude (Debye)      :      6.48022

                             ****ORCA TERMINATED NORMALLY****
TOTAL RUN TIME: 0 days 0 hours 14 minutes 31 seconds 291 msec
