                         Program Version 3.0.3 - RELEASE   -
|  1> ! RI-MP2 RIJK def2-TZVP def2-TZVP/C def2-TZVP/JK TIGHTSCF
|  2> % maxcore 2000
|  3> % mp2 density relaxed end
|  4> *xyz 0 1
|  5>  C        0.2545485770     1.5481336028     0.4957420008
|  6>  C        0.0889074622     0.0631401203     0.2822160913
|  7>  O       -1.2283213726    -0.3608183323     0.0360766945
|  8>  C        1.2054450808    -0.7248288397    -0.3869657663
|  9>  C        0.8949421754    -0.9339143081     1.0692591494
| 10>  O        1.8696234920    -0.5250792943     1.9833560567
| 11>  C        1.4717152206    -0.6444289798     3.3198071160
| 12>  C        2.1979650773     0.2059603557     4.3081846899
| 13>  C        0.7363374434     0.4773840390     4.0033561491
| 14>  H        1.2635122150     1.7793670461     0.8445484759
| 15>  H        0.0789157267     2.1011707395    -0.4351089954
| 16>  H       -0.4646937432     1.9044107596     1.2402132289
| 17>  H       -1.4728541595    -0.0659894644    -0.8486788042
| 18>  H        0.9354184173    -1.5150511073    -1.0785802172
| 19>  H        2.1228777516    -0.1935244045    -0.6176381127
| 20>  H        0.3719037726    -1.8506241222     1.3392489958
| 21>  H        1.2164178001    -1.6649932650     3.6061730130
| 22>  H        2.4683756076    -0.2249995596     5.2654483199
| 23>  H        2.9231826176     0.9017998087     3.9018807638
| 24>  H        0.5117844716     1.3570899529     3.4128526958
| 25>  H       -0.0106343937     0.2264763827     4.7486878050
| 26> *
| 27>
| 28>                          ****END OF INPUT****

CARTESIAN COORDINATES (ANGSTROEM)
---------------------------------
  C      0.254549    1.548134    0.495742
  C      0.088907    0.063140    0.282216
  O     -1.228321   -0.360818    0.036077
  C      1.205445   -0.724829   -0.386966
  C      0.894942   -0.933914    1.069259
  O      1.869623   -0.525079    1.983356
  C      1.471715   -0.644429    3.319807
  C      2.197965    0.205960    4.308185
  C      0.736337    0.477384    4.003356
  H      1.263512    1.779367    0.844548
  H      0.078916    2.101171   -0.435109
  H     -0.464694    1.904411    1.240213
  H     -1.472854   -0.065989   -0.848679
  H      0.935418   -1.515051   -1.078580
  H      2.122878   -0.193524   -0.617638
  H      0.371904   -1.850624    1.339249
  H      1.216418   -1.664993    3.606173
  H      2.468376   -0.225000    5.265448
  H      2.923183    0.901800    3.901881
  H      0.511784    1.357090    3.412853
  H     -0.010634    0.226476    4.748688

 Total Charge           Charge          ....    0
 Multiplicity           Mult            ....    1
 Number of Electrons    NEL             ....   70
 Basis Dimension        Dim             ....  351

ORBITAL ENERGIES
----------------

  NO   OCC          E(Eh)            E(eV)
   0   2.0000     -20.564595      -559.5911
   1   2.0000     -20.561281      -559.5009
   2   2.0000     -11.285615      -307.0972
   3   2.0000     -11.281439      -306.9835
   4   2.0000     -11.278553      -306.9050
   5   2.0000     -11.224049      -305.4219
   6   2.0000     -11.223384      -305.4038
   7   2.0000     -11.220738      -305.3318
   8   2.0000     -11.218725      -305.2770
   9   2.0000      -1.392101       -37.8810
  10   2.0000      -1.369069       -37.2543
  11   2.0000      -1.142806       -31.0973
  12   2.0000      -1.106018       -30.0963
  13   2.0000      -0.970624       -26.4120
  14   2.0000      -0.843107       -22.9421
  15   2.0000      -0.822652       -22.3855
  16   2.0000      -0.816487       -22.2177
  17   2.0000      -0.771849       -21.0031
  18   2.0000      -0.698615       -19.0103
  19   2.0000      -0.689855       -18.7719
  20   2.0000      -0.656488       -17.8639
  21   2.0000      -0.634900       -17.2765
  22   2.0000      -0.622773       -16.9465
  23   2.0000      -0.585985       -15.9455
  24   2.0000      -0.574900       -15.6438
  25   2.0000      -0.564282       -15.3549
  26   2.0000      -0.546374       -14.8676
  27   2.0000      -0.524648       -14.2764
  28   2.0000      -0.514997       -14.0138
  29   2.0000      -0.504846       -13.7376
  30   2.0000      -0.484722       -13.1900
  31   2.0000      -0.424760       -11.5583
  32   2.0000      -0.418391       -11.3850
  33   2.0000      -0.397655       -10.8207
  34   2.0000      -0.370780       -10.0894
  35   0.0000       0.136811         3.7228
  36   0.0000       0.159862         4.3501
  37   0.0000       0.162151         4.4124
  38   0.0000       0.175819         4.7843
  39   0.0000       0.181532         4.9397

MULLIKEN ATOMIC CHARGES
-----------------------
   0 C :   -0.441995
   1 C :    0.203557
   2 O :   -0.462540
   3 C :   -0.316446
   4 C :    0.053573
   5 O :   -0.288560
   6 C :    0.026499
   7 C :   -0.256057
   8 C :   -0.253332
   9 H :    0.146641
  10 H :    0.127846
  11 H :    0.138359
  12 H :    0.319052
  13 H :    0.140206
  14 H :    0.130301
  15 H :    0.100093
  16 H :    0.106471
  17 H :    0.129856
  18 H :    0.135645
  19 H :    0.133148
  20 H :    0.127681
Sum of atomic charges:    0.0000000

LOEWDIN ATOMIC CHARGES
----------------------
   0 C :   -0.281166
   1 C :   -0.377568
   2 O :    0.017511
   3 C :   -0.196698
   4 C :   -0.272203
   5 O :    0.225462
   6 C :   -0.312427
   7 C :   -0.226339
   8 C :   -0.230719
   9 H :    0.134316
  10 H :    0.124311
  11 H :    0.127891
  12 H :    0.179781
  13 H :    0.135977
  14 H :    0.141347
  15 H :    0.142121
  16 H :    0.133420
  17 H :    0.131434
  18 H :    0.138229
  19 H :    0.134848
  20 H :    0.130471

  Mayer bond orders larger than 0.1
B(  0-C ,  1-C ) :   0.9293 B(  0-C ,  9-H ) :   0.9279 B(  0-C , 10-H ) :   0.9244
B(  0-C , 11-H ) :   0.9414 B(  1-C ,  2-O ) :   1.0016 B(  1-C ,  3-C ) :   0.8901
B(  1-C ,  4-C ) :   0.8561 B(  2-O , 12-H ) :   0.8403 B(  3-C ,  4-C ) :   0.8948
B(  3-C , 13-H ) :   0.9187 B(  3-C , 14-H ) :   0.9064 B(  4-C ,  5-O ) :   0.9562
B(  4-C , 15-H ) :   0.9206 B(  5-O ,  6-C ) :   0.9469 B(  6-C ,  7-C ) :   0.8994
B(  6-C ,  8-C ) :   0.8828 B(  6-C , 16-H ) :   0.9315 B(  7-C ,  8-C ) :   0.9116
B(  7-C , 17-H ) :   0.9251 B(  7-C , 18-H ) :   0.9238 B(  8-C , 19-H ) :   0.9243
B(  8-C , 20-H ) :   0.9209

MP2 TOTAL ENERGY:     -423.470639737 Eh
FINAL SINGLE POINT ENERGY      -423.470639736854

DIPOLE MOMENT
-------------
                                X             Y             Z
Electronic contribution:     -0.39965      -3.38180      -1.73615
Nuclear contribution   :      0.30691       3.58439       1.49595
                        -----------------------------------------
Total Dipole Moment    :     -0.09273       0.20259      -0.24020
                        -----------------------------------------
Magnitude (a.u.)       :      0.32763
Magnitude (Debye)      :      0.83276

                             ****ORCA TERMINATED NORMALLY****
TOTAL RUN TIME: 0 days 0 hours 18 minutes 2 seconds 586 msec
