                         Program Version 3.0.3 - RELEASE   -
|  1> ! RI-MP2 RIJK def2-TZVP def2-TZVP/C def2-TZVP/JK TIGHTSCF
|  2> % maxcore 2000
|  3> % mp2 density relaxed end
|  4> *xyz 0 1
|  5>  O        0.2634562854     1.4463158165     0.3346410453
|  6>  C       -0.0231154807     0.1147462837     0.0393088669
|  7>  C       -1.5162856680    -0.2043581587    -0.2260099282
|  8>  N       -1.5166980391    -1.4125807070    -1.0615225271
|  9>  C       -0.3778441247    -1.2981987730    -1.9780541847
| 10>  C        0.5801576919    -0.2929305965    -1.3430870138
| 11>  O        1.5547611561     0.2362908661    -1.7987454572
| 12>  C        0.5075049838    -0.8156332884     1.0581285117
| 13>  N        0.9124579948    -1.5694246895     1.8364048850
| 14>  H        1.0990877981     1.6529625979    -0.1142320347
| 15>  H       -2.0971976573    -0.3566965469     0.6834636580
| 16>  H       -1.9396675933     0.6442993236    -0.7759479687
| 17>  H       -1.4073340014    -2.2298080249    -0.4716159313
| 18>  H        0.1129555352    -2.2575581406    -2.1625460311
| 19>  H       -0.6858904109    -0.8990409224    -2.9538991401
| 20> *
| 21>
| 22>                          ****END OF INPUT****

CARTESIAN COORDINATES (ANGSTROEM)
---------------------------------
  O      0.263456    1.446316    0.334641
  C     -0.023115    0.114746    0.039309
  C     -1.516286   -0.204358   -0.226010
  N     -1.516698   -1.412581   -1.061523
  C     -0.377844   -1.298199   -1.978054
  C      0.580158   -0.292931   -1.343087
  O      1.554761    0.236291   -1.798745
  C      0.507505   -0.815633    1.058129
  N      0.912458   -1.569425    1.836405
  H      1.099088    1.652963   -0.114232
  H     -2.097198   -0.356697    0.683464
  H     -1.939668    0.644299   -0.775948
  H     -1.407334   -2.229808   -0.471616
  H      0.112956   -2.257558   -2.162546
  H     -0.685890   -0.899041   -2.953899

 Total Charge           Charge          ....    0
 Multiplicity           Mult            ....    1
 Number of Electrons    NEL             ....   66
 Basis Dimension        Dim             ....  315

ORBITAL ENERGIES
----------------

  NO   OCC          E(Eh)            E(eV)
   0   2.0000     -20.603096      -560.6387
   1   2.0000     -20.598245      -560.5067
   2   2.0000     -15.595476      -424.3745
   3   2.0000     -15.588747      -424.1914
   4   2.0000     -11.374560      -309.5175
   5   2.0000     -11.362645      -309.1933
   6   2.0000     -11.299371      -307.4715
   7   2.0000     -11.298547      -307.4491
   8   2.0000     -11.292488      -307.2842
   9   2.0000      -1.451727       -39.5035
  10   2.0000      -1.411378       -38.4055
  11   2.0000      -1.271493       -34.5991
  12   2.0000      -1.236594       -33.6494
  13   2.0000      -1.060265       -28.8513
  14   2.0000      -1.014063       -27.5941
  15   2.0000      -0.895750       -24.3746
  16   2.0000      -0.825862       -22.4729
  17   2.0000      -0.760768       -20.7015
  18   2.0000      -0.735917       -20.0253
  19   2.0000      -0.701970       -19.1016
  20   2.0000      -0.696420       -18.9505
  21   2.0000      -0.636561       -17.3217
  22   2.0000      -0.629652       -17.1337
  23   2.0000      -0.595063       -16.1925
  24   2.0000      -0.585601       -15.9350
  25   2.0000      -0.573918       -15.6171
  26   2.0000      -0.571020       -15.5382
  27   2.0000      -0.546998       -14.8846
  28   2.0000      -0.521934       -14.2026
  29   2.0000      -0.495459       -13.4821
  30   2.0000      -0.487877       -13.2758
  31   2.0000      -0.459793       -12.5116
  32   2.0000      -0.405704       -11.0398
  33   0.0000       0.085928         2.3382
  34   0.0000       0.116791         3.1780
  35   0.0000       0.137659         3.7459
  36   0.0000       0.152564         4.1515
  37   0.0000       0.162962         4.4344

MULLIKEN ATOMIC CHARGES
-----------------------
   0 O :   -0.440240
   1 C :    0.356448
   2 C :   -0.155414
   3 N :   -0.339888
   4 C :   -0.175520
   5 C :    0.141744
   6 O :   -0.261112
   7 C :   -0.275179
   8 N :   -0.044162
   9 H :    0.341866
  10 H :    0.162262
  11 H :    0.139453
  12 H :    0.232652
  13 H :    0.169128
  14 H :    0.147964
Sum of atomic charges:   -0.0000000

LOEWDIN ATOMIC CHARGES
----------------------
   0 O :    0.055675
   1 C :   -0.370294
   2 C :   -0.228774
   3 N :   -0.005212
   4 C :   -0.256274
   5 C :   -0.274290
   6 O :    0.183841
   7 C :   -0.150877
   8 N :    0.079572
   9 H :    0.195010
  10 H :    0.144070
  11 H :    0.146365
  12 H :    0.176179
  13 H :    0.151695
  14 H :    0.153314

  Mayer bond orders larger than 0.1
B(  0-O ,  1-C ) :   1.0895 B(  0-O ,  9-H ) :   0.8078 B(  1-C ,  2-C ) :   0.8574
B(  1-C ,  5-C ) :   0.8047 B(  1-C ,  7-C ) :   0.8498 B(  2-C ,  3-N ) :   0.9424
B(  2-C , 10-H ) :   0.9253 B(  2-C , 11-H ) :   0.9234 B(  3-N ,  4-C ) :   0.9813
B(  3-N , 12-H ) :   0.8815 B(  4-C ,  5-C ) :   0.9086 B(  4-C , 13-H ) :   0.9075
B(  4-C , 14-H ) :   0.8980 B(  5-C ,  6-O ) :   1.9733 B(  7-C ,  8-N ) :   2.8364

MP2 TOTAL ENERGY:     -453.231418040 Eh
FINAL SINGLE POINT ENERGY      -453.231418039851

DIPOLE MOMENT
-------------
                                X             Y             Z
Electronic contribution:      4.20089       1.02612       2.41391
Nuclear contribution   :     -4.84689      -1.05268      -3.30343
                        -----------------------------------------
Total Dipole Moment    :     -0.64600      -0.02655      -0.88952
                        -----------------------------------------
Magnitude (a.u.)       :      1.09967
Magnitude (Debye)      :      2.79513

                             ****ORCA TERMINATED NORMALLY****
TOTAL RUN TIME: 0 days 0 hours 15 minutes 19 seconds 482 msec
