                         Program Version 3.0.3 - RELEASE   -
|  1> ! RI-MP2 RIJK def2-TZVP def2-TZVP/C def2-TZVP/JK TIGHTSCF
|  2> % maxcore 2000
|  3> % mp2 density relaxed end
|  4> *xyz 0 1
|  5>  C       -2.6489537652     1.5457977558     0.2306345773
|  6>  C       -2.2627093217     0.0913808892    -0.0539638008
|  7>  C       -2.1694488460    -0.7535320641     1.2253212317
|  8>  C       -1.8231768846    -2.2201322377     1.0039637296
|  9>  C       -0.4386649232    -2.4684925958     0.4429597551
| 10>  O        0.5213238546    -1.9183088649     1.3389554016
| 11>  C       -2.3274844514    -3.2396930837     2.0025452768
| 12>  C       -2.8837451291    -3.2284973735     0.5987422252
| 13>  C       -4.3277795009    -2.8654858098     0.3248065293
| 14>  H       -2.6972639190     2.1359792661    -0.6900419564
| 15>  H       -3.6289128680     1.6079808055     0.7173736460
| 16>  H       -1.9212502452     2.0241375010     0.8957052418
| 17>  H       -2.9934242854    -0.3571326573    -0.7384647516
| 18>  H       -1.3004081363     0.0734652907    -0.5800061570
| 19>  H       -1.4056880638    -0.3237850939     1.8840559087
| 20>  H       -3.1173348717    -0.6790115240     1.7704765421
| 21>  H       -0.2851906618    -3.5523656749     0.3193013643
| 22>  H       -0.3454746657    -2.0119837112    -0.5551982233
| 23>  H        1.3851255768    -1.9693074617     0.9197182696
| 24>  H       -1.6650165905    -4.0453316720     2.3014783266
| 25>  H       -2.9719767064    -2.8794812910     2.7987988308
| 26>  H       -2.5189846420    -4.0281689620    -0.0434023583
| 27>  H       -4.6855208989    -2.0705054074     0.9846813781
| 28>  H       -4.4709327867    -2.5303647329    -0.7086338727
| 29>  H       -4.9767386678    -3.7345124807     0.4818941754
| 30> *
| 31>
| 32>                          ****END OF INPUT****

CARTESIAN COORDINATES (ANGSTROEM)
---------------------------------
  C     -2.648954    1.545798    0.230635
  C     -2.262709    0.091381   -0.053964
  C     -2.169449   -0.753532    1.225321
  C     -1.823177   -2.220132    1.003964
  C     -0.438665   -2.468493    0.442960
  O      0.521324   -1.918309    1.338955
  C     -2.327484   -3.239693    2.002545
  C     -2.883745   -3.228497    0.598742
  C     -4.327780   -2.865486    0.324807
  H     -2.697264    2.135979   -0.690042
  H     -3.628913    1.607981    0.717374
  H     -1.921250    2.024138    0.895705
  H     -2.993424   -0.357133   -0.738465
  H     -1.300408    0.073465   -0.580006
  H     -1.405688   -0.323785    1.884056
  H     -3.117335   -0.679012    1.770477
  H     -0.285191   -3.552366    0.319301
  H     -0.345475   -2.011984   -0.555198
  H      1.385126   -1.969307    0.919718
  H     -1.665017   -4.045332    2.301478
  H     -2.971977   -2.879481    2.798799
  H     -2.518985   -4.028169   -0.043402
  H     -4.685521   -2.070505    0.984681
  H     -4.470933   -2.530365   -0.708634
  H     -4.976739   -3.734512    0.481894

 Total Charge           Charge          ....    0
 Multiplicity           Mult            ....    1
 Number of Electrons    NEL             ....   72
 Basis Dimension        Dim             ....  375

ORBITAL ENERGIES
----------------

  NO   OCC          E(Eh)            E(eV)
   0   2.0000     -20.551627      -559.2382
   1   2.0000     -11.272727      -306.7465
   2   2.0000     -11.227518      -305.5163
   3   2.0000     -11.226373      -305.4852
   4   2.0000     -11.214618      -305.1653
   5   2.0000     -11.213055      -305.1227
   6   2.0000     -11.212696      -305.1130
   7   2.0000     -11.210184      -305.0446
   8   2.0000     -11.207721      -304.9776
   9   2.0000      -1.355505       -36.8852
  10   2.0000      -1.153339       -31.3840
  11   2.0000      -1.047599       -28.5066
  12   2.0000      -0.979114       -26.6431
  13   2.0000      -0.930281       -25.3142
  14   2.0000      -0.913899       -24.8684
  15   2.0000      -0.809303       -22.0223
  16   2.0000      -0.787236       -21.4218
  17   2.0000      -0.723105       -19.6767
  18   2.0000      -0.691476       -18.8160
  19   2.0000      -0.650175       -17.6922
  20   2.0000      -0.646330       -17.5875
  21   2.0000      -0.610832       -16.6216
  22   2.0000      -0.586224       -15.9520
  23   2.0000      -0.563822       -15.3424
  24   2.0000      -0.561370       -15.2757
  25   2.0000      -0.548832       -14.9345
  26   2.0000      -0.539313       -14.6755
  27   2.0000      -0.521729       -14.1970
  28   2.0000      -0.509608       -13.8671
  29   2.0000      -0.491640       -13.3782
  30   2.0000      -0.479465       -13.0469
  31   2.0000      -0.469171       -12.7668
  32   2.0000      -0.452953       -12.3255
  33   2.0000      -0.442209       -12.0331
  34   2.0000      -0.391926       -10.6648
  35   2.0000      -0.383572       -10.4375
  36   0.0000       0.129817         3.5325
  37   0.0000       0.147227         4.0063
  38   0.0000       0.158248         4.3061
  39   0.0000       0.168778         4.5927
  40   0.0000       0.176063         4.7909

MULLIKEN ATOMIC CHARGES
-----------------------
   0 C :   -0.388368
   1 C :   -0.224510
   2 C :   -0.245551
   3 C :    0.173086
   4 C :   -0.130399
   5 O :   -0.466366
   6 C :   -0.301342
   7 C :   -0.118580
   8 C :   -0.414647
   9 H :    0.130930
  10 H :    0.120935
  11 H :    0.124666
  12 H :    0.110018
  13 H :    0.108705
  14 H :    0.140885
  15 H :    0.107515
  16 H :    0.096161
  17 H :    0.110534
  18 H :    0.312841
  19 H :    0.128762
  20 H :    0.122545
  21 H :    0.109563
  22 H :    0.125056
  23 H :    0.129722
  24 H :    0.137840
Sum of atomic charges:   -0.0000000

LOEWDIN ATOMIC CHARGES
----------------------
   0 C :   -0.321109
   1 C :   -0.288679
   2 C :   -0.224986
   3 C :   -0.236914
   4 C :   -0.306565
   5 O :   -0.044521
   6 C :   -0.186743
   7 C :   -0.214944
   8 C :   -0.295828
   9 H :    0.119203
  10 H :    0.119421
  11 H :    0.121155
  12 H :    0.134243
  13 H :    0.133849
  14 H :    0.149558
  15 H :    0.140334
  16 H :    0.121791
  17 H :    0.118633
  18 H :    0.170757
  19 H :    0.133837
  20 H :    0.135708
  21 H :    0.147683
  22 H :    0.125068
  23 H :    0.122868
  24 H :    0.126183

  Mayer bond orders larger than 0.1
B(  0-C ,  1-C ) :   0.9203 B(  0-C ,  9-H ) :   0.9435 B(  0-C , 10-H ) :   0.9417
B(  0-C , 11-H ) :   0.9393 B(  1-C ,  2-C ) :   0.9208 B(  1-C , 12-H ) :   0.9365
B(  1-C , 13-H ) :   0.9314 B(  2-C ,  3-C ) :   0.9059 B(  2-C , 14-H ) :   0.9197
B(  2-C , 15-H ) :   0.9349 B(  3-C ,  4-C ) :   0.9199 B(  3-C ,  6-C ) :   0.8542
B(  3-C ,  7-C ) :   0.8476 B(  4-C ,  5-O ) :   1.0523 B(  4-C , 16-H ) :   0.9148
B(  4-C , 17-H ) :   0.9369 B(  5-O , 18-H ) :   0.8476 B(  6-C ,  7-C ) :   0.9111
B(  6-C , 19-H ) :   0.9241 B(  6-C , 20-H ) :   0.9218 B(  7-C ,  8-C ) :   0.8982
B(  7-C , 21-H ) :   0.9264 B(  8-C , 22-H ) :   0.9380 B(  8-C , 23-H ) :   0.9403
B(  8-C , 24-H ) :   0.9383

MP2 TOTAL ENERGY:     -388.809304545 Eh
FINAL SINGLE POINT ENERGY      -388.809304544560

DIPOLE MOMENT
-------------
                                X             Y             Z
Electronic contribution:      5.38062      -3.93886       2.06898
Nuclear contribution   :     -5.22488       3.74182      -2.61762
                        -----------------------------------------
Total Dipole Moment    :      0.15574      -0.19704      -0.54863
                        -----------------------------------------
Magnitude (a.u.)       :      0.60339
Magnitude (Debye)      :      1.53369

                             ****ORCA TERMINATED NORMALLY****
TOTAL RUN TIME: 0 days 0 hours 20 minutes 56 seconds 700 msec
