                         Program Version 3.0.3 - RELEASE   -
|  1> ! RI-MP2 RIJK def2-TZVP def2-TZVP/C def2-TZVP/JK TIGHTSCF
|  2> % maxcore 2000
|  3> % mp2 density relaxed end
|  4> *xyz 0 1
|  5>  C       -0.8894832622     1.0368991781     0.1787160099
|  6>  C        0.2007423711     0.0203302916    -0.0511074663
|  7>  O        1.1940825551    -0.0861794813     0.6222704085
|  8>  C       -0.0050310670    -0.9479861753    -1.2356512774
|  9>  O       -1.1777851891    -1.7072396374    -1.0296687416
| 10>  C       -1.7802454715    -1.8964145013    -2.2966385125
| 11>  C       -1.2214891932    -0.7700667268    -3.1563011589
| 12>  O       -1.5578197367    -0.3968754968    -4.2361144437
| 13>  O       -0.1954856710    -0.2138890331    -2.4445122807
| 14>  H       -0.9760691793     1.6915752749    -0.6946915652
| 15>  H       -1.8508320783     0.5277042891     0.2979746155
| 16>  H       -0.6611376085     1.6274565545     1.0656659267
| 17>  H        0.8855800684    -1.5832632345    -1.3366107156
| 18>  H       -1.5187472911    -2.8674491050    -2.7416225205
| 19>  H       -2.8663580464    -1.8266632666    -2.2080676182
| 20> *
| 21>
| 22>                          ****END OF INPUT****

CARTESIAN COORDINATES (ANGSTROEM)
---------------------------------
  C     -0.889483    1.036899    0.178716
  C      0.200742    0.020330   -0.051107
  O      1.194083   -0.086179    0.622270
  C     -0.005031   -0.947986   -1.235651
  O     -1.177785   -1.707240   -1.029669
  C     -1.780245   -1.896415   -2.296639
  C     -1.221489   -0.770067   -3.156301
  O     -1.557820   -0.396875   -4.236114
  O     -0.195486   -0.213889   -2.444512
  H     -0.976069    1.691575   -0.694692
  H     -1.850832    0.527704    0.297975
  H     -0.661138    1.627457    1.065666
  H      0.885580   -1.583263   -1.336611
  H     -1.518747   -2.867449   -2.741623
  H     -2.866358   -1.826663   -2.208068

 Total Charge           Charge          ....    0
 Multiplicity           Mult            ....    1
 Number of Electrons    NEL             ....   68
 Basis Dimension        Dim             ....  315

ORBITAL ENERGIES
----------------

  NO   OCC          E(Eh)            E(eV)
   0   2.0000     -20.637924      -561.5865
   1   2.0000     -20.617868      -561.0407
   2   2.0000     -20.576101      -559.9042
   3   2.0000     -20.574315      -559.8556
   4   2.0000     -11.411084      -310.5114
   5   2.0000     -11.383950      -309.7730
   6   2.0000     -11.355418      -308.9966
   7   2.0000     -11.334017      -308.4143
   8   2.0000     -11.248346      -306.0831
   9   2.0000      -1.519427       -41.3457
  10   2.0000      -1.434470       -39.0339
  11   2.0000      -1.416596       -38.5475
  12   2.0000      -1.385181       -37.6927
  13   2.0000      -1.075275       -29.2597
  14   2.0000      -1.019476       -27.7414
  15   2.0000      -0.945029       -25.7155
  16   2.0000      -0.845580       -23.0094
  17   2.0000      -0.801154       -21.8005
  18   2.0000      -0.763827       -20.7848
  19   2.0000      -0.719681       -19.5835
  20   2.0000      -0.687966       -18.7205
  21   2.0000      -0.680811       -18.5258
  22   2.0000      -0.655151       -17.8276
  23   2.0000      -0.636710       -17.3258
  24   2.0000      -0.633957       -17.2508
  25   2.0000      -0.609968       -16.5981
  26   2.0000      -0.598896       -16.2968
  27   2.0000      -0.577521       -15.7151
  28   2.0000      -0.570246       -15.5172
  29   2.0000      -0.521955       -14.2031
  30   2.0000      -0.502383       -13.6705
  31   2.0000      -0.501024       -13.6336
  32   2.0000      -0.467855       -12.7310
  33   2.0000      -0.432793       -11.7769
  34   0.0000       0.113811         3.0969
  35   0.0000       0.123214         3.3528
  36   0.0000       0.140226         3.8158
  37   0.0000       0.152569         4.1516
  38   0.0000       0.174535         4.7493

MULLIKEN ATOMIC CHARGES
-----------------------
   0 C :   -0.447761
   1 C :    0.212014
   2 O :   -0.253883
   3 C :    0.231836
   4 O :   -0.313407
   5 C :   -0.066992
   6 C :    0.241136
   7 O :   -0.260305
   8 O :   -0.237081
   9 H :    0.166915
  10 H :    0.158193
  11 H :    0.160927
  12 H :    0.115250
  13 H :    0.138670
  14 H :    0.154488
Sum of atomic charges:    0.0000000

LOEWDIN ATOMIC CHARGES
----------------------
   0 C :   -0.276100
   1 C :   -0.326381
   2 O :    0.179655
   3 C :   -0.323759
   4 O :    0.187483
   5 C :   -0.269524
   6 C :   -0.463900
   7 O :    0.162023
   8 O :    0.275867
   9 H :    0.145549
  10 H :    0.143146
  11 H :    0.137751
  12 H :    0.139449
  13 H :    0.142753
  14 H :    0.145987

  Mayer bond orders larger than 0.1
B(  0-C ,  1-C ) :   0.9249 B(  0-C ,  9-H ) :   0.9058 B(  0-C , 10-H ) :   0.9090
B(  0-C , 11-H ) :   0.9312 B(  1-C ,  2-O ) :   2.0009 B(  1-C ,  3-C ) :   0.8696
B(  3-C ,  4-O ) :   0.9558 B(  3-C ,  8-O ) :   0.9013 B(  3-C , 12-H ) :   0.9164
B(  4-O ,  5-C ) :   0.9176 B(  5-C ,  6-C ) :   0.9325 B(  5-C , 13-H ) :   0.9084
B(  5-C , 14-H ) :   0.9146 B(  6-C ,  7-O ) :   2.0541 B(  6-C ,  8-O ) :   1.0591

MP2 TOTAL ENERGY:     -494.177588676 Eh
FINAL SINGLE POINT ENERGY      -494.177588676372

DIPOLE MOMENT
-------------
                                X             Y             Z
Electronic contribution:      2.40295      -1.26452      -3.00313
Nuclear contribution   :     -3.11756       0.81588       3.27631
                        -----------------------------------------
Total Dipole Moment    :     -0.71461      -0.44864       0.27318
                        -----------------------------------------
Magnitude (a.u.)       :      0.88689
Magnitude (Debye)      :      2.25429

                             ****ORCA TERMINATED NORMALLY****
TOTAL RUN TIME: 0 days 0 hours 15 minutes 1 seconds 459 msec
