                         Program Version 3.0.3 - RELEASE   -
|  1> ! RI-MP2 RIJK def2-TZVP def2-TZVP/C def2-TZVP/JK TIGHTSCF
|  2> % maxcore 2000
|  3> % mp2 density relaxed end
|  4> *xyz 0 1
|  5>  O        0.0485392697     1.2536126885    -0.0551104331
|  6>  C       -0.0826313065    -0.1553467192    -0.0482465027
|  7>  C       -1.5778774332    -0.4656931461    -0.0516840167
|  8>  N       -2.2598714344    -0.0215679312    -1.2573838198
|  9>  C       -2.2012617815    -0.8286155145    -2.4629447271
| 10>  C       -2.8250808973    -2.1457700751    -2.2821587874
| 11>  N       -3.2912543352    -3.1907034472    -2.1227324389
| 12>  C       -2.8118658580     1.2309502566    -1.3492346127
| 13>  O       -3.2968678809     1.7001770535    -2.3552890042
| 14>  H        0.9734857880     1.4811477428    -0.1847655812
| 15>  H        0.4040101586    -0.6134927403    -0.9233283646
| 16>  H        0.3658117854    -0.6065150702     0.8506837482
| 17>  H       -1.7405556127    -1.5406448531     0.0779984490
| 18>  H       -2.0367921816     0.0403599327     0.8033679346
| 19>  H       -2.7288312173    -0.2652145868    -3.2389083216
| 20>  H       -1.1684444842    -0.9797277961    -2.8032427408
| 21>  H       -2.7715759891     1.7653830457    -0.3850991810
| 22> *
| 23>
| 24>                          ****END OF INPUT****

CARTESIAN COORDINATES (ANGSTROEM)
---------------------------------
  O      0.048539    1.253613   -0.055110
  C     -0.082631   -0.155347   -0.048247
  C     -1.577877   -0.465693   -0.051684
  N     -2.259871   -0.021568   -1.257384
  C     -2.201262   -0.828616   -2.462945
  C     -2.825081   -2.145770   -2.282159
  N     -3.291254   -3.190703   -2.122732
  C     -2.811866    1.230950   -1.349235
  O     -3.296868    1.700177   -2.355289
  H      0.973486    1.481148   -0.184766
  H      0.404010   -0.613493   -0.923328
  H      0.365812   -0.606515    0.850684
  H     -1.740556   -1.540645    0.077998
  H     -2.036792    0.040360    0.803368
  H     -2.728831   -0.265215   -3.238908
  H     -1.168444   -0.979728   -2.803243
  H     -2.771576    1.765383   -0.385099

 Total Charge           Charge          ....    0
 Multiplicity           Mult            ....    1
 Number of Electrons    NEL             ....   68
 Basis Dimension        Dim             ....  327

ORBITAL ENERGIES
----------------

  NO   OCC          E(Eh)            E(eV)
   0   2.0000     -20.585173      -560.1510
   1   2.0000     -20.537326      -558.8491
   2   2.0000     -15.613191      -424.8565
   3   2.0000     -15.582187      -424.0129
   4   2.0000     -11.361107      -309.1514
   5   2.0000     -11.324816      -308.1639
   6   2.0000     -11.307375      -307.6893
   7   2.0000     -11.294173      -307.3301
   8   2.0000     -11.283498      -307.0396
   9   2.0000      -1.401802       -38.1450
  10   2.0000      -1.391229       -37.8573
  11   2.0000      -1.280780       -34.8518
  12   2.0000      -1.226112       -33.3642
  13   2.0000      -1.057551       -28.7774
  14   2.0000      -1.013228       -27.5713
  15   2.0000      -0.887663       -24.1545
  16   2.0000      -0.822530       -22.3822
  17   2.0000      -0.741561       -20.1789
  18   2.0000      -0.735193       -20.0056
  19   2.0000      -0.716807       -19.5053
  20   2.0000      -0.680599       -18.5200
  21   2.0000      -0.654943       -17.8219
  22   2.0000      -0.633622       -17.2417
  23   2.0000      -0.616285       -16.7700
  24   2.0000      -0.593319       -16.1450
  25   2.0000      -0.572367       -15.5749
  26   2.0000      -0.567542       -15.4436
  27   2.0000      -0.556487       -15.1428
  28   2.0000      -0.531167       -14.4538
  29   2.0000      -0.483931       -13.1684
  30   2.0000      -0.477241       -12.9864
  31   2.0000      -0.471540       -12.8313
  32   2.0000      -0.443687       -12.0733
  33   2.0000      -0.404170       -10.9980
  34   0.0000       0.108132         2.9424
  35   0.0000       0.134337         3.6555
  36   0.0000       0.141288         3.8446
  37   0.0000       0.162153         4.4124
  38   0.0000       0.170669         4.6442

MULLIKEN ATOMIC CHARGES
-----------------------
   0 O :   -0.469401
   1 C :   -0.063696
   2 C :   -0.191530
   3 N :   -0.091479
   4 C :   -0.093288
   5 C :   -0.170131
   6 N :   -0.057516
   7 C :    0.170119
   8 O :   -0.357679
   9 H :    0.324898
  10 H :    0.103215
  11 H :    0.113212
  12 H :    0.160349
  13 H :    0.148430
  14 H :    0.208194
  15 H :    0.164395
  16 H :    0.101907
Sum of atomic charges:   -0.0000000

LOEWDIN ATOMIC CHARGES
----------------------
   0 O :   -0.037487
   1 C :   -0.353091
   2 C :   -0.263781
   3 N :    0.170387
   4 C :   -0.238535
   5 C :   -0.188243
   6 N :    0.066811
   7 C :   -0.394536
   8 O :    0.067340
   9 H :    0.178053
  10 H :    0.116842
  11 H :    0.122404
  12 H :    0.148259
  13 H :    0.148953
  14 H :    0.176706
  15 H :    0.156923
  16 H :    0.122995

  Mayer bond orders larger than 0.1
B(  0-O ,  1-C ) :   0.9942 B(  0-O ,  9-H ) :   0.8438 B(  1-C ,  2-C ) :   0.9251
B(  1-C , 10-H ) :   0.9216 B(  1-C , 11-H ) :   0.9276 B(  2-C ,  3-N ) :   0.8869
B(  2-C , 12-H ) :   0.9226 B(  2-C , 13-H ) :   0.9277 B(  3-N ,  4-C ) :   0.8714
B(  3-N ,  7-C ) :   1.1108 B(  4-C ,  5-C ) :   0.9010 B(  4-C , 14-H ) :   0.8837
B(  4-C , 15-H ) :   0.9237 B(  5-C ,  6-N ) :   2.8486 B(  7-C ,  8-O ) :   1.8802
B(  7-C , 16-H ) :   0.9254

MP2 TOTAL ENERGY:     -454.435106206 Eh
FINAL SINGLE POINT ENERGY      -454.435106206036

DIPOLE MOMENT
-------------
                                X             Y             Z
Electronic contribution:     -4.72938      -0.78967      -3.49463
Nuclear contribution   :      6.63207       0.93363       4.28677
                        -----------------------------------------
Total Dipole Moment    :      1.90269       0.14396       0.79213
                        -----------------------------------------
Magnitude (a.u.)       :      2.06602
Magnitude (Debye)      :      5.25140

                             ****ORCA TERMINATED NORMALLY****
TOTAL RUN TIME: 0 days 0 hours 14 minutes 29 seconds 113 msec
