                         Program Version 3.0.3 - RELEASE   -
|  1> ! RI-MP2 RIJK def2-TZVP def2-TZVP/C def2-TZVP/JK TIGHTSCF
|  2> % maxcore 2000
|  3> % mp2 density relaxed end
|  4> *xyz 0 1
|  5>  C       -0.3786758569     1.4580515511     0.0609216325
|  6>  O        0.9926934363     1.0466208982    -0.0420515304
|  7>  C       -0.0184920724     0.0381930582    -0.0228487894
|  8>  C        0.0322392918    -0.8626749289     1.2149755059
|  9>  O       -0.7147648757    -2.0668160290     1.0633435640
| 10>  C       -0.8257209252    -2.5193535098    -0.2802139291
| 11>  C        0.4199863028    -2.1552530504    -1.1346996657
| 12>  C       -0.2519048838    -0.7572666333    -1.2911110099
| 13>  C       -1.6189432961    -1.4883973918    -1.1259807330
| 14>  H       -0.6641145569     1.8901341979     1.0193861078
| 15>  H       -0.7763905967     1.9714726613    -0.8143478381
| 16>  H        1.0904016116    -1.0956316749     1.4027255666
| 17>  H       -0.3548572204    -0.3549242261     2.1026701848
| 18>  H       -1.1673675269    -3.5541170185    -0.2258086178
| 19>  H        1.4088727664    -2.2222661227    -0.6757743469
| 20>  H        0.4189272774    -2.7067354186    -2.0774801227
| 21>  H       -0.0562789438    -0.1571143996    -2.1816089360
| 22>  H       -1.9707527336    -1.9116294389    -2.0702156174
| 23>  H       -2.4334359180    -0.9611452640    -0.6228753652
| 24> *
| 25>
| 26>                          ****END OF INPUT****

CARTESIAN COORDINATES (ANGSTROEM)
---------------------------------
  C     -0.378676    1.458052    0.060922
  O      0.992693    1.046621   -0.042052
  C     -0.018492    0.038193   -0.022849
  C      0.032239   -0.862675    1.214976
  O     -0.714765   -2.066816    1.063344
  C     -0.825721   -2.519354   -0.280214
  C      0.419986   -2.155253   -1.134700
  C     -0.251905   -0.757267   -1.291111
  C     -1.618943   -1.488397   -1.125981
  H     -0.664115    1.890134    1.019386
  H     -0.776391    1.971473   -0.814348
  H      1.090402   -1.095632    1.402726
  H     -0.354857   -0.354924    2.102670
  H     -1.167368   -3.554117   -0.225809
  H      1.408873   -2.222266   -0.675774
  H      0.418927   -2.706735   -2.077480
  H     -0.056279   -0.157114   -2.181609
  H     -1.970753   -1.911629   -2.070216
  H     -2.433436   -0.961145   -0.622875

 Total Charge           Charge          ....    0
 Multiplicity           Mult            ....    1
 Number of Electrons    NEL             ....   68
 Basis Dimension        Dim             ....  339

ORBITAL ENERGIES
----------------

  NO   OCC          E(Eh)            E(eV)
   0   2.0000     -20.568526      -559.6980
   1   2.0000     -20.557218      -559.3903
   2   2.0000     -11.294617      -307.3422
   3   2.0000     -11.287313      -307.1434
   4   2.0000     -11.283617      -307.0428
   5   2.0000     -11.280520      -306.9586
   6   2.0000     -11.243374      -305.9477
   7   2.0000     -11.230904      -305.6084
   8   2.0000     -11.229379      -305.5669
   9   2.0000      -1.414992       -38.5039
  10   2.0000      -1.378419       -37.5087
  11   2.0000      -1.139783       -31.0151
  12   2.0000      -1.013708       -27.5844
  13   2.0000      -0.923887       -25.1403
  14   2.0000      -0.902311       -24.5531
  15   2.0000      -0.877149       -23.8684
  16   2.0000      -0.830536       -22.6000
  17   2.0000      -0.722464       -19.6592
  18   2.0000      -0.706159       -19.2156
  19   2.0000      -0.675542       -18.3824
  20   2.0000      -0.667050       -18.1514
  21   2.0000      -0.638904       -17.3855
  22   2.0000      -0.597636       -16.2625
  23   2.0000      -0.580909       -15.8073
  24   2.0000      -0.570307       -15.5189
  25   2.0000      -0.548535       -14.9264
  26   2.0000      -0.541823       -14.7437
  27   2.0000      -0.530716       -14.4415
  28   2.0000      -0.489998       -13.3335
  29   2.0000      -0.479689       -13.0530
  30   2.0000      -0.437096       -11.8940
  31   2.0000      -0.429285       -11.6814
  32   2.0000      -0.426997       -11.6192
  33   2.0000      -0.398415       -10.8414
  34   0.0000       0.138010         3.7554
  35   0.0000       0.158315         4.3080
  36   0.0000       0.163600         4.4518
  37   0.0000       0.168827         4.5940
  38   0.0000       0.186077         5.0634

MULLIKEN ATOMIC CHARGES
-----------------------
   0 C :   -0.090742
   1 O :   -0.336886
   2 C :    0.061936
   3 C :   -0.060495
   4 O :   -0.323095
   5 C :    0.117886
   6 C :   -0.311670
   7 C :    0.031117
   8 C :   -0.307805
   9 H :    0.115948
  10 H :    0.116559
  11 H :    0.116181
  12 H :    0.121033
  13 H :    0.118538
  14 H :    0.131943
  15 H :    0.127819
  16 H :    0.129659
  17 H :    0.121105
  18 H :    0.120970
Sum of atomic charges:    0.0000000

LOEWDIN ATOMIC CHARGES
----------------------
   0 C :   -0.238343
   1 O :    0.167208
   2 C :   -0.315856
   3 C :   -0.256228
   4 O :    0.171723
   5 C :   -0.283937
   6 C :   -0.195738
   7 C :   -0.185602
   8 C :   -0.194387
   9 H :    0.121264
  10 H :    0.121996
  11 H :    0.132555
  12 H :    0.133898
  13 H :    0.130712
  14 H :    0.133030
  15 H :    0.142631
  16 H :    0.145123
  17 H :    0.139089
  18 H :    0.130862

  Mayer bond orders larger than 0.1
B(  0-C ,  1-O ) :   0.8957 B(  0-C ,  2-C ) :   0.9859 B(  0-C ,  9-H ) :   0.9047
B(  0-C , 10-H ) :   0.9109 B(  1-O ,  2-C ) :   0.8662 B(  2-C ,  3-C ) :   0.9078
B(  2-C ,  7-C ) :   0.8844 B(  3-C ,  4-O ) :   0.9527 B(  3-C , 11-H ) :   0.9360
B(  3-C , 12-H ) :   0.9187 B(  4-O ,  5-C ) :   0.9162 B(  5-C ,  6-C ) :   0.9095
B(  5-C ,  8-C ) :   0.9037 B(  5-C , 13-H ) :   0.9346 B(  6-C ,  7-C ) :   0.9103
B(  6-C , 14-H ) :   0.9139 B(  6-C , 15-H ) :   0.9217 B(  7-C ,  8-C ) :   0.9044
B(  7-C , 16-H ) :   0.9241 B(  8-C , 17-H ) :   0.9162 B(  8-C , 18-H ) :   0.9190

MP2 TOTAL ENERGY:     -422.282968309 Eh
FINAL SINGLE POINT ENERGY      -422.282968308660

DIPOLE MOMENT
-------------
                                X             Y             Z
Electronic contribution:      1.35585       1.00790       2.00084
Nuclear contribution   :     -1.84843      -1.01910      -2.46862
                        -----------------------------------------
Total Dipole Moment    :     -0.49258      -0.01120      -0.46778
                        -----------------------------------------
Magnitude (a.u.)       :      0.67939
Magnitude (Debye)      :      1.72688

                             ****ORCA TERMINATED NORMALLY****
TOTAL RUN TIME: 0 days 0 hours 17 minutes 37 seconds 726 msec
