                         Program Version 3.0.3 - RELEASE   -
|  1> ! RI-MP2 RIJK def2-TZVP def2-TZVP/C def2-TZVP/JK TIGHTSCF
|  2> % maxcore 2000
|  3> % mp2 density relaxed end
|  4> *xyz 0 1
|  5>  N       -0.0096487350     1.2965074194     0.0993255357
|  6>  C       -0.0481329161    -0.0568451635     0.0430321244
|  7>  N       -1.1866708617    -0.6911402221     0.0281749187
|  8>  N       -1.0979202314    -2.0582705833     0.0092272541
|  9>  C        0.0531949979    -2.7608519286     0.0080369517
| 10>  O       -0.0211124141    -4.1104091027     0.0146122063
| 11>  C        1.2669612363    -2.1258475697     0.0026646710
| 12>  C        1.3086792656    -0.7003011951     0.0183854675
| 13>  O        2.3104937648     0.0160954350    -0.0066988120
| 14>  H        0.9067757557     1.6841476740    -0.0754785258
| 15>  H       -0.8334773259     1.8287274235    -0.1199600128
| 16>  H       -1.9912000905    -2.5132810117     0.1041336259
| 17>  H       -0.9123036372    -4.4097899794    -0.1968789033
| 18>  H        2.1781873015    -2.7060645457    -0.0326185616
| 19> *
| 20>
| 21>                          ****END OF INPUT****

CARTESIAN COORDINATES (ANGSTROEM)
---------------------------------
  N     -0.009649    1.296507    0.099326
  C     -0.048133   -0.056845    0.043032
  N     -1.186671   -0.691140    0.028175
  N     -1.097920   -2.058271    0.009227
  C      0.053195   -2.760852    0.008037
  O     -0.021112   -4.110409    0.014612
  C      1.266961   -2.125848    0.002665
  C      1.308679   -0.700301    0.018385
  O      2.310494    0.016095   -0.006699
  H      0.906776    1.684148   -0.075479
  H     -0.833477    1.828727   -0.119960
  H     -1.991200   -2.513281    0.104134
  H     -0.912304   -4.409790   -0.196879
  H      2.178187   -2.706065   -0.032619

 Total Charge           Charge          ....    0
 Multiplicity           Mult            ....    1
 Number of Electrons    NEL             ....   66
 Basis Dimension        Dim             ....  309

ORBITAL ENERGIES
----------------

  NO   OCC          E(Eh)            E(eV)
   0   2.0000     -20.638403      -561.5995
   1   2.0000     -20.516370      -558.2788
   2   2.0000     -15.654990      -425.9939
   3   2.0000     -15.605087      -424.6360
   4   2.0000     -15.570935      -423.7067
   5   2.0000     -11.386375      -309.8390
   6   2.0000     -11.327750      -308.2438
   7   2.0000     -11.326326      -308.2050
   8   2.0000     -11.223352      -305.4029
   9   2.0000      -1.468191       -39.9515
  10   2.0000      -1.375586       -37.4316
  11   2.0000      -1.352572       -36.8054
  12   2.0000      -1.239677       -33.7333
  13   2.0000      -1.117965       -30.4214
  14   2.0000      -1.075653       -29.2700
  15   2.0000      -0.900567       -24.5057
  16   2.0000      -0.881426       -23.9848
  17   2.0000      -0.808510       -22.0007
  18   2.0000      -0.776520       -21.1302
  19   2.0000      -0.725783       -19.7496
  20   2.0000      -0.673086       -18.3156
  21   2.0000      -0.666645       -18.1403
  22   2.0000      -0.653286       -17.7768
  23   2.0000      -0.626737       -17.0544
  24   2.0000      -0.606408       -16.5012
  25   2.0000      -0.594564       -16.1789
  26   2.0000      -0.587146       -15.9771
  27   2.0000      -0.532759       -14.4971
  28   2.0000      -0.494961       -13.4686
  29   2.0000      -0.489975       -13.3329
  30   2.0000      -0.410000       -11.1567
  31   2.0000      -0.369365       -10.0509
  32   2.0000      -0.320586        -8.7236
  33   0.0000       0.094747         2.5782
  34   0.0000       0.106104         2.8872
  35   0.0000       0.150965         4.1080
  36   0.0000       0.154914         4.2154
  37   0.0000       0.163360         4.4452

MULLIKEN ATOMIC CHARGES
-----------------------
   0 N :   -0.484004
   1 C :    0.128736
   2 N :   -0.211062
   3 N :   -0.159628
   4 C :    0.334993
   5 O :   -0.389868
   6 C :   -0.319480
   7 C :    0.244728
   8 O :   -0.407648
   9 H :    0.284120
  10 H :    0.253977
  11 H :    0.249647
  12 H :    0.328382
  13 H :    0.147106
Sum of atomic charges:    0.0000000

LOEWDIN ATOMIC CHARGES
----------------------
   0 N :   -0.011777
   1 C :   -0.336305
   2 N :    0.040248
   3 N :    0.110482
   4 C :   -0.359468
   5 O :    0.099437
   6 C :   -0.139784
   7 C :   -0.365283
   8 O :    0.062105
   9 H :    0.185608
  10 H :    0.170508
  11 H :    0.190860
  12 H :    0.193424
  13 H :    0.159946

  Mayer bond orders larger than 0.1
B(  0-N ,  1-C ) :   1.1746 B(  0-N ,  9-H ) :   0.8344 B(  0-N , 10-H ) :   0.8664
B(  1-C ,  2-N ) :   1.6642 B(  1-C ,  7-C ) :   0.9295 B(  2-N ,  3-N ) :   0.9515
B(  3-N ,  4-C ) :   1.2169 B(  3-N , 11-H ) :   0.8725 B(  4-C ,  5-O ) :   1.1000
B(  4-C ,  6-C ) :   1.3755 B(  5-O , 12-H ) :   0.8256 B(  6-C ,  7-C ) :   1.1958
B(  6-C , 13-H ) :   0.9391 B(  7-C ,  8-O ) :   1.7424

MP2 TOTAL ENERGY:     -469.283947043 Eh
FINAL SINGLE POINT ENERGY      -469.283947043211

DIPOLE MOMENT
-------------
                                X             Y             Z
Electronic contribution:      0.02977      -1.10163       0.10180
Nuclear contribution   :     -1.88863       0.14922      -0.39642
                        -----------------------------------------
Total Dipole Moment    :     -1.85887      -0.95242      -0.29463
                        -----------------------------------------
Magnitude (a.u.)       :      2.10933
Magnitude (Debye)      :      5.36149

                             ****ORCA TERMINATED NORMALLY****
TOTAL RUN TIME: 0 days 0 hours 14 minutes 44 seconds 708 msec
