                         Program Version 3.0.3 - RELEASE   -
|  1> ! RI-MP2 RIJK def2-TZVP def2-TZVP/C def2-TZVP/JK TIGHTSCF
|  2> % maxcore 2000
|  3> % mp2 density relaxed end
|  4> *xyz 0 1
|  5>  C        0.1351340576     1.5491172596     0.1074083801
|  6>  C        0.0459489301     0.0659176198    -0.0204875951
|  7>  C       -0.0587141605    -0.7808393779    -1.1059355935
|  8>  C       -0.1235930083    -0.4657778243    -2.5651276745
|  9>  N       -0.1109586235    -2.0678720859    -0.6462511072
| 10>  N       -0.0466255868    -2.0718620940     0.6524923043
| 11>  N        0.0461231783    -0.7854144229     1.0382390346
| 12>  H        0.9643300645     1.8531184838     0.7556963607
| 13>  H        0.2977576781     2.0005162909    -0.8738029014
| 14>  H       -0.7840484909     1.9811923751     0.5201922244
| 15>  H        0.4650183506     0.4224988594    -2.8139991139
| 16>  H        0.2655281228    -1.3085469003    -3.1411873592
| 17>  H       -1.1518890002    -0.2845894744    -2.8992520835
| 18>  H        0.1183602582    -0.5707663790     2.0202111542
| 19> *
| 20>
| 21>                          ****END OF INPUT****

CARTESIAN COORDINATES (ANGSTROEM)
---------------------------------
  C      0.135134    1.549117    0.107408
  C      0.045949    0.065918   -0.020488
  C     -0.058714   -0.780839   -1.105936
  C     -0.123593   -0.465778   -2.565128
  N     -0.110959   -2.067872   -0.646251
  N     -0.046626   -2.071862    0.652492
  N      0.046123   -0.785414    1.038239
  H      0.964330    1.853118    0.755696
  H      0.297758    2.000516   -0.873803
  H     -0.784048    1.981192    0.520192
  H      0.465018    0.422499   -2.813999
  H      0.265528   -1.308547   -3.141187
  H     -1.151889   -0.284589   -2.899252
  H      0.118360   -0.570766    2.020211

 Total Charge           Charge          ....    0
 Multiplicity           Mult            ....    1
 Number of Electrons    NEL             ....   52
 Basis Dimension        Dim             ....  259

ORBITAL ENERGIES
----------------

  NO   OCC          E(Eh)            E(eV)
   0   2.0000     -15.646836      -425.7721
   1   2.0000     -15.630556      -425.3290
   2   2.0000     -15.585304      -424.0977
   3   2.0000     -11.281879      -306.9955
   4   2.0000     -11.254117      -306.2401
   5   2.0000     -11.250143      -306.1319
   6   2.0000     -11.227055      -305.5037
   7   2.0000      -1.426995       -38.8305
   8   2.0000      -1.195374       -32.5278
   9   2.0000      -1.106517       -30.1098
  10   2.0000      -0.997551       -27.1447
  11   2.0000      -0.948240       -25.8029
  12   2.0000      -0.855858       -23.2891
  13   2.0000      -0.787376       -21.4256
  14   2.0000      -0.719531       -19.5794
  15   2.0000      -0.648236       -17.6394
  16   2.0000      -0.615853       -16.7582
  17   2.0000      -0.586366       -15.9558
  18   2.0000      -0.582516       -15.8511
  19   2.0000      -0.565439       -15.3864
  20   2.0000      -0.558408       -15.1950
  21   2.0000      -0.541894       -14.7457
  22   2.0000      -0.499889       -13.6027
  23   2.0000      -0.428552       -11.6615
  24   2.0000      -0.406251       -11.0546
  25   2.0000      -0.334433        -9.1004
  26   0.0000       0.118510         3.2248
  27   0.0000       0.138876         3.7790
  28   0.0000       0.146634         3.9901
  29   0.0000       0.170187         4.6310
  30   0.0000       0.196670         5.3517

MULLIKEN ATOMIC CHARGES
-----------------------
   0 C :   -0.407261
   1 C :    0.043870
   2 C :    0.036450
   3 C :   -0.440909
   4 N :   -0.154681
   5 N :   -0.145626
   6 N :   -0.085908
   7 H :    0.149238
   8 H :    0.149484
   9 H :    0.156226
  10 H :    0.132701
  11 H :    0.161695
  12 H :    0.146003
  13 H :    0.258721
Sum of atomic charges:   -0.0000000

LOEWDIN ATOMIC CHARGES
----------------------
   0 C :   -0.273207
   1 C :   -0.259145
   2 C :   -0.287681
   3 C :   -0.274217
   4 N :    0.017859
   5 N :   -0.057143
   6 N :    0.134567
   7 H :    0.133727
   8 H :    0.139371
   9 H :    0.135096
  10 H :    0.128290
  11 H :    0.139689
  12 H :    0.132586
  13 H :    0.190208

  Mayer bond orders larger than 0.1
B(  0-C ,  1-C ) :   0.8479 B(  0-C ,  7-H ) :   0.9359 B(  0-C ,  8-H ) :   0.9497
B(  0-C ,  9-H ) :   0.9304 B(  1-C ,  2-C ) :   1.4451 B(  1-C ,  5-N ) :   0.1254
B(  1-C ,  6-N ) :   1.1824 B(  2-C ,  3-C ) :   0.8692 B(  2-C ,  4-N ) :   1.4015
B(  3-C , 10-H ) :   0.9507 B(  3-C , 11-H ) :   0.9458 B(  3-C , 12-H ) :   0.9261
B(  4-N ,  5-N ) :   1.3015 B(  5-N ,  6-N ) :   1.0495 B(  6-N , 13-H ) :   0.8619

MP2 TOTAL ENERGY:     -320.222500547 Eh
FINAL SINGLE POINT ENERGY      -320.222500546747

DIPOLE MOMENT
-------------
                                X             Y             Z
Electronic contribution:     -0.13402      -6.03127       4.07322
Nuclear contribution   :      0.25849       7.91009      -3.66271
                        -----------------------------------------
Total Dipole Moment    :      0.12447       1.87883       0.41052
                        -----------------------------------------
Magnitude (a.u.)       :      1.92718
Magnitude (Debye)      :      4.89849

                             ****ORCA TERMINATED NORMALLY****
TOTAL RUN TIME: 0 days 0 hours 7 minutes 52 seconds 459 msec
