                         Program Version 3.0.3 - RELEASE   -
|  1> ! RI-MP2 RIJK def2-TZVP def2-TZVP/C def2-TZVP/JK TIGHTSCF
|  2> % maxcore 2000
|  3> % mp2 density relaxed end
|  4> *xyz 0 1
|  5>  C        0.1671041301     1.4062359234    -0.1637388962
|  6>  C       -0.0633609409    -0.0525032828    -0.0013377499
|  7>  C       -1.1553846905    -0.8048383878     0.3027650521
|  8>  C       -0.7251814453    -2.1724728371     0.3044435474
|  9>  C        0.5984532772    -2.1520716346     0.0035070943
| 10>  C        1.6299245509    -3.2235876729    -0.1442876586
| 11>  C        2.1221895468    -3.3745628656    -1.5198672278
| 12>  N        2.5104721666    -3.4932116239    -2.6011476907
| 13>  O        1.0175551578    -0.8686288540    -0.1841631342
| 14>  H        0.9143930591     1.7768428091     0.5469058239
| 15>  H        0.5264187544     1.6445487993    -1.1709800729
| 16>  H       -0.7653179709     1.9488916097     0.0054028669
| 17>  H       -2.1481796400    -0.4326385311     0.5014064334
| 18>  H       -1.3235242030    -3.0489284158     0.4993107218
| 19>  H        2.4917185086    -3.0263808275     0.5056961399
| 20>  H        1.1981330090    -4.1758793284     0.1783592106
| 21> *
| 22>
| 23>                          ****END OF INPUT****

CARTESIAN COORDINATES (ANGSTROEM)
---------------------------------
  C      0.167104    1.406236   -0.163739
  C     -0.063361   -0.052503   -0.001338
  C     -1.155385   -0.804838    0.302765
  C     -0.725181   -2.172473    0.304444
  C      0.598453   -2.152072    0.003507
  C      1.629925   -3.223588   -0.144288
  C      2.122190   -3.374563   -1.519867
  N      2.510472   -3.493212   -2.601148
  O      1.017555   -0.868629   -0.184163
  H      0.914393    1.776843    0.546906
  H      0.526419    1.644549   -1.170980
  H     -0.765318    1.948892    0.005403
  H     -2.148180   -0.432639    0.501406
  H     -1.323524   -3.048928    0.499311
  H      2.491719   -3.026381    0.505696
  H      1.198133   -4.175879    0.178359

 Total Charge           Charge          ....    0
 Multiplicity           Mult            ....    1
 Number of Electrons    NEL             ....   64
 Basis Dimension        Dim             ....  321

ORBITAL ENERGIES
----------------

  NO   OCC          E(Eh)            E(eV)
   0   2.0000     -20.628984      -561.3432
   1   2.0000     -15.569951      -423.6799
   2   2.0000     -11.307930      -307.7044
   3   2.0000     -11.303506      -307.5840
   4   2.0000     -11.299974      -307.4879
   5   2.0000     -11.275433      -306.8201
   6   2.0000     -11.242254      -305.9173
   7   2.0000     -11.242151      -305.9145
   8   2.0000     -11.232328      -305.6472
   9   2.0000      -1.469547       -39.9884
  10   2.0000      -1.219559       -33.1859
  11   2.0000      -1.104031       -30.0422
  12   2.0000      -1.092225       -29.7210
  13   2.0000      -1.027461       -27.9586
  14   2.0000      -0.923860       -25.1395
  15   2.0000      -0.818982       -22.2856
  16   2.0000      -0.774604       -21.0781
  17   2.0000      -0.727973       -19.8092
  18   2.0000      -0.691509       -18.8169
  19   2.0000      -0.651153       -17.7188
  20   2.0000      -0.635410       -17.2904
  21   2.0000      -0.614658       -16.7257
  22   2.0000      -0.581468       -15.8226
  23   2.0000      -0.571291       -15.5456
  24   2.0000      -0.569365       -15.4932
  25   2.0000      -0.562923       -15.3179
  26   2.0000      -0.554613       -15.0918
  27   2.0000      -0.535746       -14.5784
  28   2.0000      -0.463458       -12.6113
  29   2.0000      -0.460579       -12.5330
  30   2.0000      -0.409251       -11.1363
  31   2.0000      -0.319642        -8.6979
  32   0.0000       0.121977         3.3192
  33   0.0000       0.134917         3.6713
  34   0.0000       0.141400         3.8477
  35   0.0000       0.160344         4.3632
  36   0.0000       0.178819         4.8659

MULLIKEN ATOMIC CHARGES
-----------------------
   0 C :   -0.444522
   1 C :    0.188733
   2 C :   -0.191397
   3 C :   -0.212721
   4 C :    0.208562
   5 C :   -0.186303
   6 C :   -0.155669
   7 N :   -0.064331
   8 O :   -0.229054
   9 H :    0.150081
  10 H :    0.155956
  11 H :    0.147592
  12 H :    0.139944
  13 H :    0.144179
  14 H :    0.172439
  15 H :    0.176511
Sum of atomic charges:    0.0000000

LOEWDIN ATOMIC CHARGES
----------------------
   0 C :   -0.271624
   1 C :   -0.264422
   2 C :   -0.162920
   3 C :   -0.156870
   4 C :   -0.247461
   5 C :   -0.211757
   6 C :   -0.180933
   7 N :    0.061533
   8 O :    0.378803
   9 H :    0.135458
  10 H :    0.137272
  11 H :    0.138857
  12 H :    0.145437
  13 H :    0.146080
  14 H :    0.174684
  15 H :    0.177861

  Mayer bond orders larger than 0.1
B(  0-C ,  1-C ) :   0.8716 B(  0-C ,  9-H ) :   0.9322 B(  0-C , 10-H ) :   0.9330
B(  0-C , 11-H ) :   0.9519 B(  1-C ,  2-C ) :   1.5382 B(  1-C ,  8-O ) :   1.0261
B(  2-C ,  3-C ) :   1.1857 B(  2-C , 12-H ) :   0.9279 B(  3-C ,  4-C ) :   1.5149
B(  3-C , 13-H ) :   0.9187 B(  4-C ,  5-C ) :   0.9071 B(  4-C ,  8-O ) :   1.0270
B(  5-C ,  6-C ) :   0.9286 B(  5-C , 14-H ) :   0.9097 B(  5-C , 15-H ) :   0.9235
B(  6-C ,  7-N ) :   2.8542

MP2 TOTAL ENERGY:     -400.099443846 Eh
FINAL SINGLE POINT ENERGY      -400.099443846181

DIPOLE MOMENT
-------------
                                X             Y             Z
Electronic contribution:      2.90453      -5.06366      -2.45087
Nuclear contribution   :     -3.66030       5.46637       3.86211
                        -----------------------------------------
Total Dipole Moment    :     -0.75578       0.40271       1.41124
                        -----------------------------------------
Magnitude (a.u.)       :      1.65075
Magnitude (Debye)      :      4.19586

                             ****ORCA TERMINATED NORMALLY****
TOTAL RUN TIME: 0 days 0 hours 14 minutes 3 seconds 996 msec
