                         Program Version 3.0.3 - RELEASE   -
|  1> ! RI-MP2 RIJK def2-TZVP def2-TZVP/C def2-TZVP/JK TIGHTSCF
|  2> % maxcore 2000
|  3> % mp2 density relaxed end
|  4> *xyz 0 1
|  5>  C       -0.0996801631     1.5740703050    -0.1747699151
|  6>  C       -0.0555899350     0.0605303056    -0.0280202925
|  7>  O       -1.3327662580    -0.5184178586    -0.1720096629
|  8>  C        1.1128710800    -0.6247379334    -0.7913055943
|  9>  O        1.8334338309    -0.8330045723     0.4413623221
| 10>  C        0.6637770378    -0.5054305030     1.2256923792
| 11>  C        0.9885180568     0.3687831433     2.4309582564
| 12>  C        1.8931279592    -0.3540981739     3.4106949624
| 13>  O        1.6500227107    -0.4976841636     4.5814772644
| 14>  H        0.8896954221     2.0200364492    -0.0416453338
| 15>  H       -0.4434912842     1.8431745343    -1.1814924006
| 16>  H       -0.7865717976     2.0175462314     0.5521698139
| 17>  H       -1.7993303708    -0.0665276277    -0.8828118663
| 18>  H        0.8088704410    -1.5695169122    -1.2591033242
| 19>  H        1.6857662753    -0.0197943137    -1.5031619655
| 20>  H        0.1444295772    -1.4182847035     1.5510261401
| 21>  H        1.5179271793     1.2684684853     2.0921086411
| 22>  H        0.0738176138     0.6659917933     2.9523853228
| 23>  H        2.8267798947    -0.7547936355     2.9605612629
| 24> *
| 25>
| 26>                          ****END OF INPUT****

CARTESIAN COORDINATES (ANGSTROEM)
---------------------------------
  C     -0.099680    1.574070   -0.174770
  C     -0.055590    0.060530   -0.028020
  O     -1.332766   -0.518418   -0.172010
  C      1.112871   -0.624738   -0.791306
  O      1.833434   -0.833005    0.441362
  C      0.663777   -0.505431    1.225692
  C      0.988518    0.368783    2.430958
  C      1.893128   -0.354098    3.410695
  O      1.650023   -0.497684    4.581477
  H      0.889695    2.020036   -0.041645
  H     -0.443491    1.843175   -1.181492
  H     -0.786572    2.017546    0.552170
  H     -1.799330   -0.066528   -0.882812
  H      0.808870   -1.569517   -1.259103
  H      1.685766   -0.019794   -1.503162
  H      0.144430   -1.418285    1.551026
  H      1.517927    1.268468    2.092109
  H      0.073818    0.665992    2.952385
  H      2.826780   -0.754794    2.960561

 Total Charge           Charge          ....    0
 Multiplicity           Mult            ....    1
 Number of Electrons    NEL             ....   70
 Basis Dimension        Dim             ....  339

ORBITAL ENERGIES
----------------

  NO   OCC          E(Eh)            E(eV)
   0   2.0000     -20.577548      -559.9435
   1   2.0000     -20.563669      -559.5659
   2   2.0000     -20.554741      -559.3230
   3   2.0000     -11.329315      -308.2863
   4   2.0000     -11.309105      -307.7364
   5   2.0000     -11.298709      -307.4535
   6   2.0000     -11.287366      -307.1448
   7   2.0000     -11.244722      -305.9844
   8   2.0000     -11.242799      -305.9321
   9   2.0000      -1.407453       -38.2988
  10   2.0000      -1.393022       -37.9060
  11   2.0000      -1.374997       -37.4156
  12   2.0000      -1.068630       -29.0789
  13   2.0000      -1.040264       -28.3070
  14   2.0000      -0.939643       -25.5690
  15   2.0000      -0.912842       -24.8397
  16   2.0000      -0.801456       -21.8087
  17   2.0000      -0.758696       -20.6452
  18   2.0000      -0.725065       -19.7300
  19   2.0000      -0.682173       -18.5629
  20   2.0000      -0.674060       -18.3421
  21   2.0000      -0.659615       -17.9490
  22   2.0000      -0.635145       -17.2832
  23   2.0000      -0.617437       -16.8013
  24   2.0000      -0.600763       -16.3476
  25   2.0000      -0.579439       -15.7673
  26   2.0000      -0.567987       -15.4557
  27   2.0000      -0.546200       -14.8629
  28   2.0000      -0.543306       -14.7841
  29   2.0000      -0.522179       -14.2092
  30   2.0000      -0.505719       -13.7613
  31   2.0000      -0.480158       -13.0658
  32   2.0000      -0.443918       -12.0796
  33   2.0000      -0.426729       -11.6119
  34   2.0000      -0.411029       -11.1847
  35   0.0000       0.115129         3.1328
  36   0.0000       0.133668         3.6373
  37   0.0000       0.152378         4.1464
  38   0.0000       0.172182         4.6853
  39   0.0000       0.177563         4.8317

MULLIKEN ATOMIC CHARGES
-----------------------
   0 C :   -0.492444
   1 C :    0.263849
   2 O :   -0.454133
   3 C :   -0.060120
   4 O :   -0.328918
   5 C :   -0.021475
   6 C :   -0.142096
   7 C :    0.084587
   8 O :   -0.264061
   9 H :    0.149392
  10 H :    0.139723
  11 H :    0.153424
  12 H :    0.320272
  13 H :    0.096496
  14 H :    0.105282
  15 H :    0.104080
  16 H :    0.115644
  17 H :    0.128862
  18 H :    0.101637
Sum of atomic charges:    0.0000000

LOEWDIN ATOMIC CHARGES
----------------------
   0 C :   -0.281511
   1 C :   -0.380162
   2 O :    0.017015
   3 C :   -0.235987
   4 O :    0.135829
   5 C :   -0.244574
   6 C :   -0.242115
   7 C :   -0.286946
   8 O :    0.131017
   9 H :    0.134465
  10 H :    0.128134
  11 H :    0.131613
  12 H :    0.178403
  13 H :    0.122613
  14 H :    0.118601
  15 H :    0.149399
  16 H :    0.153709
  17 H :    0.153054
  18 H :    0.117442

  Mayer bond orders larger than 0.1
B(  0-C ,  1-C ) :   0.9045 B(  0-C ,  9-H ) :   0.9334 B(  0-C , 10-H ) :   0.9208
B(  0-C , 11-H ) :   0.9338 B(  1-C ,  2-O ) :   1.0347 B(  1-C ,  3-C ) :   0.9462
B(  1-C ,  5-C ) :   0.8886 B(  2-O , 12-H ) :   0.8380 B(  3-C ,  4-O ) :   0.9462
B(  3-C , 13-H ) :   0.9031 B(  3-C , 14-H ) :   0.9100 B(  4-O ,  5-C ) :   0.9503
B(  5-C ,  6-C ) :   0.9015 B(  5-C , 15-H ) :   0.9026 B(  6-C ,  7-C ) :   0.8848
B(  6-C , 16-H ) :   0.9010 B(  6-C , 17-H ) :   0.9083 B(  7-C ,  8-O ) :   1.9917
B(  7-C , 18-H ) :   0.9380

MP2 TOTAL ENERGY:     -459.415615254 Eh
FINAL SINGLE POINT ENERGY      -459.415615253857

DIPOLE MOMENT
-------------
                                X             Y             Z
Electronic contribution:      1.65515      -4.17391       4.70565
Nuclear contribution   :     -2.12298       5.11260      -6.29925
                        -----------------------------------------
Total Dipole Moment    :     -0.46783       0.93868      -1.59359
                        -----------------------------------------
Magnitude (a.u.)       :      1.90775
Magnitude (Debye)      :      4.84913

                             ****ORCA TERMINATED NORMALLY****
TOTAL RUN TIME: 0 days 0 hours 19 minutes 17 seconds 230 msec
