                         Program Version 3.0.3 - RELEASE   -
|  1> ! RI-MP2 RIJK def2-TZVP def2-TZVP/C def2-TZVP/JK TIGHTSCF
|  2> % maxcore 2000
|  3> % mp2 density relaxed end
|  4> *xyz 0 1
|  5>  O        0.0053947199     1.4719870462    -0.0387339106
|  6>  C        0.0445493188     0.0555884271    -0.0083164977
|  7>  C        0.6543776236    -0.4833302361    -1.2398081998
|  8>  N        1.1661932926    -0.8507499914    -2.2079187410
|  9>  C        0.7588789407    -0.4802533083     1.2363068437
| 10>  C        0.0810635642    -0.1254188934     2.5905252881
| 11>  N       -0.1276025760    -1.5632521725     2.7852179880
| 12>  C        0.4585779792    -1.9658327832     1.6119240959
| 13>  O        0.6383475079    -3.0351084207     1.1008503246
| 14>  H        0.8994232305     1.7981583975    -0.1958293344
| 15>  H       -1.0047217449    -0.2599587209     0.0179882784
| 16>  H        1.8283413338    -0.2591147286     1.1931304811
| 17>  H        0.7408405768     0.3394553963     3.3286001149
| 18>  H       -0.8391690837     0.4591662553     2.5005723170
| 19>  H       -0.5375903134    -2.0922754074     3.5404749017
| 20> *
| 21>
| 22>                          ****END OF INPUT****

CARTESIAN COORDINATES (ANGSTROEM)
---------------------------------
  O      0.005395    1.471987   -0.038734
  C      0.044549    0.055588   -0.008316
  C      0.654378   -0.483330   -1.239808
  N      1.166193   -0.850750   -2.207919
  C      0.758879   -0.480253    1.236307
  C      0.081064   -0.125419    2.590525
  N     -0.127603   -1.563252    2.785218
  C      0.458578   -1.965833    1.611924
  O      0.638348   -3.035108    1.100850
  H      0.899423    1.798158   -0.195829
  H     -1.004722   -0.259959    0.017988
  H      1.828341   -0.259115    1.193130
  H      0.740841    0.339455    3.328600
  H     -0.839169    0.459166    2.500572
  H     -0.537590   -2.092275    3.540475

 Total Charge           Charge          ....    0
 Multiplicity           Mult            ....    1
 Number of Electrons    NEL             ....   66
 Basis Dimension        Dim             ....  315

ORBITAL ENERGIES
----------------

  NO   OCC          E(Eh)            E(eV)
   0   2.0000     -20.606320      -560.7265
   1   2.0000     -20.544759      -559.0513
   2   2.0000     -15.605894      -424.6580
   3   2.0000     -15.585932      -424.1148
   4   2.0000     -11.372876      -309.4717
   5   2.0000     -11.361561      -309.1638
   6   2.0000     -11.303274      -307.5777
   7   2.0000     -11.285443      -307.0925
   8   2.0000     -11.281953      -306.9976
   9   2.0000      -1.416656       -38.5492
  10   2.0000      -1.407393       -38.2971
  11   2.0000      -1.290614       -35.1194
  12   2.0000      -1.229099       -33.4455
  13   2.0000      -1.083549       -29.4849
  14   2.0000      -0.976088       -26.5607
  15   2.0000      -0.915009       -24.8986
  16   2.0000      -0.811634       -22.0857
  17   2.0000      -0.783102       -21.3093
  18   2.0000      -0.714170       -19.4335
  19   2.0000      -0.696113       -18.9422
  20   2.0000      -0.687387       -18.7048
  21   2.0000      -0.650406       -17.6984
  22   2.0000      -0.618335       -16.8257
  23   2.0000      -0.590481       -16.0678
  24   2.0000      -0.571732       -15.5576
  25   2.0000      -0.570673       -15.5288
  26   2.0000      -0.563885       -15.3441
  27   2.0000      -0.534187       -14.5360
  28   2.0000      -0.515266       -14.0211
  29   2.0000      -0.477665       -12.9979
  30   2.0000      -0.469471       -12.7749
  31   2.0000      -0.434493       -11.8232
  32   2.0000      -0.418563       -11.3897
  33   0.0000       0.105695         2.8761
  34   0.0000       0.127185         3.4609
  35   0.0000       0.145811         3.9677
  36   0.0000       0.147596         4.0163
  37   0.0000       0.159189         4.3318

MULLIKEN ATOMIC CHARGES
-----------------------
   0 O :   -0.442649
   1 C :    0.156632
   2 C :   -0.187899
   3 N :   -0.046659
   4 C :   -0.085598
   5 C :   -0.095814
   6 N :   -0.320958
   7 C :    0.182207
   8 O :   -0.287923
   9 H :    0.329870
  10 H :    0.145776
  11 H :    0.141305
  12 H :    0.127405
  13 H :    0.140083
  14 H :    0.244223
Sum of atomic charges:    0.0000000

LOEWDIN ATOMIC CHARGES
----------------------
   0 O :    0.014065
   1 C :   -0.320376
   2 C :   -0.163714
   3 N :    0.082892
   4 C :   -0.169537
   5 C :   -0.217662
   6 N :    0.126053
   7 C :   -0.427160
   8 O :    0.123131
   9 H :    0.185853
  10 H :    0.175009
  11 H :    0.160497
  12 H :    0.126915
  13 H :    0.130901
  14 H :    0.173132

  Mayer bond orders larger than 0.1
B(  0-O ,  1-C ) :   0.9225 B(  0-O ,  9-H ) :   0.8330 B(  1-C ,  2-C ) :   0.9356
B(  1-C ,  4-C ) :   0.9225 B(  1-C , 10-H ) :   0.9007 B(  2-C ,  3-N ) :   2.8399
B(  4-C ,  5-C ) :   0.9041 B(  4-C ,  7-C ) :   0.8330 B(  4-C , 11-H ) :   0.8874
B(  5-C ,  6-N ) :   0.8957 B(  5-C , 12-H ) :   0.9271 B(  5-C , 13-H ) :   0.9257
B(  6-N ,  7-C ) :   1.1682 B(  6-N , 14-H ) :   0.8577 B(  7-C ,  8-O ) :   2.0261

MP2 TOTAL ENERGY:     -453.230751915 Eh
FINAL SINGLE POINT ENERGY      -453.230751915475

DIPOLE MOMENT
-------------
                                X             Y             Z
Electronic contribution:      0.85253      -2.94918      -3.89359
Nuclear contribution   :     -1.20969       4.21446       5.90092
                        -----------------------------------------
Total Dipole Moment    :     -0.35716       1.26529       2.00733
                        -----------------------------------------
Magnitude (a.u.)       :      2.39956
Magnitude (Debye)      :      6.09920

                             ****ORCA TERMINATED NORMALLY****
TOTAL RUN TIME: 0 days 0 hours 16 minutes 14 seconds 861 msec
