                         Program Version 3.0.3 - RELEASE   -
|  1> ! RI-MP2 RIJK def2-TZVP def2-TZVP/C def2-TZVP/JK TIGHTSCF
|  2> % maxcore 2000
|  3> % mp2 density relaxed end
|  4> *xyz 0 1
|  5>  C       -0.1002895974     1.5277520203    -0.0653211912
|  6>  C        0.0039074044     0.0208817914     0.0060499587
|  7>  C        1.3273782057    -0.6697897944    -0.2026967353
|  8>  C        0.6975527335    -0.6473090264     1.1619602528
|  9>  C        1.2102428302    -0.0708009822     2.4949268531
| 10>  N        0.6749365271    -1.2866597871     3.1212849707
| 11>  C        0.6392880887    -1.7401192617     4.4843448187
| 12>  C        0.1995697928    -1.8423713165     1.9529143616
| 13>  O       -0.3792858768    -2.8735016100     1.7185194367
| 14>  H        0.8056338796     2.0073700799     0.3202598247
| 15>  H       -0.2368152139     1.8613743713    -1.0996035789
| 16>  H       -0.9494313496     1.8984584857     0.5190907918
| 17>  H       -0.8669366275    -0.5188003526    -0.3584413613
| 18>  H        1.3447507139    -1.6219012725    -0.7226076767
| 19>  H        2.2029287208    -0.0469614210    -0.3606606509
| 20>  H        2.2983428576     0.0327743452     2.5825663071
| 21>  H        0.7255780866     0.8531384905     2.8331913243
| 22>  H        0.0882592446    -1.0444273613     5.1300864012
| 23>  H        0.1302463545    -2.7071981757     4.4962501811
| 24>  H        1.6480380149    -1.8684759631     4.8970282417
| 25> *
| 26>
| 27>                          ****END OF INPUT****

CARTESIAN COORDINATES (ANGSTROEM)
---------------------------------
  C     -0.100290    1.527752   -0.065321
  C      0.003907    0.020882    0.006050
  C      1.327378   -0.669790   -0.202697
  C      0.697553   -0.647309    1.161960
  C      1.210243   -0.070801    2.494927
  N      0.674937   -1.286660    3.121285
  C      0.639288   -1.740119    4.484345
  C      0.199570   -1.842371    1.952914
  O     -0.379286   -2.873502    1.718519
  H      0.805634    2.007370    0.320260
  H     -0.236815    1.861374   -1.099604
  H     -0.949431    1.898458    0.519091
  H     -0.866937   -0.518800   -0.358441
  H      1.344751   -1.621901   -0.722608
  H      2.202929   -0.046961   -0.360661
  H      2.298343    0.032774    2.582566
  H      0.725578    0.853138    2.833191
  H      0.088259   -1.044427    5.130086
  H      0.130246   -2.707198    4.496250
  H      1.648038   -1.868476    4.897028

 Total Charge           Charge          ....    0
 Multiplicity           Mult            ....    1
 Number of Electrons    NEL             ....   68
 Basis Dimension        Dim             ....  345

ORBITAL ENERGIES
----------------

  NO   OCC          E(Eh)            E(eV)
   0   2.0000     -20.515928      -558.2668
   1   2.0000     -15.580229      -423.9596
   2   2.0000     -11.340167      -308.5816
   3   2.0000     -11.277256      -306.8697
   4   2.0000     -11.263421      -306.4933
   5   2.0000     -11.250387      -306.1386
   6   2.0000     -11.246202      -306.0247
   7   2.0000     -11.237595      -305.7905
   8   2.0000     -11.229346      -305.5660
   9   2.0000      -1.378936       -37.5228
  10   2.0000      -1.273695       -34.6590
  11   2.0000      -1.157541       -31.4983
  12   2.0000      -1.025099       -27.8944
  13   2.0000      -0.968792       -26.3622
  14   2.0000      -0.907720       -24.7003
  15   2.0000      -0.836005       -22.7489
  16   2.0000      -0.796928       -21.6855
  17   2.0000      -0.700568       -19.0634
  18   2.0000      -0.687528       -18.7086
  19   2.0000      -0.663266       -18.0484
  20   2.0000      -0.660777       -17.9806
  21   2.0000      -0.621917       -16.9232
  22   2.0000      -0.594053       -16.1650
  23   2.0000      -0.583745       -15.8845
  24   2.0000      -0.571896       -15.5621
  25   2.0000      -0.555386       -15.1128
  26   2.0000      -0.535569       -14.5736
  27   2.0000      -0.532848       -14.4995
  28   2.0000      -0.519852       -14.1459
  29   2.0000      -0.505128       -13.7452
  30   2.0000      -0.434664       -11.8278
  31   2.0000      -0.416261       -11.3270
  32   2.0000      -0.398152       -10.8343
  33   2.0000      -0.373677       -10.1683
  34   0.0000       0.127916         3.4808
  35   0.0000       0.147130         4.0036
  36   0.0000       0.162643         4.4257
  37   0.0000       0.172395         4.6911
  38   0.0000       0.185749         5.0545

MULLIKEN ATOMIC CHARGES
-----------------------
   0 C :   -0.421850
   1 C :   -0.082165
   2 C :   -0.313326
   3 C :    0.002557
   4 C :   -0.110595
   5 N :   -0.097263
   6 C :   -0.328374
   7 C :    0.183889
   8 O :   -0.338879
   9 H :    0.125920
  10 H :    0.141081
  11 H :    0.138975
  12 H :    0.137560
  13 H :    0.149320
  14 H :    0.131549
  15 H :    0.118522
  16 H :    0.121308
  17 H :    0.135441
  18 H :    0.169993
  19 H :    0.136338
Sum of atomic charges:    0.0000000

LOEWDIN ATOMIC CHARGES
----------------------
   0 C :   -0.290037
   1 C :   -0.203915
   2 C :   -0.176445
   3 C :   -0.172591
   4 C :   -0.181707
   5 N :    0.190597
   6 C :   -0.302887
   7 C :   -0.397684
   8 O :    0.089924
   9 H :    0.126524
  10 H :    0.128108
  11 H :    0.126901
  12 H :    0.157454
  13 H :    0.142667
  14 H :    0.138016
  15 H :    0.126113
  16 H :    0.126718
  17 H :    0.117820
  18 H :    0.136451
  19 H :    0.117974

  Mayer bond orders larger than 0.1
B(  0-C ,  1-C ) :   0.8960 B(  0-C ,  9-H ) :   0.9339 B(  0-C , 10-H ) :   0.9380
B(  0-C , 11-H ) :   0.9404 B(  1-C ,  2-C ) :   0.9488 B(  1-C ,  3-C ) :   0.8058
B(  1-C , 12-H ) :   0.9213 B(  2-C ,  3-C ) :   0.8167 B(  2-C , 13-H ) :   0.9214
B(  2-C , 14-H ) :   0.9238 B(  3-C ,  4-C ) :   0.8887 B(  3-C ,  7-C ) :   0.8787
B(  4-C ,  5-N ) :   0.9143 B(  4-C , 15-H ) :   0.9165 B(  4-C , 16-H ) :   0.9169
B(  5-N ,  6-C ) :   0.8755 B(  5-N ,  7-C ) :   1.1353 B(  6-C , 17-H ) :   0.9301
B(  6-C , 18-H ) :   0.9272 B(  6-C , 19-H ) :   0.9307 B(  7-C ,  8-O ) :   2.0159

MP2 TOTAL ENERGY:     -402.460954842 Eh
FINAL SINGLE POINT ENERGY      -402.460954842283

DIPOLE MOMENT
-------------
                                X             Y             Z
Electronic contribution:     -1.27239      -6.39212       0.46410
Nuclear contribution   :      1.91903       7.64501      -0.00491
                        -----------------------------------------
Total Dipole Moment    :      0.64664       1.25289       0.45919
                        -----------------------------------------
Magnitude (a.u.)       :      1.48281
Magnitude (Debye)      :      3.76901

                             ****ORCA TERMINATED NORMALLY****
TOTAL RUN TIME: 0 days 0 hours 18 minutes 58 seconds 944 msec
