                         Program Version 3.0.3 - RELEASE   -
|  1> ! RI-MP2 RIJK def2-TZVP def2-TZVP/C def2-TZVP/JK TIGHTSCF
|  2> % maxcore 2000
|  3> % mp2 density relaxed end
|  4> *xyz 0 1
|  5>  C        0.3152593745     1.5859197069    -0.1404375657
|  6>  C        0.1654911170     0.0842345832    -0.0378430723
|  7>  C        1.3789218972    -0.7944855029     0.2097389139
|  8>  C        0.3244060717    -0.6159801792     1.2783166614
|  9>  O        0.6082820752     0.1724942707     2.3898089300
| 10>  C        1.3351543693    -0.5137283343     3.3943905365
| 11>  C        1.5766097490     0.4459230243     4.5503340021
| 12>  C        2.3508923795    -0.1981502056     5.6926700157
| 13>  O        2.5211090897     0.7813831979     6.7055024918
| 14>  H        1.0336467802     1.9563741227     0.5940631552
| 15>  H        0.6582916716     1.8774693862    -1.1389160300
| 16>  H       -0.6386166788     2.0904355216     0.0478807331
| 17>  H       -0.5934998558    -0.3398647579    -0.6903486739
| 18>  H        1.4624643831    -1.7478720583    -0.3008636750
| 19>  H        2.3218781940    -0.2825465128     0.3744131437
| 20>  H       -0.3284974965    -1.4641134207     1.4932855823
| 21>  H        0.7663216545    -1.3959916576     3.7345814589
| 22>  H        2.2886102092    -0.8847185019     2.9849939194
| 23>  H        2.1308081191     1.3187280862     4.1888260014
| 24>  H        0.6154812949     0.8104419741     4.9278734518
| 25>  H        1.7982135027    -1.0729403491     6.0737963164
| 26>  H        3.3241209854    -0.5650222766     5.3262103967
| 27>  H        3.0085285932     0.3811150730     7.4312342768
| 28> *
| 29>
| 30>                          ****END OF INPUT****

CARTESIAN COORDINATES (ANGSTROEM)
---------------------------------
  C      0.315259    1.585920   -0.140438
  C      0.165491    0.084235   -0.037843
  C      1.378922   -0.794486    0.209739
  C      0.324406   -0.615980    1.278317
  O      0.608282    0.172494    2.389809
  C      1.335154   -0.513728    3.394391
  C      1.576610    0.445923    4.550334
  C      2.350892   -0.198150    5.692670
  O      2.521109    0.781383    6.705502
  H      1.033647    1.956374    0.594063
  H      0.658292    1.877469   -1.138916
  H     -0.638617    2.090436    0.047881
  H     -0.593500   -0.339865   -0.690349
  H      1.462464   -1.747872   -0.300864
  H      2.321878   -0.282547    0.374413
  H     -0.328497   -1.464113    1.493286
  H      0.766322   -1.395992    3.734581
  H      2.288610   -0.884719    2.984994
  H      2.130808    1.318728    4.188826
  H      0.615481    0.810442    4.927873
  H      1.798214   -1.072940    6.073796
  H      3.324121   -0.565022    5.326210
  H      3.008529    0.381115    7.431234

 Total Charge           Charge          ....    0
 Multiplicity           Mult            ....    1
 Number of Electrons    NEL             ....   72
 Basis Dimension        Dim             ....  363

ORBITAL ENERGIES
----------------

  NO   OCC          E(Eh)            E(eV)
   0   2.0000     -20.556392      -559.3679
   1   2.0000     -20.555823      -559.3524
   2   2.0000     -11.277582      -306.8786
   3   2.0000     -11.275996      -306.8354
   4   2.0000     -11.274727      -306.8009
   5   2.0000     -11.228003      -305.5295
   6   2.0000     -11.218994      -305.2844
   7   2.0000     -11.216195      -305.2082
   8   2.0000     -11.209136      -305.0161
   9   2.0000      -1.381708       -37.5982
  10   2.0000      -1.359843       -37.0032
  11   2.0000      -1.134473       -30.8706
  12   2.0000      -1.045080       -28.4381
  13   2.0000      -0.956055       -26.0156
  14   2.0000      -0.909723       -24.7548
  15   2.0000      -0.815294       -22.1853
  16   2.0000      -0.803929       -21.8760
  17   2.0000      -0.769931       -20.9509
  18   2.0000      -0.701602       -19.0916
  19   2.0000      -0.691254       -18.8100
  20   2.0000      -0.662996       -18.0411
  21   2.0000      -0.648474       -17.6459
  22   2.0000      -0.614569       -16.7233
  23   2.0000      -0.593773       -16.1574
  24   2.0000      -0.568982       -15.4828
  25   2.0000      -0.555247       -15.1090
  26   2.0000      -0.551723       -15.0131
  27   2.0000      -0.533301       -14.5118
  28   2.0000      -0.512064       -13.9340
  29   2.0000      -0.496252       -13.5037
  30   2.0000      -0.486994       -13.2518
  31   2.0000      -0.477783       -13.0011
  32   2.0000      -0.453433       -12.3385
  33   2.0000      -0.444545       -12.0967
  34   2.0000      -0.399533       -10.8718
  35   2.0000      -0.385955       -10.5024
  36   0.0000       0.133316         3.6277
  37   0.0000       0.146827         3.9954
  38   0.0000       0.157770         4.2931
  39   0.0000       0.161727         4.4008
  40   0.0000       0.177414         4.8277

MULLIKEN ATOMIC CHARGES
-----------------------
   0 C :   -0.403474
   1 C :   -0.049929
   2 C :   -0.290621
   3 C :    0.007251
   4 O :   -0.290658
   5 C :   -0.083211
   6 C :   -0.141443
   7 C :   -0.076761
   8 O :   -0.463162
   9 H :    0.140082
  10 H :    0.129351
  11 H :    0.129186
  12 H :    0.116037
  13 H :    0.128343
  14 H :    0.131712
  15 H :    0.101787
  16 H :    0.087520
  17 H :    0.093472
  18 H :    0.117247
  19 H :    0.119826
  20 H :    0.091070
  21 H :    0.091661
  22 H :    0.314715
Sum of atomic charges:   -0.0000000

LOEWDIN ATOMIC CHARGES
----------------------
   0 C :   -0.294084
   1 C :   -0.234217
   2 C :   -0.221522
   3 C :   -0.306523
   4 O :    0.196793
   5 C :   -0.315979
   6 C :   -0.268928
   7 C :   -0.352296
   8 O :   -0.050699
   9 H :    0.129087
  10 H :    0.123676
  11 H :    0.126101
  12 H :    0.146569
  13 H :    0.128617
  14 H :    0.137802
  15 H :    0.131348
  16 H :    0.119226
  17 H :    0.119789
  18 H :    0.142646
  19 H :    0.143306
  20 H :    0.113736
  21 H :    0.113704
  22 H :    0.171849

  Mayer bond orders larger than 0.1
B(  0-C ,  1-C ) :   0.9118 B(  0-C ,  9-H ) :   0.9325 B(  0-C , 10-H ) :   0.9388
B(  0-C , 11-H ) :   0.9378 B(  1-C ,  2-C ) :   0.8802 B(  1-C ,  3-C ) :   0.8949
B(  1-C , 12-H ) :   0.9255 B(  2-C ,  3-C ) :   0.8934 B(  2-C , 13-H ) :   0.9203
B(  2-C , 14-H ) :   0.9240 B(  3-C ,  4-O ) :   0.9661 B(  3-C , 15-H ) :   0.9307
B(  4-O ,  5-C ) :   0.9177 B(  5-C ,  6-C ) :   0.9387 B(  5-C , 16-H ) :   0.9201
B(  5-C , 17-H ) :   0.9206 B(  6-C ,  7-C ) :   0.9288 B(  6-C , 18-H ) :   0.9230
B(  6-C , 19-H ) :   0.9207 B(  7-C ,  8-O ) :   1.0092 B(  7-C , 20-H ) :   0.9278
B(  7-C , 21-H ) :   0.9281 B(  8-O , 22-H ) :   0.8492

MP2 TOTAL ENERGY:     -424.690360948 Eh
FINAL SINGLE POINT ENERGY      -424.690360947767

DIPOLE MOMENT
-------------
                                X             Y             Z
Electronic contribution:     -0.51223       0.02945       3.48794
Nuclear contribution   :      0.86474      -0.95153      -3.42491
                        -----------------------------------------
Total Dipole Moment    :      0.35251      -0.92207       0.06303
                        -----------------------------------------
Magnitude (a.u.)       :      0.98917
Magnitude (Debye)      :      2.51427

                             ****ORCA TERMINATED NORMALLY****
TOTAL RUN TIME: 0 days 0 hours 16 minutes 10 seconds 583 msec
