                         Program Version 3.0.3 - RELEASE   -
|  1> ! RI-MP2 RIJK def2-TZVP def2-TZVP/C def2-TZVP/JK TIGHTSCF
|  2> % maxcore 2000
|  3> % mp2 density relaxed end
|  4> *xyz 0 1
|  5>  N       -0.1686087254    -1.1346906763    -0.2736211526
|  6>  C       -0.0924075312     0.0156517192    -0.1887025150
|  7>  C        0.0158501045     1.4738222863    -0.0983221235
|  8>  N       -0.2792715052     2.0500704344     1.2305598611
|  9>  C        0.8547180984     3.0096559869     1.1091177263
| 10>  C        1.8623075407     3.0003465711     2.2758228743
| 11>  C        3.1152095508     2.2981065913     1.6999268228
| 12>  C        2.5686686825     1.3286654107     0.6318999538
| 13>  C        1.4334606671     2.1237112050    -0.0343567737
| 14>  H       -0.5710278121     1.9060416254    -0.9204217286
| 15>  H       -1.2057947565     2.4493585663     1.3304144377
| 16>  H        0.5499575505     4.0171451498     0.8034560666
| 17>  H        2.0860048969     4.0032003328     2.6503071284
| 18>  H        1.4356741770     2.4218720856     3.1003488492
| 19>  H        3.7698724735     3.0390751789     1.2249301262
| 20>  H        3.7090623406     1.7908186761     2.4650843300
| 21>  H        3.3315549324     1.0032352177    -0.0798357071
| 22>  H        2.1686134527     0.4300658367     1.1127913239
| 23>  H        1.7460048129     2.6223640620    -0.9518149199
| 24> *
| 25>
| 26>                          ****END OF INPUT****

CARTESIAN COORDINATES (ANGSTROEM)
---------------------------------
  N     -0.168609   -1.134691   -0.273621
  C     -0.092408    0.015652   -0.188703
  C      0.015850    1.473822   -0.098322
  N     -0.279272    2.050070    1.230560
  C      0.854718    3.009656    1.109118
  C      1.862308    3.000347    2.275823
  C      3.115210    2.298107    1.699927
  C      2.568669    1.328665    0.631900
  C      1.433461    2.123711   -0.034357
  H     -0.571028    1.906042   -0.920422
  H     -1.205795    2.449359    1.330414
  H      0.549958    4.017145    0.803456
  H      2.086005    4.003200    2.650307
  H      1.435674    2.421872    3.100349
  H      3.769872    3.039075    1.224930
  H      3.709062    1.790819    2.465084
  H      3.331555    1.003235   -0.079836
  H      2.168613    0.430066    1.112791
  H      1.746005    2.622364   -0.951815

 Total Charge           Charge          ....    0
 Multiplicity           Mult            ....    1
 Number of Electrons    NEL             ....   66
 Basis Dimension        Dim             ....  339

ORBITAL ENERGIES
----------------

  NO   OCC          E(Eh)            E(eV)
   0   2.0000     -15.567352      -423.6092
   1   2.0000     -15.565638      -423.5625
   2   2.0000     -11.309612      -307.7502
   3   2.0000     -11.271883      -306.7235
   4   2.0000     -11.265448      -306.5484
   5   2.0000     -11.252582      -306.1983
   6   2.0000     -11.229790      -305.5781
   7   2.0000     -11.228928      -305.5547
   8   2.0000     -11.225203      -305.4533
   9   2.0000      -1.268421       -34.5155
  10   2.0000      -1.208739       -32.8915
  11   2.0000      -1.099920       -29.9304
  12   2.0000      -1.015704       -27.6387
  13   2.0000      -0.947303       -25.7774
  14   2.0000      -0.933031       -25.3891
  15   2.0000      -0.805322       -21.9139
  16   2.0000      -0.757533       -20.6135
  17   2.0000      -0.735248       -20.0071
  18   2.0000      -0.690289       -18.7837
  19   2.0000      -0.644300       -17.5323
  20   2.0000      -0.630734       -17.1632
  21   2.0000      -0.599627       -16.3167
  22   2.0000      -0.574644       -15.6368
  23   2.0000      -0.557133       -15.1604
  24   2.0000      -0.511335       -13.9141
  25   2.0000      -0.500329       -13.6146
  26   2.0000      -0.490997       -13.3607
  27   2.0000      -0.485702       -13.2166
  28   2.0000      -0.480584       -13.0773
  29   2.0000      -0.465742       -12.6735
  30   2.0000      -0.454201       -12.3594
  31   2.0000      -0.439997       -11.9729
  32   2.0000      -0.399518       -10.8714
  33   0.0000       0.115719         3.1489
  34   0.0000       0.132656         3.6098
  35   0.0000       0.148901         4.0518
  36   0.0000       0.164154         4.4669
  37   0.0000       0.176013         4.7896

MULLIKEN ATOMIC CHARGES
-----------------------
   0 N :   -0.052463
   1 C :   -0.193152
   2 C :    0.041304
   3 N :   -0.362822
   4 C :   -0.025748
   5 C :   -0.257751
   6 C :   -0.215276
   7 C :   -0.287596
   8 C :    0.014534
   9 H :    0.132746
  10 H :    0.211764
  11 H :    0.112893
  12 H :    0.118657
  13 H :    0.125257
  14 H :    0.115002
  15 H :    0.126218
  16 H :    0.129830
  17 H :    0.138424
  18 H :    0.128179
Sum of atomic charges:    0.0000000

LOEWDIN ATOMIC CHARGES
----------------------
   0 N :    0.063924
   1 C :   -0.171550
   2 C :   -0.252198
   3 N :    0.036174
   4 C :   -0.227790
   5 C :   -0.238820
   6 C :   -0.250829
   7 C :   -0.227577
   8 C :   -0.162453
   9 H :    0.159070
  10 H :    0.160485
  11 H :    0.132945
  12 H :    0.132387
  13 H :    0.143552
  14 H :    0.136064
  15 H :    0.134654
  16 H :    0.137032
  17 H :    0.150925
  18 H :    0.144004

  Mayer bond orders larger than 0.1
B(  0-N ,  1-C ) :   2.8703 B(  1-C ,  2-C ) :   0.9025 B(  2-C ,  3-N ) :   0.9879
B(  2-C ,  8-C ) :   0.9093 B(  2-C ,  9-H ) :   0.9082 B(  3-N ,  4-C ) :   1.0328
B(  3-N , 10-H ) :   0.8776 B(  4-C ,  5-C ) :   0.9006 B(  4-C ,  8-C ) :   0.8925
B(  4-C , 11-H ) :   0.9212 B(  5-C ,  6-C ) :   0.9332 B(  5-C , 12-H ) :   0.9341
B(  5-C , 13-H ) :   0.9226 B(  6-C ,  7-C ) :   0.9323 B(  6-C , 14-H ) :   0.9309
B(  6-C , 15-H ) :   0.9319 B(  7-C ,  8-C ) :   0.9093 B(  7-C , 16-H ) :   0.9322
B(  7-C , 17-H ) :   0.9201 B(  8-C , 18-H ) :   0.9160

MP2 TOTAL ENERGY:     -381.402211473 Eh
FINAL SINGLE POINT ENERGY      -381.402211472514

DIPOLE MOMENT
-------------
                                X             Y             Z
Electronic contribution:     -5.86195      -5.31733      -3.30575
Nuclear contribution   :      6.11787       7.16745       3.23209
                        -----------------------------------------
Total Dipole Moment    :      0.25592       1.85013      -0.07366
                        -----------------------------------------
Magnitude (a.u.)       :      1.86919
Magnitude (Debye)      :      4.75112

                             ****ORCA TERMINATED NORMALLY****
TOTAL RUN TIME: 0 days 0 hours 19 minutes 38 seconds 989 msec
