                         Program Version 3.0.3 - RELEASE   -
|  1> ! RI-MP2 RIJK def2-TZVP def2-TZVP/C def2-TZVP/JK TIGHTSCF
|  2> % maxcore 2000
|  3> % mp2 density relaxed end
|  4> *xyz 0 1
|  5>  C       -0.0228596356     1.5380048127     0.1305747716
|  6>  N       -0.0248930591     0.0929700268     0.1252183558
|  7>  C       -1.2875110017    -0.6053338815     0.4390319315
|  8>  C       -0.4883319282    -1.6340447911     1.2671615802
|  9>  O       -1.1180520204    -1.9329431044     2.4910327674
| 10>  C        0.0621782160    -2.8363123801     0.5478681612
| 11>  C        1.3620908087    -2.7145412494     0.2732783177
| 12>  C        1.9464012517    -1.3870525542     0.7103531095
| 13>  C        0.7068362534    -0.6204609011     1.1966881066
| 14>  H        0.9952950769     1.9096632692    -0.0288949442
| 15>  H       -0.6458194346     1.9136367877    -0.6886425455
| 16>  H       -0.4024674029     1.9753202870     1.0741170526
| 17>  H       -1.9588165852    -0.0353199729     1.1001833030
| 18>  H       -1.8493913048    -0.9587862162    -0.4325977220
| 19>  H       -0.5958425817    -2.6132592608     2.9304926663
| 20>  H       -0.5567385273    -3.6976572405     0.3188370530
| 21>  H        1.9597219707    -3.4704744647    -0.2263468079
| 22>  H        2.7114464944    -1.5179113404     1.4876516803
| 23>  H        2.4236060605    -0.8590729164    -0.1234217616
| 24>  H        0.8553168491    -0.0281564697     2.1090074444
| 25> *
| 26>
| 27>                          ****END OF INPUT****

CARTESIAN COORDINATES (ANGSTROEM)
---------------------------------
  C     -0.022860    1.538005    0.130575
  N     -0.024893    0.092970    0.125218
  C     -1.287511   -0.605334    0.439032
  C     -0.488332   -1.634045    1.267162
  O     -1.118052   -1.932943    2.491033
  C      0.062178   -2.836312    0.547868
  C      1.362091   -2.714541    0.273278
  C      1.946401   -1.387053    0.710353
  C      0.706836   -0.620461    1.196688
  H      0.995295    1.909663   -0.028895
  H     -0.645819    1.913637   -0.688643
  H     -0.402467    1.975320    1.074117
  H     -1.958817   -0.035320    1.100183
  H     -1.849391   -0.958786   -0.432598
  H     -0.595843   -2.613259    2.930493
  H     -0.556739   -3.697657    0.318837
  H      1.959722   -3.470474   -0.226347
  H      2.711446   -1.517911    1.487652
  H      2.423606   -0.859073   -0.123422
  H      0.855317   -0.028156    2.109007

 Total Charge           Charge          ....    0
 Multiplicity           Mult            ....    1
 Number of Electrons    NEL             ....   68
 Basis Dimension        Dim             ....  345

ORBITAL ENERGIES
----------------

  NO   OCC          E(Eh)            E(eV)
   0   2.0000     -20.559230      -559.4451
   1   2.0000     -15.540045      -422.8661
   2   2.0000     -11.285161      -307.0848
   3   2.0000     -11.249477      -306.1138
   4   2.0000     -11.243381      -305.9480
   5   2.0000     -11.240480      -305.8690
   6   2.0000     -11.236378      -305.7574
   7   2.0000     -11.226156      -305.4792
   8   2.0000     -11.223752      -305.4138
   9   2.0000      -1.369986       -37.2792
  10   2.0000      -1.245257       -33.8852
  11   2.0000      -1.106860       -30.1192
  12   2.0000      -0.997737       -27.1498
  13   2.0000      -0.967667       -26.3316
  14   2.0000      -0.881238       -23.9797
  15   2.0000      -0.854032       -23.2394
  16   2.0000      -0.759029       -20.6542
  17   2.0000      -0.732141       -19.9226
  18   2.0000      -0.706400       -19.2221
  19   2.0000      -0.651994       -17.7416
  20   2.0000      -0.639492       -17.4015
  21   2.0000      -0.618621       -16.8335
  22   2.0000      -0.597770       -16.2661
  23   2.0000      -0.569626       -15.5003
  24   2.0000      -0.562322       -15.3016
  25   2.0000      -0.543951       -14.8017
  26   2.0000      -0.529498       -14.4084
  27   2.0000      -0.525687       -14.3047
  28   2.0000      -0.494719       -13.4620
  29   2.0000      -0.470656       -12.8072
  30   2.0000      -0.458203       -12.4683
  31   2.0000      -0.411980       -11.2105
  32   2.0000      -0.358688        -9.7604
  33   2.0000      -0.352358        -9.5881
  34   0.0000       0.136356         3.7104
  35   0.0000       0.142721         3.8836
  36   0.0000       0.163125         4.4389
  37   0.0000       0.168886         4.5956
  38   0.0000       0.184386         5.0174

MULLIKEN ATOMIC CHARGES
-----------------------
   0 C :   -0.326822
   1 N :   -0.184902
   2 C :   -0.182454
   3 C :    0.318962
   4 O :   -0.454233
   5 C :   -0.303191
   6 C :   -0.162567
   7 C :   -0.159029
   8 C :   -0.044606
   9 H :    0.132263
  10 H :    0.137663
  11 H :    0.106397
  12 H :    0.105722
  13 H :    0.107965
  14 H :    0.314950
  15 H :    0.133561
  16 H :    0.127417
  17 H :    0.112739
  18 H :    0.118818
  19 H :    0.101347
Sum of atomic charges:   -0.0000000

LOEWDIN ATOMIC CHARGES
----------------------
   0 C :   -0.341312
   1 N :    0.089098
   2 C :   -0.207069
   3 C :   -0.329116
   4 O :    0.014853
   5 C :   -0.138270
   6 C :   -0.135231
   7 C :   -0.226725
   8 C :   -0.191040
   9 H :    0.117594
  10 H :    0.118790
  11 H :    0.100919
  12 H :    0.128879
  13 H :    0.122531
  14 H :    0.178050
  15 H :    0.141409
  16 H :    0.136726
  17 H :    0.137313
  18 H :    0.147024
  19 H :    0.135578

  Mayer bond orders larger than 0.1
B(  0-C ,  1-N ) :   0.9078 B(  0-C ,  9-H ) :   0.9371 B(  0-C , 10-H ) :   0.9382
B(  0-C , 11-H ) :   0.9266 B(  1-N ,  2-C ) :   0.9596 B(  1-N ,  8-C ) :   0.9731
B(  2-C ,  3-C ) :   0.9002 B(  2-C , 12-H ) :   0.9207 B(  2-C , 13-H ) :   0.9079
B(  3-C ,  4-O ) :   1.0364 B(  3-C ,  5-C ) :   0.9742 B(  3-C ,  8-C ) :   0.8523
B(  4-O , 14-H ) :   0.8383 B(  5-C ,  6-C ) :   1.7594 B(  5-C , 15-H ) :   0.9321
B(  6-C ,  7-C ) :   0.9712 B(  6-C , 16-H ) :   0.9249 B(  7-C ,  8-C ) :   0.9072
B(  7-C , 17-H ) :   0.9049 B(  7-C , 18-H ) :   0.9032 B(  8-C , 19-H ) :   0.9162

MP2 TOTAL ENERGY:     -402.440955984 Eh
FINAL SINGLE POINT ENERGY      -402.440955983630

DIPOLE MOMENT
-------------
                                X             Y             Z
Electronic contribution:     -1.24844      -4.46177       1.57323
Nuclear contribution   :      1.73902       4.30355      -1.49985
                        -----------------------------------------
Total Dipole Moment    :      0.49058      -0.15823       0.07338
                        -----------------------------------------
Magnitude (a.u.)       :      0.52067
Magnitude (Debye)      :      1.32343

                             ****ORCA TERMINATED NORMALLY****
TOTAL RUN TIME: 0 days 0 hours 19 minutes 32 seconds 311 msec
