                         Program Version 3.0.3 - RELEASE   -
|  1> ! RI-MP2 RIJK def2-TZVP def2-TZVP/C def2-TZVP/JK TIGHTSCF
|  2> % maxcore 2000
|  3> % mp2 density relaxed end
|  4> *xyz 0 1
|  5>  C       -0.0970191335     1.1494696018    -1.6674261772
|  6>  O        0.2324027109     0.4441321737    -0.4884126757
|  7>  C        1.0021847105    -0.7246866179    -0.7053215166
|  8>  C        1.5263352536    -1.1705578243     0.6558459308
|  9>  C        0.1773093625    -1.8131194001    -1.3833816556
| 10>  N        0.6146080551    -2.2350994536    -2.5175269732
| 11>  O       -0.1779868508    -3.2322972108    -3.0647169616
| 12>  C       -1.0058165751    -2.2803807337    -0.7446075133
| 13>  C       -1.9986060550    -2.6541819523    -0.1755732343
| 14>  H        0.8049560424     1.4582546068    -2.2176518942
| 15>  H       -0.7278736394     0.5587013685    -2.3455053152
| 16>  H       -0.6479323638     2.0410931269    -1.3593904944
| 17>  H        1.8415365497    -0.5100836139    -1.3836225050
| 18>  H        2.1634618553    -2.0529557997     0.5508582325
| 19>  H        2.1081948489    -0.3621939123     1.1055713173
| 20>  H        0.6943542441    -1.4135338434     1.3218661366
| 21>  H        0.2790035530    -3.4310459092    -3.8900159269
| 22>  H       -2.8781910184    -2.9868947566     0.3184846458
| 23> *
| 24>
| 25>                          ****END OF INPUT****

CARTESIAN COORDINATES (ANGSTROEM)
---------------------------------
  C     -0.097019    1.149470   -1.667426
  O      0.232403    0.444132   -0.488413
  C      1.002185   -0.724687   -0.705322
  C      1.526335   -1.170558    0.655846
  C      0.177309   -1.813119   -1.383382
  N      0.614608   -2.235099   -2.517527
  O     -0.177987   -3.232297   -3.064717
  C     -1.005817   -2.280381   -0.744608
  C     -1.998606   -2.654182   -0.175573
  H      0.804956    1.458255   -2.217652
  H     -0.727874    0.558701   -2.345505
  H     -0.647932    2.041093   -1.359390
  H      1.841537   -0.510084   -1.383623
  H      2.163462   -2.052956    0.550858
  H      2.108195   -0.362194    1.105571
  H      0.694354   -1.413534    1.321866
  H      0.279004   -3.431046   -3.890016
  H     -2.878191   -2.986895    0.318485

 Total Charge           Charge          ....    0
 Multiplicity           Mult            ....    1
 Number of Electrons    NEL             ....   68
 Basis Dimension        Dim             ....  333

ORBITAL ENERGIES
----------------

  NO   OCC          E(Eh)            E(eV)
   0   2.0000     -20.605870      -560.7142
   1   2.0000     -20.560616      -559.4828
   2   2.0000     -15.640139      -425.5898
   3   2.0000     -11.300760      -307.5093
   4   2.0000     -11.297362      -307.4169
   5   2.0000     -11.270373      -306.6825
   6   2.0000     -11.248159      -306.0780
   7   2.0000     -11.244337      -305.9740
   8   2.0000     -11.219135      -305.2882
   9   2.0000      -1.440365       -39.1943
  10   2.0000      -1.382262       -37.6133
  11   2.0000      -1.182741       -32.1840
  12   2.0000      -1.044610       -28.4253
  13   2.0000      -1.032055       -28.0836
  14   2.0000      -0.918152       -24.9842
  15   2.0000      -0.888256       -24.1707
  16   2.0000      -0.831926       -22.6379
  17   2.0000      -0.733163       -19.9504
  18   2.0000      -0.713971       -19.4281
  19   2.0000      -0.691692       -18.8219
  20   2.0000      -0.657400       -17.8888
  21   2.0000      -0.652527       -17.7561
  22   2.0000      -0.638354       -17.3705
  23   2.0000      -0.605018       -16.4634
  24   2.0000      -0.587455       -15.9855
  25   2.0000      -0.544599       -14.8193
  26   2.0000      -0.525725       -14.3057
  27   2.0000      -0.512318       -13.9409
  28   2.0000      -0.487470       -13.2647
  29   2.0000      -0.461747       -12.5648
  30   2.0000      -0.454317       -12.3626
  31   2.0000      -0.434425       -11.8213
  32   2.0000      -0.406189       -11.0530
  33   2.0000      -0.367001        -9.9866
  34   0.0000       0.095765         2.6059
  35   0.0000       0.142076         3.8661
  36   0.0000       0.151968         4.1353
  37   0.0000       0.159241         4.3332
  38   0.0000       0.167290         4.5522

MULLIKEN ATOMIC CHARGES
-----------------------
   0 C :   -0.232447
   1 O :   -0.302545
   2 C :    0.136476
   3 C :   -0.383700
   4 C :   -0.136879
   5 N :   -0.053266
   6 O :   -0.343545
   7 C :    0.039148
   8 C :   -0.143408
   9 H :    0.115017
  10 H :    0.128146
  11 H :    0.140029
  12 H :    0.086761
  13 H :    0.131946
  14 H :    0.138518
  15 H :    0.144602
  16 H :    0.339380
  17 H :    0.195766
Sum of atomic charges:   -0.0000000

LOEWDIN ATOMIC CHARGES
----------------------
   0 C :   -0.350433
   1 O :    0.165174
   2 C :   -0.319095
   3 C :   -0.276845
   4 C :   -0.266975
   5 N :    0.046009
   6 O :   -0.042467
   7 C :   -0.072677
   8 C :   -0.047942
   9 H :    0.103609
  10 H :    0.106163
  11 H :    0.114311
  12 H :    0.145404
  13 H :    0.129823
  14 H :    0.128901
  15 H :    0.132322
  16 H :    0.174443
  17 H :    0.130276

  Mayer bond orders larger than 0.1
B(  0-C ,  1-O ) :   0.9104 B(  0-C ,  9-H ) :   0.9351 B(  0-C , 10-H ) :   0.9327
B(  0-C , 11-H ) :   0.9388 B(  1-O ,  2-C ) :   0.9550 B(  2-C ,  3-C ) :   0.9054
B(  2-C ,  4-C ) :   0.9195 B(  2-C , 12-H ) :   0.9366 B(  3-C , 13-H ) :   0.9336
B(  3-C , 14-H ) :   0.9327 B(  3-C , 15-H ) :   0.9308 B(  4-C ,  5-N ) :   1.8339
B(  4-C ,  7-C ) :   1.1438 B(  5-N ,  6-O ) :   0.8397 B(  6-O , 16-H ) :   0.8418
B(  7-C ,  8-C ) :   2.5851 B(  8-C , 17-H ) :   0.8901

MP2 TOTAL ENERGY:     -438.266780616 Eh
FINAL SINGLE POINT ENERGY      -438.266780616454

DIPOLE MOMENT
-------------
                                X             Y             Z
Electronic contribution:     -2.79872      -5.26565      -2.74469
Nuclear contribution   :      2.85703       5.17670       2.41623
                        -----------------------------------------
Total Dipole Moment    :      0.05831      -0.08895      -0.32846
                        -----------------------------------------
Magnitude (a.u.)       :      0.34525
Magnitude (Debye)      :      0.87755

                             ****ORCA TERMINATED NORMALLY****
TOTAL RUN TIME: 0 days 0 hours 17 minutes 7 seconds 328 msec
