                         Program Version 3.0.3 - RELEASE   -
|  1> ! RI-MP2 RIJK def2-TZVP def2-TZVP/C def2-TZVP/JK TIGHTSCF
|  2> % maxcore 2000
|  3> % mp2 density relaxed end
|  4> *xyz 0 1
|  5>  N        0.6024374356     0.0071471868    -0.6031654008
|  6>  C       -0.2696787996     0.2126481366     0.4103367953
|  7>  O       -0.2229085482     1.1385215337     1.1943810551
|  8>  C       -1.4221500694    -0.8099721807     0.5074642116
|  9>  N       -1.0916457349    -2.1686982711     0.1128544713
| 10>  C       -0.9006872670    -3.2607988558     0.8874921109
| 11>  C       -0.5633250097    -4.2541677035    -0.0018807704
| 12>  N       -0.5555478279    -3.7309988161    -1.2556433288
| 13>  N       -0.8790873261    -2.4698112631    -1.1869227138
| 14>  H        1.3286783535     0.6889151867    -0.7490272355
| 15>  H        0.4568858771    -0.7299098188    -1.2776563925
| 16>  H       -1.7603397196    -0.8152913003     1.5426058868
| 17>  H       -2.2436434819    -0.4592837258    -0.1241958297
| 18>  H       -1.0216868650    -3.2384234725     1.9573294360
| 19>  H       -0.3340818768    -5.2908274563     0.1825961744
| 20> *
| 21>
| 22>                          ****END OF INPUT****

CARTESIAN COORDINATES (ANGSTROEM)
---------------------------------
  N      0.602437    0.007147   -0.603165
  C     -0.269679    0.212648    0.410337
  O     -0.222909    1.138522    1.194381
  C     -1.422150   -0.809972    0.507464
  N     -1.091646   -2.168698    0.112854
  C     -0.900687   -3.260799    0.887492
  C     -0.563325   -4.254168   -0.001881
  N     -0.555548   -3.730999   -1.255643
  N     -0.879087   -2.469811   -1.186923
  H      1.328678    0.688915   -0.749027
  H      0.456886   -0.729910   -1.277656
  H     -1.760340   -0.815291    1.542606
  H     -2.243643   -0.459284   -0.124196
  H     -1.021687   -3.238423    1.957329
  H     -0.334082   -5.290827    0.182596

 Total Charge           Charge          ....    0
 Multiplicity           Mult            ....    1
 Number of Electrons    NEL             ....   66
 Basis Dimension        Dim             ....  315

ORBITAL ENERGIES
----------------

  NO   OCC          E(Eh)            E(eV)
   0   2.0000     -20.532233      -558.7105
   1   2.0000     -15.678880      -426.6440
   2   2.0000     -15.651197      -425.8907
   3   2.0000     -15.613028      -424.8521
   4   2.0000     -15.590954      -424.2514
   5   2.0000     -11.369328      -309.3751
   6   2.0000     -11.311983      -307.8147
   7   2.0000     -11.300355      -307.4983
   8   2.0000     -11.268231      -306.6242
   9   2.0000      -1.455004       -39.5927
  10   2.0000      -1.397276       -38.0218
  11   2.0000      -1.244080       -33.8531
  12   2.0000      -1.218900       -33.1680
  13   2.0000      -1.098700       -29.8972
  14   2.0000      -1.028659       -27.9912
  15   2.0000      -0.859938       -23.4001
  16   2.0000      -0.850632       -23.1469
  17   2.0000      -0.809943       -22.0397
  18   2.0000      -0.753423       -20.5017
  19   2.0000      -0.744780       -20.2665
  20   2.0000      -0.684761       -18.6333
  21   2.0000      -0.656623       -17.8676
  22   2.0000      -0.647120       -17.6090
  23   2.0000      -0.619571       -16.8594
  24   2.0000      -0.616401       -16.7731
  25   2.0000      -0.599572       -16.3152
  26   2.0000      -0.553723       -15.0676
  27   2.0000      -0.526919       -14.3382
  28   2.0000      -0.461943       -12.5701
  29   2.0000      -0.455567       -12.3966
  30   2.0000      -0.427130       -11.6228
  31   2.0000      -0.411424       -11.1954
  32   2.0000      -0.373301       -10.1580
  33   0.0000       0.110785         3.0146
  34   0.0000       0.128209         3.4888
  35   0.0000       0.150938         4.1072
  36   0.0000       0.159608         4.3431
  37   0.0000       0.172664         4.6984

MULLIKEN ATOMIC CHARGES
-----------------------
   0 N :   -0.467606
   1 C :    0.242054
   2 O :   -0.338983
   3 C :   -0.144373
   4 N :    0.126851
   5 C :   -0.132595
   6 C :   -0.110421
   7 N :   -0.176330
   8 N :   -0.200488
   9 H :    0.263500
  10 H :    0.290151
  11 H :    0.161405
  12 H :    0.164579
  13 H :    0.171914
  14 H :    0.150345
Sum of atomic charges:    0.0000000

LOEWDIN ATOMIC CHARGES
----------------------
   0 N :    0.001917
   1 C :   -0.489780
   2 O :    0.088685
   3 C :   -0.202632
   4 N :    0.184998
   5 C :   -0.227496
   6 C :   -0.269508
   7 N :    0.004392
   8 N :   -0.045831
   9 H :    0.178222
  10 H :    0.175604
  11 H :    0.157487
  12 H :    0.159397
  13 H :    0.145475
  14 H :    0.139070

  Mayer bond orders larger than 0.1
B(  0-N ,  1-C ) :   1.2112 B(  0-N ,  9-H ) :   0.8586 B(  0-N , 10-H ) :   0.8334
B(  1-C ,  2-O ) :   1.9921 B(  1-C ,  3-C ) :   0.8955 B(  3-C ,  4-N ) :   0.8330
B(  3-C , 11-H ) :   0.9230 B(  3-C , 12-H ) :   0.9001 B(  4-N ,  5-C ) :   1.1863
B(  4-N ,  8-N ) :   1.0070 B(  5-C ,  6-C ) :   1.4415 B(  5-C ,  8-N ) :   0.1060
B(  5-C , 13-H ) :   0.9086 B(  6-C ,  7-N ) :   1.3744 B(  6-C , 14-H ) :   0.9325
B(  7-N ,  8-N ) :   1.2530

MP2 TOTAL ENERGY:     -449.424763263 Eh
FINAL SINGLE POINT ENERGY      -449.424763262753

DIPOLE MOMENT
-------------
                                X             Y             Z
Electronic contribution:      0.04580      -0.39823      -0.82834
Nuclear contribution   :     -0.13157       0.00156       1.38309
                        -----------------------------------------
Total Dipole Moment    :     -0.08577      -0.39667       0.55475
                        -----------------------------------------
Magnitude (a.u.)       :      0.68735
Magnitude (Debye)      :      1.74711

                             ****ORCA TERMINATED NORMALLY****
TOTAL RUN TIME: 0 days 0 hours 14 minutes 53 seconds 414 msec
