                         Program Version 3.0.3 - RELEASE   -
|  1> ! RI-MP2 RIJK def2-TZVP def2-TZVP/C def2-TZVP/JK TIGHTSCF
|  2> % maxcore 2000
|  3> % mp2 density relaxed end
|  4> *xyz 0 1
|  5>  C       -0.0824113093     1.5861599999     0.0243239786
|  6>  C        0.0314108823     0.0588057651     0.0338360589
|  7>  C        0.7571902377    -0.5282447218    -1.2173014643
|  8>  C        1.4368001268    -1.8100532124    -0.7043578104
|  9>  C        2.8774936841    -2.1865883577    -1.0665309658
| 10>  O        3.3700582340    -2.8817206166     0.0854800310
| 11>  C        2.7502898664    -2.3563815718     1.2699868434
| 12>  C        1.6138480124    -1.5195206903     0.7689279116
| 13>  C        0.8677449232    -0.4991608444     1.1782854417
| 14>  H        0.9087079243     2.0522726541    -0.0095488685
| 15>  H       -0.6473638478     1.9317233540    -0.8480340555
| 16>  H       -0.5961936557     1.9534725806     0.9191442985
| 17>  H       -0.9888610428    -0.3531379854     0.0884930862
| 18>  H        0.0799789837    -0.6951835154    -2.0595108015
| 19>  H        1.5231951440     0.1865999250    -1.5446994131
| 20>  H        0.7936911036    -2.6903044028    -0.8496748937
| 21>  H        2.9805030141    -2.8645743928    -1.9180587509
| 22>  H        3.4737822320    -1.2802759206    -1.2639538194
| 23>  H        2.4339966478    -3.2067828281     1.8881195144
| 24>  H        3.4705113456    -1.7667241195     1.8556141194
| 25>  H        0.8407275637    -0.0791946091     2.1785471595
| 26> *
| 27>
| 28>                          ****END OF INPUT****

CARTESIAN COORDINATES (ANGSTROEM)
---------------------------------
  C     -0.082411    1.586160    0.024324
  C      0.031411    0.058806    0.033836
  C      0.757190   -0.528245   -1.217301
  C      1.436800   -1.810053   -0.704358
  C      2.877494   -2.186588   -1.066531
  O      3.370058   -2.881721    0.085480
  C      2.750290   -2.356382    1.269987
  C      1.613848   -1.519521    0.768928
  C      0.867745   -0.499161    1.178285
  H      0.908708    2.052273   -0.009549
  H     -0.647364    1.931723   -0.848034
  H     -0.596194    1.953473    0.919144
  H     -0.988861   -0.353138    0.088493
  H      0.079979   -0.695184   -2.059511
  H      1.523195    0.186600   -1.544699
  H      0.793691   -2.690304   -0.849675
  H      2.980503   -2.864574   -1.918059
  H      3.473782   -1.280276   -1.263954
  H      2.433997   -3.206783    1.888120
  H      3.470511   -1.766724    1.855614
  H      0.840728   -0.079195    2.178547

 Total Charge           Charge          ....    0
 Multiplicity           Mult            ....    1
 Number of Electrons    NEL             ....   68
 Basis Dimension        Dim             ....  351

ORBITAL ENERGIES
----------------

  NO   OCC          E(Eh)            E(eV)
   0   2.0000     -20.548730      -559.1594
   1   2.0000     -11.277641      -306.8802
   2   2.0000     -11.271598      -306.7158
   3   2.0000     -11.234529      -305.7071
   4   2.0000     -11.228515      -305.5434
   5   2.0000     -11.227206      -305.5078
   6   2.0000     -11.224927      -305.4458
   7   2.0000     -11.222546      -305.3810
   8   2.0000     -11.216179      -305.2078
   9   2.0000      -1.368485       -37.2384
  10   2.0000      -1.145225       -31.1632
  11   2.0000      -1.025575       -27.9073
  12   2.0000      -1.010542       -27.4982
  13   2.0000      -0.929669       -25.2976
  14   2.0000      -0.917996       -24.9800
  15   2.0000      -0.809731       -22.0339
  16   2.0000      -0.776278       -21.1236
  17   2.0000      -0.722626       -19.6637
  18   2.0000      -0.677121       -18.4254
  19   2.0000      -0.666573       -18.1384
  20   2.0000      -0.637778       -17.3548
  21   2.0000      -0.603287       -16.4163
  22   2.0000      -0.575709       -15.6658
  23   2.0000      -0.558815       -15.2061
  24   2.0000      -0.553847       -15.0709
  25   2.0000      -0.543018       -14.7763
  26   2.0000      -0.518910       -14.1203
  27   2.0000      -0.502365       -13.6701
  28   2.0000      -0.488893       -13.3035
  29   2.0000      -0.475455       -12.9378
  30   2.0000      -0.461735       -12.5645
  31   2.0000      -0.442176       -12.0322
  32   2.0000      -0.414935       -11.2910
  33   2.0000      -0.340430        -9.2636
  34   0.0000       0.136526         3.7151
  35   0.0000       0.142429         3.8757
  36   0.0000       0.161276         4.3885
  37   0.0000       0.164706         4.4819
  38   0.0000       0.169872         4.6225

MULLIKEN ATOMIC CHARGES
-----------------------
   0 C :   -0.415226
   1 C :    0.066787
   2 C :   -0.308755
   3 C :   -0.006956
   4 C :   -0.037261
   5 O :   -0.319665
   6 C :   -0.026366
   7 C :   -0.075817
   8 C :   -0.243221
   9 H :    0.125482
  10 H :    0.132789
  11 H :    0.130865
  12 H :    0.093973
  13 H :    0.126027
  14 H :    0.110262
  15 H :    0.099966
  16 H :    0.111583
  17 H :    0.083507
  18 H :    0.115967
  19 H :    0.106979
  20 H :    0.129079
Sum of atomic charges:    0.0000000

LOEWDIN ATOMIC CHARGES
----------------------
   0 C :   -0.296870
   1 C :   -0.248816
   2 C :   -0.193129
   3 C :   -0.202206
   4 C :   -0.276614
   5 O :    0.133544
   6 C :   -0.258131
   7 C :   -0.147973
   8 C :   -0.112351
   9 H :    0.122898
  10 H :    0.124225
  11 H :    0.122956
  12 H :    0.152490
  13 H :    0.132498
  14 H :    0.142239
  15 H :    0.158619
  16 H :    0.124899
  17 H :    0.120050
  18 H :    0.132149
  19 H :    0.129953
  20 H :    0.139573

  Mayer bond orders larger than 0.1
B(  0-C ,  1-C ) :   0.8959 B(  0-C ,  9-H ) :   0.9345 B(  0-C , 10-H ) :   0.9392
B(  0-C , 11-H ) :   0.9399 B(  1-C ,  2-C ) :   0.9297 B(  1-C ,  8-C ) :   0.9036
B(  1-C , 12-H ) :   0.9154 B(  2-C ,  3-C ) :   0.9242 B(  2-C , 13-H ) :   0.9275
B(  2-C , 14-H ) :   0.9188 B(  3-C ,  4-C ) :   0.9489 B(  3-C ,  7-C ) :   0.9122
B(  3-C , 15-H ) :   0.8967 B(  4-C ,  5-O ) :   0.9265 B(  4-C , 16-H ) :   0.9234
B(  4-C , 17-H ) :   0.9155 B(  5-O ,  6-C ) :   0.9548 B(  6-C ,  7-C ) :   0.9695
B(  6-C , 18-H ) :   0.9029 B(  6-C , 19-H ) :   0.9271 B(  7-C ,  8-C ) :   1.7268
B(  8-C , 20-H ) :   0.9181

MP2 TOTAL ENERGY:     -386.423262461 Eh
FINAL SINGLE POINT ENERGY      -386.423262461045

DIPOLE MOMENT
-------------
                                X             Y             Z
Electronic contribution:      3.42317      -5.82548       1.72741
Nuclear contribution   :     -3.93865       6.28520      -1.75981
                        -----------------------------------------
Total Dipole Moment    :     -0.51547       0.45972      -0.03241
                        -----------------------------------------
Magnitude (a.u.)       :      0.69146
Magnitude (Debye)      :      1.75754

                             ****ORCA TERMINATED NORMALLY****
TOTAL RUN TIME: 0 days 0 hours 20 minutes 12 seconds 686 msec
