                         Program Version 3.0.3 - RELEASE   -
|  1> ! RI-MP2 RIJK def2-TZVP def2-TZVP/C def2-TZVP/JK TIGHTSCF
|  2> % maxcore 2000
|  3> % mp2 density relaxed end
|  4> *xyz 0 1
|  5>  C       -0.1714555941     1.5605382310     0.0043678167
|  6>  C        0.0479826163     0.0490299947     0.0064733482
|  7>  C        0.8919925720    -0.4791735584    -1.1821647483
|  8>  C        1.3566096943    -1.8744672450    -0.7274101440
|  9>  C        2.8504063594    -2.2519424747    -0.6424090917
| 10>  C        3.6322306060    -1.2567023809     0.1670620259
| 11>  C        2.7787716074    -2.2601101382     0.8894216618
| 12>  C        1.2833427350    -1.8829117551     0.8386236028
| 13>  C        0.7775188147    -0.4923858178     1.2629997830
| 14>  H        0.7860150622     2.0932011334     0.0520718737
| 15>  H       -0.6892699068     1.8889472334    -0.9033173923
| 16>  H       -0.7719723397     1.8794015611     0.8631941062
| 17>  H       -0.9341102465    -0.4436464028    -0.0421658303
| 18>  H        0.3204979754    -0.4956156318    -2.1154461057
| 19>  H        1.7495548995     0.1848726790    -1.3468690578
| 20>  H        0.7659300164    -2.6729253326    -1.1820577029
| 21>  H        3.3474968256    -2.9542994698    -1.3011196825
| 22>  H        4.6994871440    -1.4492620740     0.2159269010
| 23>  H        3.3844711963    -0.1990980510     0.1611028682
| 24>  H        3.2125815523    -2.9696808985     1.5841316599
| 25>  H        0.6532247754    -2.6859419837     1.2275161038
| 26>  H        1.6155840612     0.1694372312     1.5142610281
| 27>  H        0.1213394237    -0.5186258893     2.1385741162
| 28> *
| 29>
| 30>                          ****END OF INPUT****

CARTESIAN COORDINATES (ANGSTROEM)
---------------------------------
  C     -0.171456    1.560538    0.004368
  C      0.047983    0.049030    0.006473
  C      0.891993   -0.479174   -1.182165
  C      1.356610   -1.874467   -0.727410
  C      2.850406   -2.251942   -0.642409
  C      3.632231   -1.256702    0.167062
  C      2.778772   -2.260110    0.889422
  C      1.283343   -1.882912    0.838624
  C      0.777519   -0.492386    1.263000
  H      0.786015    2.093201    0.052072
  H     -0.689270    1.888947   -0.903317
  H     -0.771972    1.879402    0.863194
  H     -0.934110   -0.443646   -0.042166
  H      0.320498   -0.495616   -2.115446
  H      1.749555    0.184873   -1.346869
  H      0.765930   -2.672925   -1.182058
  H      3.347497   -2.954299   -1.301120
  H      4.699487   -1.449262    0.215927
  H      3.384471   -0.199098    0.161103
  H      3.212582   -2.969681    1.584132
  H      0.653225   -2.685942    1.227516
  H      1.615584    0.169437    1.514261
  H      0.121339   -0.518626    2.138574

 Total Charge           Charge          ....    0
 Multiplicity           Mult            ....    1
 Number of Electrons    NEL             ....   68
 Basis Dimension        Dim             ....  363

ORBITAL ENERGIES
----------------

  NO   OCC          E(Eh)            E(eV)
   0   2.0000     -11.225195      -305.4531
   1   2.0000     -11.224536      -305.4352
   2   2.0000     -11.220870      -305.3354
   3   2.0000     -11.220199      -305.3171
   4   2.0000     -11.219689      -305.3032
   5   2.0000     -11.219158      -305.2888
   6   2.0000     -11.208567      -305.0006
   7   2.0000     -11.208563      -305.0005
   8   2.0000     -11.208526      -304.9995
   9   2.0000      -1.187861       -32.3234
  10   2.0000      -1.089303       -29.6414
  11   2.0000      -0.986019       -26.8309
  12   2.0000      -0.961653       -26.1679
  13   2.0000      -0.899374       -24.4732
  14   2.0000      -0.830348       -22.5949
  15   2.0000      -0.788475       -21.4555
  16   2.0000      -0.749438       -20.3933
  17   2.0000      -0.699416       -19.0321
  18   2.0000      -0.694250       -18.8915
  19   2.0000      -0.627499       -17.0751
  20   2.0000      -0.622311       -16.9339
  21   2.0000      -0.582121       -15.8403
  22   2.0000      -0.574950       -15.6452
  23   2.0000      -0.546447       -14.8696
  24   2.0000      -0.534867       -14.5545
  25   2.0000      -0.513979       -13.9861
  26   2.0000      -0.488264       -13.2863
  27   2.0000      -0.482655       -13.1337
  28   2.0000      -0.455446       -12.3933
  29   2.0000      -0.453647       -12.3444
  30   2.0000      -0.435510       -11.8508
  31   2.0000      -0.425370       -11.5749
  32   2.0000      -0.401026       -10.9125
  33   2.0000      -0.357624        -9.7314
  34   0.0000       0.135712         3.6929
  35   0.0000       0.148967         4.0536
  36   0.0000       0.168545         4.5863
  37   0.0000       0.170641         4.6434
  38   0.0000       0.185395         5.0449

MULLIKEN ATOMIC CHARGES
-----------------------
   0 C :   -0.405508
   1 C :    0.030407
   2 C :   -0.352771
   3 C :    0.005974
   4 C :   -0.169014
   5 C :   -0.260646
   6 C :   -0.169014
   7 C :    0.005975
   8 C :   -0.352770
   9 H :    0.119450
  10 H :    0.130214
  11 H :    0.130214
  12 H :    0.086916
  13 H :    0.119848
  14 H :    0.125048
  15 H :    0.105320
  16 H :    0.123748
  17 H :    0.126763
  18 H :    0.125882
  19 H :    0.123747
  20 H :    0.105321
  21 H :    0.125049
  22 H :    0.119847
Sum of atomic charges:    0.0000000

LOEWDIN ATOMIC CHARGES
----------------------
   0 C :   -0.299952
   1 C :   -0.268101
   2 C :   -0.215780
   3 C :   -0.171970
   4 C :   -0.165053
   5 C :   -0.213638
   6 C :   -0.165048
   7 C :   -0.171968
   8 C :   -0.215783
   9 H :    0.121820
  10 H :    0.122928
  11 H :    0.122928
  12 H :    0.150484
  13 H :    0.133234
  14 H :    0.139861
  15 H :    0.146746
  16 H :    0.132124
  17 H :    0.139567
  18 H :    0.125634
  19 H :    0.132124
  20 H :    0.146747
  21 H :    0.139862
  22 H :    0.133234

  Mayer bond orders larger than 0.1
B(  0-C ,  1-C ) :   0.8892 B(  0-C ,  9-H ) :   0.9362 B(  0-C , 10-H ) :   0.9411
B(  0-C , 11-H ) :   0.9411 B(  1-C ,  2-C ) :   0.9172 B(  1-C ,  8-C ) :   0.9173
B(  1-C , 12-H ) :   0.9265 B(  2-C ,  3-C ) :   0.9072 B(  2-C , 13-H ) :   0.9287
B(  2-C , 14-H ) :   0.9271 B(  3-C ,  4-C ) :   0.9261 B(  3-C ,  7-C ) :   0.9650
B(  3-C , 15-H ) :   0.9255 B(  4-C ,  5-C ) :   0.8847 B(  4-C ,  6-C ) :   0.8518
B(  4-C , 16-H ) :   0.9294 B(  5-C ,  6-C ) :   0.8847 B(  5-C , 17-H ) :   0.9325
B(  5-C , 18-H ) :   0.9223 B(  6-C ,  7-C ) :   0.9261 B(  6-C , 19-H ) :   0.9294
B(  7-C ,  8-C ) :   0.9072 B(  7-C , 20-H ) :   0.9255 B(  8-C , 21-H ) :   0.9271
B(  8-C , 22-H ) :   0.9287

MP2 TOTAL ENERGY:     -350.494052043 Eh
FINAL SINGLE POINT ENERGY      -350.494052043218

DIPOLE MOMENT
-------------
                                X             Y             Z
Electronic contribution:      2.13021      -4.79149       0.07387
Nuclear contribution   :     -2.20518       4.69088      -0.07794
                        -----------------------------------------
Total Dipole Moment    :     -0.07497      -0.10061      -0.00407
                        -----------------------------------------
Magnitude (a.u.)       :      0.12553
Magnitude (Debye)      :      0.31908

                             ****ORCA TERMINATED NORMALLY****
TOTAL RUN TIME: 0 days 0 hours 21 minutes 53 seconds 296 msec
