                         Program Version 3.0.3 - RELEASE   -
|  1> ! RI-MP2 RIJK def2-TZVP def2-TZVP/C def2-TZVP/JK TIGHTSCF
|  2> % maxcore 2000
|  3> % mp2 density relaxed end
|  4> *xyz 0 1
|  5>  C       -0.0308208107     1.4575993664     0.0105615720
|  6>  C       -0.0386347692    -0.0528822340     0.0330360267
|  7>  O       -0.1159365341    -0.6964882834     1.0554164826
|  8>  C        0.0591313685    -0.7517902314    -1.3188149678
|  9>  N        0.0545990672    -2.1734498969    -1.1194585345
| 10>  C        0.1101016642    -3.0428415021    -2.1589709140
| 11>  N        0.1818175960    -2.6518674849    -3.3787764164
| 12>  C        0.0828228610    -4.4445592305    -1.7654898436
| 13>  N        0.0633491459    -5.5698673391    -1.5009607578
| 14>  H        0.9040504788     1.8235597394    -0.4284680235
| 15>  H       -0.8459847610     1.8352315153    -0.6161961123
| 16>  H       -0.1348811047     1.8428015610     1.0249820412
| 17>  H       -0.7754173537    -0.4316425032    -1.9597573920
| 18>  H        0.9681078583    -0.4202118444    -1.8414456776
| 19>  H       -0.0182446847    -2.4852670402    -0.1618409070
| 20>  H        0.2171404282    -3.4434198420    -4.0154532359
| 21> *
| 22>
| 23>                          ****END OF INPUT****

CARTESIAN COORDINATES (ANGSTROEM)
---------------------------------
  C     -0.030821    1.457599    0.010562
  C     -0.038635   -0.052882    0.033036
  O     -0.115937   -0.696488    1.055416
  C      0.059131   -0.751790   -1.318815
  N      0.054599   -2.173450   -1.119459
  C      0.110102   -3.042842   -2.158971
  N      0.181818   -2.651867   -3.378776
  C      0.082823   -4.444559   -1.765490
  N      0.063349   -5.569867   -1.500961
  H      0.904050    1.823560   -0.428468
  H     -0.845985    1.835232   -0.616196
  H     -0.134881    1.842802    1.024982
  H     -0.775417   -0.431643   -1.959757
  H      0.968108   -0.420212   -1.841446
  H     -0.018245   -2.485267   -0.161841
  H      0.217140   -3.443420   -4.015453

 Total Charge           Charge          ....    0
 Multiplicity           Mult            ....    1
 Number of Electrons    NEL             ....   66
 Basis Dimension        Dim             ....  321

ORBITAL ENERGIES
----------------

  NO   OCC          E(Eh)            E(eV)
   0   2.0000     -20.573379      -559.8301
   1   2.0000     -15.604738      -424.6265
   2   2.0000     -15.604534      -424.6210
   3   2.0000     -15.561366      -423.4463
   4   2.0000     -11.375197      -309.5349
   5   2.0000     -11.359794      -309.1157
   6   2.0000     -11.298311      -307.4427
   7   2.0000     -11.297005      -307.4071
   8   2.0000     -11.256327      -306.3002
   9   2.0000      -1.420100       -38.6429
  10   2.0000      -1.316587       -35.8262
  11   2.0000      -1.240758       -33.7627
  12   2.0000      -1.192229       -32.4422
  13   2.0000      -1.059727       -28.8366
  14   2.0000      -0.995374       -27.0855
  15   2.0000      -0.887609       -24.1531
  16   2.0000      -0.816190       -22.2097
  17   2.0000      -0.760454       -20.6930
  18   2.0000      -0.692257       -18.8373
  19   2.0000      -0.681852       -18.5541
  20   2.0000      -0.673659       -18.3312
  21   2.0000      -0.641667       -17.4607
  22   2.0000      -0.610775       -16.6200
  23   2.0000      -0.608952       -16.5704
  24   2.0000      -0.589769       -16.0484
  25   2.0000      -0.571010       -15.5380
  26   2.0000      -0.559370       -15.2212
  27   2.0000      -0.519673       -14.1410
  28   2.0000      -0.508254       -13.8303
  29   2.0000      -0.473616       -12.8878
  30   2.0000      -0.461245       -12.5511
  31   2.0000      -0.444589       -12.0979
  32   2.0000      -0.383278       -10.4295
  33   0.0000       0.095549         2.6000
  34   0.0000       0.114832         3.1247
  35   0.0000       0.122375         3.3300
  36   0.0000       0.133162         3.6235
  37   0.0000       0.156574         4.2606

MULLIKEN ATOMIC CHARGES
-----------------------
   0 C :   -0.413399
   1 C :    0.243745
   2 O :   -0.307265
   3 C :   -0.132549
   4 N :   -0.323525
   5 C :    0.303677
   6 N :   -0.412158
   7 C :   -0.190858
   8 N :   -0.045668
   9 H :    0.153684
  10 H :    0.152462
  11 H :    0.164030
  12 H :    0.153726
  13 H :    0.152862
  14 H :    0.270229
  15 H :    0.231009
Sum of atomic charges:    0.0000000

LOEWDIN ATOMIC CHARGES
----------------------
   0 C :   -0.271439
   1 C :   -0.341447
   2 O :    0.147103
   3 C :   -0.250111
   4 N :    0.128134
   5 C :   -0.397552
   6 N :   -0.054087
   7 C :   -0.146635
   8 N :    0.086389
   9 H :    0.141889
  10 H :    0.141003
  11 H :    0.138121
  12 H :    0.153841
  13 H :    0.153689
  14 H :    0.200337
  15 H :    0.170765

  Mayer bond orders larger than 0.1
B(  0-C ,  1-C ) :   0.9377 B(  0-C ,  9-H ) :   0.9124 B(  0-C , 10-H ) :   0.9139
B(  0-C , 11-H ) :   0.9345 B(  1-C ,  2-O ) :   1.9302 B(  1-C ,  3-C ) :   0.8982
B(  3-C ,  4-N ) :   0.8871 B(  3-C , 12-H ) :   0.9108 B(  3-C , 13-H ) :   0.9111
B(  4-N ,  5-C ) :   1.1665 B(  4-N , 14-H ) :   0.8462 B(  5-C ,  6-N ) :   1.8664
B(  5-C ,  7-C ) :   0.8865 B(  6-N , 15-H ) :   0.8643 B(  7-C ,  8-N ) :   2.8235

MP2 TOTAL ENERGY:     -433.372842785 Eh
FINAL SINGLE POINT ENERGY      -433.372842784630

DIPOLE MOMENT
-------------
                                X             Y             Z
Electronic contribution:     -0.02166      -9.67159       0.08345
Nuclear contribution   :      0.03926      11.39519      -0.26186
                        -----------------------------------------
Total Dipole Moment    :      0.01760       1.72360      -0.17841
                        -----------------------------------------
Magnitude (a.u.)       :      1.73290
Magnitude (Debye)      :      4.40468

                             ****ORCA TERMINATED NORMALLY****
TOTAL RUN TIME: 0 days 0 hours 15 minutes 12 seconds 447 msec
