                         Program Version 3.0.3 - RELEASE   -
|  1> ! RI-MP2 RIJK def2-TZVP def2-TZVP/C def2-TZVP/JK TIGHTSCF
|  2> % maxcore 2000
|  3> % mp2 density relaxed end
|  4> *xyz 0 1
|  5>  C        0.2769805996     0.9048058759     0.9543047701
|  6>  C       -0.0614979296    -0.0074452875    -0.1983227739
|  7>  O        0.5313679302    -0.0357474014    -1.2472152432
|  8>  C       -1.2570892981    -0.9598475453     0.0132258900
|  9>  O       -1.0646618857    -1.7306837748     1.1713725306
| 10>  C       -2.3547337016    -1.9620477240     1.7243825653
| 11>  C       -3.1754534973    -0.7928933865     1.2254544428
| 12>  N       -4.3060916669    -0.4363001973     1.6429253992
| 13>  O       -2.4493148724    -0.1970070669     0.2272000241
| 14>  H        1.1402347113     1.5185812623     0.6978252222
| 15>  H       -0.5818892344     1.5429565738     1.1868313201
| 16>  H        0.4842981784     0.3079473203     1.8476364768
| 17>  H       -1.3840029240    -1.5795272812    -0.8863123824
| 18>  H       -2.7820212814    -2.9111875408     1.3705902679
| 19>  H       -2.2847936674    -1.9859554906     2.8126080949
| 20>  H       -4.6572412806     0.3707279141     1.1261078056
| 21> *
| 22>
| 23>                          ****END OF INPUT****

CARTESIAN COORDINATES (ANGSTROEM)
---------------------------------
  C      0.276981    0.904806    0.954305
  C     -0.061498   -0.007445   -0.198323
  O      0.531368   -0.035747   -1.247215
  C     -1.257089   -0.959848    0.013226
  O     -1.064662   -1.730684    1.171373
  C     -2.354734   -1.962048    1.724383
  C     -3.175453   -0.792893    1.225454
  N     -4.306092   -0.436300    1.642925
  O     -2.449315   -0.197007    0.227200
  H      1.140235    1.518581    0.697825
  H     -0.581889    1.542957    1.186831
  H      0.484298    0.307947    1.847636
  H     -1.384003   -1.579527   -0.886312
  H     -2.782021   -2.911188    1.370590
  H     -2.284794   -1.985955    2.812608
  H     -4.657241    0.370728    1.126108

 Total Charge           Charge          ....    0
 Multiplicity           Mult            ....    1
 Number of Electrons    NEL             ....   68
 Basis Dimension        Dim             ....  321

ORBITAL ENERGIES
----------------

  NO   OCC          E(Eh)            E(eV)
   0   2.0000     -20.626219      -561.2680
   1   2.0000     -20.607471      -560.7578
   2   2.0000     -20.571401      -559.7763
   3   2.0000     -15.556736      -423.3203
   4   2.0000     -11.375525      -309.5438
   5   2.0000     -11.362782      -309.1970
   6   2.0000     -11.350483      -308.8623
   7   2.0000     -11.320101      -308.0356
   8   2.0000     -11.243932      -305.9630
   9   2.0000      -1.500037       -40.8181
  10   2.0000      -1.413095       -38.4523
  11   2.0000      -1.392362       -37.8881
  12   2.0000      -1.223453       -33.2918
  13   2.0000      -1.057900       -28.7869
  14   2.0000      -1.008594       -27.4452
  15   2.0000      -0.933435       -25.4001
  16   2.0000      -0.829530       -22.5727
  17   2.0000      -0.790861       -21.5204
  18   2.0000      -0.749162       -20.3857
  19   2.0000      -0.720960       -19.6183
  20   2.0000      -0.696384       -18.9496
  21   2.0000      -0.671735       -18.2788
  22   2.0000      -0.640558       -17.4305
  23   2.0000      -0.624610       -16.9965
  24   2.0000      -0.614761       -16.7285
  25   2.0000      -0.594360       -16.1734
  26   2.0000      -0.566864       -15.4252
  27   2.0000      -0.564432       -15.3590
  28   2.0000      -0.557328       -15.1657
  29   2.0000      -0.517280       -14.0759
  30   2.0000      -0.492882       -13.4120
  31   2.0000      -0.456011       -12.4087
  32   2.0000      -0.437190       -11.8965
  33   2.0000      -0.419256       -11.4085
  34   0.0000       0.119848         3.2612
  35   0.0000       0.127842         3.4788
  36   0.0000       0.151717         4.1284
  37   0.0000       0.159285         4.3344
  38   0.0000       0.165785         4.5113

MULLIKEN ATOMIC CHARGES
-----------------------
   0 C :   -0.442248
   1 C :    0.208659
   2 O :   -0.256741
   3 C :    0.235200
   4 O :   -0.315679
   5 C :   -0.009204
   6 C :    0.107523
   7 N :   -0.361928
   8 O :   -0.269377
   9 H :    0.158683
  10 H :    0.158518
  11 H :    0.161545
  12 H :    0.109501
  13 H :    0.130949
  14 H :    0.151189
  15 H :    0.233413
Sum of atomic charges:    0.0000000

LOEWDIN ATOMIC CHARGES
----------------------
   0 C :   -0.276587
   1 C :   -0.325543
   2 O :    0.176805
   3 C :   -0.330036
   4 O :    0.188910
   5 C :   -0.253618
   6 C :   -0.410041
   7 N :   -0.044994
   8 O :    0.254040
   9 H :    0.136543
  10 H :    0.143778
  11 H :    0.144157
  12 H :    0.137917
  13 H :    0.139854
  14 H :    0.145096
  15 H :    0.173717

  Mayer bond orders larger than 0.1
B(  0-C ,  1-C ) :   0.9283 B(  0-C ,  9-H ) :   0.9325 B(  0-C , 10-H ) :   0.9074
B(  0-C , 11-H ) :   0.9069 B(  1-C ,  2-O ) :   2.0012 B(  1-C ,  3-C ) :   0.8712
B(  3-C ,  4-O ) :   0.9696 B(  3-C ,  8-O ) :   0.8985 B(  3-C , 12-H ) :   0.9163
B(  4-O ,  5-C ) :   0.9077 B(  5-C ,  6-C ) :   0.9329 B(  5-C , 13-H ) :   0.9185
B(  5-C , 14-H ) :   0.9172 B(  6-C ,  7-N ) :   2.0572 B(  6-C ,  8-O ) :   1.0430
B(  7-N , 15-H ) :   0.8507

MP2 TOTAL ENERGY:     -474.290805604 Eh
FINAL SINGLE POINT ENERGY      -474.290805603872

DIPOLE MOMENT
-------------
                                X             Y             Z
Electronic contribution:     -0.65560      -1.22472      -3.18829
Nuclear contribution   :      0.59108       1.20005       3.64830
                        -----------------------------------------
Total Dipole Moment    :     -0.06452      -0.02467       0.46001
                        -----------------------------------------
Magnitude (a.u.)       :      0.46516
Magnitude (Debye)      :      1.18235

                             ****ORCA TERMINATED NORMALLY****
TOTAL RUN TIME: 0 days 0 hours 14 minutes 47 seconds 476 msec
