                         Program Version 3.0.3 - RELEASE   -
|  1> ! RI-MP2 RIJK def2-TZVP def2-TZVP/C def2-TZVP/JK TIGHTSCF
|  2> % maxcore 2000
|  3> % mp2 density relaxed end
|  4> *xyz 0 1
|  5>  C        0.0282857970     1.6873988151     0.0621863333
|  6>  C       -0.2094477630     0.1828578151    -0.0859138266
|  7>  C        0.4915784215    -0.4802318139    -1.2637043551
|  8>  C        0.2824382172    -1.9823596970    -1.3959067171
|  9>  C        0.9706715618    -2.7834848106    -0.2727300078
| 10>  C        0.9655545455    -4.2651092485    -0.5670548651
| 11>  O        0.5101056499    -5.1136623588     0.1550106363
| 12>  C        0.8657732549     0.2791653521    -2.4675733283
| 13>  O        1.8518257679    -0.0760617737    -1.4913261208
| 14>  H        1.0980542168     1.9120832207     0.0392639502
| 15>  H       -0.4595096019     2.2586299315    -0.7335329211
| 16>  H       -0.3756853189     2.0435899741     1.0138272945
| 17>  H        0.1230568983    -0.3219007603     0.8295415016
| 18>  H       -1.2839350937    -0.0251270859    -0.1699737182
| 19>  H       -0.7916370564    -2.2039621637    -1.4086984501
| 20>  H        0.6875593161    -2.3073481056    -2.3609838945
| 21>  H        2.0183919300    -2.4558644423    -0.2186514458
| 22>  H        0.5036330880    -2.6247669616     0.7022178744
| 23>  H        1.4288154365    -4.5358278536    -1.5461197127
| 24>  H        0.9468815438    -0.2390725791    -3.4225843736
| 25>  H        0.6509618285     1.3427296560    -2.5413242234
| 26> *
| 27>
| 28>                          ****END OF INPUT****

CARTESIAN COORDINATES (ANGSTROEM)
---------------------------------
  C      0.028286    1.687399    0.062186
  C     -0.209448    0.182858   -0.085914
  C      0.491578   -0.480232   -1.263704
  C      0.282438   -1.982360   -1.395907
  C      0.970672   -2.783485   -0.272730
  C      0.965555   -4.265109   -0.567055
  O      0.510106   -5.113662    0.155011
  C      0.865773    0.279165   -2.467573
  O      1.851826   -0.076062   -1.491326
  H      1.098054    1.912083    0.039264
  H     -0.459510    2.258630   -0.733533
  H     -0.375685    2.043590    1.013827
  H      0.123057   -0.321901    0.829542
  H     -1.283935   -0.025127   -0.169974
  H     -0.791637   -2.203962   -1.408698
  H      0.687559   -2.307348   -2.360984
  H      2.018392   -2.455864   -0.218651
  H      0.503633   -2.624767    0.702218
  H      1.428815   -4.535828   -1.546120
  H      0.946882   -0.239073   -3.422584
  H      0.650962    1.342730   -2.541324

 Total Charge           Charge          ....    0
 Multiplicity           Mult            ....    1
 Number of Electrons    NEL             ....   70
 Basis Dimension        Dim             ....  351

ORBITAL ENERGIES
----------------

  NO   OCC          E(Eh)            E(eV)
   0   2.0000     -20.571572      -559.7809
   1   2.0000     -20.557087      -559.3868
   2   2.0000     -11.332004      -308.3595
   3   2.0000     -11.301525      -307.5301
   4   2.0000     -11.287352      -307.1445
   5   2.0000     -11.249276      -306.1084
   6   2.0000     -11.242768      -305.9313
   7   2.0000     -11.238115      -305.8047
   8   2.0000     -11.222000      -305.3661
   9   2.0000      -1.416392       -38.5420
  10   2.0000      -1.395926       -37.9851
  11   2.0000      -1.092270       -29.7222
  12   2.0000      -1.046981       -28.4898
  13   2.0000      -0.959760       -26.1164
  14   2.0000      -0.908539       -24.7226
  15   2.0000      -0.871793       -23.7227
  16   2.0000      -0.795363       -21.6429
  17   2.0000      -0.770780       -20.9740
  18   2.0000      -0.697491       -18.9797
  19   2.0000      -0.675620       -18.3845
  20   2.0000      -0.659545       -17.9471
  21   2.0000      -0.625816       -17.0293
  22   2.0000      -0.620952       -16.8970
  23   2.0000      -0.609349       -16.5812
  24   2.0000      -0.573322       -15.6009
  25   2.0000      -0.567970       -15.4553
  26   2.0000      -0.544051       -14.8044
  27   2.0000      -0.522999       -14.2315
  28   2.0000      -0.518118       -14.0987
  29   2.0000      -0.503584       -13.7032
  30   2.0000      -0.497425       -13.5356
  31   2.0000      -0.492999       -13.4152
  32   2.0000      -0.448650       -12.2084
  33   2.0000      -0.433337       -11.7917
  34   2.0000      -0.415966       -11.3190
  35   0.0000       0.130876         3.5613
  36   0.0000       0.137550         3.7429
  37   0.0000       0.150134         4.0854
  38   0.0000       0.156200         4.2504
  39   0.0000       0.162542         4.4230

MULLIKEN ATOMIC CHARGES
-----------------------
   0 C :   -0.419059
   1 C :   -0.222063
   2 C :    0.226518
   3 C :   -0.279586
   4 C :   -0.172109
   5 C :    0.079846
   6 O :   -0.262727
   7 C :   -0.088481
   8 O :   -0.356983
   9 H :    0.154923
  10 H :    0.121477
  11 H :    0.140742
  12 H :    0.123253
  13 H :    0.117934
  14 H :    0.132554
  15 H :    0.125907
  16 H :    0.149643
  17 H :    0.121426
  18 H :    0.072367
  19 H :    0.114329
  20 H :    0.120089
Sum of atomic charges:    0.0000000

LOEWDIN ATOMIC CHARGES
----------------------
   0 C :   -0.312756
   1 C :   -0.250485
   2 C :   -0.328507
   3 C :   -0.218670
   4 C :   -0.255341
   5 C :   -0.298017
   6 O :    0.130892
   7 C :   -0.242147
   8 O :    0.160356
   9 H :    0.129444
  10 H :    0.119320
  11 H :    0.124109
  12 H :    0.146097
  13 H :    0.146155
  14 H :    0.147911
  15 H :    0.148000
  16 H :    0.159039
  17 H :    0.143365
  18 H :    0.109544
  19 H :    0.120100
  20 H :    0.121591

  Mayer bond orders larger than 0.1
B(  0-C ,  1-C ) :   0.9276 B(  0-C ,  9-H ) :   0.9356 B(  0-C , 10-H ) :   0.9379
B(  0-C , 11-H ) :   0.9388 B(  1-C ,  2-C ) :   0.9248 B(  1-C , 12-H ) :   0.9303
B(  1-C , 13-H ) :   0.9235 B(  2-C ,  3-C ) :   0.8893 B(  2-C ,  7-C ) :   0.9840
B(  2-C ,  8-O ) :   0.7889 B(  3-C ,  4-C ) :   0.8985 B(  3-C , 14-H ) :   0.9274
B(  3-C , 15-H ) :   0.9336 B(  4-C ,  5-C ) :   0.8670 B(  4-C , 16-H ) :   0.9120
B(  4-C , 17-H ) :   0.9006 B(  5-C ,  6-O ) :   2.0148 B(  5-C , 18-H ) :   0.9486
B(  7-C ,  8-O ) :   0.9072 B(  7-C , 19-H ) :   0.9003 B(  7-C , 20-H ) :   0.9150

MP2 TOTAL ENERGY:     -423.509800150 Eh
FINAL SINGLE POINT ENERGY      -423.509800149654

DIPOLE MOMENT
-------------
                                X             Y             Z
Electronic contribution:      2.62845      -8.01082      -0.49477
Nuclear contribution   :     -3.02212       8.94359      -0.13870
                        -----------------------------------------
Total Dipole Moment    :     -0.39368       0.93277      -0.63346
                        -----------------------------------------
Magnitude (a.u.)       :      1.19429
Magnitude (Debye)      :      3.03563

                             ****ORCA TERMINATED NORMALLY****
TOTAL RUN TIME: 0 days 0 hours 18 minutes 28 seconds 965 msec
