                         Program Version 3.0.3 - RELEASE   -
|  1> ! RI-MP2 RIJK def2-TZVP def2-TZVP/C def2-TZVP/JK TIGHTSCF
|  2> % maxcore 2000
|  3> % mp2 density relaxed end
|  4> *xyz 0 1
|  5>  C       -0.2176994543     1.3779289631     0.0513922411
|  6>  C        0.0687837918    -0.0826089577     0.0195462453
|  7>  N        0.7677111528    -0.6405574457    -0.9327105548
|  8>  O        0.7864263283    -2.0038277281    -0.5716539727
|  9>  C        0.0926131250    -2.0975475187     0.5605450189
| 10>  C       -0.0597292736    -3.4187923149     1.2474233624
| 11>  O       -1.0095904912    -3.3524768493     2.2785225609
| 12>  N       -0.3775964515    -0.9656183530     0.9853657972
| 13>  H        0.1792527671     1.8213659152     0.9693974364
| 14>  H        0.2327837714     1.8712349041    -0.8107372277
| 15>  H       -1.2979011969     1.5510399282     0.0431422110
| 16>  H       -0.3700379246    -4.1752740960     0.5157904031
| 17>  H        0.9317096929    -3.7275743208     1.6200354020
| 18>  H       -1.1016764072    -2.4224453664     2.5231154268
| 19> *
| 20>
| 21>                          ****END OF INPUT****

CARTESIAN COORDINATES (ANGSTROEM)
---------------------------------
  C     -0.217699    1.377929    0.051392
  C      0.068784   -0.082609    0.019546
  N      0.767711   -0.640557   -0.932711
  O      0.786426   -2.003828   -0.571654
  C      0.092613   -2.097548    0.560545
  C     -0.059729   -3.418792    1.247423
  O     -1.009590   -3.352477    2.278523
  N     -0.377596   -0.965618    0.985366
  H      0.179253    1.821366    0.969397
  H      0.232784    1.871235   -0.810737
  H     -1.297901    1.551040    0.043142
  H     -0.370038   -4.175274    0.515790
  H      0.931710   -3.727574    1.620035
  H     -1.101676   -2.422445    2.523115

 Total Charge           Charge          ....    0
 Multiplicity           Mult            ....    1
 Number of Electrons    NEL             ....   60
 Basis Dimension        Dim             ....  284

ORBITAL ENERGIES
----------------

  NO   OCC          E(Eh)            E(eV)
   0   2.0000     -20.663552      -562.2838
   1   2.0000     -20.574756      -559.8676
   2   2.0000     -15.629819      -425.3090
   3   2.0000     -15.582312      -424.0163
   4   2.0000     -11.371514      -309.4346
   5   2.0000     -11.327209      -308.2290
   6   2.0000     -11.317703      -307.9704
   7   2.0000     -11.250457      -306.1405
   8   2.0000      -1.527079       -41.5539
   9   2.0000      -1.387854       -37.7654
  10   2.0000      -1.265325       -34.4312
  11   2.0000      -1.178992       -32.0820
  12   2.0000      -1.013300       -27.5733
  13   2.0000      -0.989266       -26.9193
  14   2.0000      -0.834805       -22.7162
  15   2.0000      -0.826924       -22.5018
  16   2.0000      -0.742195       -20.1962
  17   2.0000      -0.706780       -19.2325
  18   2.0000      -0.668001       -18.1772
  19   2.0000      -0.644316       -17.5327
  20   2.0000      -0.626560       -17.0496
  21   2.0000      -0.595639       -16.2082
  22   2.0000      -0.581181       -15.8147
  23   2.0000      -0.572277       -15.5724
  24   2.0000      -0.546122       -14.8607
  25   2.0000      -0.527220       -14.3464
  26   2.0000      -0.480474       -13.0744
  27   2.0000      -0.474651       -12.9159
  28   2.0000      -0.469728       -12.7820
  29   2.0000      -0.405645       -11.0382
  30   0.0000       0.118689         3.2297
  31   0.0000       0.135883         3.6976
  32   0.0000       0.150324         4.0905
  33   0.0000       0.179795         4.8925
  34   0.0000       0.183981         5.0064

MULLIKEN ATOMIC CHARGES
-----------------------
   0 C :   -0.417764
   1 C :    0.180149
   2 N :   -0.132927
   3 O :   -0.099360
   4 C :    0.245185
   5 C :   -0.009007
   6 O :   -0.470805
   7 N :   -0.367595
   8 H :    0.153324
   9 H :    0.160955
  10 H :    0.154496
  11 H :    0.138056
  12 H :    0.126398
  13 H :    0.338897
Sum of atomic charges:    0.0000000

LOEWDIN ATOMIC CHARGES
----------------------
   0 C :   -0.262265
   1 C :   -0.372722
   2 N :    0.058132
   3 O :    0.290749
   4 C :   -0.376189
   5 C :   -0.309564
   6 O :   -0.025065
   7 N :    0.112957
   8 H :    0.140049
   9 H :    0.140179
  10 H :    0.140476
  11 H :    0.142741
  12 H :    0.137637
  13 H :    0.182885

  Mayer bond orders larger than 0.1
B(  0-C ,  1-C ) :   0.8661 B(  0-C ,  8-H ) :   0.9282 B(  0-C ,  9-H ) :   0.9497
B(  0-C , 10-H ) :   0.9286 B(  1-C ,  2-N ) :   1.6584 B(  1-C ,  7-N ) :   1.1829
B(  2-N ,  3-O ) :   0.8642 B(  3-O ,  4-C ) :   1.1794 B(  4-C ,  5-C ) :   0.8997
B(  4-C ,  7-N ) :   1.5412 B(  5-C ,  6-O ) :   1.0020 B(  5-C , 11-H ) :   0.9257
B(  5-C , 12-H ) :   0.9190 B(  6-O , 13-H ) :   0.8187

MP2 TOTAL ENERGY:     -415.197952410 Eh
FINAL SINGLE POINT ENERGY      -415.197952409733

DIPOLE MOMENT
-------------
                                X             Y             Z
Electronic contribution:      1.37116      -2.83058      -1.70411
Nuclear contribution   :     -1.29231       3.29406       1.82742
                        -----------------------------------------
Total Dipole Moment    :      0.07885       0.46348       0.12331
                        -----------------------------------------
Magnitude (a.u.)       :      0.48604
Magnitude (Debye)      :      1.23543

                             ****ORCA TERMINATED NORMALLY****
TOTAL RUN TIME: 0 days 0 hours 9 minutes 27 seconds 597 msec
