                         Program Version 3.0.3 - RELEASE   -
|  1> ! RI-MP2 RIJK def2-TZVP def2-TZVP/C def2-TZVP/JK TIGHTSCF
|  2> % maxcore 2000
|  3> % mp2 density relaxed end
|  4> *xyz 0 1
|  5>  C        0.1658205144     1.2925880952    -0.1566339728
|  6>  N        0.6434675389    -0.0766719404    -0.1375789876
|  7>  C        0.6969916448    -0.6490608062     0.9747745372
|  8>  O        1.1637777957    -1.9447716903     1.0187987247
|  9>  C        1.1212694945    -2.5984247014     2.2141001058
| 10>  O        0.6652948855    -2.1491730543     3.2311986634
| 11>  C        1.6982361706    -3.9758892475     2.1022922832
| 12>  C        1.5286652069    -4.7819556234     0.8758026371
| 13>  O        2.7721296554    -4.1764414356     1.1894659063
| 14>  H        0.9391363385     1.9354901547    -0.5903000637
| 15>  H       -0.7086044564     1.3583103058    -0.8127550453
| 16>  H       -0.1060271290     1.6877839525     0.8338665123
| 17>  H        0.4192827262    -0.2498858646     1.9522545362
| 18>  H        1.7903682854    -4.4683150285     3.0670058009
| 19>  H        1.4900005156    -5.8655260319     0.9734379892
| 20>  H        1.0007721428    -4.3509896641     0.0287453633
| 21> *
| 22>
| 23>                          ****END OF INPUT****

CARTESIAN COORDINATES (ANGSTROEM)
---------------------------------
  C      0.165821    1.292588   -0.156634
  N      0.643468   -0.076672   -0.137579
  C      0.696992   -0.649061    0.974775
  O      1.163778   -1.944772    1.018799
  C      1.121269   -2.598425    2.214100
  O      0.665295   -2.149173    3.231199
  C      1.698236   -3.975889    2.102292
  C      1.528665   -4.781956    0.875803
  O      2.772130   -4.176441    1.189466
  H      0.939136    1.935490   -0.590300
  H     -0.708604    1.358310   -0.812755
  H     -0.106027    1.687784    0.833867
  H      0.419283   -0.249886    1.952255
  H      1.790368   -4.468315    3.067006
  H      1.490001   -5.865526    0.973438
  H      1.000772   -4.350990    0.028745

 Total Charge           Charge          ....    0
 Multiplicity           Mult            ....    1
 Number of Electrons    NEL             ....   68
 Basis Dimension        Dim             ....  321

ORBITAL ENERGIES
----------------

  NO   OCC          E(Eh)            E(eV)
   0   2.0000     -20.634563      -561.4950
   1   2.0000     -20.600783      -560.5758
   2   2.0000     -20.573904      -559.8444
   3   2.0000     -15.566238      -423.5789
   4   2.0000     -11.410995      -310.5090
   5   2.0000     -11.344524      -308.7002
   6   2.0000     -11.320172      -308.0376
   7   2.0000     -11.312634      -307.8324
   8   2.0000     -11.258534      -306.3603
   9   2.0000      -1.499007       -40.7901
  10   2.0000      -1.443472       -39.2789
  11   2.0000      -1.400272       -38.1034
  12   2.0000      -1.240980       -33.7688
  13   2.0000      -1.017413       -27.6852
  14   2.0000      -0.961320       -26.1588
  15   2.0000      -0.919006       -25.0074
  16   2.0000      -0.852322       -23.1929
  17   2.0000      -0.800352       -21.7787
  18   2.0000      -0.740573       -20.1520
  19   2.0000      -0.724516       -19.7151
  20   2.0000      -0.690559       -18.7911
  21   2.0000      -0.674015       -18.3409
  22   2.0000      -0.657039       -17.8790
  23   2.0000      -0.613106       -16.6835
  24   2.0000      -0.597645       -16.2627
  25   2.0000      -0.594157       -16.1678
  26   2.0000      -0.575431       -15.6583
  27   2.0000      -0.554780       -15.0963
  28   2.0000      -0.536608       -14.6018
  29   2.0000      -0.500930       -13.6310
  30   2.0000      -0.473591       -12.8871
  31   2.0000      -0.464725       -12.6458
  32   2.0000      -0.428903       -11.6711
  33   2.0000      -0.410148       -11.1607
  34   0.0000       0.116462         3.1691
  35   0.0000       0.151007         4.1091
  36   0.0000       0.156602         4.2613
  37   0.0000       0.163043         4.4366
  38   0.0000       0.178461         4.8562

MULLIKEN ATOMIC CHARGES
-----------------------
   0 C :   -0.249369
   1 N :   -0.170739
   2 C :    0.035802
   3 O :   -0.188944
   4 C :    0.330939
   5 O :   -0.310076
   6 C :   -0.042473
   7 C :   -0.054478
   8 O :   -0.301431
   9 H :    0.144287
  10 H :    0.142584
  11 H :    0.102415
  12 H :    0.125143
  13 H :    0.155486
  14 H :    0.132337
  15 H :    0.148518
Sum of atomic charges:   -0.0000000

LOEWDIN ATOMIC CHARGES
----------------------
   0 C :   -0.327881
   1 N :    0.080529
   2 C :   -0.313986
   3 O :    0.310093
   4 C :   -0.445248
   5 O :    0.144369
   6 C :   -0.255841
   7 C :   -0.247305
   8 O :    0.179221
   9 H :    0.121406
  10 H :    0.120859
  11 H :    0.105176
  12 H :    0.124597
  13 H :    0.151031
  14 H :    0.123958
  15 H :    0.129024

  Mayer bond orders larger than 0.1
B(  0-C ,  1-N ) :   0.8729 B(  0-C ,  9-H ) :   0.9303 B(  0-C , 10-H ) :   0.9305
B(  0-C , 11-H ) :   0.9280 B(  1-N ,  2-C ) :   1.9205 B(  2-C ,  3-O ) :   0.9429
B(  2-C , 12-H ) :   0.9255 B(  3-O ,  4-C ) :   1.0580 B(  4-C ,  5-O ) :   1.9072
B(  4-C ,  6-C ) :   0.9360 B(  6-C ,  7-C ) :   0.9408 B(  6-C ,  8-O ) :   0.9249
B(  6-C , 13-H ) :   0.9266 B(  7-C ,  8-O ) :   0.8971 B(  7-C , 14-H ) :   0.9223
B(  7-C , 15-H ) :   0.9085

MP2 TOTAL ENERGY:     -474.256745467 Eh
FINAL SINGLE POINT ENERGY      -474.256745466823

DIPOLE MOMENT
-------------
                                X             Y             Z
Electronic contribution:      2.51241      -4.57976       3.20475
Nuclear contribution   :     -3.09335       4.48429      -3.14782
                        -----------------------------------------
Total Dipole Moment    :     -0.58094      -0.09547       0.05693
                        -----------------------------------------
Magnitude (a.u.)       :      0.59148
Magnitude (Debye)      :      1.50341

                             ****ORCA TERMINATED NORMALLY****
TOTAL RUN TIME: 0 days 0 hours 11 minutes 19 seconds 46 msec
