                         Program Version 3.0.3 - RELEASE   -
|  1> ! RI-MP2 RIJK def2-TZVP def2-TZVP/C def2-TZVP/JK TIGHTSCF
|  2> % maxcore 2000
|  3> % mp2 density relaxed end
|  4> *xyz 0 1
|  5>  O        0.1359015431    -0.1841510864     0.0464143313
|  6>  C        0.0504738190     0.9982199219    -0.1547911239
|  7>  C        1.2493422201     1.9335022773    -0.1478344526
|  8>  C        1.1866264898     2.9640442277    -1.2290020571
|  9>  N        0.3149914355     3.0222522716    -2.1503884210
| 10>  C        0.6554484539     4.1916794613    -2.9749798260
| 11>  C        1.9401640126     4.7687403812    -2.3238463199
| 12>  O        2.1715017545     3.9004109071    -1.1884838598
| 13>  H       -0.9230906079     1.4952897867    -0.3364240319
| 14>  H        1.2822701969     2.4477221235     0.8236865716
| 15>  H        2.1699850366     1.3465425043    -0.2214394157
| 16>  H        0.8133202517     3.8827668025    -4.0130796771
| 17>  H       -0.1753089133     4.9049882542    -2.9708344586
| 18>  H        2.8187610368     4.7224565151    -2.9729190802
| 19>  H        1.8255842907     5.7905700220    -1.9532521289
| 20> *
| 21>
| 22>                          ****END OF INPUT****

CARTESIAN COORDINATES (ANGSTROEM)
---------------------------------
  O      0.135902   -0.184151    0.046414
  C      0.050474    0.998220   -0.154791
  C      1.249342    1.933502   -0.147834
  C      1.186626    2.964044   -1.229002
  N      0.314991    3.022252   -2.150388
  C      0.655448    4.191679   -2.974980
  C      1.940164    4.768740   -2.323846
  O      2.171502    3.900411   -1.188484
  H     -0.923091    1.495290   -0.336424
  H      1.282270    2.447722    0.823687
  H      2.169985    1.346543   -0.221439
  H      0.813320    3.882767   -4.013080
  H     -0.175309    4.904988   -2.970834
  H      2.818761    4.722457   -2.972919
  H      1.825584    5.790570   -1.953252

 Total Charge           Charge          ....    0
 Multiplicity           Mult            ....    1
 Number of Electrons    NEL             ....   60
 Basis Dimension        Dim             ....  290

ORBITAL ENERGIES
----------------

  NO   OCC          E(Eh)            E(eV)
   0   2.0000     -20.605231      -560.6968
   1   2.0000     -20.558949      -559.4374
   2   2.0000     -15.556669      -423.3185
   3   2.0000     -11.349919      -308.8470
   4   2.0000     -11.335957      -308.4671
   5   2.0000     -11.302302      -307.5513
   6   2.0000     -11.271392      -306.7102
   7   2.0000     -11.262364      -306.4645
   8   2.0000      -1.448636       -39.4194
   9   2.0000      -1.398849       -38.0646
  10   2.0000      -1.225766       -33.3548
  11   2.0000      -1.082207       -29.4483
  12   2.0000      -0.996453       -27.1149
  13   2.0000      -0.875313       -23.8185
  14   2.0000      -0.823596       -22.4112
  15   2.0000      -0.764873       -20.8133
  16   2.0000      -0.712563       -19.3898
  17   2.0000      -0.702078       -19.1045
  18   2.0000      -0.660350       -17.9690
  19   2.0000      -0.645377       -17.5616
  20   2.0000      -0.613974       -16.7071
  21   2.0000      -0.603652       -16.4262
  22   2.0000      -0.577566       -15.7164
  23   2.0000      -0.562400       -15.3037
  24   2.0000      -0.531135       -14.4529
  25   2.0000      -0.526840       -14.3361
  26   2.0000      -0.506502       -13.7826
  27   2.0000      -0.451220       -12.2783
  28   2.0000      -0.424936       -11.5631
  29   2.0000      -0.390696       -10.6314
  30   0.0000       0.130275         3.5450
  31   0.0000       0.137209         3.7336
  32   0.0000       0.150280         4.0893
  33   0.0000       0.158444         4.3115
  34   0.0000       0.177954         4.8424

MULLIKEN ATOMIC CHARGES
-----------------------
   0 O :   -0.262609
   1 C :    0.112805
   2 C :   -0.144974
   3 C :    0.157267
   4 N :   -0.275306
   5 C :   -0.140930
   6 C :   -0.066713
   7 O :   -0.274899
   8 H :    0.100166
   9 H :    0.151267
  10 H :    0.148193
  11 H :    0.128575
  12 H :    0.125254
  13 H :    0.120519
  14 H :    0.121387
Sum of atomic charges:   -0.0000000

LOEWDIN ATOMIC CHARGES
----------------------
   0 O :    0.136277
   1 C :   -0.277444
   2 C :   -0.215754
   3 C :   -0.383876
   4 N :    0.084477
   5 C :   -0.276717
   6 C :   -0.257810
   7 O :    0.229267
   8 H :    0.118209
   9 H :    0.167579
  10 H :    0.162454
  11 H :    0.132322
  12 H :    0.131268
  13 H :    0.124893
  14 H :    0.124856

  Mayer bond orders larger than 0.1
B(  0-O ,  1-C ) :   1.9908 B(  1-C ,  2-C ) :   0.8765 B(  1-C ,  8-H ) :   0.9293
B(  2-C ,  3-C ) :   0.8997 B(  2-C ,  9-H ) :   0.9093 B(  2-C , 10-H ) :   0.8862
B(  3-C ,  4-N ) :   1.8183 B(  3-C ,  7-O ) :   1.0903 B(  4-N ,  5-C ) :   0.9258
B(  5-C ,  6-C ) :   0.9412 B(  5-C , 11-H ) :   0.9270 B(  5-C , 12-H ) :   0.9270
B(  6-C ,  7-O ) :   0.8659 B(  6-C , 13-H ) :   0.9278 B(  6-C , 14-H ) :   0.9280

MP2 TOTAL ENERGY:     -399.167403808 Eh
FINAL SINGLE POINT ENERGY      -399.167403807971

DIPOLE MOMENT
-------------
                                X             Y             Z
Electronic contribution:     -0.51232      -3.83304       2.32864
Nuclear contribution   :      0.92983       5.33872      -2.65494
                        -----------------------------------------
Total Dipole Moment    :      0.41750       1.50569      -0.32630
                        -----------------------------------------
Magnitude (a.u.)       :      1.59621
Magnitude (Debye)      :      4.05723

                             ****ORCA TERMINATED NORMALLY****
TOTAL RUN TIME: 0 days 0 hours 11 minutes 26 seconds 54 msec
