                         Program Version 3.0.3 - RELEASE   -
|  1> ! RI-MP2 RIJK def2-TZVP def2-TZVP/C def2-TZVP/JK TIGHTSCF
|  2> % maxcore 2000
|  3> % mp2 density relaxed end
|  4> *xyz 0 1
|  5>  C       -0.0303672525     1.5131000269    -0.0363267739
|  6>  C       -0.0200071973     0.0589143570    -0.0139780977
|  7>  C       -0.0041111800    -1.1454953585     0.0114105926
|  8>  C        0.0285223519    -2.5634262589     0.0495267921
|  9>  C       -0.3161571682    -3.4666578363    -1.1613539310
| 10>  C       -1.0639779656    -3.6327343668     0.1029985578
| 11>  O       -0.2836313398    -4.4334014510     1.0203902800
| 12>  C        0.7009682812    -3.4425805404     1.0685690077
| 13>  N        1.7242705724    -3.3486399299     1.7795938775
| 14>  H        0.8303776549     1.9154064497     0.5089827807
| 15>  H        0.0171136556     1.8976892402    -1.0610849972
| 16>  H       -0.9362700487     1.9152960508     0.4307654597
| 17>  H       -0.8215883766    -2.9282814528    -1.9562061878
| 18>  H        0.3804807570    -4.2367586811    -1.4769738043
| 19>  H       -2.1269716189    -3.5536387257     0.2818080769
| 20>  H        1.8267438846    -4.1585574233     2.3931471471
| 21> *
| 22>
| 23>                          ****END OF INPUT****

CARTESIAN COORDINATES (ANGSTROEM)
---------------------------------
  C     -0.030367    1.513100   -0.036327
  C     -0.020007    0.058914   -0.013978
  C     -0.004111   -1.145495    0.011411
  C      0.028522   -2.563426    0.049527
  C     -0.316157   -3.466658   -1.161354
  C     -1.063978   -3.632734    0.102999
  O     -0.283631   -4.433401    1.020390
  C      0.700968   -3.442581    1.068569
  N      1.724271   -3.348640    1.779594
  H      0.830378    1.915406    0.508983
  H      0.017114    1.897689   -1.061085
  H     -0.936270    1.915296    0.430765
  H     -0.821588   -2.928281   -1.956206
  H      0.380481   -4.236759   -1.476974
  H     -2.126972   -3.553639    0.281808
  H      1.826744   -4.158557    2.393147

 Total Charge           Charge          ....    0
 Multiplicity           Mult            ....    1
 Number of Electrons    NEL             ....   64
 Basis Dimension        Dim             ....  321

ORBITAL ENERGIES
----------------

  NO   OCC          E(Eh)            E(eV)
   0   2.0000     -20.599292      -560.5352
   1   2.0000     -15.543081      -422.9487
   2   2.0000     -11.349667      -308.8401
   3   2.0000     -11.323478      -308.1275
   4   2.0000     -11.286516      -307.1217
   5   2.0000     -11.268170      -306.6225
   6   2.0000     -11.251943      -306.1809
   7   2.0000     -11.237365      -305.7843
   8   2.0000     -11.230341      -305.5931
   9   2.0000      -1.448548       -39.4170
  10   2.0000      -1.205060       -32.7913
  11   2.0000      -1.161121       -31.5957
  12   2.0000      -1.062370       -28.9086
  13   2.0000      -0.977196       -26.5908
  14   2.0000      -0.914021       -24.8718
  15   2.0000      -0.852343       -23.1934
  16   2.0000      -0.796653       -21.6780
  17   2.0000      -0.724923       -19.7261
  18   2.0000      -0.703097       -19.1322
  19   2.0000      -0.658902       -17.9296
  20   2.0000      -0.638581       -17.3767
  21   2.0000      -0.607436       -16.5292
  22   2.0000      -0.593069       -16.1382
  23   2.0000      -0.591435       -16.0938
  24   2.0000      -0.565058       -15.3760
  25   2.0000      -0.555324       -15.1111
  26   2.0000      -0.513809       -13.9815
  27   2.0000      -0.461666       -12.5626
  28   2.0000      -0.445882       -12.1331
  29   2.0000      -0.409989       -11.1564
  30   2.0000      -0.375900       -10.2288
  31   2.0000      -0.352325        -9.5872
  32   0.0000       0.134714         3.6657
  33   0.0000       0.150111         4.0847
  34   0.0000       0.155832         4.2404
  35   0.0000       0.170489         4.6392
  36   0.0000       0.176186         4.7943

MULLIKEN ATOMIC CHARGES
-----------------------
   0 C :   -0.476073
   1 C :    0.088531
   2 C :   -0.016230
   3 C :   -0.145150
   4 C :   -0.233339
   5 C :    0.096916
   6 O :   -0.282816
   7 C :    0.137010
   8 N :   -0.356331
   9 H :    0.170489
  10 H :    0.162913
  11 H :    0.163343
  12 H :    0.145872
  13 H :    0.153081
  14 H :    0.157178
  15 H :    0.234607
Sum of atomic charges:    0.0000000

LOEWDIN ATOMIC CHARGES
----------------------
   0 C :   -0.291558
   1 C :   -0.075502
   2 C :   -0.046679
   3 C :   -0.157178
   4 C :   -0.143956
   5 C :   -0.183296
   6 O :    0.225376
   7 C :   -0.338106
   8 N :   -0.029276
   9 H :    0.145313
  10 H :    0.141617
  11 H :    0.141536
  12 H :    0.151060
  13 H :    0.143278
  14 H :    0.139973
  15 H :    0.177395

  Mayer bond orders larger than 0.1
B(  0-C ,  1-C ) :   0.8411 B(  0-C ,  9-H ) :   0.9445 B(  0-C , 10-H ) :   0.9467
B(  0-C , 11-H ) :   0.9463 B(  1-C ,  2-C ) :   2.5978 B(  1-C ,  3-C ) :  -0.2117
B(  2-C ,  3-C ) :   1.2375 B(  3-C ,  4-C ) :   0.7967 B(  3-C ,  5-C ) :   0.8466
B(  3-C ,  7-C ) :   0.9371 B(  4-C ,  5-C ) :   0.9261 B(  4-C , 12-H ) :   0.9198
B(  4-C , 13-H ) :   0.8998 B(  5-C ,  6-O ) :   0.9141 B(  5-C , 14-H ) :   0.9036
B(  6-O ,  7-C ) :   1.0366 B(  7-C ,  8-N ) :   2.0818 B(  8-N , 15-H ) :   0.8421

MP2 TOTAL ENERGY:     -399.984114762 Eh
FINAL SINGLE POINT ENERGY      -399.984114761853

DIPOLE MOMENT
-------------
                                X             Y             Z
Electronic contribution:      0.53313      -6.19875       2.37246
Nuclear contribution   :     -1.33404       6.52339      -3.00898
                        -----------------------------------------
Total Dipole Moment    :     -0.80091       0.32464      -0.63651
                        -----------------------------------------
Magnitude (a.u.)       :      1.07331
Magnitude (Debye)      :      2.72814

                             ****ORCA TERMINATED NORMALLY****
TOTAL RUN TIME: 0 days 0 hours 14 minutes 34 seconds 485 msec
