                         Program Version 3.0.3 - RELEASE   -
|  1> ! RI-MP2 RIJK def2-TZVP def2-TZVP/C def2-TZVP/JK TIGHTSCF
|  2> % maxcore 2000
|  3> % mp2 density relaxed end
|  4> *xyz 0 1
|  5>  N        0.0101117288    -1.1994504965    -0.0139778961
|  6>  C        0.0171193416    -0.0439075990     0.0159990654
|  7>  C       -0.0414449338     1.4067877006    -0.0159776775
|  8>  C       -0.0825388203     2.0842897924     1.3904414164
|  9>  N        1.3813647886     1.7279879497     1.4637884485
| 10>  C        1.3519035092     2.1116548588     0.0052683372
| 11>  C        1.0150500640     3.6218821594     0.0273777726
| 12>  C       -0.3725654638     4.1118447188    -0.3054346466
| 13>  C       -0.0785553086     3.6010200822     1.0834209024
| 14>  H       -0.7695817629     1.7128983378    -0.7639662002
| 15>  H       -0.7322221664     1.7140551971     2.1819926282
| 16>  H        1.9104537524     2.3976058116     2.0249252870
| 17>  H        2.1727021515     1.7694697958    -0.6231539417
| 18>  H        1.8419648991     4.3225510796     0.0474596893
| 19>  H       -0.4742868983     5.1902240857    -0.3894712311
| 20>  H       -1.0223043812     3.5783077203    -0.9888245282
| 21>  H       -0.1010478699     4.2854858656     1.9237357146
| 22> *
| 23>
| 24>                          ****END OF INPUT****

CARTESIAN COORDINATES (ANGSTROEM)
---------------------------------
  N      0.010112   -1.199450   -0.013978
  C      0.017119   -0.043908    0.015999
  C     -0.041445    1.406788   -0.015978
  C     -0.082539    2.084290    1.390441
  N      1.381365    1.727988    1.463788
  C      1.351904    2.111655    0.005268
  C      1.015050    3.621882    0.027378
  C     -0.372565    4.111845   -0.305435
  C     -0.078555    3.601020    1.083421
  H     -0.769582    1.712898   -0.763966
  H     -0.732222    1.714055    2.181993
  H      1.910454    2.397606    2.024925
  H      2.172702    1.769470   -0.623154
  H      1.841965    4.322551    0.047460
  H     -0.474287    5.190224   -0.389471
  H     -1.022304    3.578308   -0.988825
  H     -0.101048    4.285486    1.923736

 Total Charge           Charge          ....    0
 Multiplicity           Mult            ....    1
 Number of Electrons    NEL             ....   64
 Basis Dimension        Dim             ....  327

ORBITAL ENERGIES
----------------

  NO   OCC          E(Eh)            E(eV)
   0   2.0000     -15.566498      -423.5859
   1   2.0000     -15.558189      -423.3599
   2   2.0000     -11.297655      -307.4248
   3   2.0000     -11.297636      -307.4243
   4   2.0000     -11.286311      -307.1161
   5   2.0000     -11.264496      -306.5225
   6   2.0000     -11.258315      -306.3543
   7   2.0000     -11.256160      -306.2957
   8   2.0000     -11.255605      -306.2806
   9   2.0000      -1.299667       -35.3657
  10   2.0000      -1.205451       -32.8020
  11   2.0000      -1.146723       -31.2039
  12   2.0000      -1.027636       -27.9634
  13   2.0000      -0.961401       -26.1610
  14   2.0000      -0.889316       -24.1995
  15   2.0000      -0.805364       -21.9151
  16   2.0000      -0.778602       -21.1868
  17   2.0000      -0.737762       -20.0755
  18   2.0000      -0.726005       -19.7556
  19   2.0000      -0.649354       -17.6698
  20   2.0000      -0.623427       -16.9643
  21   2.0000      -0.567934       -15.4543
  22   2.0000      -0.567745       -15.4491
  23   2.0000      -0.543205       -14.7813
  24   2.0000      -0.532170       -14.4811
  25   2.0000      -0.527294       -14.3484
  26   2.0000      -0.508449       -13.8356
  27   2.0000      -0.457648       -12.4532
  28   2.0000      -0.450651       -12.2628
  29   2.0000      -0.432150       -11.7594
  30   2.0000      -0.423627       -11.5275
  31   2.0000      -0.396277       -10.7832
  32   0.0000       0.126508         3.4424
  33   0.0000       0.139259         3.7894
  34   0.0000       0.152428         4.1478
  35   0.0000       0.162428         4.4199
  36   0.0000       0.169684         4.6173

MULLIKEN ATOMIC CHARGES
-----------------------
   0 N :   -0.043329
   1 C :   -0.256273
   2 C :    0.021628
   3 C :   -0.011355
   4 N :   -0.324594
   5 C :   -0.011355
   6 C :   -0.156216
   7 C :   -0.250887
   8 C :   -0.156215
   9 H :    0.135847
  10 H :    0.149277
  11 H :    0.197693
  12 H :    0.149276
  13 H :    0.143961
  14 H :    0.135154
  15 H :    0.133428
  16 H :    0.143961
Sum of atomic charges:   -0.0000000

LOEWDIN ATOMIC CHARGES
----------------------
   0 N :    0.061554
   1 C :   -0.169279
   2 C :   -0.173222
   3 C :   -0.184407
   4 N :    0.039051
   5 C :   -0.184408
   6 C :   -0.180498
   7 C :   -0.197737
   8 C :   -0.180497
   9 H :    0.165225
  10 H :    0.141382
  11 H :    0.159415
  12 H :    0.141381
  13 H :    0.144559
  14 H :    0.142258
  15 H :    0.130663
  16 H :    0.144559

  Mayer bond orders larger than 0.1
B(  0-N ,  1-C ) :   2.9050 B(  1-C ,  2-C ) :   0.9397 B(  2-C ,  3-C ) :   0.8626
B(  2-C ,  5-C ) :   0.8626 B(  2-C ,  9-H ) :   0.8983 B(  3-C ,  4-N ) :   0.9443
B(  3-C ,  8-C ) :   0.9214 B(  3-C , 10-H ) :   0.9121 B(  4-N ,  5-C ) :   0.9443
B(  4-N , 11-H ) :   0.8773 B(  5-C ,  6-C ) :   0.9214 B(  5-C , 12-H ) :   0.9121
B(  6-C ,  7-C ) :   0.8957 B(  6-C ,  8-C ) :   0.8749 B(  6-C , 13-H ) :   0.9319
B(  7-C ,  8-C ) :   0.8957 B(  7-C , 14-H ) :   0.9179 B(  7-C , 15-H ) :   0.9067
B(  8-C , 16-H ) :   0.9319

MP2 TOTAL ENERGY:     -380.153211791 Eh
FINAL SINGLE POINT ENERGY      -380.153211791364

DIPOLE MOMENT
-------------
                                X             Y             Z
Electronic contribution:      0.07614      -6.41450      -0.04786
Nuclear contribution   :     -0.09796       8.69889       0.07033
                        -----------------------------------------
Total Dipole Moment    :     -0.02183       2.28439       0.02247
                        -----------------------------------------
Magnitude (a.u.)       :      2.28460
Magnitude (Debye)      :      5.80700

                             ****ORCA TERMINATED NORMALLY****
TOTAL RUN TIME: 0 days 0 hours 18 minutes 48 seconds 475 msec
