                         Program Version 3.0.3 - RELEASE   -
|  1> ! RI-MP2 RIJK def2-TZVP def2-TZVP/C def2-TZVP/JK TIGHTSCF
|  2> % maxcore 2000
|  3> % mp2 density relaxed end
|  4> *xyz 0 1
|  5>  C       -0.0602357393     1.6086362768    -0.1584134748
|  6>  C        0.0076335499     0.1033146136     0.1163948258
|  7>  C       -1.3613391206    -0.5604901325     0.0875297828
|  8>  N       -2.0086333298    -0.6307847659    -1.2314425320
|  9>  C       -2.0949065028    -1.9942843744    -1.3089924196
| 10>  O       -2.5372026988    -2.7491321373    -2.1270577638
| 11>  C       -1.4240918003    -2.1363422791     0.1058131049
| 12>  C       -0.1937710155    -2.8861796471     0.1920091594
| 13>  C        0.8299082818    -3.5135619218     0.2550316874
| 14>  H        0.9348856897     2.0602032244    -0.1145500925
| 15>  H       -0.4691421833     1.8140461284    -1.1539348333
| 16>  H       -0.6919711952     2.1219476227     0.5752406739
| 17>  H        0.6566678110    -0.3882874487    -0.6157275430
| 18>  H        0.4534106355    -0.0781962172     1.1016684273
| 19>  H       -2.0155766330    -0.1174166002     0.8490661399
| 20>  H       -2.3921074272     0.0834971901    -1.8326503528
| 21>  H       -2.1570853392    -2.5052774329     0.8300924465
| 22>  H        1.7292697271    -4.0758426689     0.3063762340
| 23> *
| 24>
| 25>                          ****END OF INPUT****

CARTESIAN COORDINATES (ANGSTROEM)
---------------------------------
  C     -0.060236    1.608636   -0.158413
  C      0.007634    0.103315    0.116395
  C     -1.361339   -0.560490    0.087530
  N     -2.008633   -0.630785   -1.231443
  C     -2.094907   -1.994284   -1.308992
  O     -2.537203   -2.749132   -2.127058
  C     -1.424092   -2.136342    0.105813
  C     -0.193771   -2.886180    0.192009
  C      0.829908   -3.513562    0.255032
  H      0.934886    2.060203   -0.114550
  H     -0.469142    1.814046   -1.153935
  H     -0.691971    2.121948    0.575241
  H      0.656668   -0.388287   -0.615728
  H      0.453411   -0.078196    1.101668
  H     -2.015577   -0.117417    0.849066
  H     -2.392107    0.083497   -1.832650
  H     -2.157085   -2.505277    0.830092
  H      1.729270   -4.075843    0.306376

 Total Charge           Charge          ....    0
 Multiplicity           Mult            ....    1
 Number of Electrons    NEL             ....   66
 Basis Dimension        Dim             ....  333

ORBITAL ENERGIES
----------------

  NO   OCC          E(Eh)            E(eV)
   0   2.0000     -20.531489      -558.6902
   1   2.0000     -15.591243      -424.2593
   2   2.0000     -11.360341      -309.1306
   3   2.0000     -11.296019      -307.3803
   4   2.0000     -11.279904      -306.9418
   5   2.0000     -11.244591      -305.9809
   6   2.0000     -11.236206      -305.7527
   7   2.0000     -11.233519      -305.6796
   8   2.0000     -11.230483      -305.5970
   9   2.0000      -1.395289       -37.9678
  10   2.0000      -1.278801       -34.7980
  11   2.0000      -1.080071       -29.3902
  12   2.0000      -1.056652       -28.7530
  13   2.0000      -0.990323       -26.9481
  14   2.0000      -0.915755       -24.9189
  15   2.0000      -0.823669       -22.4132
  16   2.0000      -0.821440       -22.3525
  17   2.0000      -0.724732       -19.7210
  18   2.0000      -0.698952       -19.0195
  19   2.0000      -0.667899       -18.1744
  20   2.0000      -0.663787       -18.0626
  21   2.0000      -0.617165       -16.7939
  22   2.0000      -0.599371       -16.3097
  23   2.0000      -0.580809       -15.8046
  24   2.0000      -0.562318       -15.3015
  25   2.0000      -0.553375       -15.0581
  26   2.0000      -0.510428       -13.8895
  27   2.0000      -0.502749       -13.6805
  28   2.0000      -0.497195       -13.5294
  29   2.0000      -0.446003       -12.1364
  30   2.0000      -0.404703       -11.0125
  31   2.0000      -0.395296       -10.7565
  32   2.0000      -0.381607       -10.3841
  33   0.0000       0.121277         3.3001
  34   0.0000       0.139292         3.7903
  35   0.0000       0.153025         4.1640
  36   0.0000       0.156922         4.2701
  37   0.0000       0.165331         4.4989

MULLIKEN ATOMIC CHARGES
-----------------------
   0 C :   -0.400070
   1 C :   -0.216132
   2 C :    0.059225
   3 N :   -0.336124
   4 C :    0.216464
   5 O :   -0.295393
   6 C :   -0.192652
   7 C :   -0.050509
   8 C :   -0.118729
   9 H :    0.143823
  10 H :    0.120720
  11 H :    0.127236
  12 H :    0.129295
  13 H :    0.119493
  14 H :    0.114716
  15 H :    0.238601
  16 H :    0.146554
  17 H :    0.193481
Sum of atomic charges:    0.0000000

LOEWDIN ATOMIC CHARGES
----------------------
   0 C :   -0.316317
   1 C :   -0.272429
   2 C :   -0.215810
   3 N :    0.149411
   4 C :   -0.409931
   5 O :    0.118885
   6 C :   -0.157917
   7 C :   -0.089595
   8 C :   -0.084727
   9 H :    0.125292
  10 H :    0.119069
  11 H :    0.121875
  12 H :    0.147034
  13 H :    0.146221
  14 H :    0.142655
  15 H :    0.172961
  16 H :    0.175080
  17 H :    0.128244

  Mayer bond orders larger than 0.1
B(  0-C ,  1-C ) :   0.9080 B(  0-C ,  9-H ) :   0.9411 B(  0-C , 10-H ) :   0.9405
B(  0-C , 11-H ) :   0.9366 B(  1-C ,  2-C ) :   0.9289 B(  1-C , 12-H ) :   0.9280
B(  1-C , 13-H ) :   0.9270 B(  2-C ,  3-N ) :   0.8685 B(  2-C ,  6-C ) :   0.9184
B(  2-C , 14-H ) :   0.9254 B(  3-N ,  4-C ) :   1.1646 B(  3-N , 15-H ) :   0.8573
B(  4-C ,  5-O ) :   2.0536 B(  4-C ,  6-C ) :   0.8042 B(  6-C ,  7-C ) :   1.1421
B(  6-C , 16-H ) :   0.9027 B(  7-C ,  8-C ) :   2.5745 B(  8-C , 17-H ) :   0.8970

MP2 TOTAL ENERGY:     -401.239188355 Eh
FINAL SINGLE POINT ENERGY      -401.239188354907

DIPOLE MOMENT
-------------
                                X             Y             Z
Electronic contribution:     -4.39510      -9.08245      -3.18212
Nuclear contribution   :      4.78801      10.38475       4.02529
                        -----------------------------------------
Total Dipole Moment    :      0.39291       1.30230       0.84317
                        -----------------------------------------
Magnitude (a.u.)       :      1.60040
Magnitude (Debye)      :      4.06790

                             ****ORCA TERMINATED NORMALLY****
TOTAL RUN TIME: 0 days 0 hours 29 minutes 31 seconds 175 msec
