                         Program Version 3.0.3 - RELEASE   -
|  1> ! RI-MP2 RIJK def2-TZVP def2-TZVP/C def2-TZVP/JK TIGHTSCF
|  2> % maxcore 2000
|  3> % mp2 density relaxed end
|  4> *xyz 0 1
|  5>  C        0.0176760722     1.6289632363     0.2182316564
|  6>  C        0.0890723148     0.1133621065     0.0006230907
|  7>  C       -1.2858747928    -0.5243104071    -0.1230967621
|  8>  N       -2.1641907067    -0.1601673450    -1.3083623835
|  9>  C       -1.5216850252    -0.7259808798    -2.4882826243
| 10>  C       -2.3333173195    -1.6431977152    -1.6342679444
| 11>  C       -1.5117812258    -2.0233068501    -0.4358923448
| 12>  O       -1.2985021672    -3.0432334155     0.1529136285
| 13>  H        1.0194764454     2.0600431454     0.3031289626
| 14>  H       -0.4949775977     2.1216877310    -0.6133522323
| 15>  H       -0.5314777130     1.8696341253     1.1347452813
| 16>  H        0.7001607710    -0.1087424714    -0.8811451696
| 17>  H        0.5948851722    -0.3691656320     0.8455813971
| 18>  H       -1.8719993976    -0.3028731805     0.7786653488
| 19>  H       -1.9758452277    -0.4134868420    -3.4237202002
| 20>  H       -0.4418858173    -0.8390358493    -2.5282128769
| 21>  H       -3.2681934351    -2.0813435064    -1.9638376374
| 22> *
| 23>
| 24>                          ****END OF INPUT****

CARTESIAN COORDINATES (ANGSTROEM)
---------------------------------
  C      0.017676    1.628963    0.218232
  C      0.089072    0.113362    0.000623
  C     -1.285875   -0.524310   -0.123097
  N     -2.164191   -0.160167   -1.308362
  C     -1.521685   -0.725981   -2.488283
  C     -2.333317   -1.643198   -1.634268
  C     -1.511781   -2.023307   -0.435892
  O     -1.298502   -3.043233    0.152914
  H      1.019476    2.060043    0.303129
  H     -0.494978    2.121688   -0.613352
  H     -0.531478    1.869634    1.134745
  H      0.700161   -0.108742   -0.881145
  H      0.594885   -0.369166    0.845581
  H     -1.871999   -0.302873    0.778665
  H     -1.975845   -0.413487   -3.423720
  H     -0.441886   -0.839036   -2.528213
  H     -3.268193   -2.081344   -1.963838

 Total Charge           Charge          ....    0
 Multiplicity           Mult            ....    1
 Number of Electrons    NEL             ....   60
 Basis Dimension        Dim             ....  302

ORBITAL ENERGIES
----------------

  NO   OCC          E(Eh)            E(eV)
   0   2.0000     -20.558821      -559.4340
   1   2.0000     -15.589076      -424.2003
   2   2.0000     -11.342428      -308.6431
   3   2.0000     -11.284057      -307.0548
   4   2.0000     -11.281661      -306.9896
   5   2.0000     -11.280407      -306.9555
   6   2.0000     -11.241182      -305.8881
   7   2.0000     -11.224866      -305.4441
   8   2.0000      -1.404189       -38.2099
   9   2.0000      -1.313253       -35.7354
  10   2.0000      -1.074677       -29.2434
  11   2.0000      -0.984597       -26.7922
  12   2.0000      -0.925980       -25.1972
  13   2.0000      -0.881827       -23.9957
  14   2.0000      -0.811621       -22.0853
  15   2.0000      -0.745106       -20.2754
  16   2.0000      -0.688756       -18.7420
  17   2.0000      -0.672413       -18.2973
  18   2.0000      -0.634394       -17.2627
  19   2.0000      -0.627357       -17.0713
  20   2.0000      -0.586195       -15.9512
  21   2.0000      -0.571461       -15.5502
  22   2.0000      -0.551164       -14.9979
  23   2.0000      -0.535795       -14.5797
  24   2.0000      -0.519228       -14.1289
  25   2.0000      -0.506074       -13.7710
  26   2.0000      -0.481597       -13.1049
  27   2.0000      -0.450372       -12.2552
  28   2.0000      -0.424734       -11.5576
  29   2.0000      -0.388762       -10.5787
  30   0.0000       0.120485         3.2786
  31   0.0000       0.142137         3.8677
  32   0.0000       0.156052         4.2464
  33   0.0000       0.172020         4.6809
  34   0.0000       0.174583         4.7506

MULLIKEN ATOMIC CHARGES
-----------------------
   0 C :   -0.394665
   1 C :   -0.209960
   2 C :   -0.011228
   3 N :   -0.225374
   4 C :   -0.167204
   5 C :   -0.097934
   6 C :    0.161223
   7 O :   -0.256090
   8 H :    0.137661
   9 H :    0.142612
  10 H :    0.126633
  11 H :    0.099861
  12 H :    0.133042
  13 H :    0.125725
  14 H :    0.143854
  15 H :    0.137826
  16 H :    0.154019
Sum of atomic charges:    0.0000000

LOEWDIN ATOMIC CHARGES
----------------------
   0 C :   -0.311247
   1 C :   -0.274293
   2 C :   -0.217731
   3 N :    0.131871
   4 C :   -0.240903
   5 C :   -0.171667
   6 C :   -0.308023
   7 O :    0.163180
   8 H :    0.122432
   9 H :    0.125833
  10 H :    0.123310
  11 H :    0.136181
  12 H :    0.149197
  13 H :    0.165122
  14 H :    0.137848
  15 H :    0.128090
  16 H :    0.140801

  Mayer bond orders larger than 0.1
B(  0-C ,  1-C ) :   0.9229 B(  0-C ,  8-H ) :   0.9397 B(  0-C ,  9-H ) :   0.9358
B(  0-C , 10-H ) :   0.9368 B(  1-C ,  2-C ) :   0.9371 B(  1-C , 11-H ) :   0.9209
B(  1-C , 12-H ) :   0.9277 B(  2-C ,  3-N ) :   0.9084 B(  2-C ,  5-C ) :  -0.1155
B(  2-C ,  6-C ) :   0.8889 B(  2-C , 13-H ) :   0.8905 B(  3-N ,  4-C ) :   0.8881
B(  3-N ,  5-C ) :   0.9066 B(  4-C ,  5-C ) :   0.8931 B(  4-C , 14-H ) :   0.9272
B(  4-C , 15-H ) :   0.9082 B(  5-C ,  6-C ) :   0.9496 B(  5-C , 16-H ) :   0.8955
B(  6-C ,  7-O ) :   2.0398

MP2 TOTAL ENERGY:     -363.210204791 Eh
FINAL SINGLE POINT ENERGY      -363.210204790942

DIPOLE MOMENT
-------------
                                X             Y             Z
Electronic contribution:     -4.17740      -7.79471      -0.34631
Nuclear contribution   :      4.44577       8.40462      -0.18218
                        -----------------------------------------
Total Dipole Moment    :      0.26837       0.60990      -0.52849
                        -----------------------------------------
Magnitude (a.u.)       :      0.85047
Magnitude (Debye)      :      2.16173

                             ****ORCA TERMINATED NORMALLY****
TOTAL RUN TIME: 0 days 0 hours 13 minutes 17 seconds 58 msec
