                         Program Version 3.0.3 - RELEASE   -
|  1> ! RI-MP2 RIJK def2-TZVP def2-TZVP/C def2-TZVP/JK TIGHTSCF
|  2> % maxcore 2000
|  3> % mp2 density relaxed end
|  4> *xyz 0 1
|  5>  C        0.0192252009     1.4688943911    -0.1045597193
|  6>  C       -0.0230226853     0.0188193822    -0.0079245562
|  7>  C       -0.0624254430    -1.1837136365     0.0625770529
|  8>  C       -0.0628517202    -2.5966185784     0.1988396789
|  9>  O       -0.2747664063    -3.4344908279    -0.9670771511
| 10>  C       -1.1376862769    -3.6186298229     0.1619563731
| 11>  C       -0.4074742384    -4.5358241616     1.1391075021
| 12>  C        0.7775398642    -3.4923326804     1.1495096992
| 13>  O        2.0238736896    -3.8936896966     0.6688359980
| 14>  H        0.7638187633     1.8877714210     0.5810718246
| 15>  H        0.2847223968     1.7876272314    -1.1184965357
| 16>  H       -0.9507534519     1.9144525352     0.1422902311
| 17>  H       -2.1998276563    -3.4825707408    -0.0040363779
| 18>  H       -0.8966371670    -4.6235258417     2.1122008232
| 19>  H       -0.1612575112    -5.5290666963     0.7561224436
| 20>  H        0.9314625761    -3.0420089497     2.1320863757
| 21>  H        1.8834395358    -4.1574682580    -0.2500713325
| 22> *
| 23>
| 24>                          ****END OF INPUT****

CARTESIAN COORDINATES (ANGSTROEM)
---------------------------------
  C      0.019225    1.468894   -0.104560
  C     -0.023023    0.018819   -0.007925
  C     -0.062425   -1.183714    0.062577
  C     -0.062852   -2.596619    0.198840
  O     -0.274766   -3.434491   -0.967077
  C     -1.137686   -3.618630    0.161956
  C     -0.407474   -4.535824    1.139108
  C      0.777540   -3.492333    1.149510
  O      2.023874   -3.893690    0.668836
  H      0.763819    1.887771    0.581072
  H      0.284722    1.787627   -1.118497
  H     -0.950753    1.914453    0.142290
  H     -2.199828   -3.482571   -0.004036
  H     -0.896637   -4.623526    2.112201
  H     -0.161258   -5.529067    0.756122
  H      0.931463   -3.042009    2.132086
  H      1.883440   -4.157468   -0.250071

 Total Charge           Charge          ....    0
 Multiplicity           Mult            ....    1
 Number of Electrons    NEL             ....   66
 Basis Dimension        Dim             ....  327

ORBITAL ENERGIES
----------------

  NO   OCC          E(Eh)            E(eV)
   0   2.0000     -20.582884      -560.0887
   1   2.0000     -20.559547      -559.4537
   2   2.0000     -11.312491      -307.8285
   3   2.0000     -11.302016      -307.5435
   4   2.0000     -11.299224      -307.4675
   5   2.0000     -11.254707      -306.2562
   6   2.0000     -11.242738      -305.9304
   7   2.0000     -11.240323      -305.8647
   8   2.0000     -11.229531      -305.5711
   9   2.0000      -1.433538       -39.0085
  10   2.0000      -1.367286       -37.2057
  11   2.0000      -1.086204       -29.5571
  12   2.0000      -1.067797       -29.0562
  13   2.0000      -0.990359       -26.9490
  14   2.0000      -0.912591       -24.8329
  15   2.0000      -0.876400       -23.8481
  16   2.0000      -0.800657       -21.7870
  17   2.0000      -0.763348       -20.7718
  18   2.0000      -0.668317       -18.1858
  19   2.0000      -0.651019       -17.7151
  20   2.0000      -0.638005       -17.3610
  21   2.0000      -0.610928       -16.6242
  22   2.0000      -0.601831       -16.3766
  23   2.0000      -0.594812       -16.1856
  24   2.0000      -0.593084       -16.1386
  25   2.0000      -0.570389       -15.5211
  26   2.0000      -0.531758       -14.4699
  27   2.0000      -0.501092       -13.6354
  28   2.0000      -0.482370       -13.1260
  29   2.0000      -0.457733       -12.4555
  30   2.0000      -0.432630       -11.7725
  31   2.0000      -0.380055       -10.3418
  32   2.0000      -0.358713        -9.7611
  33   0.0000       0.134141         3.6502
  34   0.0000       0.149311         4.0630
  35   0.0000       0.153853         4.1866
  36   0.0000       0.165434         4.5017
  37   0.0000       0.181059         4.9269

MULLIKEN ATOMIC CHARGES
-----------------------
   0 C :   -0.469477
   1 C :    0.111059
   2 C :    0.040374
   3 C :   -0.103171
   4 O :   -0.314067
   5 C :   -0.026044
   6 C :   -0.160573
   7 C :    0.048637
   8 O :   -0.454905
   9 H :    0.166620
  10 H :    0.168305
  11 H :    0.164451
  12 H :    0.141385
  13 H :    0.120904
  14 H :    0.119861
  15 H :    0.116417
  16 H :    0.330225
Sum of atomic charges:   -0.0000000

LOEWDIN ATOMIC CHARGES
----------------------
   0 C :   -0.289652
   1 C :   -0.068900
   2 C :   -0.047410
   3 C :   -0.257802
   4 O :    0.188641
   5 C :   -0.212058
   6 C :   -0.205342
   7 C :   -0.275961
   8 O :    0.000320
   9 H :    0.143947
  10 H :    0.144640
  11 H :    0.142597
  12 H :    0.133947
  13 H :    0.138526
  14 H :    0.134358
  15 H :    0.145499
  16 H :    0.184648

  Mayer bond orders larger than 0.1
B(  0-C ,  1-C ) :   0.8546 B(  0-C ,  9-H ) :   0.9447 B(  0-C , 10-H ) :   0.9413
B(  0-C , 11-H ) :   0.9437 B(  1-C ,  2-C ) :   2.6558 B(  1-C ,  3-C ) :  -0.2075
B(  2-C ,  3-C ) :   1.1125 B(  3-C ,  4-O ) :   0.8826 B(  3-C ,  5-C ) :   0.8717
B(  3-C ,  7-C ) :   0.9233 B(  4-O ,  5-C ) :   0.9015 B(  5-C ,  6-C ) :   0.9305
B(  5-C , 12-H ) :   0.9173 B(  6-C ,  7-C ) :   0.9374 B(  6-C , 13-H ) :   0.9033
B(  6-C , 14-H ) :   0.9047 B(  7-C ,  8-O ) :   0.9902 B(  7-C , 15-H ) :   0.9316
B(  8-O , 16-H ) :   0.8254

MP2 TOTAL ENERGY:     -421.046268333 Eh
FINAL SINGLE POINT ENERGY      -421.046268332794

DIPOLE MOMENT
-------------
                                X             Y             Z
Electronic contribution:      0.61140      -3.32236      -1.84857
Nuclear contribution   :     -1.32156       3.80094       2.20600
                        -----------------------------------------
Total Dipole Moment    :     -0.71017       0.47858       0.35743
                        -----------------------------------------
Magnitude (a.u.)       :      0.92797
Magnitude (Debye)      :      2.35872

                             ****ORCA TERMINATED NORMALLY****
TOTAL RUN TIME: 0 days 0 hours 15 minutes 11 seconds 949 msec
