                         Program Version 3.0.3 - RELEASE   -
|  1> ! RI-MP2 RIJK def2-TZVP def2-TZVP/C def2-TZVP/JK TIGHTSCF
|  2> % maxcore 2000
|  3> % mp2 density relaxed end
|  4> *xyz 0 1
|  5>  C        0.0691936821     1.5215772406     0.0812689954
|  6>  C       -0.0396796916    -0.0063953298     0.0187740246
|  7>  O        0.5037923582    -0.4861969618     1.2436618243
|  8>  C       -1.4667500317    -0.4061086063    -0.0732242931
|  9>  N       -2.5664631118    -0.7539171874    -0.1507878860
| 10>  C        0.7038736190    -0.5686019105    -1.2083093845
| 11>  C        2.2504653972    -0.4244039113    -1.2527056741
| 12>  C        2.3183887671    -1.8425898626    -1.8812188125
| 13>  C        0.8764864158    -2.1051064590    -1.3678321632
| 14>  H        1.1235938488     1.7979045283     0.1578222824
| 15>  H       -0.3567198286     1.9775200748    -0.8153439520
| 16>  H       -0.4572678515     1.9003360692     0.9594122615
| 17>  H        0.3489178532    -1.4357901913     1.2978699387
| 18>  H        0.2449834800    -0.1476865343    -2.1085896256
| 19>  H        2.6659552768     0.4095490873    -1.8221071701
| 20>  H        2.6636719388    -0.4094929345    -0.2408283414
| 21>  H        2.3558927046    -1.8023215129    -2.9731470389
| 22>  H        3.1070058967    -2.5114893104    -1.5308398165
| 23>  H        0.8905960575    -2.6218668644    -0.4020128100
| 24>  H        0.1769056396    -2.6254791735    -2.0242205891
| 25> *
| 26>
| 27>                          ****END OF INPUT****

CARTESIAN COORDINATES (ANGSTROEM)
---------------------------------
  C      0.069194    1.521577    0.081269
  C     -0.039680   -0.006395    0.018774
  O      0.503792   -0.486197    1.243662
  C     -1.466750   -0.406109   -0.073224
  N     -2.566463   -0.753917   -0.150788
  C      0.703874   -0.568602   -1.208309
  C      2.250465   -0.424404   -1.252706
  C      2.318389   -1.842590   -1.881219
  C      0.876486   -2.105106   -1.367832
  H      1.123594    1.797905    0.157822
  H     -0.356720    1.977520   -0.815344
  H     -0.457268    1.900336    0.959412
  H      0.348918   -1.435790    1.297870
  H      0.244983   -0.147687   -2.108590
  H      2.665955    0.409549   -1.822107
  H      2.663672   -0.409493   -0.240828
  H      2.355893   -1.802322   -2.973147
  H      3.107006   -2.511489   -1.530840
  H      0.890596   -2.621867   -0.402013
  H      0.176906   -2.625479   -2.024221

 Total Charge           Charge          ....    0
 Multiplicity           Mult            ....    1
 Number of Electrons    NEL             ....   68
 Basis Dimension        Dim             ....  345

ORBITAL ENERGIES
----------------

  NO   OCC          E(Eh)            E(eV)
   0   2.0000     -20.585263      -560.1535
   1   2.0000     -15.575367      -423.8273
   2   2.0000     -11.342781      -308.6528
   3   2.0000     -11.271990      -306.7264
   4   2.0000     -11.252604      -306.1989
   5   2.0000     -11.239780      -305.8500
   6   2.0000     -11.239018      -305.8292
   7   2.0000     -11.235165      -305.7244
   8   2.0000     -11.234501      -305.7063
   9   2.0000      -1.397460       -38.0268
  10   2.0000      -1.220800       -33.2197
  11   2.0000      -1.150828       -31.3156
  12   2.0000      -1.062556       -28.9136
  13   2.0000      -0.936794       -25.4915
  14   2.0000      -0.914128       -24.8747
  15   2.0000      -0.867506       -23.6060
  16   2.0000      -0.770019       -20.9533
  17   2.0000      -0.757518       -20.6131
  18   2.0000      -0.699330       -19.0297
  19   2.0000      -0.667928       -18.1752
  20   2.0000      -0.622461       -16.9380
  21   2.0000      -0.591305       -16.0902
  22   2.0000      -0.580251       -15.7894
  23   2.0000      -0.565101       -15.3772
  24   2.0000      -0.560091       -15.2408
  25   2.0000      -0.555493       -15.1157
  26   2.0000      -0.544048       -14.8043
  27   2.0000      -0.506157       -13.7732
  28   2.0000      -0.494881       -13.4664
  29   2.0000      -0.480395       -13.0722
  30   2.0000      -0.470426       -12.8009
  31   2.0000      -0.467481       -12.7208
  32   2.0000      -0.453448       -12.3390
  33   2.0000      -0.435813       -11.8591
  34   0.0000       0.118377         3.2212
  35   0.0000       0.134667         3.6645
  36   0.0000       0.145391         3.9563
  37   0.0000       0.154018         4.1911
  38   0.0000       0.176243         4.7958

MULLIKEN ATOMIC CHARGES
-----------------------
   0 C :   -0.388839
   1 C :    0.296305
   2 O :   -0.452682
   3 C :   -0.215997
   4 N :   -0.050073
   5 C :   -0.095868
   6 C :   -0.258946
   7 C :   -0.196403
   8 C :   -0.243030
   9 H :    0.149273
  10 H :    0.138907
  11 H :    0.155429
  12 H :    0.323287
  13 H :    0.119027
  14 H :    0.126224
  15 H :    0.133376
  16 H :    0.119010
  17 H :    0.121921
  18 H :    0.082118
  19 H :    0.136961
Sum of atomic charges:    0.0000000

LOEWDIN ATOMIC CHARGES
----------------------
   0 C :   -0.238952
   1 C :   -0.386094
   2 O :    0.038574
   3 C :   -0.150291
   4 N :    0.068483
   5 C :   -0.194391
   6 C :   -0.217197
   7 C :   -0.237303
   8 C :   -0.215855
   9 H :    0.135584
  10 H :    0.134788
  11 H :    0.136167
  12 H :    0.179027
  13 H :    0.162505
  14 H :    0.124908
  15 H :    0.141364
  16 H :    0.135263
  17 H :    0.124450
  18 H :    0.129662
  19 H :    0.129308

  Mayer bond orders larger than 0.1
B(  0-C ,  1-C ) :   0.8677 B(  0-C ,  9-H ) :   0.9355 B(  0-C , 10-H ) :   0.9271
B(  0-C , 11-H ) :   0.9334 B(  1-C ,  2-O ) :   0.9021 B(  1-C ,  3-C ) :   0.9142
B(  1-C ,  5-C ) :   0.9195 B(  2-O , 12-H ) :   0.8352 B(  3-C ,  4-N ) :   2.8725
B(  5-C ,  6-C ) :   0.9133 B(  5-C ,  8-C ) :   0.9292 B(  5-C , 13-H ) :   0.8973
B(  6-C ,  7-C ) :   0.9313 B(  6-C , 14-H ) :   0.9282 B(  6-C , 15-H ) :   0.9216
B(  7-C ,  8-C ) :   0.9379 B(  7-C , 16-H ) :   0.9298 B(  7-C , 17-H ) :   0.9287
B(  8-C , 18-H ) :   0.9157 B(  8-C , 19-H ) :   0.9293

MP2 TOTAL ENERGY:     -402.467228521 Eh
FINAL SINGLE POINT ENERGY      -402.467228520997

DIPOLE MOMENT
-------------
                                X             Y             Z
Electronic contribution:     -7.28367      -0.57765       3.50348
Nuclear contribution   :      8.53347       0.63008      -3.93596
                        -----------------------------------------
Total Dipole Moment    :      1.24980       0.05243      -0.43248
                        -----------------------------------------
Magnitude (a.u.)       :      1.32355
Magnitude (Debye)      :      3.36421

                             ****ORCA TERMINATED NORMALLY****
TOTAL RUN TIME: 0 days 0 hours 21 minutes 52 seconds 992 msec
