                         Program Version 3.0.3 - RELEASE   -
|  1> ! RI-MP2 RIJK def2-TZVP def2-TZVP/C def2-TZVP/JK TIGHTSCF
|  2> % maxcore 2000
|  3> % mp2 density relaxed end
|  4> *xyz 0 1
|  5>  N        0.2666426267     1.5134585084    -0.0445750927
|  6>  C        0.0375374922     0.1062336405     0.0175429803
|  7>  C        0.0350705843    -0.6422114375     1.3707055343
|  8>  C       -1.0372707667     0.0772790106     2.2114432470
|  9>  C       -2.1617414863     0.1222542147     1.1283906083
| 10>  C       -1.3804082725    -0.6075534462     0.0093529205
| 11>  O       -0.7463447791    -1.7011397218     0.7268762196
| 12>  C       -2.0689170571    -0.9663011647    -1.2095267664
| 13>  N       -2.6070059543    -1.1965867485    -2.2066649904
| 14>  H        0.2841200031     1.8524863796    -0.9990525465
| 15>  H       -0.4153255050     2.0553844449     0.4723902054
| 16>  H        0.6837094932    -0.4148391206    -0.6895683817
| 17>  H        0.9450677821    -0.9933865729     1.8535719901
| 18>  H       -1.3212003137    -0.5178917266     3.0804681885
| 19>  H       -0.7162274867     1.0639589735     2.5564851804
| 20>  H       -3.0532461475    -0.4383197387     1.4110580786
| 21>  H       -2.4640049826     1.1316410151     0.8363156650
| 22> *
| 23>
| 24>                          ****END OF INPUT****

CARTESIAN COORDINATES (ANGSTROEM)
---------------------------------
  N      0.266643    1.513459   -0.044575
  C      0.037537    0.106234    0.017543
  C      0.035071   -0.642211    1.370706
  C     -1.037271    0.077279    2.211443
  C     -2.161741    0.122254    1.128391
  C     -1.380408   -0.607553    0.009353
  O     -0.746345   -1.701140    0.726876
  C     -2.068917   -0.966301   -1.209527
  N     -2.607006   -1.196587   -2.206665
  H      0.284120    1.852486   -0.999053
  H     -0.415326    2.055384    0.472390
  H      0.683709   -0.414839   -0.689568
  H      0.945068   -0.993387    1.853572
  H     -1.321200   -0.517892    3.080468
  H     -0.716227    1.063959    2.556485
  H     -3.053246   -0.438320    1.411058
  H     -2.464005    1.131641    0.836316

 Total Charge           Charge          ....    0
 Multiplicity           Mult            ....    1
 Number of Electrons    NEL             ....   66
 Basis Dimension        Dim             ....  327

ORBITAL ENERGIES
----------------

  NO   OCC          E(Eh)            E(eV)
   0   2.0000     -20.580525      -560.0246
   1   2.0000     -15.581725      -424.0003
   2   2.0000     -15.571953      -423.7344
   3   2.0000     -11.339221      -308.5559
   4   2.0000     -11.307536      -307.6937
   5   2.0000     -11.294839      -307.3482
   6   2.0000     -11.278835      -306.9127
   7   2.0000     -11.258119      -306.3490
   8   2.0000     -11.250548      -306.1430
   9   2.0000      -1.423090       -38.7242
  10   2.0000      -1.225316       -33.3425
  11   2.0000      -1.216602       -33.1054
  12   2.0000      -1.091048       -29.6889
  13   2.0000      -1.014146       -27.5963
  14   2.0000      -0.973254       -26.4836
  15   2.0000      -0.847957       -23.0741
  16   2.0000      -0.794072       -21.6078
  17   2.0000      -0.766096       -20.8465
  18   2.0000      -0.702729       -19.1222
  19   2.0000      -0.687182       -18.6992
  20   2.0000      -0.639687       -17.4068
  21   2.0000      -0.621857       -16.9216
  22   2.0000      -0.588375       -16.0105
  23   2.0000      -0.555855       -15.1256
  24   2.0000      -0.550492       -14.9796
  25   2.0000      -0.543352       -14.7854
  26   2.0000      -0.528426       -14.3792
  27   2.0000      -0.518754       -14.1160
  28   2.0000      -0.504441       -13.7265
  29   2.0000      -0.482304       -13.1242
  30   2.0000      -0.464473       -12.6390
  31   2.0000      -0.449184       -12.2229
  32   2.0000      -0.397217       -10.8088
  33   0.0000       0.114663         3.1201
  34   0.0000       0.139024         3.7830
  35   0.0000       0.147821         4.0224
  36   0.0000       0.153084         4.1656
  37   0.0000       0.164582         4.4785

MULLIKEN ATOMIC CHARGES
-----------------------
   0 N :   -0.524357
   1 C :   -0.024442
   2 C :    0.066607
   3 C :   -0.277416
   4 C :   -0.270869
   5 C :    0.256479
   6 O :   -0.291931
   7 C :   -0.207713
   8 N :   -0.035197
   9 H :    0.248178
  10 H :    0.237372
  11 H :    0.135910
  12 H :    0.146019
  13 H :    0.134743
  14 H :    0.131003
  15 H :    0.142357
  16 H :    0.133256
Sum of atomic charges:    0.0000000

LOEWDIN ATOMIC CHARGES
----------------------
   0 N :   -0.118353
   1 C :   -0.254200
   2 C :   -0.228545
   3 C :   -0.225995
   4 C :   -0.193577
   5 C :   -0.300979
   6 O :    0.202787
   7 C :   -0.142542
   8 N :    0.083075
   9 H :    0.165320
  10 H :    0.158086
  11 H :    0.160106
  12 H :    0.136072
  13 H :    0.141079
  14 H :    0.136272
  15 H :    0.145257
  16 H :    0.136137

  Mayer bond orders larger than 0.1
B(  0-N ,  1-C ) :   1.0558 B(  0-N ,  9-H ) :   0.8823 B(  0-N , 10-H ) :   0.8802
B(  1-C ,  2-C ) :   0.9121 B(  1-C ,  5-C ) :   0.8771 B(  1-C , 11-H ) :   0.9119
B(  2-C ,  3-C ) :   0.9296 B(  2-C ,  6-O ) :   0.9055 B(  2-C , 12-H ) :   0.9016
B(  3-C ,  4-C ) :   0.9648 B(  3-C , 13-H ) :   0.9171 B(  3-C , 14-H ) :   0.9333
B(  4-C ,  5-C ) :   0.9037 B(  4-C , 15-H ) :   0.9138 B(  4-C , 16-H ) :   0.9300
B(  5-C ,  6-O ) :   0.9550 B(  5-C ,  7-C ) :   0.8477 B(  7-C ,  8-N ) :   2.8720

MP2 TOTAL ENERGY:     -417.298398675 Eh
FINAL SINGLE POINT ENERGY      -417.298398675293

DIPOLE MOMENT
-------------
                                X             Y             Z
Electronic contribution:     -1.71521      -4.84579      -5.02272
Nuclear contribution   :      2.16838       6.02961       6.10892
                        -----------------------------------------
Total Dipole Moment    :      0.45317       1.18382       1.08620
                        -----------------------------------------
Magnitude (a.u.)       :      1.66932
Magnitude (Debye)      :      4.24308

                             ****ORCA TERMINATED NORMALLY****
TOTAL RUN TIME: 0 days 0 hours 17 minutes 59 seconds 923 msec
