                         Program Version 3.0.3 - RELEASE   -
|  1> ! RI-MP2 RIJK def2-TZVP def2-TZVP/C def2-TZVP/JK TIGHTSCF
|  2> % maxcore 2000
|  3> % mp2 density relaxed end
|  4> *xyz 0 1
|  5>  C        0.0413473393     1.3855453517    -0.0697680559
|  6>  N        0.0044820764    -0.0519053935    -0.2575854201
|  7>  C       -1.0770148981    -0.6318422207    -0.0010638455
|  8>  O       -1.1469578864    -1.9908476759    -0.1692611361
|  9>  C       -2.3490556529    -2.5982148633     0.1314912112
| 10>  N       -2.2354319984    -3.9238920237    -0.1216335419
| 11>  O       -3.3311125669    -2.0289203726     0.5363917603
| 12>  H        0.8293791073     1.6362542513     0.6487652712
| 13>  H        0.3089330924     1.8670773163    -1.0166896322
| 14>  H       -0.9069712848     1.8168620332     0.2863010518
| 15>  H       -2.0109470359    -0.1888750704     0.3521472458
| 16>  H       -1.3442677020    -4.3218993317    -0.3597265264
| 17>  H       -2.9984145401    -4.5206929606     0.1427226478
| 18> *
| 19>
| 20>                          ****END OF INPUT****

CARTESIAN COORDINATES (ANGSTROEM)
---------------------------------
  C      0.041347    1.385545   -0.069768
  N      0.004482   -0.051905   -0.257585
  C     -1.077015   -0.631842   -0.001064
  O     -1.146958   -1.990848   -0.169261
  C     -2.349056   -2.598215    0.131491
  N     -2.235432   -3.923892   -0.121634
  O     -3.331113   -2.028920    0.536392
  H      0.829379    1.636254    0.648765
  H      0.308933    1.867077   -1.016690
  H     -0.906971    1.816862    0.286301
  H     -2.010947   -0.188875    0.352147
  H     -1.344268   -4.321899   -0.359727
  H     -2.998415   -4.520693    0.142723

 Total Charge           Charge          ....    0
 Multiplicity           Mult            ....    1
 Number of Electrons    NEL             ....   54
 Basis Dimension        Dim             ....  253

ORBITAL ENERGIES
----------------

  NO   OCC          E(Eh)            E(eV)
   0   2.0000     -20.626771      -561.2830
   1   2.0000     -20.544672      -559.0490
   2   2.0000     -15.602127      -424.5555
   3   2.0000     -15.557520      -423.3416
   4   2.0000     -11.424419      -310.8742
   5   2.0000     -11.337444      -308.5075
   6   2.0000     -11.252909      -306.2072
   7   2.0000      -1.490333       -40.5540
   8   2.0000      -1.386311       -37.7234
   9   2.0000      -1.247751       -33.9530
  10   2.0000      -1.221100       -33.2278
  11   2.0000      -0.970608       -26.4116
  12   2.0000      -0.875648       -23.8276
  13   2.0000      -0.795561       -21.6483
  14   2.0000      -0.775800       -21.1106
  15   2.0000      -0.717774       -19.5316
  16   2.0000      -0.677123       -18.4255
  17   2.0000      -0.670837       -18.2544
  18   2.0000      -0.647031       -17.6066
  19   2.0000      -0.594575       -16.1792
  20   2.0000      -0.593308       -16.1447
  21   2.0000      -0.550310       -14.9747
  22   2.0000      -0.542760       -14.7693
  23   2.0000      -0.481808       -13.1107
  24   2.0000      -0.445835       -12.1318
  25   2.0000      -0.422903       -11.5078
  26   2.0000      -0.401985       -10.9386
  27   0.0000       0.127693         3.4747
  28   0.0000       0.154317         4.1992
  29   0.0000       0.156039         4.2460
  30   0.0000       0.178573         4.8592
  31   0.0000       0.200207         5.4479

MULLIKEN ATOMIC CHARGES
-----------------------
   0 C :   -0.248675
   1 N :   -0.182232
   2 C :    0.055754
   3 O :   -0.238325
   4 C :    0.425630
   5 N :   -0.505506
   6 O :   -0.365849
   7 H :    0.139375
   8 H :    0.139601
   9 H :    0.101033
  10 H :    0.125639
  11 H :    0.279032
  12 H :    0.274524
Sum of atomic charges:    0.0000000

LOEWDIN ATOMIC CHARGES
----------------------
   0 C :   -0.331635
   1 N :    0.069958
   2 C :   -0.323446
   3 O :    0.274316
   4 C :   -0.589878
   5 N :   -0.011892
   6 O :    0.083677
   7 H :    0.119211
   8 H :    0.119295
   9 H :    0.104478
  10 H :    0.124672
  11 H :    0.180162
  12 H :    0.181085

  Mayer bond orders larger than 0.1
B(  0-C ,  1-N ) :   0.8776 B(  0-C ,  7-H ) :   0.9316 B(  0-C ,  8-H ) :   0.9314
B(  0-C ,  9-H ) :   0.9288 B(  1-N ,  2-C ) :   1.9100 B(  2-C ,  3-O ) :   0.9600
B(  2-C , 10-H ) :   0.9296 B(  3-O ,  4-C ) :   1.0024 B(  4-C ,  5-N ) :   1.1942
B(  4-C ,  6-O ) :   1.9285 B(  5-N , 11-H ) :   0.8587 B(  5-N , 12-H ) :   0.8640

MP2 TOTAL ENERGY:     -377.219173280 Eh
FINAL SINGLE POINT ENERGY      -377.219173280389

DIPOLE MOMENT
-------------
                                X             Y             Z
Electronic contribution:     -2.47018      -5.12133       0.04511
Nuclear contribution   :      2.49221       4.53908      -0.02111
                        -----------------------------------------
Total Dipole Moment    :      0.02203      -0.58225       0.02399
                        -----------------------------------------
Magnitude (a.u.)       :      0.58316
Magnitude (Debye)      :      1.48228

                             ****ORCA TERMINATED NORMALLY****
TOTAL RUN TIME: 0 days 0 hours 5 minutes 28 seconds 30 msec
