                         Program Version 3.0.3 - RELEASE   -
|  1> ! RI-MP2 RIJK def2-TZVP def2-TZVP/C def2-TZVP/JK TIGHTSCF
|  2> % maxcore 2000
|  3> % mp2 density relaxed end
|  4> *xyz 0 1
|  5>  C       -0.2534557290     1.5578900628     0.0278890705
|  6>  C       -0.0114401396     0.0461622196     0.0033354188
|  7>  C        0.6841569062    -0.4027447587    -1.2924245176
|  8>  C        0.7651806795    -1.9311553580    -1.3789785381
|  9>  C        1.3336958932    -2.5771378461    -0.1289999770
| 10>  O        2.7724230242    -2.4518208995     0.0167770563
| 11>  C        2.6151638831    -2.2580090847     1.4386518641
| 12>  C        1.1223714740    -1.9106023763     1.2563305450
| 13>  C        0.8368590246    -0.3966782516     1.2078922365
| 14>  H        0.6938955550     2.1066009848    -0.0351223469
| 15>  H       -0.8761828895     1.8743804290    -0.8155188468
| 16>  H       -0.7551787511     1.8676213800     0.9510755769
| 17>  H       -0.9889553964    -0.4582475669     0.0567633169
| 18>  H        0.1500679086    -0.0132373919    -2.1666432923
| 19>  H        1.6941376337     0.0268208411    -1.3216922648
| 20>  H       -0.2435512450    -2.3371650165    -1.5347607319
| 21>  H        1.3662033187    -2.2497175615    -2.2390208029
| 22>  H        1.0596167124    -3.6435445577    -0.1046913124
| 23>  H        2.7955501891    -3.1896131595     1.9946361481
| 24>  H        3.2739917391    -1.4726755888     1.8257760078
| 25>  H        0.4206535581    -2.4261785159     1.9163281227
| 26>  H        1.7879888700     0.1496838885     1.1535959551
| 27>  H        0.3595086512    -0.0834577320     2.1435726621
| 28> *
| 29>
| 30>                          ****END OF INPUT****

CARTESIAN COORDINATES (ANGSTROEM)
---------------------------------
  C     -0.253456    1.557890    0.027889
  C     -0.011440    0.046162    0.003335
  C      0.684157   -0.402745   -1.292425
  C      0.765181   -1.931155   -1.378979
  C      1.333696   -2.577138   -0.129000
  O      2.772423   -2.451821    0.016777
  C      2.615164   -2.258009    1.438652
  C      1.122371   -1.910602    1.256331
  C      0.836859   -0.396678    1.207892
  H      0.693896    2.106601   -0.035122
  H     -0.876183    1.874380   -0.815519
  H     -0.755179    1.867621    0.951076
  H     -0.988955   -0.458248    0.056763
  H      0.150068   -0.013237   -2.166643
  H      1.694138    0.026821   -1.321692
  H     -0.243551   -2.337165   -1.534761
  H      1.366203   -2.249718   -2.239021
  H      1.059617   -3.643545   -0.104691
  H      2.795550   -3.189613    1.994636
  H      3.273992   -1.472676    1.825776
  H      0.420654   -2.426179    1.916328
  H      1.787989    0.149684    1.153596
  H      0.359509   -0.083458    2.143573

 Total Charge           Charge          ....    0
 Multiplicity           Mult            ....    1
 Number of Electrons    NEL             ....   70
 Basis Dimension        Dim             ....  363

ORBITAL ENERGIES
----------------

  NO   OCC          E(Eh)            E(eV)
   0   2.0000     -20.540646      -558.9394
   1   2.0000     -11.275447      -306.8205
   2   2.0000     -11.272249      -306.7335
   3   2.0000     -11.229449      -305.5688
   4   2.0000     -11.225249      -305.4546
   5   2.0000     -11.219838      -305.3073
   6   2.0000     -11.217913      -305.2549
   7   2.0000     -11.214523      -305.1627
   8   2.0000     -11.212021      -305.0946
   9   2.0000      -1.371991       -37.3338
  10   2.0000      -1.110305       -30.2129
  11   2.0000      -1.025483       -27.9048
  12   2.0000      -1.015185       -27.6246
  13   2.0000      -0.917457       -24.9653
  14   2.0000      -0.907812       -24.7028
  15   2.0000      -0.830227       -22.5916
  16   2.0000      -0.781795       -21.2737
  17   2.0000      -0.721124       -19.6228
  18   2.0000      -0.686458       -18.6795
  19   2.0000      -0.639667       -17.4062
  20   2.0000      -0.619172       -16.8485
  21   2.0000      -0.615722       -16.7546
  22   2.0000      -0.598007       -16.2726
  23   2.0000      -0.576780       -15.6950
  24   2.0000      -0.549535       -14.9536
  25   2.0000      -0.539354       -14.6766
  26   2.0000      -0.526089       -14.3156
  27   2.0000      -0.503170       -13.6920
  28   2.0000      -0.490730       -13.3534
  29   2.0000      -0.480962       -13.0876
  30   2.0000      -0.464360       -12.6359
  31   2.0000      -0.459745       -12.5103
  32   2.0000      -0.439655       -11.9636
  33   2.0000      -0.414848       -11.2886
  34   2.0000      -0.399658       -10.8752
  35   0.0000       0.132722         3.6116
  36   0.0000       0.151409         4.1201
  37   0.0000       0.159982         4.3533
  38   0.0000       0.167576         4.5600
  39   0.0000       0.186947         5.0871

MULLIKEN ATOMIC CHARGES
-----------------------
   0 C :   -0.389009
   1 C :   -0.034662
   2 C :   -0.260107
   3 C :   -0.183637
   4 C :    0.031540
   5 O :   -0.337624
   6 C :   -0.058093
   7 C :   -0.006232
   8 C :   -0.326261
   9 H :    0.123635
  10 H :    0.130760
  11 H :    0.129949
  12 H :    0.081529
  13 H :    0.121622
  14 H :    0.113393
  15 H :    0.109074
  16 H :    0.127019
  17 H :    0.079505
  18 H :    0.091091
  19 H :    0.103537
  20 H :    0.115980
  21 H :    0.113983
  22 H :    0.123008
Sum of atomic charges:    0.0000000

LOEWDIN ATOMIC CHARGES
----------------------
   0 C :   -0.294868
   1 C :   -0.280607
   2 C :   -0.240659
   3 C :   -0.248417
   4 C :   -0.262428
   5 O :    0.129870
   6 C :   -0.260365
   7 C :   -0.208101
   8 C :   -0.221220
   9 H :    0.124012
  10 H :    0.122603
  11 H :    0.122344
  12 H :    0.150635
  13 H :    0.138065
  14 H :    0.143206
  15 H :    0.144278
  16 H :    0.146679
  17 H :    0.136510
  18 H :    0.116662
  19 H :    0.116526
  20 H :    0.140414
  21 H :    0.145631
  22 H :    0.139230

  Mayer bond orders larger than 0.1
B(  0-C ,  1-C ) :   0.9036 B(  0-C ,  9-H ) :   0.9318 B(  0-C , 10-H ) :   0.9430
B(  0-C , 11-H ) :   0.9436 B(  1-C ,  2-C ) :   0.9185 B(  1-C ,  8-C ) :   0.9188
B(  1-C , 12-H ) :   0.9290 B(  2-C ,  3-C ) :   0.9474 B(  2-C , 13-H ) :   0.9294
B(  2-C , 14-H ) :   0.9189 B(  3-C ,  4-C ) :   0.9248 B(  3-C , 15-H ) :   0.9235
B(  3-C , 16-H ) :   0.9178 B(  4-C ,  5-O ) :   0.9572 B(  4-C ,  7-C ) :   0.9403
B(  4-C , 17-H ) :   0.9295 B(  5-O ,  6-C ) :   0.9388 B(  6-C ,  7-C ) :   0.9578
B(  6-C , 18-H ) :   0.9216 B(  6-C , 19-H ) :   0.9096 B(  7-C ,  8-C ) :   0.8926
B(  7-C , 20-H ) :   0.9219 B(  8-C , 21-H ) :   0.9222 B(  8-C , 22-H ) :   0.9291

MP2 TOTAL ENERGY:     -387.622056331 Eh
FINAL SINGLE POINT ENERGY      -387.622056331169

DIPOLE MOMENT
-------------
                                X             Y             Z
Electronic contribution:      3.88058      -5.58647       0.27843
Nuclear contribution   :     -4.51070       5.69751       0.07339
                        -----------------------------------------
Total Dipole Moment    :     -0.63011       0.11104       0.35183
                        -----------------------------------------
Magnitude (a.u.)       :      0.73017
Magnitude (Debye)      :      1.85595

                             ****ORCA TERMINATED NORMALLY****
TOTAL RUN TIME: 0 days 0 hours 20 minutes 45 seconds 404 msec
