                         Program Version 3.0.3 - RELEASE   -
|  1> ! RI-MP2 RIJK def2-TZVP def2-TZVP/C def2-TZVP/JK TIGHTSCF
|  2> % maxcore 2000
|  3> % mp2 density relaxed end
|  4> *xyz 0 1
|  5>  N       -0.1408393474    -1.1573873117    -0.2072526591
|  6>  C       -0.0702830382    -0.0054736656    -0.1433083544
|  7>  C        0.0241377379     1.4558520575    -0.0860338762
|  8>  N       -0.2874626400     2.0651198564     1.2248534471
|  9>  C        0.8438715646     3.0217457638     1.0889217871
| 10>  C        1.8809312712     2.9893956625     2.2260794380
| 11>  O        3.0082405578     2.2916221764     1.7056307871
| 12>  C        2.5457423967     1.3719932696     0.7263830895
| 13>  C        1.4332935436     2.1197634810    -0.0281261986
| 14>  H       -0.5578471387     1.8632363276    -0.9233222926
| 15>  H       -1.2156066215     2.4642625658     1.3039424519
| 16>  H        0.5537918365     4.0332481472     0.7874711704
| 17>  H        2.2239067558     3.9817702727     2.5331858350
| 18>  H        1.4525160516     2.4685814306     3.0940075649
| 19>  H        3.3970191630     1.1041181473     0.0967434667
| 20>  H        2.1533634339     0.4563996802     1.1932072706
| 21>  H        1.7753081132     2.5865484586    -0.9498296374
| 22> *
| 23>
| 24>                          ****END OF INPUT****

CARTESIAN COORDINATES (ANGSTROEM)
---------------------------------
  N     -0.140839   -1.157387   -0.207253
  C     -0.070283   -0.005474   -0.143308
  C      0.024138    1.455852   -0.086034
  N     -0.287463    2.065120    1.224853
  C      0.843872    3.021746    1.088922
  C      1.880931    2.989396    2.226079
  O      3.008241    2.291622    1.705631
  C      2.545742    1.371993    0.726383
  C      1.433294    2.119763   -0.028126
  H     -0.557847    1.863236   -0.923322
  H     -1.215607    2.464263    1.303942
  H      0.553792    4.033248    0.787471
  H      2.223907    3.981770    2.533186
  H      1.452516    2.468581    3.094008
  H      3.397019    1.104118    0.096743
  H      2.153363    0.456400    1.193207
  H      1.775308    2.586548   -0.949830

 Total Charge           Charge          ....    0
 Multiplicity           Mult            ....    1
 Number of Electrons    NEL             ....   66
 Basis Dimension        Dim             ....  327

ORBITAL ENERGIES
----------------

  NO   OCC          E(Eh)            E(eV)
   0   2.0000     -20.563098      -559.5503
   1   2.0000     -15.579208      -423.9318
   2   2.0000     -15.574430      -423.8018
   3   2.0000     -11.321871      -308.0838
   4   2.0000     -11.287060      -307.1365
   5   2.0000     -11.284433      -307.0650
   6   2.0000     -11.282297      -307.0069
   7   2.0000     -11.273654      -306.7717
   8   2.0000     -11.264115      -306.5122
   9   2.0000      -1.389444       -37.8087
  10   2.0000      -1.275054       -34.6960
  11   2.0000      -1.216939       -33.1146
  12   2.0000      -1.041433       -28.3388
  13   2.0000      -1.015161       -27.6239
  14   2.0000      -0.961949       -26.1760
  15   2.0000      -0.847930       -23.0733
  16   2.0000      -0.787447       -21.4275
  17   2.0000      -0.751845       -20.4587
  18   2.0000      -0.710880       -19.3440
  19   2.0000      -0.669182       -18.2094
  20   2.0000      -0.655687       -17.8421
  21   2.0000      -0.635997       -17.3064
  22   2.0000      -0.594314       -16.1721
  23   2.0000      -0.570252       -15.5173
  24   2.0000      -0.563400       -15.3309
  25   2.0000      -0.528195       -14.3729
  26   2.0000      -0.513414       -13.9707
  27   2.0000      -0.504619       -13.7314
  28   2.0000      -0.487736       -13.2720
  29   2.0000      -0.465451       -12.6656
  30   2.0000      -0.453042       -12.3279
  31   2.0000      -0.429634       -11.6909
  32   2.0000      -0.411408       -11.1950
  33   0.0000       0.110549         3.0082
  34   0.0000       0.132812         3.6140
  35   0.0000       0.151240         4.1155
  36   0.0000       0.164916         4.4876
  37   0.0000       0.181424         4.9368

MULLIKEN ATOMIC CHARGES
-----------------------
   0 N :   -0.046452
   1 C :   -0.196244
   2 C :    0.048064
   3 N :   -0.354330
   4 C :   -0.084228
   5 C :   -0.030488
   6 O :   -0.308765
   7 C :   -0.095866
   8 C :   -0.005482
   9 H :    0.138852
  10 H :    0.216921
  11 H :    0.120715
  12 H :    0.112352
  13 H :    0.098855
  14 H :    0.127357
  15 H :    0.121172
  16 H :    0.137566
Sum of atomic charges:    0.0000000

LOEWDIN ATOMIC CHARGES
----------------------
   0 N :    0.068993
   1 C :   -0.172470
   2 C :   -0.249984
   3 N :    0.038737
   4 C :   -0.235447
   5 C :   -0.285071
   6 O :    0.151207
   7 C :   -0.276036
   8 C :   -0.164855
   9 H :    0.161297
  10 H :    0.162608
  11 H :    0.136730
  12 H :    0.125779
  13 H :    0.127144
  14 H :    0.131292
  15 H :    0.134098
  16 H :    0.145979

  Mayer bond orders larger than 0.1
B(  0-N ,  1-C ) :   2.8641 B(  1-C ,  2-C ) :   0.9069 B(  2-C ,  3-N ) :   0.9715
B(  2-C ,  8-C ) :   0.8764 B(  2-C ,  9-H ) :   0.9052 B(  3-N ,  4-C ) :   1.0323
B(  3-N , 10-H ) :   0.8771 B(  4-C ,  5-C ) :   0.9321 B(  4-C ,  8-C ) :   0.8927
B(  4-C , 11-H ) :   0.9234 B(  5-C ,  6-O ) :   0.9509 B(  5-C , 12-H ) :   0.9226
B(  5-C , 13-H ) :   0.9107 B(  6-O ,  7-C ) :   0.9345 B(  7-C ,  8-C ) :   0.9276
B(  7-C , 14-H ) :   0.9263 B(  7-C , 15-H ) :   0.9182 B(  8-C , 16-H ) :   0.9096

MP2 TOTAL ENERGY:     -417.289262167 Eh
FINAL SINGLE POINT ENERGY      -417.289262167074

DIPOLE MOMENT
-------------
                                X             Y             Z
Electronic contribution:     -1.64737      -3.89813      -1.39785
Nuclear contribution   :      1.21461       5.68896       1.01143
                        -----------------------------------------
Total Dipole Moment    :     -0.43276       1.79083      -0.38643
                        -----------------------------------------
Magnitude (a.u.)       :      1.88247
Magnitude (Debye)      :      4.78486

                             ****ORCA TERMINATED NORMALLY****
TOTAL RUN TIME: 0 days 0 hours 17 minutes 22 seconds 18 msec
