                         Program Version 3.0.3 - RELEASE   -
|  1> ! RI-MP2 RIJK def2-TZVP def2-TZVP/C def2-TZVP/JK TIGHTSCF
|  2> % maxcore 2000
|  3> % mp2 density relaxed end
|  4> *xyz 0 1
|  5>  O        0.1646634657     1.3716614754     0.3695639413
|  6>  C        0.0232752721     0.1183936449    -0.2808414922
|  7>  C       -1.3402732152    -0.4082698926    -0.2335149408
|  8>  C       -2.4638212276    -0.8303042023    -0.1266187125
|  9>  C       -3.8282552381    -1.2819450725    -0.0186036342
| 10>  C       -4.8316906669    -0.2766154041     0.5237280303
| 11>  O       -4.5555814820     0.0553290427     1.8676142006
| 12>  C       -4.2999487946    -2.4187371584    -0.8343389060
| 13>  O       -4.0149262222    -2.6047699060     0.5477042926
| 14>  H       -0.2303748047     1.2901488789     1.2442295862
| 15>  H        0.3299566019     0.2836734743    -1.3198101578
| 16>  H        0.7110088234    -0.6351709952     0.1361235667
| 17>  H       -4.7774553267     0.6552923058    -0.0468646085
| 18>  H       -5.8412297579    -0.6980916848     0.4056807390
| 19>  H       -4.5648393138    -0.7699800104     2.3662108386
| 20>  H       -5.3519788313    -2.4728226495    -1.1128006600
| 21>  H       -3.6054795422    -2.8935536763    -1.5244012834
| 22> *
| 23>
| 24>                          ****END OF INPUT****

CARTESIAN COORDINATES (ANGSTROEM)
---------------------------------
  O      0.164663    1.371661    0.369564
  C      0.023275    0.118394   -0.280841
  C     -1.340273   -0.408270   -0.233515
  C     -2.463821   -0.830304   -0.126619
  C     -3.828255   -1.281945   -0.018604
  C     -4.831691   -0.276615    0.523728
  O     -4.555581    0.055329    1.867614
  C     -4.299949   -2.418737   -0.834339
  O     -4.014926   -2.604770    0.547704
  H     -0.230375    1.290149    1.244230
  H      0.329957    0.283673   -1.319810
  H      0.711009   -0.635171    0.136124
  H     -4.777455    0.655292   -0.046865
  H     -5.841230   -0.698092    0.405681
  H     -4.564839   -0.769980    2.366211
  H     -5.351979   -2.472823   -1.112801
  H     -3.605480   -2.893554   -1.524401

 Total Charge           Charge          ....    0
 Multiplicity           Mult            ....    1
 Number of Electrons    NEL             ....   68
 Basis Dimension        Dim             ....  327

ORBITAL ENERGIES
----------------

  NO   OCC          E(Eh)            E(eV)
   0   2.0000     -20.589110      -560.2582
   1   2.0000     -20.568518      -559.6978
   2   2.0000     -20.565875      -559.6259
   3   2.0000     -11.326321      -308.2049
   4   2.0000     -11.310853      -307.7840
   5   2.0000     -11.306058      -307.6535
   6   2.0000     -11.295865      -307.3761
   7   2.0000     -11.243536      -305.9522
   8   2.0000     -11.239437      -305.8406
   9   2.0000      -1.433200       -38.9994
  10   2.0000      -1.373542       -37.3760
  11   2.0000      -1.371203       -37.3123
  12   2.0000      -1.075098       -29.2549
  13   2.0000      -1.013835       -27.5879
  14   2.0000      -0.948709       -25.8157
  15   2.0000      -0.923352       -25.1257
  16   2.0000      -0.858276       -23.3549
  17   2.0000      -0.752762       -20.4837
  18   2.0000      -0.723297       -19.6819
  19   2.0000      -0.693461       -18.8700
  20   2.0000      -0.667311       -18.1585
  21   2.0000      -0.662297       -18.0220
  22   2.0000      -0.627996       -17.0886
  23   2.0000      -0.622973       -16.9520
  24   2.0000      -0.602563       -16.3966
  25   2.0000      -0.575536       -15.6611
  26   2.0000      -0.542316       -14.7572
  27   2.0000      -0.520884       -14.1740
  28   2.0000      -0.499199       -13.5839
  29   2.0000      -0.480643       -13.0789
  30   2.0000      -0.474220       -12.9042
  31   2.0000      -0.460124       -12.5206
  32   2.0000      -0.398213       -10.8359
  33   2.0000      -0.379502       -10.3268
  34   0.0000       0.131954         3.5907
  35   0.0000       0.145805         3.9676
  36   0.0000       0.149577         4.0702
  37   0.0000       0.164172         4.4673
  38   0.0000       0.173718         4.7271

MULLIKEN ATOMIC CHARGES
-----------------------
   0 O :   -0.458211
   1 C :   -0.052389
   2 C :    0.038175
   3 C :    0.063257
   4 C :   -0.159781
   5 C :    0.000271
   6 O :   -0.467566
   7 C :   -0.045283
   8 O :   -0.325089
   9 H :    0.325224
  10 H :    0.138033
  11 H :    0.135994
  12 H :    0.122858
  13 H :    0.105919
  14 H :    0.327712
  15 H :    0.120203
  16 H :    0.130673
Sum of atomic charges:   -0.0000000

LOEWDIN ATOMIC CHARGES
----------------------
   0 O :   -0.037715
   1 C :   -0.332575
   2 C :   -0.059800
   3 C :   -0.026228
   4 C :   -0.323354
   5 C :   -0.295862
   6 O :   -0.029576
   7 C :   -0.224607
   8 O :    0.166178
   9 H :    0.180409
  10 H :    0.145946
  11 H :    0.136691
  12 H :    0.140124
  13 H :    0.127027
  14 H :    0.182077
  15 H :    0.123130
  16 H :    0.128135

  Mayer bond orders larger than 0.1
B(  0-O ,  1-C ) :   0.9577 B(  0-O ,  9-H ) :   0.8392 B(  1-C ,  2-C ) :   0.8630
B(  1-C , 10-H ) :   0.9215 B(  1-C , 11-H ) :   0.9721 B(  2-C ,  3-C ) :   2.6861
B(  2-C ,  4-C ) :  -0.2345 B(  3-C ,  4-C ) :   1.1444 B(  4-C ,  5-C ) :   0.9712
B(  4-C ,  6-O ) :   0.1200 B(  4-C ,  7-C ) :   1.0018 B(  4-C ,  8-O ) :   0.8530
B(  5-C ,  6-O ) :   0.9311 B(  5-C , 12-H ) :   0.9297 B(  5-C , 13-H ) :   0.9033
B(  6-O , 14-H ) :   0.8362 B(  7-C ,  8-O ) :   0.9092 B(  7-C , 15-H ) :   0.9005
B(  7-C , 16-H ) :   0.9120

MP2 TOTAL ENERGY:     -458.155656270 Eh
FINAL SINGLE POINT ENERGY      -458.155656270193

DIPOLE MOMENT
-------------
                                X             Y             Z
Electronic contribution:      0.47609      -0.72634       1.27459
Nuclear contribution   :     -0.85415       0.09533      -1.76718
                        -----------------------------------------
Total Dipole Moment    :     -0.37805      -0.63100      -0.49259
                        -----------------------------------------
Magnitude (a.u.)       :      0.88529
Magnitude (Debye)      :      2.25022

                             ****ORCA TERMINATED NORMALLY****
TOTAL RUN TIME: 0 days 0 hours 14 minutes 0 seconds 408 msec
