                         Program Version 3.0.3 - RELEASE   -
|  1> ! RI-MP2 RIJK def2-TZVP def2-TZVP/C def2-TZVP/JK TIGHTSCF
|  2> % maxcore 2000
|  3> % mp2 density relaxed end
|  4> *xyz 0 1
|  5>  C       -0.0435035385     1.5360005968    -0.0099156803
|  6>  C        1.4462438935     1.9141445024    -0.0264650199
|  7>  O        2.1777443656     1.5035647590     1.1280941639
|  8>  C        2.2858547547     0.6945740845    -0.0714488116
|  9>  C        1.3507980128    -0.4493446467    -0.0631776451
| 10>  C        1.3200738639    -1.8201896372    -0.0607555185
| 11>  N       -0.0059931173    -2.1812226940     0.0219576971
| 12>  C       -0.8161725679    -1.0629410797     0.0756821234
| 13>  C        0.0097544660     0.0280161719     0.0157928512
| 14>  H       -0.5445945910     1.9737503390     0.8607825802
| 15>  H       -0.5429959128     1.9297509082    -0.9039880003
| 16>  H        1.7570540627     2.8627901847    -0.4586210530
| 17>  H        3.2751354103     0.6641188261    -0.5173719805
| 18>  H        2.0965516615    -2.5667494752    -0.1026089123
| 19>  H       -0.3404575905    -3.1287023160     0.0281826380
| 20>  H       -1.8879615229    -1.1641025138     0.1361282078
| 21> *
| 22>
| 23>                          ****END OF INPUT****

CARTESIAN COORDINATES (ANGSTROEM)
---------------------------------
  C     -0.043504    1.536001   -0.009916
  C      1.446244    1.914145   -0.026465
  O      2.177744    1.503565    1.128094
  C      2.285855    0.694574   -0.071449
  C      1.350798   -0.449345   -0.063178
  C      1.320074   -1.820190   -0.060756
  N     -0.005993   -2.181223    0.021958
  C     -0.816173   -1.062941    0.075682
  C      0.009754    0.028016    0.015793
  H     -0.544595    1.973750    0.860783
  H     -0.542996    1.929751   -0.903988
  H      1.757054    2.862790   -0.458621
  H      3.275135    0.664119   -0.517372
  H      2.096552   -2.566749   -0.102609
  H     -0.340458   -3.128702    0.028183
  H     -1.887962   -1.164103    0.136128

 Total Charge           Charge          ....    0
 Multiplicity           Mult            ....    1
 Number of Electrons    NEL             ....   64
 Basis Dimension        Dim             ....  321

ORBITAL ENERGIES
----------------

  NO   OCC          E(Eh)            E(eV)
   0   2.0000     -20.556009      -559.3574
   1   2.0000     -15.604782      -424.6277
   2   2.0000     -11.283140      -307.0298
   3   2.0000     -11.280217      -306.9503
   4   2.0000     -11.259137      -306.3767
   5   2.0000     -11.253481      -306.2228
   6   2.0000     -11.233201      -305.6709
   7   2.0000     -11.213278      -305.1288
   8   2.0000     -11.210777      -305.0608
   9   2.0000      -1.399803       -38.0906
  10   2.0000      -1.289293       -35.0835
  11   2.0000      -1.093678       -29.7605
  12   2.0000      -1.001969       -27.2650
  13   2.0000      -0.967922       -26.3385
  14   2.0000      -0.908818       -24.7302
  15   2.0000      -0.826624       -22.4936
  16   2.0000      -0.771281       -20.9876
  17   2.0000      -0.735482       -20.0135
  18   2.0000      -0.720193       -19.5975
  19   2.0000      -0.680991       -18.5307
  20   2.0000      -0.609362       -16.5816
  21   2.0000      -0.598646       -16.2900
  22   2.0000      -0.586160       -15.9502
  23   2.0000      -0.571225       -15.5438
  24   2.0000      -0.564803       -15.3691
  25   2.0000      -0.529348       -14.4043
  26   2.0000      -0.521069       -14.1790
  27   2.0000      -0.492914       -13.4129
  28   2.0000      -0.441508       -12.0140
  29   2.0000      -0.421463       -11.4686
  30   2.0000      -0.332563        -9.0495
  31   2.0000      -0.300098        -8.1661
  32   0.0000       0.132833         3.6146
  33   0.0000       0.156352         4.2546
  34   0.0000       0.159980         4.3533
  35   0.0000       0.176741         4.8094
  36   0.0000       0.179096         4.8735

MULLIKEN ATOMIC CHARGES
-----------------------
   0 C :   -0.150804
   1 C :    0.034587
   2 O :   -0.318643
   3 C :   -0.067704
   4 C :   -0.005294
   5 C :   -0.096429
   6 N :   -0.229107
   7 C :   -0.117990
   8 C :   -0.067717
   9 H :    0.122352
  10 H :    0.114816
  11 H :    0.118412
  12 H :    0.125294
  13 H :    0.148357
  14 H :    0.243188
  15 H :    0.146682
Sum of atomic charges:   -0.0000000

LOEWDIN ATOMIC CHARGES
----------------------
   0 C :   -0.193689
   1 C :   -0.242582
   2 O :    0.162776
   3 C :   -0.210383
   4 C :   -0.153207
   5 C :   -0.206157
   6 N :    0.181608
   7 C :   -0.211230
   8 C :   -0.144288
   9 H :    0.148563
  10 H :    0.144721
  11 H :    0.131105
  12 H :    0.136963
  13 H :    0.133779
  14 H :    0.189505
  15 H :    0.132517

  Mayer bond orders larger than 0.1
B(  0-C ,  1-C ) :   0.9467 B(  0-C ,  8-C ) :   0.9683 B(  0-C ,  9-H ) :   0.8878
B(  0-C , 10-H ) :   0.9023 B(  1-C ,  2-O ) :   0.9372 B(  1-C ,  3-C ) :   0.9687
B(  1-C , 11-H ) :   0.9288 B(  2-O ,  3-C ) :   0.9243 B(  3-C ,  4-C ) :   0.9155
B(  3-C , 12-H ) :   0.9379 B(  4-C ,  5-C ) :   1.4593 B(  4-C ,  8-C ) :   1.2449
B(  5-C ,  6-N ) :   1.1561 B(  5-C ,  7-C ) :   0.1044 B(  5-C , 13-H ) :   0.8981
B(  6-N ,  7-C ) :   1.1436 B(  6-N , 14-H ) :   0.8773 B(  7-C ,  8-C ) :   1.4685
B(  7-C , 15-H ) :   0.9002

MP2 TOTAL ENERGY:     -400.070674551 Eh
FINAL SINGLE POINT ENERGY      -400.070674551147

DIPOLE MOMENT
-------------
                                X             Y             Z
Electronic contribution:      1.54503      -1.13988       1.07892
Nuclear contribution   :     -2.11695       0.31897      -1.73558
                        -----------------------------------------
Total Dipole Moment    :     -0.57191      -0.82090      -0.65665
                        -----------------------------------------
Magnitude (a.u.)       :      1.19673
Magnitude (Debye)      :      3.04185

                             ****ORCA TERMINATED NORMALLY****
TOTAL RUN TIME: 0 days 0 hours 16 minutes 1 seconds 330 msec
