                         Program Version 3.0.3 - RELEASE   -
|  1> ! RI-MP2 RIJK def2-TZVP def2-TZVP/C def2-TZVP/JK TIGHTSCF
|  2> % maxcore 2000
|  3> % mp2 density relaxed end
|  4> *xyz 0 1
|  5>  C        0.1317678910     1.5427463792    -0.0554422139
|  6>  C       -0.0370293287     0.0212584601     0.0092838182
|  7>  C       -1.4727672140    -0.4687969829    -0.0126562898
|  8>  C       -2.5859537178     0.0067077014     1.0022930195
|  9>  C       -3.5360858936    -0.6092324369    -0.0826180578
| 10>  C       -2.5040245945    -0.0969550681    -1.1220096772
| 11>  C       -3.1510323587    -2.0979269685     0.0619388944
| 12>  O       -2.3447102279    -2.6415078227    -0.9972028218
| 13>  C       -1.6954519128    -2.0004663369     0.1137289971
| 14>  H        1.1910459298     1.8164126446    -0.0361290531
| 15>  H       -0.2995508457     1.9551180913    -0.9731971931
| 16>  H       -0.3533901464     2.0373731684     0.7923768344
| 17>  H        0.4995497196    -0.4398034304    -0.8308817673
| 18>  H        0.4493844328    -0.3580061051     0.9190465029
| 19>  H       -2.5903976306    -0.4454903898     1.9997890063
| 20>  H       -2.6687642911     1.0939912803     1.0811739885
| 21>  H       -4.5939754719    -0.3558674841    -0.1410210275
| 22>  H       -2.5790021080     0.9832426580    -1.2572237134
| 23>  H       -2.4366420565    -0.6107972385    -2.0795822175
| 24>  H       -3.7567402948    -2.8057637781     0.6177500942
| 25>  H       -1.0370587703    -2.6232622112     0.7118575071
| 26> *
| 27>
| 28>                          ****END OF INPUT****

CARTESIAN COORDINATES (ANGSTROEM)
---------------------------------
  C      0.131768    1.542746   -0.055442
  C     -0.037029    0.021258    0.009284
  C     -1.472767   -0.468797   -0.012656
  C     -2.585954    0.006708    1.002293
  C     -3.536086   -0.609232   -0.082618
  C     -2.504025   -0.096955   -1.122010
  C     -3.151032   -2.097927    0.061939
  O     -2.344710   -2.641508   -0.997203
  C     -1.695452   -2.000466    0.113729
  H      1.191046    1.816413   -0.036129
  H     -0.299551    1.955118   -0.973197
  H     -0.353390    2.037373    0.792377
  H      0.499550   -0.439803   -0.830882
  H      0.449384   -0.358006    0.919047
  H     -2.590398   -0.445490    1.999789
  H     -2.668764    1.093991    1.081174
  H     -4.593975   -0.355867   -0.141021
  H     -2.579002    0.983243   -1.257224
  H     -2.436642   -0.610797   -2.079582
  H     -3.756740   -2.805764    0.617750
  H     -1.037059   -2.623262    0.711858

 Total Charge           Charge          ....    0
 Multiplicity           Mult            ....    1
 Number of Electrons    NEL             ....   68
 Basis Dimension        Dim             ....  351

ORBITAL ENERGIES
----------------

  NO   OCC          E(Eh)            E(eV)
   0   2.0000     -20.560175      -559.4708
   1   2.0000     -11.277274      -306.8702
   2   2.0000     -11.275498      -306.8219
   3   2.0000     -11.245010      -305.9923
   4   2.0000     -11.239740      -305.8489
   5   2.0000     -11.231320      -305.6197
   6   2.0000     -11.224418      -305.4319
   7   2.0000     -11.220228      -305.3179
   8   2.0000     -11.216259      -305.2099
   9   2.0000      -1.405874       -38.2558
  10   2.0000      -1.168111       -31.7859
  11   2.0000      -1.039901       -28.2971
  12   2.0000      -0.935418       -25.4540
  13   2.0000      -0.928066       -25.2540
  14   2.0000      -0.892367       -24.2825
  15   2.0000      -0.841304       -22.8931
  16   2.0000      -0.764266       -20.7967
  17   2.0000      -0.744604       -20.2617
  18   2.0000      -0.686112       -18.6701
  19   2.0000      -0.657075       -17.8799
  20   2.0000      -0.624755       -17.0005
  21   2.0000      -0.614704       -16.7270
  22   2.0000      -0.566862       -15.4251
  23   2.0000      -0.555711       -15.1217
  24   2.0000      -0.549181       -14.9440
  25   2.0000      -0.524797       -14.2804
  26   2.0000      -0.512259       -13.9393
  27   2.0000      -0.497518       -13.5381
  28   2.0000      -0.481571       -13.1042
  29   2.0000      -0.466104       -12.6833
  30   2.0000      -0.445467       -12.1218
  31   2.0000      -0.431435       -11.7399
  32   2.0000      -0.426242       -11.5986
  33   2.0000      -0.389782       -10.6065
  34   0.0000       0.136365         3.7107
  35   0.0000       0.154444         4.2026
  36   0.0000       0.158536         4.3140
  37   0.0000       0.173760         4.7283
  38   0.0000       0.191450         5.2096

MULLIKEN ATOMIC CHARGES
-----------------------
   0 C :   -0.415474
   1 C :   -0.191507
   2 C :    0.131578
   3 C :   -0.308568
   4 C :   -0.012476
   5 C :   -0.306980
   6 C :   -0.041030
   7 O :   -0.327007
   8 C :   -0.047062
   9 H :    0.138025
  10 H :    0.130166
  11 H :    0.126623
  12 H :    0.122864
  13 H :    0.108546
  14 H :    0.119464
  15 H :    0.120017
  16 H :    0.135392
  17 H :    0.127692
  18 H :    0.142301
  19 H :    0.125366
  20 H :    0.122068
Sum of atomic charges:   -0.0000000

LOEWDIN ATOMIC CHARGES
----------------------
   0 C :   -0.314212
   1 C :   -0.258636
   2 C :   -0.217610
   3 C :   -0.165710
   4 C :   -0.185296
   5 C :   -0.173385
   6 C :   -0.231232
   7 O :    0.165796
   8 C :   -0.211315
   9 H :    0.122158
  10 H :    0.121473
  11 H :    0.120356
  12 H :    0.145813
  13 H :    0.142064
  14 H :    0.128159
  15 H :    0.133303
  16 H :    0.132371
  17 H :    0.139545
  18 H :    0.134772
  19 H :    0.134618
  20 H :    0.136969

  Mayer bond orders larger than 0.1
B(  0-C ,  1-C ) :   0.9265 B(  0-C ,  9-H ) :   0.9409 B(  0-C , 10-H ) :   0.9400
B(  0-C , 11-H ) :   0.9391 B(  1-C ,  2-C ) :   0.8643 B(  1-C , 12-H ) :   0.9370
B(  1-C , 13-H ) :   0.9276 B(  2-C ,  3-C ) :   0.9055 B(  2-C ,  5-C ) :   0.9340
B(  2-C ,  8-C ) :   0.7982 B(  3-C ,  4-C ) :   0.9103 B(  3-C , 14-H ) :   0.9245
B(  3-C , 15-H ) :   0.9145 B(  4-C ,  5-C ) :   0.9358 B(  4-C ,  6-C ) :   0.8401
B(  4-C , 16-H ) :   0.9077 B(  5-C , 17-H ) :   0.9351 B(  5-C , 18-H ) :   0.9012
B(  6-C ,  7-O ) :   0.9410 B(  6-C ,  8-C ) :   0.9932 B(  6-C , 19-H ) :   0.9348
B(  7-O ,  8-C ) :   0.9719 B(  8-C , 20-H ) :   0.9425

MP2 TOTAL ENERGY:     -386.376931020 Eh
FINAL SINGLE POINT ENERGY      -386.376931019805

DIPOLE MOMENT
-------------
                                X             Y             Z
Electronic contribution:     -4.13897      -7.55455      -1.60384
Nuclear contribution   :      4.17372       8.04362       2.20742
                        -----------------------------------------
Total Dipole Moment    :      0.03475       0.48907       0.60358
                        -----------------------------------------
Magnitude (a.u.)       :      0.77763
Magnitude (Debye)      :      1.97657

                             ****ORCA TERMINATED NORMALLY****
TOTAL RUN TIME: 0 days 0 hours 21 minutes 25 seconds 192 msec
