                         Program Version 3.0.3 - RELEASE   -
|  1> ! RI-MP2 RIJK def2-TZVP def2-TZVP/C def2-TZVP/JK TIGHTSCF
|  2> % maxcore 2000
|  3> % mp2 density relaxed end
|  4> *xyz 0 1
|  5>  C        0.7575088381     1.6460336046    -0.0935004647
|  6>  C        0.0241448306     0.3037713115     0.0254207566
|  7>  C        0.1000418244    -0.4793011701    -1.2950415238
|  8>  C       -0.6261005731    -1.8453041437    -1.3060783499
|  9>  C        0.1573783320    -2.9321291010    -0.5921393850
| 10>  O        0.6737134494    -3.8577983139    -1.1740771932
| 11>  C        0.2879905708    -2.8322459557     0.9331382134
| 12>  O       -0.1974918886    -1.6484877555     1.5134292815
| 13>  C        0.5607583041    -0.4814247107     1.2289700255
| 14>  H        1.8269939094     1.4976590933    -0.2845417841
| 15>  H        0.3548738822     2.2422507189    -0.9180042242
| 16>  H        0.6616993444     2.2362145593     0.8237646252
| 17>  H       -1.0360351677     0.5030069852     0.2355942877
| 18>  H       -0.3392715788     0.1392975121    -2.0856895533
| 19>  H        1.1514040510    -0.6272520371    -1.5784740223
| 20>  H       -1.6098426489    -1.7372487067    -0.8329817887
| 21>  H       -0.7667905006    -2.1851896112    -2.3349979636
| 22>  H       -0.2955507080    -3.6560461419     1.3610408364
| 23>  H        1.3424293114    -3.0165590438     1.1911360325
| 24>  H        1.6213435289    -0.7411290367     1.0771743700
| 25>  H        0.5040718593     0.1471775231     2.1251553340
| 26> *
| 27>
| 28>                          ****END OF INPUT****

CARTESIAN COORDINATES (ANGSTROEM)
---------------------------------
  C      0.757509    1.646034   -0.093500
  C      0.024145    0.303771    0.025421
  C      0.100042   -0.479301   -1.295042
  C     -0.626101   -1.845304   -1.306078
  C      0.157378   -2.932129   -0.592139
  O      0.673713   -3.857798   -1.174077
  C      0.287991   -2.832246    0.933138
  O     -0.197492   -1.648488    1.513429
  C      0.560758   -0.481425    1.228970
  H      1.826994    1.497659   -0.284542
  H      0.354874    2.242251   -0.918004
  H      0.661699    2.236215    0.823765
  H     -1.036035    0.503007    0.235594
  H     -0.339272    0.139298   -2.085690
  H      1.151404   -0.627252   -1.578474
  H     -1.609843   -1.737249   -0.832982
  H     -0.766791   -2.185190   -2.334998
  H     -0.295551   -3.656046    1.361041
  H      1.342429   -3.016559    1.191136
  H      1.621344   -0.741129    1.077174
  H      0.504072    0.147178    2.125155

 Total Charge           Charge          ....    0
 Multiplicity           Mult            ....    1
 Number of Electrons    NEL             ....   70
 Basis Dimension        Dim             ....  351

ORBITAL ENERGIES
----------------

  NO   OCC          E(Eh)            E(eV)
   0   2.0000     -20.568570      -559.6992
   1   2.0000     -20.545682      -559.0764
   2   2.0000     -11.328633      -308.2678
   3   2.0000     -11.289593      -307.2054
   4   2.0000     -11.284342      -307.0626
   5   2.0000     -11.240187      -305.8610
   6   2.0000     -11.239185      -305.8338
   7   2.0000     -11.237418      -305.7857
   8   2.0000     -11.226574      -305.4906
   9   2.0000      -1.397589       -38.0303
  10   2.0000      -1.382974       -37.6326
  11   2.0000      -1.106345       -30.1052
  12   2.0000      -1.046746       -28.4834
  13   2.0000      -0.976654       -26.5761
  14   2.0000      -0.910563       -24.7777
  15   2.0000      -0.895109       -24.3571
  16   2.0000      -0.791690       -21.5430
  17   2.0000      -0.743745       -20.2383
  18   2.0000      -0.694732       -18.9046
  19   2.0000      -0.676386       -18.4054
  20   2.0000      -0.661152       -17.9909
  21   2.0000      -0.622652       -16.9432
  22   2.0000      -0.608162       -16.5489
  23   2.0000      -0.607276       -16.5248
  24   2.0000      -0.580716       -15.8021
  25   2.0000      -0.573507       -15.6059
  26   2.0000      -0.547009       -14.8849
  27   2.0000      -0.542032       -14.7494
  28   2.0000      -0.517120       -14.0716
  29   2.0000      -0.505592       -13.7579
  30   2.0000      -0.480345       -13.0709
  31   2.0000      -0.475274       -12.9329
  32   2.0000      -0.466101       -12.6833
  33   2.0000      -0.441236       -12.0066
  34   2.0000      -0.396820       -10.7980
  35   0.0000       0.120636         3.2827
  36   0.0000       0.141108         3.8397
  37   0.0000       0.151493         4.1223
  38   0.0000       0.162154         4.4124
  39   0.0000       0.171310         4.6616

MULLIKEN ATOMIC CHARGES
-----------------------
   0 C :   -0.404637
   1 C :   -0.050691
   2 C :   -0.281159
   3 C :   -0.152369
   4 C :    0.126648
   5 O :   -0.279768
   6 C :   -0.077389
   7 O :   -0.313861
   8 C :   -0.086076
   9 H :    0.128461
  10 H :    0.137403
  11 H :    0.137293
  12 H :    0.089361
  13 H :    0.135364
  14 H :    0.126054
  15 H :    0.125443
  16 H :    0.136869
  17 H :    0.146311
  18 H :    0.124743
  19 H :    0.102611
  20 H :    0.129388
Sum of atomic charges:   -0.0000000

LOEWDIN ATOMIC CHARGES
----------------------
   0 C :   -0.290808
   1 C :   -0.293351
   2 C :   -0.236238
   3 C :   -0.228149
   4 C :   -0.332505
   5 O :    0.150517
   6 C :   -0.304026
   7 O :    0.162444
   8 C :   -0.292281
   9 H :    0.124805
  10 H :    0.126039
  11 H :    0.125060
  12 H :    0.155141
  13 H :    0.145228
  14 H :    0.144105
  15 H :    0.153155
  16 H :    0.148617
  17 H :    0.147925
  18 H :    0.135184
  19 H :    0.126205
  20 H :    0.132934

  Mayer bond orders larger than 0.1
B(  0-C ,  1-C ) :   0.9130 B(  0-C ,  9-H ) :   0.9292 B(  0-C , 10-H ) :   0.9377
B(  0-C , 11-H ) :   0.9399 B(  1-C ,  2-C ) :   0.9317 B(  1-C ,  8-C ) :   0.9292
B(  1-C , 12-H ) :   0.9195 B(  2-C ,  3-C ) :   0.8799 B(  2-C , 13-H ) :   0.9294
B(  2-C , 14-H ) :   0.9269 B(  3-C ,  4-C ) :   0.9195 B(  3-C , 15-H ) :   0.9030
B(  3-C , 16-H ) :   0.9226 B(  4-C ,  5-O ) :   2.0183 B(  4-C ,  6-C ) :   0.8695
B(  6-C ,  7-O ) :   0.9426 B(  6-C , 17-H ) :   0.9119 B(  6-C , 18-H ) :   0.9352
B(  7-O ,  8-C ) :   0.9049 B(  8-C , 19-H ) :   0.9332 B(  8-C , 20-H ) :   0.9309

MP2 TOTAL ENERGY:     -423.545393513 Eh
FINAL SINGLE POINT ENERGY      -423.545393512820

DIPOLE MOMENT
-------------
                                X             Y             Z
Electronic contribution:     -0.99297      -9.23844       0.51487
Nuclear contribution   :      0.90242      10.26495      -0.34736
                        -----------------------------------------
Total Dipole Moment    :     -0.09054       1.02651       0.16751
                        -----------------------------------------
Magnitude (a.u.)       :      1.04402
Magnitude (Debye)      :      2.65370

                             ****ORCA TERMINATED NORMALLY****
TOTAL RUN TIME: 0 days 0 hours 19 minutes 16 seconds 264 msec
