                         Program Version 3.0.3 - RELEASE   -
|  1> ! RI-MP2 RIJK def2-TZVP def2-TZVP/C def2-TZVP/JK TIGHTSCF
|  2> % maxcore 2000
|  3> % mp2 density relaxed end
|  4> *xyz 0 1
|  5>  C        0.0419330746     1.3625209028    -0.0393284122
|  6>  N        0.0501571712    -0.0836829140     0.0353613156
|  7>  N        0.1747342921    -0.8155347563    -1.0877997924
|  8>  C        0.1466191583    -2.0831484245    -0.6827497998
|  9>  O        0.2477652911    -3.1057846131    -1.5491884928
| 10>  C        0.0034638428    -2.1984762162     0.7089967299
| 11>  C       -0.0555953623    -0.8790637800     1.1385438578
| 12>  C       -0.1968245119    -0.3506578912     2.4436611692
| 13>  N       -0.3120227187     0.0951798911     3.5066608900
| 14>  H        0.9781615903     1.7191837445    -0.4762843999
| 15>  H       -0.7925712911     1.6996983119    -0.6594779640
| 16>  H       -0.0667253419     1.7652778228     0.9680759696
| 17>  H        0.3354500879    -2.7291209049    -2.4340139589
| 18>  H       -0.0492001023    -3.0887749829     1.3108292278
| 19> *
| 20>
| 21>                          ****END OF INPUT****

CARTESIAN COORDINATES (ANGSTROEM)
---------------------------------
  C      0.041933    1.362521   -0.039328
  N      0.050157   -0.083683    0.035361
  N      0.174734   -0.815535   -1.087800
  C      0.146619   -2.083148   -0.682750
  O      0.247765   -3.105785   -1.549188
  C      0.003464   -2.198476    0.708997
  C     -0.055595   -0.879064    1.138544
  C     -0.196825   -0.350658    2.443661
  N     -0.312023    0.095180    3.506661
  H      0.978162    1.719184   -0.476284
  H     -0.792571    1.699698   -0.659478
  H     -0.066725    1.765278    0.968076
  H      0.335450   -2.729121   -2.434014
  H     -0.049200   -3.088775    1.310829

 Total Charge           Charge          ....    0
 Multiplicity           Mult            ....    1
 Number of Electrons    NEL             ....   64
 Basis Dimension        Dim             ....  309

ORBITAL ENERGIES
----------------

  NO   OCC          E(Eh)            E(eV)
   0   2.0000     -20.608113      -560.7753
   1   2.0000     -15.671797      -426.4513
   2   2.0000     -15.605140      -424.6374
   3   2.0000     -15.598728      -424.4630
   4   2.0000     -11.341225      -308.6104
   5   2.0000     -11.332464      -308.3720
   6   2.0000     -11.299952      -307.4873
   7   2.0000     -11.290955      -307.2425
   8   2.0000     -11.254372      -306.2470
   9   2.0000      -1.445053       -39.3219
  10   2.0000      -1.396198       -37.9925
  11   2.0000      -1.241967       -33.7956
  12   2.0000      -1.144550       -31.1448
  13   2.0000      -1.106299       -30.1039
  14   2.0000      -0.971503       -26.4359
  15   2.0000      -0.893301       -24.3080
  16   2.0000      -0.834639       -22.7117
  17   2.0000      -0.793706       -21.5978
  18   2.0000      -0.701892       -19.0994
  19   2.0000      -0.687635       -18.7115
  20   2.0000      -0.657846       -17.9009
  21   2.0000      -0.632540       -17.2123
  22   2.0000      -0.613786       -16.7020
  23   2.0000      -0.599887       -16.3238
  24   2.0000      -0.582974       -15.8635
  25   2.0000      -0.570829       -15.5331
  26   2.0000      -0.559938       -15.2367
  27   2.0000      -0.508017       -13.8238
  28   2.0000      -0.507977       -13.8228
  29   2.0000      -0.477829       -13.0024
  30   2.0000      -0.372977       -10.1492
  31   2.0000      -0.354681        -9.6514
  32   0.0000       0.078736         2.1425
  33   0.0000       0.133573         3.6347
  34   0.0000       0.141291         3.8447
  35   0.0000       0.159733         4.3465
  36   0.0000       0.169514         4.6127

MULLIKEN ATOMIC CHARGES
-----------------------
   0 C :   -0.313868
   1 N :    0.075689
   2 N :   -0.251009
   3 C :    0.220568
   4 O :   -0.421900
   5 C :   -0.262674
   6 C :    0.208381
   7 C :   -0.214413
   8 N :   -0.043954
   9 H :    0.160588
  10 H :    0.160578
  11 H :    0.169576
  12 H :    0.342693
  13 H :    0.169744
Sum of atomic charges:    0.0000000

LOEWDIN ATOMIC CHARGES
----------------------
   0 C :   -0.260321
   1 N :    0.207033
   2 N :    0.054843
   3 C :   -0.408648
   4 O :    0.083487
   5 C :   -0.120180
   6 C :   -0.229866
   7 C :   -0.160214
   8 N :    0.081859
   9 H :    0.129455
  10 H :    0.129451
  11 H :    0.137281
  12 H :    0.201910
  13 H :    0.153911

  Mayer bond orders larger than 0.1
B(  0-C ,  1-N ) :   0.8653 B(  0-C ,  9-H ) :   0.9265 B(  0-C , 10-H ) :   0.9265
B(  0-C , 11-H ) :   0.9204 B(  1-N ,  2-N ) :   1.0098 B(  1-N ,  6-C ) :   1.2241
B(  2-N ,  3-C ) :   1.4529 B(  3-C ,  4-O ) :   1.1220 B(  3-C ,  5-C ) :   1.3395
B(  4-O , 12-H ) :   0.8163 B(  5-C ,  6-C ) :   1.3335 B(  5-C , 13-H ) :   0.9126
B(  6-C ,  7-C ) :   0.8857 B(  7-C ,  8-N ) :   2.8355

MP2 TOTAL ENERGY:     -432.183332996 Eh
FINAL SINGLE POINT ENERGY      -432.183332995532

DIPOLE MOMENT
-------------
                                X             Y             Z
Electronic contribution:     -0.17446      -3.25430       2.02759
Nuclear contribution   :      0.29019       3.62878      -3.18269
                        -----------------------------------------
Total Dipole Moment    :      0.11572       0.37448      -1.15510
                        -----------------------------------------
Magnitude (a.u.)       :      1.21979
Magnitude (Debye)      :      3.10045

                             ****ORCA TERMINATED NORMALLY****
TOTAL RUN TIME: 0 days 0 hours 16 minutes 3 seconds 942 msec
