                         Program Version 3.0.3 - RELEASE   -
|  1> ! RI-MP2 RIJK def2-TZVP def2-TZVP/C def2-TZVP/JK TIGHTSCF
|  2> % maxcore 2000
|  3> % mp2 density relaxed end
|  4> *xyz 0 1
|  5>  O       -0.0635701554     0.0330925558     0.1959718288
|  6>  C        0.0874878757     1.1663744010    -0.1809210052
|  7>  C        1.3823462395     1.9183134621    -0.0548010398
|  8>  C        1.4789549248     2.8547133730     1.1853244551
|  9>  C        2.5531642470     3.8667347910     0.6833410378
| 10>  C        2.8237867235     3.3026274253    -0.7239643270
| 11>  O        3.6132358664     2.1229296766    -0.6094481498
| 12>  C        2.6926878553     1.1117083632    -0.1645808739
| 13>  O        1.5484054355     2.8453518008    -1.1414273869
| 14>  H       -0.7372771495     1.7589165223    -0.6333286010
| 15>  H        0.5196764995     3.3435427732     1.3723806558
| 16>  H        1.7688799421     2.3096208222     2.0852801791
| 17>  H        2.1606859130     4.8848981946     0.6315131034
| 18>  H        3.4608398591     3.8682246773     1.2889464506
| 19>  H        3.2648337709     3.9693062678    -1.4639395262
| 20>  H        3.0151234906     0.6871821558     0.7904394160
| 21>  H        2.6231891821     0.3140909879    -0.9109158268
| 22> *
| 23>
| 24>                          ****END OF INPUT****

CARTESIAN COORDINATES (ANGSTROEM)
---------------------------------
  O     -0.063570    0.033093    0.195972
  C      0.087488    1.166374   -0.180921
  C      1.382346    1.918313   -0.054801
  C      1.478955    2.854713    1.185324
  C      2.553164    3.866735    0.683341
  C      2.823787    3.302627   -0.723964
  O      3.613236    2.122930   -0.609448
  C      2.692688    1.111708   -0.164581
  O      1.548405    2.845352   -1.141427
  H     -0.737277    1.758917   -0.633329
  H      0.519676    3.343543    1.372381
  H      1.768880    2.309621    2.085280
  H      2.160686    4.884898    0.631513
  H      3.460840    3.868225    1.288946
  H      3.264834    3.969306   -1.463940
  H      3.015123    0.687182    0.790439
  H      2.623189    0.314091   -0.910916

 Total Charge           Charge          ....    0
 Multiplicity           Mult            ....    1
 Number of Electrons    NEL             ....   68
 Basis Dimension        Dim             ....  327

ORBITAL ENERGIES
----------------

  NO   OCC          E(Eh)            E(eV)
   0   2.0000     -20.583138      -560.0957
   1   2.0000     -20.574319      -559.8557
   2   2.0000     -20.569148      -559.7150
   3   2.0000     -11.346349      -308.7498
   4   2.0000     -11.345488      -308.7264
   5   2.0000     -11.312519      -307.8293
   6   2.0000     -11.290622      -307.2334
   7   2.0000     -11.253322      -306.2185
   8   2.0000     -11.242711      -305.9297
   9   2.0000      -1.462720       -39.8026
  10   2.0000      -1.412205       -38.4280
  11   2.0000      -1.343408       -36.5560
  12   2.0000      -1.084124       -29.5005
  13   2.0000      -1.053637       -28.6709
  14   2.0000      -0.914867       -24.8948
  15   2.0000      -0.881079       -23.9754
  16   2.0000      -0.828885       -22.5551
  17   2.0000      -0.785981       -21.3876
  18   2.0000      -0.733138       -19.9497
  19   2.0000      -0.700880       -19.0719
  20   2.0000      -0.673689       -18.3320
  21   2.0000      -0.670889       -18.2558
  22   2.0000      -0.621448       -16.9105
  23   2.0000      -0.594290       -16.1715
  24   2.0000      -0.589999       -16.0547
  25   2.0000      -0.569965       -15.5095
  26   2.0000      -0.556466       -15.1422
  27   2.0000      -0.534004       -14.5310
  28   2.0000      -0.520623       -14.1669
  29   2.0000      -0.511533       -13.9195
  30   2.0000      -0.498712       -13.5706
  31   2.0000      -0.459993       -12.5171
  32   2.0000      -0.434779       -11.8309
  33   2.0000      -0.429127       -11.6771
  34   0.0000       0.115627         3.1464
  35   0.0000       0.132998         3.6191
  36   0.0000       0.159064         4.3284
  37   0.0000       0.169552         4.6137
  38   0.0000       0.182972         4.9789

MULLIKEN ATOMIC CHARGES
-----------------------
   0 O :   -0.254258
   1 C :    0.053553
   2 C :    0.232389
   3 C :   -0.274682
   4 C :   -0.197912
   5 C :    0.144091
   6 O :   -0.317482
   7 C :   -0.048153
   8 O :   -0.311837
   9 H :    0.103596
  10 H :    0.128112
  11 H :    0.138433
  12 H :    0.120917
  13 H :    0.123766
  14 H :    0.134755
  15 H :    0.109070
  16 H :    0.115644
Sum of atomic charges:   -0.0000000

LOEWDIN ATOMIC CHARGES
----------------------
   0 O :    0.151963
   1 C :   -0.243838
   2 C :   -0.344719
   3 C :   -0.195487
   4 C :   -0.228090
   5 C :   -0.371351
   6 O :    0.159391
   7 C :   -0.234146
   8 O :    0.221536
   9 H :    0.122840
  10 H :    0.141385
  11 H :    0.142095
  12 H :    0.138004
  13 H :    0.141648
  14 H :    0.137840
  15 H :    0.130700
  16 H :    0.130230

  Mayer bond orders larger than 0.1
B(  0-O ,  1-C ) :   2.0094 B(  1-C ,  2-C ) :   0.7843 B(  1-C ,  9-H ) :   0.9568
B(  2-C ,  3-C ) :   0.9198 B(  2-C ,  7-C ) :   0.9573 B(  2-C ,  8-O ) :   0.9038
B(  3-C ,  4-C ) :   0.9631 B(  3-C , 10-H ) :   0.9126 B(  3-C , 11-H ) :   0.9183
B(  4-C ,  5-C ) :   0.9585 B(  4-C , 12-H ) :   0.9138 B(  4-C , 13-H ) :   0.9166
B(  5-C ,  6-O ) :   0.9775 B(  5-C ,  8-O ) :   0.9705 B(  5-C , 14-H ) :   0.9192
B(  6-O ,  7-C ) :   0.9330 B(  7-C , 15-H ) :   0.9068 B(  7-C , 16-H ) :   0.9183

MP2 TOTAL ENERGY:     -458.245415254 Eh
FINAL SINGLE POINT ENERGY      -458.245415253562

DIPOLE MOMENT
-------------
                                X             Y             Z
Electronic contribution:     -1.55869      -2.98493      -3.22949
Nuclear contribution   :      1.59838       3.86838       3.69329
                        -----------------------------------------
Total Dipole Moment    :      0.03968       0.88345       0.46380
                        -----------------------------------------
Magnitude (a.u.)       :      0.99859
Magnitude (Debye)      :      2.53820

                             ****ORCA TERMINATED NORMALLY****
TOTAL RUN TIME: 0 days 0 hours 18 minutes 29 seconds 368 msec
