                         Program Version 3.0.3 - RELEASE   -
|  1> ! RI-MP2 RIJK def2-TZVP def2-TZVP/C def2-TZVP/JK TIGHTSCF
|  2> % maxcore 2000
|  3> % mp2 density relaxed end
|  4> *xyz 0 1
|  5>  O       -0.1230081171     0.4837593342     0.8718803254
|  6>  C        0.5285643611     1.4738259426     1.1000222711
|  7>  C        1.5447523784     1.9918140432     0.2128000375
|  8>  C        2.4024596693     2.4448421097    -0.5105624056
|  9>  C        3.3722030314     3.0269396371    -1.4252604513
| 10>  O        3.0346656851     3.7773016924    -2.3134101966
| 11>  C        4.8073468450     2.6531248030    -1.2045970163
| 12>  C        5.3866246516     2.6782087917     0.1559833692
| 13>  O        5.0634175616     1.4528412182    -0.4804134470
| 14>  H        0.3931075673     2.0698508386     2.0243760077
| 15>  H        5.4470939773     2.8529218687    -2.0615942316
| 16>  H        6.4477362152     2.8979646781     0.2575439073
| 17>  H        4.7587228540     2.9465932625     1.0033339102
| 18> *
| 19>
| 20>                          ****END OF INPUT****

CARTESIAN COORDINATES (ANGSTROEM)
---------------------------------
  O     -0.123008    0.483759    0.871880
  C      0.528564    1.473826    1.100022
  C      1.544752    1.991814    0.212800
  C      2.402460    2.444842   -0.510562
  C      3.372203    3.026940   -1.425260
  O      3.034666    3.777302   -2.313410
  C      4.807347    2.653125   -1.204597
  C      5.386625    2.678209    0.155983
  O      5.063418    1.452841   -0.480413
  H      0.393108    2.069851    2.024376
  H      5.447094    2.852922   -2.061594
  H      6.447736    2.897965    0.257544
  H      4.758723    2.946593    1.003334

 Total Charge           Charge          ....    0
 Multiplicity           Mult            ....    1
 Number of Electrons    NEL             ....   64
 Basis Dimension        Dim             ....  303

ORBITAL ENERGIES
----------------

  NO   OCC          E(Eh)            E(eV)
   0   2.0000     -20.611886      -560.8779
   1   2.0000     -20.590708      -560.3017
   2   2.0000     -20.589677      -560.2736
   3   2.0000     -11.389064      -309.9122
   4   2.0000     -11.380297      -309.6736
   5   2.0000     -11.328631      -308.2677
   6   2.0000     -11.324565      -308.1571
   7   2.0000     -11.291237      -307.2502
   8   2.0000     -11.286986      -307.1345
   9   2.0000      -1.459904       -39.7260
  10   2.0000      -1.428767       -38.8787
  11   2.0000      -1.426260       -38.8105
  12   2.0000      -1.103214       -30.0200
  13   2.0000      -1.016092       -27.6493
  14   2.0000      -0.951840       -25.9009
  15   2.0000      -0.922747       -25.1092
  16   2.0000      -0.858151       -23.3515
  17   2.0000      -0.751068       -20.4376
  18   2.0000      -0.737222       -20.0608
  19   2.0000      -0.726173       -19.7602
  20   2.0000      -0.681352       -18.5405
  21   2.0000      -0.676654       -18.4127
  22   2.0000      -0.619534       -16.8584
  23   2.0000      -0.597570       -16.2607
  24   2.0000      -0.582452       -15.8493
  25   2.0000      -0.575650       -15.6642
  26   2.0000      -0.509074       -13.8526
  27   2.0000      -0.479622       -13.0512
  28   2.0000      -0.475542       -12.9402
  29   2.0000      -0.465985       -12.6801
  30   2.0000      -0.440662       -11.9910
  31   2.0000      -0.437485       -11.9046
  32   0.0000       0.054504         1.4831
  33   0.0000       0.060243         1.6393
  34   0.0000       0.140918         3.8346
  35   0.0000       0.154035         4.1915
  36   0.0000       0.166486         4.5303

MULLIKEN ATOMIC CHARGES
-----------------------
   0 O :   -0.233740
   1 C :    0.043971
   2 C :    0.054387
   3 C :    0.086911
   4 C :    0.115331
   5 O :   -0.246004
   6 C :    0.000374
   7 C :   -0.072791
   8 O :   -0.301831
   9 H :    0.115025
  10 H :    0.160197
  11 H :    0.140424
  12 H :    0.137745
Sum of atomic charges:    0.0000000

LOEWDIN ATOMIC CHARGES
----------------------
   0 O :    0.167847
   1 C :   -0.283760
   2 C :   -0.012226
   3 C :    0.021444
   4 C :   -0.315684
   5 O :    0.197227
   6 C :   -0.247105
   7 C :   -0.245372
   8 O :    0.182878
   9 H :    0.128603
  10 H :    0.151757
  11 H :    0.127324
  12 H :    0.127068

  Mayer bond orders larger than 0.1
B(  0-O ,  1-C ) :   2.0111 B(  1-C ,  2-C ) :   0.8637 B(  1-C ,  9-H ) :   0.9930
B(  2-C ,  3-C ) :   2.6460 B(  3-C ,  4-C ) :   0.8953 B(  3-C ,  6-C ) :  -0.1376
B(  4-C ,  5-O ) :   1.9766 B(  4-C ,  6-C ) :   0.9952 B(  6-C ,  7-C ) :   0.9306
B(  6-C ,  8-O ) :   0.9267 B(  6-C , 10-H ) :   0.9230 B(  7-C ,  8-O ) :   0.8933
B(  7-C , 11-H ) :   0.9199 B(  7-C , 12-H ) :   0.9114

MP2 TOTAL ENERGY:     -455.758131164 Eh
FINAL SINGLE POINT ENERGY      -455.758131164349

DIPOLE MOMENT
-------------
                                X             Y             Z
Electronic contribution:     -4.02002      -1.00470      -1.74726
Nuclear contribution   :      5.05017       1.81292       2.63705
                        -----------------------------------------
Total Dipole Moment    :      1.03015       0.80821       0.88979
                        -----------------------------------------
Magnitude (a.u.)       :      1.58308
Magnitude (Debye)      :      4.02387

                             ****ORCA TERMINATED NORMALLY****
TOTAL RUN TIME: 0 days 0 hours 11 minutes 1 seconds 670 msec
