                         Program Version 3.0.3 - RELEASE   -
|  1> ! RI-MP2 RIJK def2-TZVP def2-TZVP/C def2-TZVP/JK TIGHTSCF
|  2> % maxcore 2000
|  3> % mp2 density relaxed end
|  4> *xyz 0 1
|  5>  C       -0.1764546153     1.5411744689     0.0602521934
|  6>  C        0.0639802457     0.0355791910     0.0022501969
|  7>  C        0.8660900822    -0.5348288384    -1.2030616888
|  8>  C        2.2076617570     0.2333570230    -1.2912858778
|  9>  C        2.9850978410     0.1088109901     0.0382323235
| 10>  O        2.1694559997     0.2069907709     1.2063269825
| 11>  C        0.9435416424    -0.5429538037     1.1331000191
| 12>  C        1.1743465057    -1.9616063353     0.6274007280
| 13>  C        1.1312091387    -1.9516288896    -0.7064206554
| 14>  H        0.7471991374     2.0964298690     0.2346192171
| 15>  H       -0.6313856565     1.9055093790    -0.8676845718
| 16>  H       -0.8624333112     1.7836827674     0.8792118605
| 17>  H       -0.9011344045    -0.4830379008     0.0306210001
| 18>  H        0.3257766227    -0.4879958464    -2.1531796344
| 19>  H        2.8364615906    -0.1603441453    -2.0986597716
| 20>  H        2.0079161625     1.2834044872    -1.5278300143
| 21>  H        3.5270135769    -0.8462081740     0.0462059545
| 22>  H        3.7262642007     0.9079874330     0.1319615272
| 23>  H        0.5089066444    -0.4701378168     2.1327115664
| 24>  H        1.4231020214    -2.8010719129     1.2650769581
| 25>  H        1.3285940286    -2.7915416463    -1.3634023834
| 26> *
| 27>
| 28>                          ****END OF INPUT****

CARTESIAN COORDINATES (ANGSTROEM)
---------------------------------
  C     -0.176455    1.541174    0.060252
  C      0.063980    0.035579    0.002250
  C      0.866090   -0.534829   -1.203062
  C      2.207662    0.233357   -1.291286
  C      2.985098    0.108811    0.038232
  O      2.169456    0.206991    1.206327
  C      0.943542   -0.542954    1.133100
  C      1.174347   -1.961606    0.627401
  C      1.131209   -1.951629   -0.706421
  H      0.747199    2.096430    0.234619
  H     -0.631386    1.905509   -0.867685
  H     -0.862433    1.783683    0.879212
  H     -0.901134   -0.483038    0.030621
  H      0.325777   -0.487996   -2.153180
  H      2.836462   -0.160344   -2.098660
  H      2.007916    1.283404   -1.527830
  H      3.527014   -0.846208    0.046206
  H      3.726264    0.907987    0.131962
  H      0.508907   -0.470138    2.132712
  H      1.423102   -2.801072    1.265077
  H      1.328594   -2.791542   -1.363402

 Total Charge           Charge          ....    0
 Multiplicity           Mult            ....    1
 Number of Electrons    NEL             ....   68
 Basis Dimension        Dim             ....  351

ORBITAL ENERGIES
----------------

  NO   OCC          E(Eh)            E(eV)
   0   2.0000     -20.543396      -559.0142
   1   2.0000     -11.275481      -306.8214
   2   2.0000     -11.265768      -306.5571
   3   2.0000     -11.233707      -305.6847
   4   2.0000     -11.230045      -305.5851
   5   2.0000     -11.223457      -305.4058
   6   2.0000     -11.223123      -305.3967
   7   2.0000     -11.221558      -305.3541
   8   2.0000     -11.208002      -304.9852
   9   2.0000      -1.360970       -37.0339
  10   2.0000      -1.141527       -31.0625
  11   2.0000      -1.036358       -28.2007
  12   2.0000      -1.013652       -27.5829
  13   2.0000      -0.909630       -24.7523
  14   2.0000      -0.895215       -24.3600
  15   2.0000      -0.840094       -22.8601
  16   2.0000      -0.735063       -20.0021
  17   2.0000      -0.724161       -19.7054
  18   2.0000      -0.699838       -19.0435
  19   2.0000      -0.644691       -17.5429
  20   2.0000      -0.633802       -17.2466
  21   2.0000      -0.596782       -16.2393
  22   2.0000      -0.582122       -15.8403
  23   2.0000      -0.564334       -15.3563
  24   2.0000      -0.551548       -15.0084
  25   2.0000      -0.539835       -14.6897
  26   2.0000      -0.522050       -14.2057
  27   2.0000      -0.513348       -13.9689
  28   2.0000      -0.489103       -13.3092
  29   2.0000      -0.457231       -12.4419
  30   2.0000      -0.449715       -12.2374
  31   2.0000      -0.436932       -11.8895
  32   2.0000      -0.394694       -10.7402
  33   2.0000      -0.354707        -9.6521
  34   0.0000       0.133322         3.6279
  35   0.0000       0.139851         3.8055
  36   0.0000       0.162201         4.4137
  37   0.0000       0.171738         4.6732
  38   0.0000       0.174339         4.7440

MULLIKEN ATOMIC CHARGES
-----------------------
   0 C :   -0.438773
   1 C :   -0.103622
   2 C :    0.066720
   3 C :   -0.310617
   4 C :   -0.045454
   5 O :   -0.332119
   6 C :    0.136298
   7 C :   -0.236388
   8 C :   -0.210525
   9 H :    0.145136
  10 H :    0.131981
  11 H :    0.132058
  12 H :    0.099602
  13 H :    0.115530
  14 H :    0.121684
  15 H :    0.125874
  16 H :    0.102912
  17 H :    0.124832
  18 H :    0.114552
  19 H :    0.129856
  20 H :    0.130462
Sum of atomic charges:    0.0000000

LOEWDIN ATOMIC CHARGES
----------------------
   0 C :   -0.293964
   1 C :   -0.226192
   2 C :   -0.204697
   3 C :   -0.238737
   4 C :   -0.306853
   5 O :    0.162523
   6 C :   -0.262472
   7 C :   -0.134266
   8 C :   -0.120381
   9 H :    0.126213
  10 H :    0.124468
  11 H :    0.126058
  12 H :    0.158783
  13 H :    0.146051
  14 H :    0.140493
  15 H :    0.138754
  16 H :    0.122877
  17 H :    0.128545
  18 H :    0.141056
  19 H :    0.135536
  20 H :    0.136207

  Mayer bond orders larger than 0.1
B(  0-C ,  1-C ) :   0.8931 B(  0-C ,  9-H ) :   0.9330 B(  0-C , 10-H ) :   0.9421
B(  0-C , 11-H ) :   0.9378 B(  1-C ,  2-C ) :   0.8978 B(  1-C ,  6-C ) :   0.9320
B(  1-C , 12-H ) :   0.9176 B(  2-C ,  3-C ) :   0.8719 B(  2-C ,  8-C ) :   0.9080
B(  2-C , 13-H ) :   0.9219 B(  3-C ,  4-C ) :   0.9499 B(  3-C , 14-H ) :   0.9215
B(  3-C , 15-H ) :   0.9258 B(  4-C ,  5-O ) :   0.9298 B(  4-C , 16-H ) :   0.9330
B(  4-C , 17-H ) :   0.9301 B(  5-O ,  6-C ) :   0.9042 B(  6-C ,  7-C ) :   0.9267
B(  6-C , 18-H ) :   0.9329 B(  7-C ,  8-C ) :   1.7708 B(  7-C , 19-H ) :   0.9349
B(  8-C , 20-H ) :   0.9306

MP2 TOTAL ENERGY:     -386.425959032 Eh
FINAL SINGLE POINT ENERGY      -386.425959031629

DIPOLE MOMENT
-------------
                                X             Y             Z
Electronic contribution:      1.13461      -3.22389       2.53018
Nuclear contribution   :     -1.26052       2.99839      -3.05948
                        -----------------------------------------
Total Dipole Moment    :     -0.12592      -0.22551      -0.52931
                        -----------------------------------------
Magnitude (a.u.)       :      0.58896
Magnitude (Debye)      :      1.49702

                             ****ORCA TERMINATED NORMALLY****
TOTAL RUN TIME: 0 days 0 hours 22 minutes 50 seconds 681 msec
