                         Program Version 3.0.3 - RELEASE   -
|  1> ! RI-MP2 RIJK def2-TZVP def2-TZVP/C def2-TZVP/JK TIGHTSCF
|  2> % maxcore 2000
|  3> % mp2 density relaxed end
|  4> *xyz 0 1
|  5>  C        0.0437383027     1.4490083497     0.0853164242
|  6>  C       -0.0699146482    -0.0357348761     0.0297497463
|  7>  C       -0.0381224842    -0.8944787565    -1.0135232883
|  8>  C        0.0008100087    -2.2743449878    -0.3655015423
|  9>  C       -0.0233562938    -3.5383526184    -1.1805216866
| 10>  N       -0.9134711281    -2.1359145565     0.8189361606
| 11>  C       -0.0629961680    -0.9799836221     1.2283789755
| 12>  C        1.1186197812    -1.9066885799     0.7087085091
| 13>  O        2.2396719333    -2.1769814576     0.9714331228
| 14>  H        0.9540153402     1.7517333090     0.6180812699
| 15>  H        0.0806842870     1.8847599506    -0.9167926631
| 16>  H       -0.7987949069     1.8980229254     0.6250964107
| 17>  H        0.0968692892    -0.6780674946    -2.0651841527
| 18>  H        0.8066800679    -3.5492738939    -1.8936182035
| 19>  H        0.0667431002    -4.4137684013    -0.5328092288
| 20>  H       -0.9558871153    -3.6246600555    -1.7486626606
| 21>  H       -1.8379583668    -1.8117378106     0.5198481068
| 22>  H       -0.1490374792    -0.5954572139     2.2428784100
| 23> *
| 24>
| 25>                          ****END OF INPUT****

CARTESIAN COORDINATES (ANGSTROEM)
---------------------------------
  C      0.043738    1.449008    0.085316
  C     -0.069915   -0.035735    0.029750
  C     -0.038122   -0.894479   -1.013523
  C      0.000810   -2.274345   -0.365502
  C     -0.023356   -3.538353   -1.180522
  N     -0.913471   -2.135915    0.818936
  C     -0.062996   -0.979984    1.228379
  C      1.118620   -1.906689    0.708709
  O      2.239672   -2.176981    0.971433
  H      0.954015    1.751733    0.618081
  H      0.080684    1.884760   -0.916793
  H     -0.798795    1.898023    0.625096
  H      0.096869   -0.678067   -2.065184
  H      0.806680   -3.549274   -1.893618
  H      0.066743   -4.413768   -0.532809
  H     -0.955887   -3.624660   -1.748663
  H     -1.837958   -1.811738    0.519848
  H     -0.149037   -0.595457    2.242878

 Total Charge           Charge          ....    0
 Multiplicity           Mult            ....    1
 Number of Electrons    NEL             ....   66
 Basis Dimension        Dim             ....  333

ORBITAL ENERGIES
----------------

  NO   OCC          E(Eh)            E(eV)
   0   2.0000     -20.558538      -559.4263
   1   2.0000     -15.565166      -423.5497
   2   2.0000     -11.344668      -308.7041
   3   2.0000     -11.288588      -307.1781
   4   2.0000     -11.282683      -307.0174
   5   2.0000     -11.258299      -306.3539
   6   2.0000     -11.241809      -305.9052
   7   2.0000     -11.240514      -305.8699
   8   2.0000     -11.228220      -305.5354
   9   2.0000      -1.410135       -38.3717
  10   2.0000      -1.286050       -34.9952
  11   2.0000      -1.083420       -29.4814
  12   2.0000      -1.028044       -27.9745
  13   2.0000      -0.972247       -26.4562
  14   2.0000      -0.920361       -25.0443
  15   2.0000      -0.869195       -23.6520
  16   2.0000      -0.735296       -20.0084
  17   2.0000      -0.715460       -19.4686
  18   2.0000      -0.684536       -18.6272
  19   2.0000      -0.660647       -17.9771
  20   2.0000      -0.628778       -17.1099
  21   2.0000      -0.602709       -16.4005
  22   2.0000      -0.590368       -16.0647
  23   2.0000      -0.577717       -15.7205
  24   2.0000      -0.569861       -15.5067
  25   2.0000      -0.555437       -15.1142
  26   2.0000      -0.531331       -14.4583
  27   2.0000      -0.520228       -14.1561
  28   2.0000      -0.507303       -13.8044
  29   2.0000      -0.496755       -13.5174
  30   2.0000      -0.424918       -11.5626
  31   2.0000      -0.383931       -10.4473
  32   2.0000      -0.348524        -9.4838
  33   0.0000       0.129581         3.5261
  34   0.0000       0.131830         3.5873
  35   0.0000       0.142518         3.8781
  36   0.0000       0.162039         4.4093
  37   0.0000       0.178900         4.8681

MULLIKEN ATOMIC CHARGES
-----------------------
   0 C :   -0.464729
   1 C :   -0.042161
   2 C :   -0.198357
   3 C :    0.131675
   4 C :   -0.434366
   5 N :   -0.287593
   6 C :    0.018399
   7 C :    0.134296
   8 O :   -0.218361
   9 H :    0.152956
  10 H :    0.145350
  11 H :    0.147553
  12 H :    0.134989
  13 H :    0.140649
  14 H :    0.154428
  15 H :    0.138442
  16 H :    0.193173
  17 H :    0.153657
Sum of atomic charges:    0.0000000

LOEWDIN ATOMIC CHARGES
----------------------
   0 C :   -0.273470
   1 C :   -0.162849
   2 C :   -0.097358
   3 C :   -0.276450
   4 C :   -0.268776
   5 N :    0.060545
   6 C :   -0.192525
   7 C :   -0.224083
   8 O :    0.185574
   9 H :    0.138003
  10 H :    0.133758
  11 H :    0.133611
  12 H :    0.140041
  13 H :    0.135707
  14 H :    0.135978
  15 H :    0.131440
  16 H :    0.163554
  17 H :    0.137301

  Mayer bond orders larger than 0.1
B(  0-C ,  1-C ) :   0.8773 B(  0-C ,  9-H ) :   0.9268 B(  0-C , 10-H ) :   0.9509
B(  0-C , 11-H ) :   0.9390 B(  1-C ,  2-C ) :   1.6182 B(  1-C ,  6-C ) :   0.9378
B(  2-C ,  3-C ) :   0.9425 B(  2-C , 12-H ) :   0.9297 B(  3-C ,  4-C ) :   0.8446
B(  3-C ,  5-N ) :   0.9277 B(  3-C ,  7-C ) :   0.7869 B(  4-C , 13-H ) :   0.9343
B(  4-C , 14-H ) :   0.9545 B(  4-C , 15-H ) :   0.9409 B(  5-N ,  6-C ) :   0.9757
B(  5-N , 16-H ) :   0.8668 B(  6-C ,  7-C ) :   0.7755 B(  6-C , 17-H ) :   0.8958
B(  7-C ,  8-O ) :   2.0983

MP2 TOTAL ENERGY:     -401.238366573 Eh
FINAL SINGLE POINT ENERGY      -401.238366572937

DIPOLE MOMENT
-------------
                                X             Y             Z
Electronic contribution:      3.12127      -2.43535       3.52634
Nuclear contribution   :     -3.86387       3.21817      -4.15681
                        -----------------------------------------
Total Dipole Moment    :     -0.74260       0.78282      -0.63047
                        -----------------------------------------
Magnitude (a.u.)       :      1.24970
Magnitude (Debye)      :      3.17648

                             ****ORCA TERMINATED NORMALLY****
TOTAL RUN TIME: 0 days 0 hours 18 minutes 38 seconds 351 msec
