                         Program Version 3.0.3 - RELEASE   -
|  1> ! RI-MP2 RIJK def2-TZVP def2-TZVP/C def2-TZVP/JK TIGHTSCF
|  2> % maxcore 2000
|  3> % mp2 density relaxed end
|  4> *xyz 0 1
|  5>  C       -0.1650398869     1.4925017210    -0.0781910178
|  6>  N        0.1087102264     0.0632822460     0.0532168447
|  7>  C        1.3866640886    -0.5391696269    -0.1959576845
|  8>  C        2.5714595376     0.3163711575     0.2835666819
|  9>  C        1.9921183282     0.2673093549     1.7212070707
| 10>  O        1.7933801807     1.5247456507     2.3221570177
| 11>  C        0.7608736134    -0.5337576775     1.2045094914
| 12>  C        0.1036019491    -1.5482328658     1.9620141184
| 13>  C       -0.4163174214    -2.3845417449     2.6541919079
| 14>  H        0.6293806753     2.1560166437     0.2739687250
| 15>  H       -0.3696302112     1.6989121655    -1.1335845780
| 16>  H       -1.0718469817     1.7165733831     0.4911620677
| 17>  H        1.4442135124    -1.3709324973    -0.8897218368
| 18>  H        3.5354934622    -0.1879339303     0.2008355466
| 19>  H        2.6514092006     1.3124091305    -0.1573464985
| 20>  H        2.5978542997    -0.3888274152     2.3603967697
| 21>  H        1.3469753945     1.3894574846     3.1649085251
| 22>  H       -0.8874201975    -3.1299995597     3.2454686488
| 23> *
| 24>
| 25>                          ****END OF INPUT****

CARTESIAN COORDINATES (ANGSTROEM)
---------------------------------
  C     -0.165040    1.492502   -0.078191
  N      0.108710    0.063282    0.053217
  C      1.386664   -0.539170   -0.195958
  C      2.571460    0.316371    0.283567
  C      1.992118    0.267309    1.721207
  O      1.793380    1.524746    2.322157
  C      0.760874   -0.533758    1.204509
  C      0.103602   -1.548233    1.962014
  C     -0.416317   -2.384542    2.654192
  H      0.629381    2.156017    0.273969
  H     -0.369630    1.698912   -1.133585
  H     -1.071847    1.716573    0.491162
  H      1.444214   -1.370932   -0.889722
  H      3.535493   -0.187934    0.200836
  H      2.651409    1.312409   -0.157346
  H      2.597854   -0.388827    2.360397
  H      1.346975    1.389457    3.164909
  H     -0.887420   -3.130000    3.245469

 Total Charge           Charge          ....    0
 Multiplicity           Mult            ....    1
 Number of Electrons    NEL             ....   66
 Basis Dimension        Dim             ....  333

ORBITAL ENERGIES
----------------

  NO   OCC          E(Eh)            E(eV)
   0   2.0000     -20.566296      -559.6374
   1   2.0000     -15.570603      -423.6977
   2   2.0000     -11.299301      -307.4696
   3   2.0000     -11.284457      -307.0657
   4   2.0000     -11.275490      -306.8217
   5   2.0000     -11.242161      -305.9148
   6   2.0000     -11.237414      -305.7856
   7   2.0000     -11.236444      -305.7592
   8   2.0000     -11.226868      -305.4986
   9   2.0000      -1.377133       -37.4737
  10   2.0000      -1.299320       -35.3563
  11   2.0000      -1.070717       -29.1357
  12   2.0000      -1.038426       -28.2570
  13   2.0000      -0.966015       -26.2866
  14   2.0000      -0.913091       -24.8465
  15   2.0000      -0.816522       -22.2187
  16   2.0000      -0.779144       -21.2016
  17   2.0000      -0.735146       -20.0043
  18   2.0000      -0.711534       -19.3618
  19   2.0000      -0.696132       -18.9427
  20   2.0000      -0.642507       -17.4835
  21   2.0000      -0.616585       -16.7781
  22   2.0000      -0.603938       -16.4340
  23   2.0000      -0.570285       -15.5183
  24   2.0000      -0.550673       -14.9846
  25   2.0000      -0.538596       -14.6559
  26   2.0000      -0.493912       -13.4400
  27   2.0000      -0.483913       -13.1680
  28   2.0000      -0.464991       -12.6530
  29   2.0000      -0.445702       -12.1282
  30   2.0000      -0.390686       -10.6311
  31   2.0000      -0.382280       -10.4024
  32   2.0000      -0.356048        -9.6886
  33   0.0000       0.129418         3.5216
  34   0.0000       0.147700         4.0191
  35   0.0000       0.160088         4.3562
  36   0.0000       0.167237         4.5508
  37   0.0000       0.171100         4.6559

MULLIKEN ATOMIC CHARGES
-----------------------
   0 C :   -0.303895
   1 N :   -0.211924
   2 C :   -0.077705
   3 C :   -0.235171
   4 C :    0.043416
   5 O :   -0.462021
   6 C :   -0.131403
   7 C :    0.044287
   8 C :   -0.105638
   9 H :    0.141708
  10 H :    0.135712
  11 H :    0.137301
  12 H :    0.139350
  13 H :    0.128805
  14 H :    0.136467
  15 H :    0.104852
  16 H :    0.322088
  17 H :    0.193771
Sum of atomic charges:   -0.0000000

LOEWDIN ATOMIC CHARGES
----------------------
   0 C :   -0.314381
   1 N :    0.159610
   2 C :   -0.178196
   3 C :   -0.201654
   4 C :   -0.280082
   5 O :   -0.012330
   6 C :   -0.226886
   7 C :   -0.074756
   8 C :   -0.085946
   9 H :    0.111693
  10 H :    0.118728
  11 H :    0.122021
  12 H :    0.136471
  13 H :    0.139059
  14 H :    0.136645
  15 H :    0.141413
  16 H :    0.181355
  17 H :    0.127236

  Mayer bond orders larger than 0.1
B(  0-C ,  1-N ) :   0.8640 B(  0-C ,  9-H ) :   0.9188 B(  0-C , 10-H ) :   0.9319
B(  0-C , 11-H ) :   0.9391 B(  1-N ,  2-C ) :   0.9625 B(  1-N ,  6-C ) :   0.7781
B(  2-C ,  3-C ) :   0.9119 B(  2-C ,  6-C ) :   0.7545 B(  2-C , 12-H ) :   0.9122
B(  3-C ,  4-C ) :   0.9271 B(  3-C , 13-H ) :   0.9156 B(  3-C , 14-H ) :   0.9181
B(  4-C ,  5-O ) :   1.0735 B(  4-C ,  6-C ) :   0.9047 B(  4-C , 15-H ) :   0.9559
B(  5-O , 16-H ) :   0.8408 B(  6-C ,  7-C ) :   1.2181 B(  6-C ,  8-C ) :  -0.1735
B(  7-C ,  8-C ) :   2.5964 B(  8-C , 17-H ) :   0.8731

MP2 TOTAL ENERGY:     -401.162011042 Eh
FINAL SINGLE POINT ENERGY      -401.162011042292

DIPOLE MOMENT
-------------
                                X             Y             Z
Electronic contribution:     -1.08285      -3.55251       2.49966
Nuclear contribution   :      1.38682       3.48040      -2.23774
                        -----------------------------------------
Total Dipole Moment    :      0.30397      -0.07211       0.26192
                        -----------------------------------------
Magnitude (a.u.)       :      0.40767
Magnitude (Debye)      :      1.03623

                             ****ORCA TERMINATED NORMALLY****
TOTAL RUN TIME: 0 days 0 hours 18 minutes 39 seconds 551 msec
