                         Program Version 3.0.3 - RELEASE   -
|  1> ! RI-MP2 RIJK def2-TZVP def2-TZVP/C def2-TZVP/JK TIGHTSCF
|  2> % maxcore 2000
|  3> % mp2 density relaxed end
|  4> *xyz 0 1
|  5>  C       -0.0420075677     1.5467238236     0.0693071898
|  6>  C        0.0123031655     0.0438152510    -0.0441254801
|  7>  C       -1.1921918693    -0.6688750934    -0.6624170406
|  8>  C       -0.5947968740    -1.9979581144    -1.0799694796
|  9>  C        0.4969106443    -2.5896240784    -0.2635152976
| 10>  C        1.1849995514    -1.5066029591     0.5927971806
| 11>  O        0.2902400112    -0.5977642565     1.2492692411
| 12>  C        1.2484982588    -0.6831152428    -0.6900259514
| 13>  N        0.7977539533    -1.8419674694    -1.5616108741
| 14>  H        0.8800221777     1.9336450071     0.5116141197
| 15>  H       -0.1763490736     2.0009374889    -0.9178168310
| 16>  H       -0.8784311348     1.8536441193     0.7058742353
| 17>  H       -2.0017501142    -0.7628121186     0.0663424553
| 18>  H       -1.5692137984    -0.1373078367    -1.5441233171
| 19>  H       -1.1914232313    -2.6856548196    -1.6720766755
| 20>  H        0.6473209790    -3.6614047791    -0.1830311249
| 21>  H        2.0319420108    -1.8164920414     1.2055287644
| 22>  H        2.1001430812    -0.1163898403    -1.0581716044
| 23> *
| 24>
| 25>                          ****END OF INPUT****

CARTESIAN COORDINATES (ANGSTROEM)
---------------------------------
  C     -0.042008    1.546724    0.069307
  C      0.012303    0.043815   -0.044125
  C     -1.192192   -0.668875   -0.662417
  C     -0.594797   -1.997958   -1.079969
  C      0.496911   -2.589624   -0.263515
  C      1.185000   -1.506603    0.592797
  O      0.290240   -0.597764    1.249269
  C      1.248498   -0.683115   -0.690026
  N      0.797754   -1.841967   -1.561611
  H      0.880022    1.933645    0.511614
  H     -0.176349    2.000937   -0.917817
  H     -0.878431    1.853644    0.705874
  H     -2.001750   -0.762812    0.066342
  H     -1.569214   -0.137308   -1.544123
  H     -1.191423   -2.685655   -1.672077
  H      0.647321   -3.661405   -0.183031
  H      2.031942   -1.816492    1.205529
  H      2.100143   -0.116390   -1.058172

 Total Charge           Charge          ....    0
 Multiplicity           Mult            ....    1
 Number of Electrons    NEL             ....   66
 Basis Dimension        Dim             ....  333

ORBITAL ENERGIES
----------------

  NO   OCC          E(Eh)            E(eV)
   0   2.0000     -20.549583      -559.1826
   1   2.0000     -15.564001      -423.5180
   2   2.0000     -11.296209      -307.3855
   3   2.0000     -11.290990      -307.2434
   4   2.0000     -11.267677      -306.6091
   5   2.0000     -11.264577      -306.5247
   6   2.0000     -11.261648      -306.4450
   7   2.0000     -11.232183      -305.6432
   8   2.0000     -11.224856      -305.4439
   9   2.0000      -1.396283       -37.9948
  10   2.0000      -1.283250       -34.9190
  11   2.0000      -1.062215       -28.9043
  12   2.0000      -1.008451       -27.4413
  13   2.0000      -0.959522       -26.1099
  14   2.0000      -0.921057       -25.0632
  15   2.0000      -0.807750       -21.9800
  16   2.0000      -0.795710       -21.6524
  17   2.0000      -0.728612       -19.8265
  18   2.0000      -0.691588       -18.8191
  19   2.0000      -0.649282       -17.6679
  20   2.0000      -0.627576       -17.0772
  21   2.0000      -0.600199       -16.3323
  22   2.0000      -0.594392       -16.1742
  23   2.0000      -0.579440       -15.7674
  24   2.0000      -0.562705       -15.3120
  25   2.0000      -0.539644       -14.6845
  26   2.0000      -0.523820       -14.2539
  27   2.0000      -0.496761       -13.5176
  28   2.0000      -0.468561       -12.7502
  29   2.0000      -0.449351       -12.2275
  30   2.0000      -0.406280       -11.0554
  31   2.0000      -0.406080       -11.0500
  32   2.0000      -0.374418       -10.1884
  33   0.0000       0.137630         3.7451
  34   0.0000       0.159664         4.3447
  35   0.0000       0.169528         4.6131
  36   0.0000       0.178763         4.8644
  37   0.0000       0.188657         5.1336

MULLIKEN ATOMIC CHARGES
-----------------------
   0 C :   -0.410089
   1 C :    0.214873
   2 C :   -0.224557
   3 C :   -0.061749
   4 C :   -0.096976
   5 C :    0.036267
   6 O :   -0.335242
   7 C :   -0.064058
   8 N :   -0.235957
   9 H :    0.139271
  10 H :    0.132538
  11 H :    0.143322
  12 H :    0.123899
  13 H :    0.115747
  14 H :    0.131340
  15 H :    0.134990
  16 H :    0.120854
  17 H :    0.135527
Sum of atomic charges:    0.0000000

LOEWDIN ATOMIC CHARGES
----------------------
   0 C :   -0.268015
   1 C :   -0.293598
   2 C :   -0.196519
   3 C :   -0.228345
   4 C :   -0.166131
   5 C :   -0.242746
   6 O :    0.173530
   7 C :   -0.154725
   8 N :    0.131144
   9 H :    0.131435
  10 H :    0.132396
  11 H :    0.134002
  12 H :    0.149892
  13 H :    0.147174
  14 H :    0.147482
  15 H :    0.133186
  16 H :    0.133847
  17 H :    0.135991

  Mayer bond orders larger than 0.1
B(  0-C ,  1-C ) :   0.8666 B(  0-C ,  9-H ) :   0.9420 B(  0-C , 10-H ) :   0.9319
B(  0-C , 11-H ) :   0.9391 B(  1-C ,  2-C ) :   0.9633 B(  1-C ,  6-O ) :   0.9100
B(  1-C ,  7-C ) :   0.8902 B(  2-C ,  3-C ) :   0.9516 B(  2-C , 12-H ) :   0.8957
B(  2-C , 13-H ) :   0.9077 B(  3-C ,  4-C ) :   0.9252 B(  3-C ,  8-N ) :   0.9057
B(  3-C , 14-H ) :   0.9299 B(  4-C ,  5-C ) :   0.8869 B(  4-C ,  8-N ) :   0.8407
B(  4-C , 15-H ) :   0.9067 B(  5-C ,  6-O ) :   0.9670 B(  5-C ,  7-C ) :   0.9655
B(  5-C , 16-H ) :   0.9413 B(  7-C ,  8-N ) :   0.9910 B(  7-C , 17-H ) :   0.9163

MP2 TOTAL ENERGY:     -401.209792257 Eh
FINAL SINGLE POINT ENERGY      -401.209792256922

DIPOLE MOMENT
-------------
                                X             Y             Z
Electronic contribution:      1.96018      -4.08469       0.59570
Nuclear contribution   :     -2.13478       4.29786      -0.65274
                        -----------------------------------------
Total Dipole Moment    :     -0.17460       0.21317      -0.05704
                        -----------------------------------------
Magnitude (a.u.)       :      0.28139
Magnitude (Debye)      :      0.71524

                             ****ORCA TERMINATED NORMALLY****
TOTAL RUN TIME: 0 days 0 hours 19 minutes 29 seconds 193 msec
