                         Program Version 3.0.3 - RELEASE   -
|  1> ! RI-MP2 RIJK def2-TZVP def2-TZVP/C def2-TZVP/JK TIGHTSCF
|  2> % maxcore 2000
|  3> % mp2 density relaxed end
|  4> *xyz 0 1
|  5>  C        0.0751928401     1.3946225710    -0.4798237639
|  6>  C       -0.1027313247     0.2449966136     0.5288266284
|  7>  C       -1.4359053057    -0.3487577266     0.4906237862
|  8>  C       -2.5483976208    -0.8095197934     0.4438240329
|  9>  C       -3.8831618520    -1.3917346701     0.3761806246
| 10>  C       -3.8764362433    -2.8902554637    -0.0361900301
| 11>  C       -3.1052553403    -3.7577028674     0.9707930091
| 12>  C       -5.3088460024    -3.3773734978    -0.1263764612
| 13>  O       -5.8342576787    -3.8213670769    -1.1134162241
| 14>  H        1.0866722365     1.8063931042    -0.4142541288
| 15>  H       -0.0888472362     1.0432563732    -1.5020659945
| 16>  H       -0.6382278706     2.1990693977    -0.2815918478
| 17>  H        0.6471455709    -0.5322436727     0.3329388261
| 18>  H        0.1038714799     0.6117039902     1.5425770398
| 19>  H       -4.3830627719    -1.2909875849     1.3500131095
| 20>  H       -4.4934083248    -0.8269162528    -0.3402621871
| 21>  H       -3.4343428994    -2.9847880906    -1.0322666164
| 22>  H       -2.0894197138    -3.3739462699     1.0934148838
| 23>  H       -3.5906814527    -3.7462578806     1.9538822879
| 24>  H       -3.0480482904    -4.7962720267     0.6328593650
| 25>  H       -5.8716106796    -3.2984105458     0.8365178403
| 26> *
| 27>
| 28>                          ****END OF INPUT****

CARTESIAN COORDINATES (ANGSTROEM)
---------------------------------
  C      0.075193    1.394623   -0.479824
  C     -0.102731    0.244997    0.528827
  C     -1.435905   -0.348758    0.490624
  C     -2.548398   -0.809520    0.443824
  C     -3.883162   -1.391735    0.376181
  C     -3.876436   -2.890255   -0.036190
  C     -3.105255   -3.757703    0.970793
  C     -5.308846   -3.377373   -0.126376
  O     -5.834258   -3.821367   -1.113416
  H      1.086672    1.806393   -0.414254
  H     -0.088847    1.043256   -1.502066
  H     -0.638228    2.199069   -0.281592
  H      0.647146   -0.532244    0.332939
  H      0.103871    0.611704    1.542577
  H     -4.383063   -1.290988    1.350013
  H     -4.493408   -0.826916   -0.340262
  H     -3.434343   -2.984788   -1.032267
  H     -2.089420   -3.373946    1.093415
  H     -3.590681   -3.746258    1.953882
  H     -3.048048   -4.796272    0.632859
  H     -5.871611   -3.298411    0.836518

 Total Charge           Charge          ....    0
 Multiplicity           Mult            ....    1
 Number of Electrons    NEL             ....   68
 Basis Dimension        Dim             ....  351

ORBITAL ENERGIES
----------------

  NO   OCC          E(Eh)            E(eV)
   0   2.0000     -20.559262      -559.4459
   1   2.0000     -11.331492      -308.3456
   2   2.0000     -11.264398      -306.5198
   3   2.0000     -11.253966      -306.2360
   4   2.0000     -11.252321      -306.1912
   5   2.0000     -11.231358      -305.6208
   6   2.0000     -11.227123      -305.5056
   7   2.0000     -11.226787      -305.4964
   8   2.0000     -11.223229      -305.3996
   9   2.0000      -1.397902       -38.0389
  10   2.0000      -1.115576       -30.3564
  11   2.0000      -1.076013       -29.2798
  12   2.0000      -1.012404       -27.5489
  13   2.0000      -0.949673       -25.8419
  14   2.0000      -0.892086       -24.2749
  15   2.0000      -0.863103       -23.4862
  16   2.0000      -0.787230       -21.4216
  17   2.0000      -0.680750       -18.5241
  18   2.0000      -0.665910       -18.1203
  19   2.0000      -0.649461       -17.6727
  20   2.0000      -0.627198       -17.0669
  21   2.0000      -0.622917       -16.9504
  22   2.0000      -0.617736       -16.8095
  23   2.0000      -0.583447       -15.8764
  24   2.0000      -0.555333       -15.1114
  25   2.0000      -0.549942       -14.9647
  26   2.0000      -0.531165       -14.4537
  27   2.0000      -0.524170       -14.2634
  28   2.0000      -0.515545       -14.0287
  29   2.0000      -0.503088       -13.6897
  30   2.0000      -0.496739       -13.5170
  31   2.0000      -0.420669       -11.4470
  32   2.0000      -0.372666       -10.1408
  33   2.0000      -0.370796       -10.0899
  34   0.0000       0.124984         3.4010
  35   0.0000       0.131165         3.5692
  36   0.0000       0.141816         3.8590
  37   0.0000       0.165696         4.5088
  38   0.0000       0.166989         4.5440

MULLIKEN ATOMIC CHARGES
-----------------------
   0 C :   -0.359860
   1 C :   -0.305598
   2 C :    0.060213
   3 C :    0.009857
   4 C :   -0.444648
   5 C :    0.079141
   6 C :   -0.428253
   7 C :    0.065853
   8 O :   -0.254776
   9 H :    0.132317
  10 H :    0.130671
  11 H :    0.130312
  12 H :    0.139780
  13 H :    0.141252
  14 H :    0.146174
  15 H :    0.159637
  16 H :    0.101215
  17 H :    0.157155
  18 H :    0.124952
  19 H :    0.145869
  20 H :    0.068740
Sum of atomic charges:    0.0000000

LOEWDIN ATOMIC CHARGES
----------------------
   0 C :   -0.299440
   1 C :   -0.278508
   2 C :   -0.080957
   3 C :   -0.084988
   4 C :   -0.226503
   5 C :   -0.264692
   6 C :   -0.280714
   7 C :   -0.276381
   8 O :    0.137738
   9 H :    0.121027
  10 H :    0.124296
  11 H :    0.124217
  12 H :    0.152609
  13 H :    0.152910
  14 H :    0.157698
  15 H :    0.160760
  16 H :    0.160206
  17 H :    0.134237
  18 H :    0.126197
  19 H :    0.128214
  20 H :    0.112075

  Mayer bond orders larger than 0.1
B(  0-C ,  1-C ) :   0.9427 B(  0-C ,  9-H ) :   0.9390 B(  0-C , 10-H ) :   0.9353
B(  0-C , 11-H ) :   0.9352 B(  1-C ,  2-C ) :   0.9424 B(  1-C , 12-H ) :   0.9393
B(  1-C , 13-H ) :   0.9416 B(  2-C ,  3-C ) :   2.6656 B(  2-C ,  4-C ) :  -0.1208
B(  3-C ,  4-C ) :   1.0234 B(  4-C ,  5-C ) :   0.9175 B(  4-C , 14-H ) :   0.9293
B(  4-C , 15-H ) :   0.9181 B(  5-C ,  6-C ) :   0.9022 B(  5-C ,  7-C ) :   0.8494
B(  5-C , 16-H ) :   0.8981 B(  6-C , 17-H ) :   0.9292 B(  6-C , 18-H ) :   0.9251
B(  6-C , 19-H ) :   0.9354 B(  7-C ,  8-O ) :   2.0161 B(  7-C , 20-H ) :   0.9321

MP2 TOTAL ENERGY:     -386.391834821 Eh
FINAL SINGLE POINT ENERGY      -386.391834820917

DIPOLE MOMENT
-------------
                                X             Y             Z
Electronic contribution:     -7.77280      -4.08349      -2.06415
Nuclear contribution   :      8.55151       4.55633       2.76905
                        -----------------------------------------
Total Dipole Moment    :      0.77871       0.47284       0.70490
                        -----------------------------------------
Magnitude (a.u.)       :      1.15189
Magnitude (Debye)      :      2.92787

                             ****ORCA TERMINATED NORMALLY****
TOTAL RUN TIME: 0 days 0 hours 15 minutes 54 seconds 900 msec
