                         Program Version 3.0.3 - RELEASE   -
|  1> ! RI-MP2 RIJK def2-TZVP def2-TZVP/C def2-TZVP/JK TIGHTSCF
|  2> % maxcore 2000
|  3> % mp2 density relaxed end
|  4> *xyz 0 1
|  5>  O       -0.3713398764     1.3277168873     0.1145376955
|  6>  C       -0.0494933059    -0.0452589442     0.0273544538
|  7>  C        0.7504373318    -0.3646522361    -1.2591169542
|  8>  C        0.0600365833     0.0570813284    -2.4747983121
|  9>  N       -0.4867413232     0.3780273935    -3.4403227080
| 10>  C        0.6818279437    -0.5711532236     1.2651769359
| 11>  C        1.9579924069     0.1764007853     1.7238793007
| 12>  O        1.3379527243     0.5822986357     2.9528471579
| 13>  C        0.1154981203    -0.1170671415     2.6296499224
| 14>  H        0.4406122538     1.8399370823     0.2023052915
| 15>  H       -1.0198907658    -0.5504863400    -0.0413780151
| 16>  H        1.7291845357     0.1301596340    -1.2200669694
| 17>  H        0.9436254274    -1.4418287276    -1.3188530275
| 18>  H        0.8165494152    -1.6520687188     1.1741474197
| 19>  H        2.8403109917    -0.4541378794     1.8888610099
| 20>  H        2.2694946701     1.0389519789     1.1140416546
| 21>  H       -0.7394126186     0.5642271942     2.5690191629
| 22>  H       -0.0977502943    -0.9195518083     3.3450561917
| 23> *
| 24>
| 25>                          ****END OF INPUT****

CARTESIAN COORDINATES (ANGSTROEM)
---------------------------------
  O     -0.371340    1.327717    0.114538
  C     -0.049493   -0.045259    0.027354
  C      0.750437   -0.364652   -1.259117
  C      0.060037    0.057081   -2.474798
  N     -0.486741    0.378027   -3.440323
  C      0.681828   -0.571153    1.265177
  C      1.957992    0.176401    1.723879
  O      1.337953    0.582299    2.952847
  C      0.115498   -0.117067    2.629650
  H      0.440612    1.839937    0.202305
  H     -1.019891   -0.550486   -0.041378
  H      1.729185    0.130160   -1.220067
  H      0.943625   -1.441829   -1.318853
  H      0.816549   -1.652069    1.174147
  H      2.840311   -0.454138    1.888861
  H      2.269495    1.038952    1.114042
  H     -0.739413    0.564227    2.569019
  H     -0.097750   -0.919552    3.345056

 Total Charge           Charge          ....    0
 Multiplicity           Mult            ....    1
 Number of Electrons    NEL             ....   68
 Basis Dimension        Dim             ....  333

ORBITAL ENERGIES
----------------

  NO   OCC          E(Eh)            E(eV)
   0   2.0000     -20.582654      -560.0825
   1   2.0000     -20.564689      -559.5936
   2   2.0000     -15.572251      -423.7425
   3   2.0000     -11.322239      -308.0938
   4   2.0000     -11.302757      -307.5636
   5   2.0000     -11.294959      -307.3515
   6   2.0000     -11.292718      -307.2905
   7   2.0000     -11.276767      -306.8564
   8   2.0000     -11.261159      -306.4317
   9   2.0000      -1.401358       -38.1329
  10   2.0000      -1.388621       -37.7863
  11   2.0000      -1.221390       -33.2357
  12   2.0000      -1.100803       -29.9544
  13   2.0000      -1.032361       -28.0920
  14   2.0000      -0.955393       -25.9976
  15   2.0000      -0.900453       -24.5026
  16   2.0000      -0.786781       -21.4094
  17   2.0000      -0.738725       -20.1017
  18   2.0000      -0.714667       -19.4471
  19   2.0000      -0.689032       -18.7495
  20   2.0000      -0.672775       -18.3071
  21   2.0000      -0.658634       -17.9223
  22   2.0000      -0.616685       -16.7809
  23   2.0000      -0.609023       -16.5724
  24   2.0000      -0.586878       -15.9698
  25   2.0000      -0.577360       -15.7108
  26   2.0000      -0.558147       -15.1880
  27   2.0000      -0.531545       -14.4641
  28   2.0000      -0.496622       -13.5138
  29   2.0000      -0.484533       -13.1848
  30   2.0000      -0.471678       -12.8350
  31   2.0000      -0.462656       -12.5895
  32   2.0000      -0.448359       -12.2005
  33   2.0000      -0.430891       -11.7252
  34   0.0000       0.106513         2.8984
  35   0.0000       0.126798         3.4503
  36   0.0000       0.146982         3.9996
  37   0.0000       0.159250         4.3334
  38   0.0000       0.164488         4.4759

MULLIKEN ATOMIC CHARGES
-----------------------
   0 O :   -0.441553
   1 C :   -0.007061
   2 C :   -0.157837
   3 C :   -0.154755
   4 N :   -0.047599
   5 C :   -0.100678
   6 C :   -0.051824
   7 O :   -0.319255
   8 C :   -0.009181
   9 H :    0.320456
  10 H :    0.122279
  11 H :    0.155968
  12 H :    0.159807
  13 H :    0.124198
  14 H :    0.106728
  15 H :    0.077248
  16 H :    0.121555
  17 H :    0.101507
Sum of atomic charges:    0.0000000

LOEWDIN ATOMIC CHARGES
----------------------
   0 O :    0.015347
   1 C :   -0.326177
   2 C :   -0.232088
   3 C :   -0.192215
   4 N :    0.063470
   5 C :   -0.230180
   6 C :   -0.265908
   7 O :    0.116622
   8 C :   -0.243020
   9 H :    0.179363
  10 H :    0.157582
  11 H :    0.163855
  12 H :    0.168241
  13 H :    0.151869
  14 H :    0.119810
  15 H :    0.109913
  16 H :    0.125831
  17 H :    0.117687

  Mayer bond orders larger than 0.1
B(  0-O ,  1-C ) :   0.9238 B(  0-O ,  9-H ) :   0.8347 B(  1-C ,  2-C ) :   0.9129
B(  1-C ,  5-C ) :   0.9280 B(  1-C , 10-H ) :   0.9202 B(  2-C ,  3-C ) :   0.9521
B(  2-C , 11-H ) :   0.9001 B(  2-C , 12-H ) :   0.9038 B(  3-C ,  4-N ) :   2.8773
B(  5-C ,  6-C ) :   0.9268 B(  5-C ,  8-C ) :   0.9551 B(  5-C , 13-H ) :   0.9115
B(  6-C ,  7-O ) :   0.9707 B(  6-C , 14-H ) :   0.9116 B(  6-C , 15-H ) :   0.8996
B(  7-O ,  8-C ) :   0.9451 B(  8-C , 16-H ) :   0.9059 B(  8-C , 17-H ) :   0.9142

MP2 TOTAL ENERGY:     -438.350958414 Eh
FINAL SINGLE POINT ENERGY      -438.350958413816

DIPOLE MOMENT
-------------
                                X             Y             Z
Electronic contribution:     -1.91424       1.90823      -4.28185
Nuclear contribution   :      2.87438      -2.92639       5.15354
                        -----------------------------------------
Total Dipole Moment    :      0.96014      -1.01817       0.87170
                        -----------------------------------------
Magnitude (a.u.)       :      1.64875
Magnitude (Debye)      :      4.19080

                             ****ORCA TERMINATED NORMALLY****
TOTAL RUN TIME: 0 days 0 hours 19 minutes 44 seconds 852 msec
