                         Program Version 3.0.3 - RELEASE   -
|  1> ! RI-MP2 RIJK def2-TZVP def2-TZVP/C def2-TZVP/JK TIGHTSCF
|  2> % maxcore 2000
|  3> % mp2 density relaxed end
|  4> *xyz 0 1
|  5>  C       -0.5551476808     1.3028002854     0.0806184383
|  6>  C        0.0273581915    -0.1036837798    -0.0235877139
|  7>  C        1.0137458621    -0.3252525156    -1.1906166275
|  8>  C        1.9078959737    -1.5275737165    -0.7787593949
|  9>  C        1.5422513998    -1.8442509556     0.6933954241
| 10>  C        0.8599917876    -0.5566029772     1.2016202973
| 11>  O        1.8103819726     0.4693037638     1.4634917013
| 12>  C        0.0304504650    -0.7913545484     2.3993978560
| 13>  N       -0.6018849854    -0.9777505286     3.3490297547
| 14>  H        0.2380899311     2.0414420439     0.2185226930
| 15>  H       -1.1057288786     1.5543659618    -0.8311122566
| 16>  H       -1.2482181530     1.3843782152     0.9238149758
| 17>  H       -0.7932632178    -0.8265651216    -0.1127511995
| 18>  H        0.4812386712    -0.4994691166    -2.1291459282
| 19>  H        1.6221052523     0.5732318177    -1.3260487487
| 20>  H        1.7386564478    -2.4018778307    -1.4120260220
| 21>  H        2.9656048305    -1.2709181803    -0.8700939899
| 22>  H        0.8321960231    -2.6747420522     0.7565368192
| 23>  H        2.4037111769    -2.1093333550     1.3136399920
| 24>  H        2.3774166003     0.1813531205     2.1872504497
| 25> *
| 26>
| 27>                          ****END OF INPUT****

CARTESIAN COORDINATES (ANGSTROEM)
---------------------------------
  C     -0.555148    1.302800    0.080618
  C      0.027358   -0.103684   -0.023588
  C      1.013746   -0.325253   -1.190617
  C      1.907896   -1.527574   -0.778759
  C      1.542251   -1.844251    0.693395
  C      0.859992   -0.556603    1.201620
  O      1.810382    0.469304    1.463492
  C      0.030450   -0.791355    2.399398
  N     -0.601885   -0.977751    3.349030
  H      0.238090    2.041442    0.218523
  H     -1.105729    1.554366   -0.831112
  H     -1.248218    1.384378    0.923815
  H     -0.793263   -0.826565   -0.112751
  H      0.481239   -0.499469   -2.129146
  H      1.622105    0.573232   -1.326049
  H      1.738656   -2.401878   -1.412026
  H      2.965605   -1.270918   -0.870094
  H      0.832196   -2.674742    0.756537
  H      2.403711   -2.109333    1.313640
  H      2.377417    0.181353    2.187250

 Total Charge           Charge          ....    0
 Multiplicity           Mult            ....    1
 Number of Electrons    NEL             ....   68
 Basis Dimension        Dim             ....  345

ORBITAL ENERGIES
----------------

  NO   OCC          E(Eh)            E(eV)
   0   2.0000     -20.585832      -560.1690
   1   2.0000     -15.574677      -423.8085
   2   2.0000     -11.336556      -308.4834
   3   2.0000     -11.271813      -306.7216
   4   2.0000     -11.248572      -306.0892
   5   2.0000     -11.247664      -306.0645
   6   2.0000     -11.236062      -305.7488
   7   2.0000     -11.230960      -305.6100
   8   2.0000     -11.218829      -305.2799
   9   2.0000      -1.398349       -38.0510
  10   2.0000      -1.220204       -33.2034
  11   2.0000      -1.140717       -31.0405
  12   2.0000      -1.028348       -27.9828
  13   2.0000      -0.996952       -27.1284
  14   2.0000      -0.914341       -24.8805
  15   2.0000      -0.828395       -22.5418
  16   2.0000      -0.793464       -21.5912
  17   2.0000      -0.763318       -20.7709
  18   2.0000      -0.671939       -18.2844
  19   2.0000      -0.651001       -17.7146
  20   2.0000      -0.636002       -17.3065
  21   2.0000      -0.594220       -16.1695
  22   2.0000      -0.579235       -15.7618
  23   2.0000      -0.570143       -15.5144
  24   2.0000      -0.558926       -15.2092
  25   2.0000      -0.548412       -14.9230
  26   2.0000      -0.514589       -14.0027
  27   2.0000      -0.504802       -13.7364
  28   2.0000      -0.495351       -13.4792
  29   2.0000      -0.484835       -13.1930
  30   2.0000      -0.476959       -12.9787
  31   2.0000      -0.467357       -12.7174
  32   2.0000      -0.466925       -12.7057
  33   2.0000      -0.439258       -11.9528
  34   0.0000       0.112029         3.0485
  35   0.0000       0.145900         3.9701
  36   0.0000       0.150833         4.1044
  37   0.0000       0.154097         4.1932
  38   0.0000       0.177644         4.8339

MULLIKEN ATOMIC CHARGES
-----------------------
   0 C :   -0.436895
   1 C :   -0.047500
   2 C :   -0.266540
   3 C :   -0.176812
   4 C :   -0.305615
   5 C :    0.394813
   6 O :   -0.476065
   7 C :   -0.274888
   8 N :   -0.043974
   9 H :    0.148193
  10 H :    0.137033
  11 H :    0.146400
  12 H :    0.109786
  13 H :    0.128108
  14 H :    0.124356
  15 H :    0.124719
  16 H :    0.117178
  17 H :    0.136660
  18 H :    0.135780
  19 H :    0.325265
Sum of atomic charges:   -0.0000000

LOEWDIN ATOMIC CHARGES
----------------------
   0 C :   -0.284828
   1 C :   -0.224387
   2 C :   -0.223900
   3 C :   -0.241574
   4 C :   -0.204502
   5 C :   -0.354867
   6 O :    0.044120
   7 C :   -0.152638
   8 N :    0.068175
   9 H :    0.130498
  10 H :    0.127112
  11 H :    0.130220
  12 H :    0.164150
  13 H :    0.135863
  14 H :    0.142839
  15 H :    0.135204
  16 H :    0.137199
  17 H :    0.148808
  18 H :    0.138324
  19 H :    0.184182

  Mayer bond orders larger than 0.1
B(  0-C ,  1-C ) :   0.9178 B(  0-C ,  9-H ) :   0.9322 B(  0-C , 10-H ) :   0.9387
B(  0-C , 11-H ) :   0.9323 B(  1-C ,  2-C ) :   0.9407 B(  1-C ,  5-C ) :   0.8376
B(  1-C , 12-H ) :   0.9240 B(  2-C ,  3-C ) :   0.9430 B(  2-C , 13-H ) :   0.9314
B(  2-C , 14-H ) :   0.9184 B(  3-C ,  4-C ) :   0.9395 B(  3-C , 15-H ) :   0.9349
B(  3-C , 16-H ) :   0.9293 B(  4-C ,  5-C ) :   0.9169 B(  4-C , 17-H ) :   0.9221
B(  4-C , 18-H ) :   0.9193 B(  5-C ,  6-O ) :   0.8646 B(  5-C ,  7-C ) :   0.9070
B(  6-O , 19-H ) :   0.8349 B(  7-C ,  8-N ) :   2.8815

MP2 TOTAL ENERGY:     -402.499843666 Eh
FINAL SINGLE POINT ENERGY      -402.499843666010

DIPOLE MOMENT
-------------
                                X             Y             Z
Electronic contribution:     -0.86307      -1.12671       8.16365
Nuclear contribution   :      1.66993       0.86786      -9.22834
                        -----------------------------------------
Total Dipole Moment    :      0.80686      -0.25885      -1.06469
                        -----------------------------------------
Magnitude (a.u.)       :      1.36073
Magnitude (Debye)      :      3.45870

                             ****ORCA TERMINATED NORMALLY****
TOTAL RUN TIME: 0 days 0 hours 20 minutes 57 seconds 321 msec
