                         Program Version 3.0.3 - RELEASE   -
|  1> ! RI-MP2 RIJK def2-TZVP def2-TZVP/C def2-TZVP/JK TIGHTSCF
|  2> % maxcore 2000
|  3> % mp2 density relaxed end
|  4> *xyz 0 1
|  5>  O        0.0509193826     1.3983205391    -0.0467723928
|  6>  C        0.0496069885    -0.0236646223    -0.0424642144
|  7>  C        0.7608907290    -0.5599305307     1.1892022526
|  8>  C        0.0479916094    -1.2330772993     2.0937423292
|  9>  C       -1.4144374033    -1.4394856331     1.7623862232
| 10>  C       -1.5281452434    -2.0287143841     0.3328411573
| 11>  C       -1.3996163131    -0.5391810331    -0.0417573105
| 12>  O       -1.9602240893    -0.1740010282     1.2569356550
| 13>  H       -0.4795906582     1.6508456007     0.7211013306
| 14>  H        0.5664790474    -0.3257366593    -0.9611279195
| 15>  H        1.8121056732    -0.3208130088     1.3148538436
| 16>  H        0.4690710301    -1.6348157706     3.0095020011
| 17>  H       -2.0150220779    -1.8506789146     2.5752100749
| 18>  H       -0.7586601255    -2.7293005156     0.0057936122
| 19>  H       -2.5269851215    -2.4111052385     0.1138088206
| 20>  H       -1.9756772581    -0.1295328613    -0.8750413633
| 21> *
| 22>
| 23>                          ****END OF INPUT****

CARTESIAN COORDINATES (ANGSTROEM)
---------------------------------
  O      0.050919    1.398321   -0.046772
  C      0.049607   -0.023665   -0.042464
  C      0.760891   -0.559931    1.189202
  C      0.047992   -1.233077    2.093742
  C     -1.414437   -1.439486    1.762386
  C     -1.528145   -2.028714    0.332841
  C     -1.399616   -0.539181   -0.041757
  O     -1.960224   -0.174001    1.256936
  H     -0.479591    1.650846    0.721101
  H      0.566479   -0.325737   -0.961128
  H      1.812106   -0.320813    1.314854
  H      0.469071   -1.634816    3.009502
  H     -2.015022   -1.850679    2.575210
  H     -0.758660   -2.729301    0.005794
  H     -2.526985   -2.411105    0.113809
  H     -1.975677   -0.129533   -0.875041

 Total Charge           Charge          ....    0
 Multiplicity           Mult            ....    1
 Number of Electrons    NEL             ....   60
 Basis Dimension        Dim             ....  296

ORBITAL ENERGIES
----------------

  NO   OCC          E(Eh)            E(eV)
   0   2.0000     -20.555551      -559.3450
   1   2.0000     -20.553109      -559.2785
   2   2.0000     -11.298458      -307.4467
   3   2.0000     -11.290521      -307.2307
   4   2.0000     -11.288856      -307.1854
   5   2.0000     -11.239925      -305.8539
   6   2.0000     -11.239077      -305.8308
   7   2.0000     -11.235817      -305.7421
   8   2.0000      -1.394321       -37.9414
   9   2.0000      -1.354866       -36.8678
  10   2.0000      -1.095817       -29.8187
  11   2.0000      -1.007865       -27.4254
  12   2.0000      -0.990889       -26.9635
  13   2.0000      -0.851158       -23.1612
  14   2.0000      -0.824292       -22.4301
  15   2.0000      -0.737766       -20.0756
  16   2.0000      -0.708731       -19.2855
  17   2.0000      -0.679035       -18.4775
  18   2.0000      -0.626902       -17.0589
  19   2.0000      -0.617327       -16.7983
  20   2.0000      -0.598833       -16.2951
  21   2.0000      -0.589376       -16.0377
  22   2.0000      -0.572619       -15.5818
  23   2.0000      -0.541143       -14.7252
  24   2.0000      -0.524464       -14.2714
  25   2.0000      -0.478657       -13.0249
  26   2.0000      -0.465812       -12.6754
  27   2.0000      -0.458108       -12.4658
  28   2.0000      -0.406573       -11.0634
  29   2.0000      -0.367307        -9.9949
  30   0.0000       0.125976         3.4280
  31   0.0000       0.146670         3.9911
  32   0.0000       0.163687         4.4542
  33   0.0000       0.171791         4.6747
  34   0.0000       0.177149         4.8205

MULLIKEN ATOMIC CHARGES
-----------------------
   0 O :   -0.469539
   1 C :    0.094295
   2 C :   -0.176075
   3 C :   -0.264970
   4 C :    0.174449
   5 C :   -0.267420
   6 C :    0.046891
   7 O :   -0.346264
   8 H :    0.325130
   9 H :    0.106648
  10 H :    0.132521
  11 H :    0.129095
  12 H :    0.135859
  13 H :    0.130859
  14 H :    0.124297
  15 H :    0.124223
Sum of atomic charges:    0.0000000

LOEWDIN ATOMIC CHARGES
----------------------
   0 O :   -0.014220
   1 C :   -0.316189
   2 C :   -0.135670
   3 C :   -0.142212
   4 C :   -0.246096
   5 C :   -0.193216
   6 C :   -0.253232
   7 O :    0.142809
   8 H :    0.181626
   9 H :    0.149209
  10 H :    0.143111
  11 H :    0.141045
  12 H :    0.135184
  13 H :    0.132968
  14 H :    0.137834
  15 H :    0.137046

  Mayer bond orders larger than 0.1
B(  0-O ,  1-C ) :   0.9046 B(  0-O ,  8-H ) :   0.8256 B(  1-C ,  2-C ) :   0.9470
B(  1-C ,  6-C ) :   0.9594 B(  1-C ,  9-H ) :   0.9187 B(  2-C ,  3-C ) :   1.7748
B(  2-C , 10-H ) :   0.9369 B(  3-C ,  4-C ) :   0.9378 B(  3-C , 11-H ) :   0.9238
B(  4-C ,  5-C ) :   0.9178 B(  4-C ,  7-O ) :   0.8925 B(  4-C , 12-H ) :   0.9158
B(  5-C ,  6-C ) :   0.9288 B(  5-C , 13-H ) :   0.9240 B(  5-C , 14-H ) :   0.9224
B(  6-C ,  7-O ) :   0.8873 B(  6-C , 15-H ) :   0.9221

MP2 TOTAL ENERGY:     -383.086400116 Eh
FINAL SINGLE POINT ENERGY      -383.086400116350

DIPOLE MOMENT
-------------
                                X             Y             Z
Electronic contribution:     -0.52130       2.35230       0.57877
Nuclear contribution   :      0.56399      -3.34427      -0.41698
                        -----------------------------------------
Total Dipole Moment    :      0.04270      -0.99197       0.16179
                        -----------------------------------------
Magnitude (a.u.)       :      1.00599
Magnitude (Debye)      :      2.55702

                             ****ORCA TERMINATED NORMALLY****
TOTAL RUN TIME: 0 days 0 hours 12 minutes 30 seconds 549 msec
