                         Program Version 3.0.3 - RELEASE   -
|  1> ! RI-MP2 RIJK def2-TZVP def2-TZVP/C def2-TZVP/JK TIGHTSCF
|  2> % maxcore 2000
|  3> % mp2 density relaxed end
|  4> *xyz 0 1
|  5>  C       -0.1771815301     1.5278415182    -0.0756598214
|  6>  C       -0.0188135880     0.0428835751     0.0530611702
|  7>  O       -0.6440805472    -0.6833163534    -1.0137725553
|  8>  C       -1.1030906075    -1.8308014822    -0.4587464219
|  9>  N       -0.9464131362    -2.0172875198     0.7914368543
| 10>  C       -0.2269695300    -0.8527713529     1.2665250092
| 11>  C        1.1665567901    -0.6478275966     0.6877287089
| 12>  C        1.9271846876    -1.8036033889     0.0614065407
| 13>  O        2.0750086697    -2.8975574565     0.9488690397
| 14>  H        0.3415345580     1.9037994231    -0.9635965453
| 15>  H       -1.2336067909     1.8030126325    -0.1511074435
| 16>  H        0.2486023552     2.0247576386     0.8000682879
| 17>  H       -1.5819101987    -2.5131646375    -1.1506595873
| 18>  H       -0.4611907236    -0.5119947337     2.2679877214
| 19>  H        1.7702246803     0.0239172251     1.2917976644
| 20>  H        1.4561737054    -2.1118694012    -0.8823701910
| 21>  H        2.9403468735    -1.4741160098    -0.1888918467
| 22>  H        1.1830751423    -3.1897228402     1.1744920557
| 23> *
| 24>
| 25>                          ****END OF INPUT****

CARTESIAN COORDINATES (ANGSTROEM)
---------------------------------
  C     -0.177182    1.527842   -0.075660
  C     -0.018814    0.042884    0.053061
  O     -0.644081   -0.683316   -1.013773
  C     -1.103091   -1.830801   -0.458746
  N     -0.946413   -2.017288    0.791437
  C     -0.226970   -0.852771    1.266525
  C      1.166557   -0.647828    0.687729
  C      1.927185   -1.803603    0.061407
  O      2.075009   -2.897557    0.948869
  H      0.341535    1.903799   -0.963597
  H     -1.233607    1.803013   -0.151107
  H      0.248602    2.024758    0.800068
  H     -1.581910   -2.513165   -1.150660
  H     -0.461191   -0.511995    2.267988
  H      1.770225    0.023917    1.291798
  H      1.456174   -2.111869   -0.882370
  H      2.940347   -1.474116   -0.188892
  H      1.183075   -3.189723    1.174492

 Total Charge           Charge          ....    0
 Multiplicity           Mult            ....    1
 Number of Electrons    NEL             ....   68
 Basis Dimension        Dim             ....  333

ORBITAL ENERGIES
----------------

  NO   OCC          E(Eh)            E(eV)
   0   2.0000     -20.612964      -560.9073
   1   2.0000     -20.547334      -559.1214
   2   2.0000     -15.564189      -423.5231
   3   2.0000     -11.344934      -308.7114
   4   2.0000     -11.311897      -307.8124
   5   2.0000     -11.279460      -306.9297
   6   2.0000     -11.272819      -306.7490
   7   2.0000     -11.244756      -305.9854
   8   2.0000     -11.238791      -305.8231
   9   2.0000      -1.461088       -39.7582
  10   2.0000      -1.353919       -36.8420
  11   2.0000      -1.234864       -33.6024
  12   2.0000      -1.142824       -31.0978
  13   2.0000      -1.000156       -27.2156
  14   2.0000      -0.944487       -25.7008
  15   2.0000      -0.869546       -23.6616
  16   2.0000      -0.820898       -22.3378
  17   2.0000      -0.759689       -20.6722
  18   2.0000      -0.725183       -19.7332
  19   2.0000      -0.699160       -19.0251
  20   2.0000      -0.655229       -17.8297
  21   2.0000      -0.633561       -17.2401
  22   2.0000      -0.606808       -16.5121
  23   2.0000      -0.604219       -16.4416
  24   2.0000      -0.587669       -15.9913
  25   2.0000      -0.576311       -15.6822
  26   2.0000      -0.559602       -15.2275
  27   2.0000      -0.544369       -14.8130
  28   2.0000      -0.510504       -13.8915
  29   2.0000      -0.492890       -13.4122
  30   2.0000      -0.476506       -12.9664
  31   2.0000      -0.446049       -12.1376
  32   2.0000      -0.394823       -10.7437
  33   2.0000      -0.373990       -10.1768
  34   0.0000       0.130577         3.5532
  35   0.0000       0.148899         4.0518
  36   0.0000       0.163130         4.4390
  37   0.0000       0.170512         4.6399
  38   0.0000       0.179156         4.8751

MULLIKEN ATOMIC CHARGES
-----------------------
   0 C :   -0.412945
   1 C :    0.204780
   2 O :   -0.255978
   3 C :    0.095816
   4 N :   -0.312447
   5 C :   -0.031745
   6 C :   -0.195945
   7 C :   -0.024894
   8 O :   -0.471869
   9 H :    0.147785
  10 H :    0.142347
  11 H :    0.135079
  12 H :    0.148934
  13 H :    0.139958
  14 H :    0.125573
  15 H :    0.117112
  16 H :    0.119349
  17 H :    0.329091
Sum of atomic charges:    0.0000000

LOEWDIN ATOMIC CHARGES
----------------------
   0 C :   -0.263206
   1 C :   -0.274942
   2 O :    0.279582
   3 C :   -0.339620
   4 N :    0.082039
   5 C :   -0.209989
   6 C :   -0.183476
   7 C :   -0.325854
   8 O :   -0.042037
   9 H :    0.134282
  10 H :    0.132956
  11 H :    0.136323
  12 H :    0.135321
  13 H :    0.142791
  14 H :    0.160474
  15 H :    0.124318
  16 H :    0.134160
  17 H :    0.176876

  Mayer bond orders larger than 0.1
B(  0-C ,  1-C ) :   0.8832 B(  0-C ,  9-H ) :   0.9388 B(  0-C , 10-H ) :   0.9334
B(  0-C , 11-H ) :   0.9369 B(  1-C ,  2-O ) :   0.8751 B(  1-C ,  5-C ) :   0.8368
B(  1-C ,  6-C ) :   0.8568 B(  2-O ,  3-C ) :   1.0826 B(  3-C ,  4-N ) :   1.7593
B(  3-C , 12-H ) :   0.9275 B(  4-N ,  5-C ) :   0.9391 B(  5-C ,  6-C ) :   0.8302
B(  5-C , 13-H ) :   0.9299 B(  6-C ,  7-C ) :   0.9287 B(  6-C , 14-H ) :   0.9187
B(  7-C ,  8-O ) :   0.9365 B(  7-C , 15-H ) :   0.9212 B(  7-C , 16-H ) :   0.9310
B(  8-O , 17-H ) :   0.8323

MP2 TOTAL ENERGY:     -438.361009081 Eh
FINAL SINGLE POINT ENERGY      -438.361009080794

DIPOLE MOMENT
-------------
                                X             Y             Z
Electronic contribution:     -2.47727      -3.97369      -0.33013
Nuclear contribution   :      2.17912       4.97222       0.01857
                        -----------------------------------------
Total Dipole Moment    :     -0.29815       0.99853      -0.31156
                        -----------------------------------------
Magnitude (a.u.)       :      1.08767
Magnitude (Debye)      :      2.76464

                             ****ORCA TERMINATED NORMALLY****
TOTAL RUN TIME: 0 days 0 hours 18 minutes 32 seconds 698 msec
