                         Program Version 3.0.3 - RELEASE   -
|  1> ! RI-MP2 RIJK def2-TZVP def2-TZVP/C def2-TZVP/JK TIGHTSCF
|  2> % maxcore 2000
|  3> % mp2 density relaxed end
|  4> *xyz 0 1
|  5>  C       -0.1652491839     1.5010130077    -0.3903335650
|  6>  C        0.0184306534     0.0348656251    -0.0164113206
|  7>  N        0.8503100614    -0.6353971753    -1.0617930304
|  8>  C        1.6346650435    -1.3896231787    -0.3998646341
|  9>  C        3.0650861061    -0.9787905790    -0.1555174946
| 10>  C        2.3904292242    -0.5748582175     1.2183114945
| 11>  C        3.2113240360    -0.4692864736     2.4774681468
| 12>  C        0.8697505892    -0.2607978016     1.2320223395
| 13>  N        1.3466197311    -1.6339372581     1.0516094940
| 14>  H        0.8025946730     1.9747515064    -0.5764720669
| 15>  H       -0.7707299800     1.5929786954    -1.2956659307
| 16>  H       -0.6695464030     2.0393372965     0.4196387157
| 17>  H       -0.9671946666    -0.4350853943     0.1247997639
| 18>  H        3.7943975374    -1.7654318469     0.0593010509
| 19>  H        3.4621338351    -0.2293664638    -0.8391713300
| 20>  H        3.7594565540     0.4784272357     2.5053842428
| 21>  H        2.5744894080    -0.5226884994     3.3646796236
| 22>  H        3.9386047835    -1.2862666029     2.5322392721
| 23>  H        0.4705255278    -0.0136073159     2.2144369085
| 24> *
| 25>
| 26>                          ****END OF INPUT****

CARTESIAN COORDINATES (ANGSTROEM)
---------------------------------
  C     -0.165249    1.501013   -0.390334
  C      0.018431    0.034866   -0.016411
  N      0.850310   -0.635397   -1.061793
  C      1.634665   -1.389623   -0.399865
  C      3.065086   -0.978791   -0.155517
  C      2.390429   -0.574858    1.218311
  C      3.211324   -0.469286    2.477468
  C      0.869751   -0.260798    1.232022
  N      1.346620   -1.633937    1.051609
  H      0.802595    1.974752   -0.576472
  H     -0.770730    1.592979   -1.295666
  H     -0.669546    2.039337    0.419639
  H     -0.967195   -0.435085    0.124800
  H      3.794398   -1.765432    0.059301
  H      3.462134   -0.229366   -0.839171
  H      3.759457    0.478427    2.505384
  H      2.574489   -0.522688    3.364680
  H      3.938605   -1.286267    2.532239
  H      0.470526   -0.013607    2.214437

 Total Charge           Charge          ....    0
 Multiplicity           Mult            ....    1
 Number of Electrons    NEL             ....   66
 Basis Dimension        Dim             ....  339

ORBITAL ENERGIES
----------------

  NO   OCC          E(Eh)            E(eV)
   0   2.0000     -15.570697      -423.7002
   1   2.0000     -15.544195      -422.9791
   2   2.0000     -11.317277      -307.9588
   3   2.0000     -11.298874      -307.4580
   4   2.0000     -11.281645      -306.9892
   5   2.0000     -11.273115      -306.7571
   6   2.0000     -11.268260      -306.6250
   7   2.0000     -11.235331      -305.7289
   8   2.0000     -11.217978      -305.2567
   9   2.0000      -1.357420       -36.9373
  10   2.0000      -1.193446       -32.4753
  11   2.0000      -1.059384       -28.8273
  12   2.0000      -1.015282       -27.6272
  13   2.0000      -0.979199       -26.6454
  14   2.0000      -0.887273       -24.1439
  15   2.0000      -0.815603       -22.1937
  16   2.0000      -0.771716       -20.9995
  17   2.0000      -0.724235       -19.7074
  18   2.0000      -0.670379       -18.2419
  19   2.0000      -0.635767       -17.3001
  20   2.0000      -0.626847       -17.0574
  21   2.0000      -0.590671       -16.0730
  22   2.0000      -0.580909       -15.8073
  23   2.0000      -0.576443       -15.6858
  24   2.0000      -0.554736       -15.0951
  25   2.0000      -0.532223       -14.4825
  26   2.0000      -0.520989       -14.1768
  27   2.0000      -0.495797       -13.4913
  28   2.0000      -0.482696       -13.1348
  29   2.0000      -0.440671       -11.9913
  30   2.0000      -0.438200       -11.9240
  31   2.0000      -0.383249       -10.4287
  32   2.0000      -0.355388        -9.6706
  33   0.0000       0.102999         2.8027
  34   0.0000       0.136563         3.7161
  35   0.0000       0.149401         4.0654
  36   0.0000       0.167671         4.5626
  37   0.0000       0.177609         4.8330

MULLIKEN ATOMIC CHARGES
-----------------------
   0 C :   -0.397597
   1 C :    0.076309
   2 N :   -0.256713
   3 C :    0.120463
   4 C :   -0.157208
   5 C :    0.087662
   6 C :   -0.409578
   7 C :   -0.153260
   8 N :   -0.202273
   9 H :    0.125194
  10 H :    0.141050
  11 H :    0.124435
  12 H :    0.104657
  13 H :    0.123282
  14 H :    0.130998
  15 H :    0.139647
  16 H :    0.142496
  17 H :    0.135041
  18 H :    0.125396
Sum of atomic charges:   -0.0000000

LOEWDIN ATOMIC CHARGES
----------------------
   0 C :   -0.290413
   1 C :   -0.272765
   2 N :    0.143835
   3 C :   -0.277506
   4 C :   -0.144751
   5 C :   -0.222925
   6 C :   -0.271882
   7 C :   -0.191565
   8 N :    0.175198
   9 H :    0.125482
  10 H :    0.128255
  11 H :    0.125374
  12 H :    0.149297
  13 H :    0.144050
  14 H :    0.136355
  15 H :    0.131832
  16 H :    0.134174
  17 H :    0.131269
  18 H :    0.146687

  Mayer bond orders larger than 0.1
B(  0-C ,  1-C ) :   0.9034 B(  0-C ,  9-H ) :   0.9372 B(  0-C , 10-H ) :   0.9355
B(  0-C , 11-H ) :   0.9338 B(  1-C ,  2-N ) :   0.8839 B(  1-C ,  7-C ) :   0.9158
B(  1-C , 12-H ) :   0.9015 B(  2-N ,  3-C ) :   1.8476 B(  3-C ,  4-C ) :   0.9707
B(  3-C ,  8-N ) :   0.9365 B(  4-C ,  5-C ) :   0.8971 B(  4-C , 13-H ) :   0.8887
B(  4-C , 14-H ) :   0.9107 B(  5-C ,  6-C ) :   0.8573 B(  5-C ,  7-C ) :   0.9269
B(  5-C ,  8-N ) :   0.7953 B(  6-C , 15-H ) :   0.9368 B(  6-C , 16-H ) :   0.9328
B(  6-C , 17-H ) :   0.9318 B(  7-C ,  8-N ) :   0.9281 B(  7-C , 18-H ) :   0.8975

MP2 TOTAL ENERGY:     -381.305507309 Eh
FINAL SINGLE POINT ENERGY      -381.305507309258

DIPOLE MOMENT
-------------
                                X             Y             Z
Electronic contribution:     -1.14623      -5.32056      -2.96415
Nuclear contribution   :      1.57653       5.98281       3.67254
                        -----------------------------------------
Total Dipole Moment    :      0.43030       0.66225       0.70839
                        -----------------------------------------
Magnitude (a.u.)       :      1.06092
Magnitude (Debye)      :      2.69665

                             ****ORCA TERMINATED NORMALLY****
TOTAL RUN TIME: 0 days 0 hours 22 minutes 13 seconds 117 msec
