                         Program Version 3.0.3 - RELEASE   -
|  1> ! RI-MP2 RIJK def2-TZVP def2-TZVP/C def2-TZVP/JK TIGHTSCF
|  2> % maxcore 2000
|  3> % mp2 density relaxed end
|  4> *xyz 0 1
|  5>  C        0.1919595282     1.2005802746    -0.9104792155
|  6>  C        0.5676200648    -0.2525136837    -0.6485922662
|  7>  C        1.8751497932    -0.8829791974    -1.2480571716
|  8>  C        2.2337744360    -1.4113310280     0.1513876554
|  9>  C        2.4248396818    -0.2920468652     1.1560025196
| 10>  C        3.0976091125     0.9998922138     0.8761396902
| 11>  O        3.6859732542     1.6351613344     1.7199586866
| 12>  C        1.0174099174    -0.7227489058     0.7429718908
| 13>  H        0.9904935935     1.8977448891    -0.6432234261
| 14>  H       -0.0416713188     1.3534175441    -1.9700308422
| 15>  H       -0.6957232579     1.4804927859    -0.3326247685
| 16>  H       -0.2750184607    -0.8847763079    -0.9490183160
| 17>  H        1.6640646325    -1.6838577351    -1.9593626014
| 18>  H        2.5898931439    -0.1983270822    -1.7122805343
| 19>  H        2.6302305798    -2.3970472352     0.3627548506
| 20>  H        2.6642257576    -0.6441335808     2.1562774565
| 21>  H        3.0642903477     1.3590083769    -0.1730858466
| 22>  H        0.3500854743    -1.0703549374     1.5235992487
| 23> *
| 24>
| 25>                          ****END OF INPUT****

CARTESIAN COORDINATES (ANGSTROEM)
---------------------------------
  C      0.191960    1.200580   -0.910479
  C      0.567620   -0.252514   -0.648592
  C      1.875150   -0.882979   -1.248057
  C      2.233774   -1.411331    0.151388
  C      2.424840   -0.292047    1.156003
  C      3.097609    0.999892    0.876140
  O      3.685973    1.635161    1.719959
  C      1.017410   -0.722749    0.742972
  H      0.990494    1.897745   -0.643223
  H     -0.041671    1.353418   -1.970031
  H     -0.695723    1.480493   -0.332625
  H     -0.275018   -0.884776   -0.949018
  H      1.664065   -1.683858   -1.959363
  H      2.589893   -0.198327   -1.712281
  H      2.630231   -2.397047    0.362755
  H      2.664226   -0.644134    2.156277
  H      3.064290    1.359008   -0.173086
  H      0.350085   -1.070355    1.523599

 Total Charge           Charge          ....    0
 Multiplicity           Mult            ....    1
 Number of Electrons    NEL             ....   60
 Basis Dimension        Dim             ....  308

ORBITAL ENERGIES
----------------

  NO   OCC          E(Eh)            E(eV)
   0   2.0000     -20.546617      -559.1019
   1   2.0000     -11.325947      -308.1947
   2   2.0000     -11.253933      -306.2351
   3   2.0000     -11.253232      -306.2160
   4   2.0000     -11.248168      -306.0782
   5   2.0000     -11.248123      -306.0770
   6   2.0000     -11.240352      -305.8655
   7   2.0000     -11.223670      -305.4116
   8   2.0000      -1.384980       -37.6872
   9   2.0000      -1.207161       -32.8485
  10   2.0000      -1.039605       -28.2891
  11   2.0000      -0.965736       -26.2790
  12   2.0000      -0.904128       -24.6026
  13   2.0000      -0.856359       -23.3027
  14   2.0000      -0.766654       -20.8617
  15   2.0000      -0.738754       -20.1025
  16   2.0000      -0.706150       -19.2153
  17   2.0000      -0.656363       -17.8605
  18   2.0000      -0.631281       -17.1780
  19   2.0000      -0.607798       -16.5390
  20   2.0000      -0.584204       -15.8970
  21   2.0000      -0.574193       -15.6246
  22   2.0000      -0.551483       -15.0066
  23   2.0000      -0.526425       -14.3247
  24   2.0000      -0.506783       -13.7903
  25   2.0000      -0.478406       -13.0181
  26   2.0000      -0.468125       -12.7383
  27   2.0000      -0.436975       -11.8907
  28   2.0000      -0.411483       -11.1970
  29   2.0000      -0.386480       -10.5167
  30   0.0000       0.124675         3.3926
  31   0.0000       0.134459         3.6588
  32   0.0000       0.147664         4.0181
  33   0.0000       0.169251         4.6056
  34   0.0000       0.176198         4.7946

MULLIKEN ATOMIC CHARGES
-----------------------
   0 C :   -0.384713
   1 C :   -0.090083
   2 C :   -0.267992
   3 C :   -0.101356
   4 C :   -0.112437
   5 C :    0.075627
   6 O :   -0.273351
   7 C :   -0.095966
   8 H :    0.117680
   9 H :    0.133307
  10 H :    0.135049
  11 H :    0.104946
  12 H :    0.130690
  13 H :    0.128056
  14 H :    0.141821
  15 H :    0.134185
  16 H :    0.085345
  17 H :    0.139192
Sum of atomic charges:   -0.0000000

LOEWDIN ATOMIC CHARGES
----------------------
   0 C :   -0.296426
   1 C :   -0.232147
   2 C :   -0.191865
   3 C :   -0.152300
   4 C :   -0.182442
   5 C :   -0.288204
   6 O :    0.123071
   7 C :   -0.134473
   8 H :    0.121447
   9 H :    0.126048
  10 H :    0.127886
  11 H :    0.156669
  12 H :    0.136334
  13 H :    0.128284
  14 H :    0.138272
  15 H :    0.167280
  16 H :    0.112622
  17 H :    0.139943

  Mayer bond orders larger than 0.1
B(  0-C ,  1-C ) :   0.9307 B(  0-C ,  8-H ) :   0.9288 B(  0-C ,  9-H ) :   0.9363
B(  0-C , 10-H ) :   0.9376 B(  1-C ,  2-C ) :   0.9470 B(  1-C ,  7-C ) :   0.9212
B(  1-C , 11-H ) :   0.9233 B(  2-C ,  3-C ) :   0.9216 B(  2-C , 12-H ) :   0.9245
B(  2-C , 13-H ) :   0.9291 B(  3-C ,  4-C ) :   0.8190 B(  3-C ,  7-C ) :   0.8225
B(  3-C , 14-H ) :   0.9178 B(  4-C ,  5-C ) :   0.9127 B(  4-C ,  7-C ) :   0.8130
B(  4-C , 15-H ) :   0.9226 B(  5-C ,  6-O ) :   1.9752 B(  5-C , 16-H ) :   0.9521
B(  7-C , 17-H ) :   0.9207

MP2 TOTAL ENERGY:     -347.170033111 Eh
FINAL SINGLE POINT ENERGY      -347.170033110648

DIPOLE MOMENT
-------------
                                X             Y             Z
Electronic contribution:      4.83289       0.60901       4.83919
Nuclear contribution   :     -5.63643      -1.48421      -5.59473
                        -----------------------------------------
Total Dipole Moment    :     -0.80354      -0.87519      -0.75554
                        -----------------------------------------
Magnitude (a.u.)       :      1.40800
Magnitude (Debye)      :      3.57886

                             ****ORCA TERMINATED NORMALLY****
TOTAL RUN TIME: 0 days 0 hours 13 minutes 10 seconds 113 msec
