                         Program Version 3.0.3 - RELEASE   -
|  1> ! RI-MP2 RIJK def2-TZVP def2-TZVP/C def2-TZVP/JK TIGHTSCF
|  2> % maxcore 2000
|  3> % mp2 density relaxed end
|  4> *xyz 0 1
|  5>  O       -0.3104076060     1.4615835001    -0.1517366644
|  6>  C       -0.0806212499     0.0703798656    -0.1010390651
|  7>  C        1.1650608823    -0.4121177282    -0.9410985952
|  8>  N        1.9271307582    -0.4873022875     0.3619916896
|  9>  C        0.7148736249    -0.4837375204     1.0530813723
| 10>  N        0.1393446997    -1.0498605295     2.0296707137
| 11>  C       -1.3147718452    -0.8792854640     1.7104389579
| 12>  C       -1.4013770885    -0.6605589363     0.1539383520
| 13>  H        0.5126797925     1.9124226752     0.0693830916
| 14>  H        1.0363685455    -1.3874208135    -1.4217533018
| 15>  H        1.5707159365     0.3162278073    -1.6472319948
| 16>  H        2.6148467353    -1.2116892836     0.5349384902
| 17>  H       -1.8490093741    -1.7791035764     2.0263076289
| 18>  H       -1.7404512698    -0.0320741384     2.2618625621
| 19>  H       -2.2675059855    -0.0766202490    -0.1639761620
| 20>  H       -1.4235590959    -1.6318871813    -0.3488542852
| 21> *
| 22>
| 23>                          ****END OF INPUT****

CARTESIAN COORDINATES (ANGSTROEM)
---------------------------------
  O     -0.310408    1.461584   -0.151737
  C     -0.080621    0.070380   -0.101039
  C      1.165061   -0.412118   -0.941099
  N      1.927131   -0.487302    0.361992
  C      0.714874   -0.483738    1.053081
  N      0.139345   -1.049861    2.029671
  C     -1.314772   -0.879285    1.710439
  C     -1.401377   -0.660559    0.153938
  H      0.512680    1.912423    0.069383
  H      1.036369   -1.387421   -1.421753
  H      1.570716    0.316228   -1.647232
  H      2.614847   -1.211689    0.534938
  H     -1.849009   -1.779104    2.026308
  H     -1.740451   -0.032074    2.261863
  H     -2.267506   -0.076620   -0.163976
  H     -1.423559   -1.631887   -0.348854

 Total Charge           Charge          ....    0
 Multiplicity           Mult            ....    1
 Number of Electrons    NEL             ....   60
 Basis Dimension        Dim             ....  296

ORBITAL ENERGIES
----------------

  NO   OCC          E(Eh)            E(eV)
   0   2.0000     -20.573190      -559.8250
   1   2.0000     -15.585150      -424.0935
   2   2.0000     -15.540457      -422.8773
   3   2.0000     -11.300008      -307.4889
   4   2.0000     -11.298895      -307.4586
   5   2.0000     -11.284339      -307.0625
   6   2.0000     -11.252913      -306.2073
   7   2.0000     -11.233797      -305.6872
   8   2.0000      -1.386871       -37.7387
   9   2.0000      -1.291980       -35.1566
  10   2.0000      -1.201493       -32.6943
  11   2.0000      -1.037480       -28.2313
  12   2.0000      -0.949699       -25.8426
  13   2.0000      -0.906832       -24.6761
  14   2.0000      -0.824846       -22.4452
  15   2.0000      -0.764938       -20.8150
  16   2.0000      -0.690166       -18.7804
  17   2.0000      -0.657555       -17.8930
  18   2.0000      -0.654341       -17.8055
  19   2.0000      -0.625946       -17.0328
  20   2.0000      -0.594541       -16.1783
  21   2.0000      -0.571378       -15.5480
  22   2.0000      -0.561690       -15.2844
  23   2.0000      -0.524999       -14.2859
  24   2.0000      -0.519951       -14.1486
  25   2.0000      -0.489445       -13.3185
  26   2.0000      -0.476369       -12.9627
  27   2.0000      -0.447434       -12.1753
  28   2.0000      -0.399173       -10.8620
  29   2.0000      -0.358287        -9.7495
  30   0.0000       0.125157         3.4057
  31   0.0000       0.149432         4.0663
  32   0.0000       0.156724         4.2647
  33   0.0000       0.166916         4.5420
  34   0.0000       0.174300         4.7430

MULLIKEN ATOMIC CHARGES
-----------------------
   0 O :   -0.462684
   1 C :    0.208024
   2 C :   -0.159177
   3 N :   -0.313261
   4 C :   -0.015305
   5 N :   -0.201882
   6 C :   -0.094897
   7 C :   -0.250145
   8 H :    0.324847
   9 H :    0.123982
  10 H :    0.124227
  11 H :    0.227048
  12 H :    0.120865
  13 H :    0.116688
  14 H :    0.136794
  15 H :    0.114875
Sum of atomic charges:    0.0000000

LOEWDIN ATOMIC CHARGES
----------------------
   0 O :    0.022177
   1 C :   -0.324675
   2 C :   -0.197574
   3 N :    0.071170
   4 C :   -0.344635
   5 N :    0.088806
   6 C :   -0.246794
   7 C :   -0.208071
   8 H :    0.184543
   9 H :    0.125656
  10 H :    0.123261
  11 H :    0.169305
  12 H :    0.126403
  13 H :    0.128381
  14 H :    0.141203
  15 H :    0.140842

  Mayer bond orders larger than 0.1
B(  0-O ,  1-C ) :   0.9783 B(  0-O ,  8-H ) :   0.8354 B(  1-C ,  2-C ) :   0.9105
B(  1-C ,  4-C ) :   0.8953 B(  1-C ,  7-C ) :   0.9107 B(  2-C ,  3-N ) :   0.9175
B(  2-C ,  9-H ) :   0.9028 B(  2-C , 10-H ) :   0.9174 B(  3-N ,  4-C ) :   1.1580
B(  3-N , 11-H ) :   0.8668 B(  4-C ,  5-N ) :   1.9133 B(  5-N ,  6-C ) :   0.8946
B(  6-C ,  7-C ) :   0.9422 B(  6-C , 12-H ) :   0.9250 B(  6-C , 13-H ) :   0.9228
B(  7-C , 14-H ) :   0.9206 B(  7-C , 15-H ) :   0.9208

MP2 TOTAL ENERGY:     -379.259012352 Eh
FINAL SINGLE POINT ENERGY      -379.259012352044

DIPOLE MOMENT
-------------
                                X             Y             Z
Electronic contribution:      2.51975       1.36677       1.57885
Nuclear contribution   :     -2.20979      -1.58945      -2.44793
                        -----------------------------------------
Total Dipole Moment    :      0.30996      -0.22268      -0.86908
                        -----------------------------------------
Magnitude (a.u.)       :      0.94919
Magnitude (Debye)      :      2.41265

                             ****ORCA TERMINATED NORMALLY****
TOTAL RUN TIME: 0 days 0 hours 12 minutes 21 seconds 134 msec
