                         Program Version 3.0.3 - RELEASE   -
|  1> ! RI-MP2 RIJK def2-TZVP def2-TZVP/C def2-TZVP/JK TIGHTSCF
|  2> % maxcore 2000
|  3> % mp2 density relaxed end
|  4> *xyz 0 1
|  5>  C       -0.0640099139     1.5396242375    -0.0068598539
|  6>  C       -0.0599606069     0.0130623668    -0.1096312936
|  7>  C        0.8318339801    -0.5150287679    -1.2422727605
|  8>  O        2.1800916349    -0.0641521833    -1.0970113347
|  9>  C        0.7542274914    -2.0215730966    -1.3718511185
| 10>  C       -0.2715022087    -2.6577750903    -2.2781495459
| 11>  C        1.1902849335    -2.6909886422    -2.6470680566
| 12>  H        0.9546602158     1.9180883366     0.1101236048
| 13>  H       -0.4840291544     1.9930696391    -0.9117419122
| 14>  H       -0.6612499092     1.8799547335     0.8444608329
| 15>  H        0.2878343962    -0.4250681258     0.8377520035
| 16>  H       -1.0786019678    -0.3638759525    -0.2630041492
| 17>  H        0.5021603535    -0.0676730108    -2.1899418814
| 18>  H        2.5501024133    -0.5037318313    -0.3233975187
| 19>  H        0.9680313182    -2.5562402092    -0.4470577739
| 20>  H       -0.7465573590    -3.5770388044    -1.9540870770
| 21>  H       -0.9231565844    -1.9998882059    -2.8445567999
| 22>  H        1.5277031081    -2.0501910873    -3.4548071464
| 23>  H        1.7174225593    -3.6362781259    -2.5812977489
| 24> *
| 25>
| 26>                          ****END OF INPUT****

CARTESIAN COORDINATES (ANGSTROEM)
---------------------------------
  C     -0.064010    1.539624   -0.006860
  C     -0.059961    0.013062   -0.109631
  C      0.831834   -0.515029   -1.242273
  O      2.180092   -0.064152   -1.097011
  C      0.754227   -2.021573   -1.371851
  C     -0.271502   -2.657775   -2.278150
  C      1.190285   -2.690989   -2.647068
  H      0.954660    1.918088    0.110124
  H     -0.484029    1.993070   -0.911742
  H     -0.661250    1.879955    0.844461
  H      0.287834   -0.425068    0.837752
  H     -1.078602   -0.363876   -0.263004
  H      0.502160   -0.067673   -2.189942
  H      2.550102   -0.503732   -0.323398
  H      0.968031   -2.556240   -0.447058
  H     -0.746557   -3.577039   -1.954087
  H     -0.923157   -1.999888   -2.844557
  H      1.527703   -2.050191   -3.454807
  H      1.717423   -3.636278   -2.581298

 Total Charge           Charge          ....    0
 Multiplicity           Mult            ....    1
 Number of Electrons    NEL             ....   56
 Basis Dimension        Dim             ....  289

ORBITAL ENERGIES
----------------

  NO   OCC          E(Eh)            E(eV)
   0   2.0000     -20.548018      -559.1400
   1   2.0000     -11.277023      -306.8634
   2   2.0000     -11.229595      -305.5728
   3   2.0000     -11.227550      -305.5172
   4   2.0000     -11.223891      -305.4176
   5   2.0000     -11.219924      -305.3097
   6   2.0000     -11.208211      -304.9909
   7   2.0000      -1.354083       -36.8465
   8   2.0000      -1.143566       -31.1180
   9   2.0000      -1.043526       -28.3958
  10   2.0000      -0.930825       -25.3290
  11   2.0000      -0.827320       -22.5125
  12   2.0000      -0.815308       -22.1856
  13   2.0000      -0.791563       -21.5395
  14   2.0000      -0.677565       -18.4375
  15   2.0000      -0.657303       -17.8861
  16   2.0000      -0.626825       -17.0568
  17   2.0000      -0.622455       -16.9379
  18   2.0000      -0.570644       -15.5280
  19   2.0000      -0.559439       -15.2231
  20   2.0000      -0.526710       -14.3325
  21   2.0000      -0.517816       -14.0905
  22   2.0000      -0.512901       -13.9567
  23   2.0000      -0.481167       -13.0932
  24   2.0000      -0.464254       -12.6330
  25   2.0000      -0.448507       -12.2045
  26   2.0000      -0.414992       -11.2925
  27   2.0000      -0.407759       -11.0957
  28   0.0000       0.135525         3.6878
  29   0.0000       0.147264         4.0073
  30   0.0000       0.162511         4.4222
  31   0.0000       0.169495         4.6122
  32   0.0000       0.185895         5.0585

MULLIKEN ATOMIC CHARGES
-----------------------
   0 C :   -0.373396
   1 C :   -0.216064
   2 C :    0.055338
   3 O :   -0.466060
   4 C :   -0.087447
   5 C :   -0.283708
   6 C :   -0.243632
   7 H :    0.135314
   8 H :    0.117645
   9 H :    0.130539
  10 H :    0.094781
  11 H :    0.115784
  12 H :    0.080605
  13 H :    0.307073
  14 H :    0.113596
  15 H :    0.128489
  16 H :    0.129006
  17 H :    0.133676
  18 H :    0.128460
Sum of atomic charges:    0.0000000

LOEWDIN ATOMIC CHARGES
----------------------
   0 C :   -0.320023
   1 C :   -0.280888
   2 C :   -0.336063
   3 O :   -0.020824
   4 C :   -0.227402
   5 C :   -0.227809
   6 C :   -0.225401
   7 H :    0.123933
   8 H :    0.120682
   9 H :    0.119277
  10 H :    0.134125
  11 H :    0.141292
  12 H :    0.149442
  13 H :    0.173323
  14 H :    0.146151
  15 H :    0.130372
  16 H :    0.132630
  17 H :    0.136448
  18 H :    0.130735

  Mayer bond orders larger than 0.1
B(  0-C ,  1-C ) :   0.9270 B(  0-C ,  7-H ) :   0.9351 B(  0-C ,  8-H ) :   0.9381
B(  0-C ,  9-H ) :   0.9417 B(  1-C ,  2-C ) :   0.9432 B(  1-C , 10-H ) :   0.9135
B(  1-C , 11-H ) :   0.9311 B(  2-C ,  3-O ) :   0.9249 B(  2-C ,  4-C ) :   0.9514
B(  2-C , 12-H ) :   0.9124 B(  3-O , 13-H ) :   0.8460 B(  4-C ,  5-C ) :   0.8919
B(  4-C ,  6-C ) :   0.8741 B(  4-C , 14-H ) :   0.9072 B(  5-C ,  6-C ) :   0.9084
B(  5-C , 15-H ) :   0.9251 B(  5-C , 16-H ) :   0.9299 B(  6-C , 17-H ) :   0.9293
B(  6-C , 18-H ) :   0.9317

MP2 TOTAL ENERGY:     -310.375238213 Eh
FINAL SINGLE POINT ENERGY      -310.375238212603

DIPOLE MOMENT
-------------
                                X             Y             Z
Electronic contribution:      3.00993      -1.37861      -1.07108
Nuclear contribution   :     -3.30628       0.93189       1.44046
                        -----------------------------------------
Total Dipole Moment    :     -0.29635      -0.44672       0.36938
                        -----------------------------------------
Magnitude (a.u.)       :      0.65102
Magnitude (Debye)      :      1.65476

                             ****ORCA TERMINATED NORMALLY****
TOTAL RUN TIME: 0 days 0 hours 9 minutes 5 seconds 817 msec
