                         Program Version 3.0.3 - RELEASE   -
|  1> ! RI-MP2 RIJK def2-TZVP def2-TZVP/C def2-TZVP/JK TIGHTSCF
|  2> % maxcore 2000
|  3> % mp2 density relaxed end
|  4> *xyz 0 1
|  5>  N       -0.0001315657     1.1950549338    -0.4908859921
|  6>  C        0.0864833791    -0.0489630838     0.0715315295
|  7>  O        1.1300593716    -0.4897471233     0.5155568704
|  8>  C       -1.2169865151    -0.8287129770     0.1067563202
|  9>  C       -2.1881182442    -0.8364922265    -1.1202996617
| 10>  C       -2.2936441550    -2.3866878787    -1.0142181140
| 11>  C       -1.3725498197    -3.1633753865    -1.9831949443
| 12>  C       -0.1878405834    -2.9968185624    -0.9818172911
| 13>  C       -1.1521167795    -2.3726971545     0.0686655969
| 14>  H        0.8104689221     1.7913344414    -0.4540944505
| 15>  H       -0.8771575952     1.5892431857    -0.7824077051
| 16>  H       -1.7550778982    -0.5010315547     1.0045714413
| 17>  H       -3.1235004468    -0.2907237251    -0.9728807013
| 18>  H       -1.7352944226    -0.4933285906    -2.0560300513
| 19>  H       -3.2932957406    -2.7801665314    -0.8254206178
| 20>  H       -1.6752988736    -4.2072263576    -2.1040057863
| 21>  H       -1.2473928911    -2.7291763085    -2.9803213892
| 22>  H        0.2649800702    -3.9373507409    -0.6615126246
| 23>  H        0.6185786736    -2.3353007106    -1.3019726907
| 24>  H       -1.2214633159    -2.8928547187     1.0237628518
| 25> *
| 26>
| 27>                          ****END OF INPUT****

CARTESIAN COORDINATES (ANGSTROEM)
---------------------------------
  N     -0.000132    1.195055   -0.490886
  C      0.086483   -0.048963    0.071532
  O      1.130059   -0.489747    0.515557
  C     -1.216987   -0.828713    0.106756
  C     -2.188118   -0.836492   -1.120300
  C     -2.293644   -2.386688   -1.014218
  C     -1.372550   -3.163375   -1.983195
  C     -0.187841   -2.996819   -0.981817
  C     -1.152117   -2.372697    0.068666
  H      0.810469    1.791334   -0.454094
  H     -0.877158    1.589243   -0.782408
  H     -1.755078   -0.501032    1.004571
  H     -3.123500   -0.290724   -0.972881
  H     -1.735294   -0.493329   -2.056030
  H     -3.293296   -2.780167   -0.825421
  H     -1.675299   -4.207226   -2.104006
  H     -1.247393   -2.729176   -2.980321
  H      0.264980   -3.937351   -0.661513
  H      0.618579   -2.335301   -1.301973
  H     -1.221463   -2.892855    1.023763

 Total Charge           Charge          ....    0
 Multiplicity           Mult            ....    1
 Number of Electrons    NEL             ....   68
 Basis Dimension        Dim             ....  345

ORBITAL ENERGIES
----------------

  NO   OCC          E(Eh)            E(eV)
   0   2.0000     -20.511463      -558.1453
   1   2.0000     -15.579284      -423.9339
   2   2.0000     -11.344323      -308.6947
   3   2.0000     -11.240943      -305.8816
   4   2.0000     -11.233636      -305.6828
   5   2.0000     -11.228050      -305.5308
   6   2.0000     -11.226245      -305.4817
   7   2.0000     -11.217865      -305.2536
   8   2.0000     -11.213689      -305.1400
   9   2.0000      -1.375542       -37.4304
  10   2.0000      -1.206871       -32.8406
  11   2.0000      -1.164725       -31.6938
  12   2.0000      -1.024146       -27.8684
  13   2.0000      -0.937705       -25.5162
  14   2.0000      -0.876181       -23.8421
  15   2.0000      -0.839752       -22.8508
  16   2.0000      -0.781091       -21.2546
  17   2.0000      -0.725481       -19.7414
  18   2.0000      -0.697479       -18.9794
  19   2.0000      -0.686115       -18.6701
  20   2.0000      -0.657445       -17.8900
  21   2.0000      -0.618279       -16.8242
  22   2.0000      -0.602349       -16.3907
  23   2.0000      -0.590750       -16.0751
  24   2.0000      -0.556427       -15.1411
  25   2.0000      -0.536094       -14.5878
  26   2.0000      -0.511367       -13.9150
  27   2.0000      -0.482244       -13.1225
  28   2.0000      -0.471396       -12.8273
  29   2.0000      -0.449011       -12.2182
  30   2.0000      -0.419545       -11.4164
  31   2.0000      -0.414387       -11.2761
  32   2.0000      -0.410354       -11.1663
  33   2.0000      -0.394054       -10.7228
  34   0.0000       0.121481         3.3057
  35   0.0000       0.145429         3.9573
  36   0.0000       0.157832         4.2948
  37   0.0000       0.168753         4.5920
  38   0.0000       0.178116         4.8468

MULLIKEN ATOMIC CHARGES
-----------------------
   0 N :   -0.480189
   1 C :    0.224191
   2 O :   -0.343874
   3 C :   -0.106352
   4 C :   -0.304129
   5 C :   -0.056576
   6 C :   -0.252133
   7 C :   -0.294534
   8 C :    0.017773
   9 H :    0.257512
  10 H :    0.261399
  11 H :    0.119424
  12 H :    0.127735
  13 H :    0.123790
  14 H :    0.111931
  15 H :    0.115275
  16 H :    0.105254
  17 H :    0.117669
  18 H :    0.138222
  19 H :    0.117611
Sum of atomic charges:   -0.0000000

LOEWDIN ATOMIC CHARGES
----------------------
   0 N :   -0.020194
   1 C :   -0.466887
   2 O :    0.087795
   3 C :   -0.186818
   4 C :   -0.198978
   5 C :   -0.181403
   6 C :   -0.227227
   7 C :   -0.210290
   8 C :   -0.151448
   9 H :    0.171881
  10 H :    0.170503
  11 H :    0.165958
  12 H :    0.127118
  13 H :    0.133667
  14 H :    0.130702
  15 H :    0.131571
  16 H :    0.123770
  17 H :    0.130666
  18 H :    0.135435
  19 H :    0.134179

  Mayer bond orders larger than 0.1
B(  0-N ,  1-C ) :   1.1389 B(  0-N ,  9-H ) :   0.8590 B(  0-N , 10-H ) :   0.8690
B(  1-C ,  2-O ) :   2.0132 B(  1-C ,  3-C ) :   0.8891 B(  3-C ,  4-C ) :   0.9370
B(  3-C ,  8-C ) :   0.9128 B(  3-C , 11-H ) :   0.8874 B(  4-C ,  5-C ) :   0.9234
B(  4-C , 12-H ) :   0.9172 B(  4-C , 13-H ) :   0.9144 B(  5-C ,  6-C ) :   0.9190
B(  5-C ,  8-C ) :   0.9153 B(  5-C , 14-H ) :   0.9164 B(  6-C ,  7-C ) :   0.9479
B(  6-C , 15-H ) :   0.9210 B(  6-C , 16-H ) :   0.9223 B(  7-C ,  8-C ) :   0.8942
B(  7-C , 17-H ) :   0.9256 B(  7-C , 18-H ) :   0.9273 B(  8-C , 19-H ) :   0.9202

MP2 TOTAL ENERGY:     -402.463331361 Eh
FINAL SINGLE POINT ENERGY      -402.463331361339

DIPOLE MOMENT
-------------
                                X             Y             Z
Electronic contribution:      3.45879       3.23944       3.46128
Nuclear contribution   :     -4.53095      -2.55175      -3.93704
                        -----------------------------------------
Total Dipole Moment    :     -1.07216       0.68769      -0.47575
                        -----------------------------------------
Magnitude (a.u.)       :      1.35970
Magnitude (Debye)      :      3.45608

                             ****ORCA TERMINATED NORMALLY****
TOTAL RUN TIME: 0 days 0 hours 21 minutes 2 seconds 856 msec
