                         Program Version 3.0.3 - RELEASE   -
|  1> ! RI-MP2 RIJK def2-TZVP def2-TZVP/C def2-TZVP/JK TIGHTSCF
|  2> % maxcore 2000
|  3> % mp2 density relaxed end
|  4> *xyz 0 1
|  5>  O       -0.0144555864     1.3781374217    -0.0066662694
|  6>  C        0.0314888039     0.0045612014     0.0220414968
|  7>  C        0.6028488066    -0.9859084946    -1.1264685805
|  8>  C       -0.0180314309    -1.8445672148    -0.0080869495
|  9>  C        0.6863949203    -0.9319039696     1.0585010792
| 10>  O       -0.4858983499    -3.1226539019     0.2593210219
| 11>  C       -1.6731144901    -2.8612329599     1.0539997080
| 12>  O       -1.9390773888    -1.4470964937     1.0998330897
| 13>  C       -1.2143131051    -0.9245243240    -0.0007162202
| 14>  H        0.8727517044     1.7213374604     0.1453205246
| 15>  H        0.0889433914    -0.9653109493    -2.0894814062
| 16>  H        1.6890713751    -0.9990370126    -1.2337742765
| 17>  H        1.7784340931    -0.9616916624     1.0741611554
| 18>  H        0.2509974536    -0.9310795247     2.0569931875
| 19>  H       -2.5052686846    -3.4022728580     0.5854124772
| 20>  H       -1.5197618190    -3.2032703031     2.0831399746
| 21>  H       -1.8325360437    -0.8685338848    -0.9034187925
| 22> *
| 23>
| 24>                          ****END OF INPUT****

CARTESIAN COORDINATES (ANGSTROEM)
---------------------------------
  O     -0.014456    1.378137   -0.006666
  C      0.031489    0.004561    0.022041
  C      0.602849   -0.985908   -1.126469
  C     -0.018031   -1.844567   -0.008087
  C      0.686395   -0.931904    1.058501
  O     -0.485898   -3.122654    0.259321
  C     -1.673114   -2.861233    1.054000
  O     -1.939077   -1.447096    1.099833
  C     -1.214313   -0.924524   -0.000716
  H      0.872752    1.721337    0.145321
  H      0.088943   -0.965311   -2.089481
  H      1.689071   -0.999037   -1.233774
  H      1.778434   -0.961692    1.074161
  H      0.250997   -0.931080    2.056993
  H     -2.505269   -3.402273    0.585412
  H     -1.519762   -3.203270    2.083140
  H     -1.832536   -0.868534   -0.903419

 Total Charge           Charge          ....    0
 Multiplicity           Mult            ....    1
 Number of Electrons    NEL             ....   68
 Basis Dimension        Dim             ....  327

ORBITAL ENERGIES
----------------

  NO   OCC          E(Eh)            E(eV)
   0   2.0000     -20.578848      -559.9789
   1   2.0000     -20.578303      -559.9641
   2   2.0000     -20.572172      -559.7973
   3   2.0000     -11.340221      -308.5831
   4   2.0000     -11.322371      -308.0974
   5   2.0000     -11.301824      -307.5383
   6   2.0000     -11.281774      -306.9927
   7   2.0000     -11.252450      -306.1947
   8   2.0000     -11.234046      -305.6939
   9   2.0000      -1.443769       -39.2870
  10   2.0000      -1.392082       -37.8805
  11   2.0000      -1.342722       -36.5373
  12   2.0000      -1.209556       -32.9137
  13   2.0000      -0.950085       -25.8531
  14   2.0000      -0.930653       -25.3244
  15   2.0000      -0.889943       -24.2166
  16   2.0000      -0.827356       -22.5135
  17   2.0000      -0.764469       -20.8023
  18   2.0000      -0.716556       -19.4985
  19   2.0000      -0.697651       -18.9841
  20   2.0000      -0.682274       -18.5656
  21   2.0000      -0.641892       -17.4668
  22   2.0000      -0.637211       -17.3394
  23   2.0000      -0.618059       -16.8182
  24   2.0000      -0.578660       -15.7462
  25   2.0000      -0.565051       -15.3758
  26   2.0000      -0.547512       -14.8986
  27   2.0000      -0.533429       -14.5154
  28   2.0000      -0.522057       -14.2059
  29   2.0000      -0.484472       -13.1831
  30   2.0000      -0.447641       -12.1809
  31   2.0000      -0.435870       -11.8606
  32   2.0000      -0.414241       -11.2721
  33   2.0000      -0.397612       -10.8196
  34   0.0000       0.128990         3.5100
  35   0.0000       0.153785         4.1847
  36   0.0000       0.169319         4.6074
  37   0.0000       0.175145         4.7659
  38   0.0000       0.189218         5.1489

MULLIKEN ATOMIC CHARGES
-----------------------
   0 O :   -0.439344
   1 C :    0.122636
   2 C :   -0.198206
   3 C :    0.102332
   4 C :   -0.244990
   5 O :   -0.325887
   6 C :    0.129645
   7 O :   -0.334985
   8 C :    0.034874
   9 H :    0.329168
  10 H :    0.125319
  11 H :    0.125289
  12 H :    0.121333
  13 H :    0.131147
  14 H :    0.107177
  15 H :    0.114726
  16 H :    0.099766
Sum of atomic charges:   -0.0000000

LOEWDIN ATOMIC CHARGES
----------------------
   0 O :    0.036935
   1 C :   -0.312258
   2 C :   -0.150128
   3 C :   -0.321499
   4 C :   -0.165982
   5 O :    0.183691
   6 C :   -0.295349
   7 O :    0.160562
   8 C :   -0.224880
   9 H :    0.188775
  10 H :    0.133828
  11 H :    0.130282
  12 H :    0.129779
  13 H :    0.137729
  14 H :    0.112578
  15 H :    0.115147
  16 H :    0.140791

  Mayer bond orders larger than 0.1
B(  0-O ,  1-C ) :   1.0166 B(  0-O ,  9-H ) :   0.8318 B(  1-C ,  2-C ) :   0.8605
B(  1-C ,  4-C ) :   0.9148 B(  1-C ,  8-C ) :   0.8488 B(  2-C ,  3-C ) :   0.9122
B(  2-C , 10-H ) :   0.9151 B(  2-C , 11-H ) :   0.9212 B(  3-C ,  4-C ) :   0.9181
B(  3-C ,  5-O ) :   0.9693 B(  3-C ,  8-C ) :   0.8859 B(  4-C , 12-H ) :   0.9238
B(  4-C , 13-H ) :   0.8970 B(  5-O ,  6-C ) :   0.9045 B(  6-C ,  7-O ) :   0.9307
B(  6-C , 14-H ) :   0.9226 B(  6-C , 15-H ) :   0.9275 B(  7-O ,  8-C ) :   0.9791
B(  8-C , 16-H ) :   0.9730

MP2 TOTAL ENERGY:     -458.144632476 Eh
FINAL SINGLE POINT ENERGY      -458.144632475768

DIPOLE MOMENT
-------------
                                X             Y             Z
Electronic contribution:     -1.69439       0.19428       0.36459
Nuclear contribution   :      2.35057      -0.14446      -0.45219
                        -----------------------------------------
Total Dipole Moment    :      0.65617       0.04982      -0.08760
                        -----------------------------------------
Magnitude (a.u.)       :      0.66387
Magnitude (Debye)      :      1.68741

                             ****ORCA TERMINATED NORMALLY****
TOTAL RUN TIME: 0 days 0 hours 15 minutes 7 seconds 317 msec
