                         Program Version 3.0.3 - RELEASE   -
|  1> ! RI-MP2 RIJK def2-TZVP def2-TZVP/C def2-TZVP/JK TIGHTSCF
|  2> % maxcore 2000
|  3> % mp2 density relaxed end
|  4> *xyz 0 1
|  5>  N        0.0594470102     1.3810091589     0.3093603206
|  6>  C        0.0098531347     0.0296877677     0.0405776173
|  7>  N       -1.1203184035    -0.5552787831    -0.0453727764
|  8>  C       -1.1980288139    -2.0065129712    -0.1384152765
|  9>  C       -0.5155811789    -2.6601938837    -1.3441055519
| 10>  O       -1.1366527318    -3.3283302175    -2.1366070544
| 11>  C        1.0095375096    -2.5485929445    -1.4720778836
| 12>  O        1.5547054838    -1.2508121168    -1.3382956589
| 13>  C        1.3765714518    -0.6419918880    -0.0781197730
| 14>  H        0.8252668422     1.9035862753    -0.0874987891
| 15>  H       -0.8371319872     1.8444178249     0.2534362784
| 16>  H       -0.7779417149    -2.4835987946     0.7647888246
| 17>  H       -2.2500390769    -2.2943528455    -0.1939207356
| 18>  H        1.4495213843    -3.2284681622    -0.7187850412
| 19>  H        1.2905114456    -2.9083468016    -2.4634142617
| 20>  H        2.1764308231     0.0969846522     0.0281055735
| 21>  H        1.4934960019    -1.3734559404     0.7385679080
| 22> *
| 23>
| 24>                          ****END OF INPUT****

CARTESIAN COORDINATES (ANGSTROEM)
---------------------------------
  N      0.059447    1.381009    0.309360
  C      0.009853    0.029688    0.040578
  N     -1.120318   -0.555279   -0.045373
  C     -1.198029   -2.006513   -0.138415
  C     -0.515581   -2.660194   -1.344106
  O     -1.136653   -3.328330   -2.136607
  C      1.009538   -2.548593   -1.472078
  O      1.554705   -1.250812   -1.338296
  C      1.376571   -0.641992   -0.078120
  H      0.825267    1.903586   -0.087499
  H     -0.837132    1.844418    0.253436
  H     -0.777942   -2.483599    0.764789
  H     -2.250039   -2.294353   -0.193921
  H      1.449521   -3.228468   -0.718785
  H      1.290511   -2.908347   -2.463414
  H      2.176431    0.096985    0.028106
  H      1.493496   -1.373456    0.738568

 Total Charge           Charge          ....    0
 Multiplicity           Mult            ....    1
 Number of Electrons    NEL             ....   68
 Basis Dimension        Dim             ....  327

ORBITAL ENERGIES
----------------

  NO   OCC          E(Eh)            E(eV)
   0   2.0000     -20.588325      -560.2368
   1   2.0000     -20.554824      -559.3252
   2   2.0000     -15.582806      -424.0297
   3   2.0000     -15.542908      -422.9440
   4   2.0000     -11.333235      -308.3930
   5   2.0000     -11.327404      -308.2343
   6   2.0000     -11.312842      -307.8381
   7   2.0000     -11.300302      -307.4969
   8   2.0000     -11.266213      -306.5693
   9   2.0000      -1.412947       -38.4482
  10   2.0000      -1.393211       -37.9112
  11   2.0000      -1.278274       -34.7836
  12   2.0000      -1.176633       -32.0178
  13   2.0000      -1.037887       -28.2423
  14   2.0000      -0.970434       -26.4069
  15   2.0000      -0.943225       -25.6665
  16   2.0000      -0.788462       -21.4551
  17   2.0000      -0.764670       -20.8077
  18   2.0000      -0.730805       -19.8862
  19   2.0000      -0.706500       -19.2248
  20   2.0000      -0.673990       -18.3402
  21   2.0000      -0.667107       -18.1529
  22   2.0000      -0.641031       -17.4433
  23   2.0000      -0.630711       -17.1625
  24   2.0000      -0.620531       -16.8855
  25   2.0000      -0.576001       -15.6738
  26   2.0000      -0.552514       -15.0347
  27   2.0000      -0.528577       -14.3833
  28   2.0000      -0.518896       -14.1199
  29   2.0000      -0.509507       -13.8644
  30   2.0000      -0.484929       -13.1956
  31   2.0000      -0.422787       -11.5046
  32   2.0000      -0.400499       -10.8981
  33   2.0000      -0.362768        -9.8714
  34   0.0000       0.115356         3.1390
  35   0.0000       0.134576         3.6620
  36   0.0000       0.144723         3.9381
  37   0.0000       0.150612         4.0984
  38   0.0000       0.178471         4.8564

MULLIKEN ATOMIC CHARGES
-----------------------
   0 N :   -0.492865
   1 C :    0.170825
   2 N :   -0.272838
   3 C :   -0.119608
   4 C :    0.138009
   5 O :   -0.262904
   6 C :   -0.074999
   7 O :   -0.299224
   8 C :   -0.089278
   9 H :    0.254317
  10 H :    0.257927
  11 H :    0.122431
  12 H :    0.146883
  13 H :    0.114617
  14 H :    0.148284
  15 H :    0.133854
  16 H :    0.124568
Sum of atomic charges:    0.0000000

LOEWDIN ATOMIC CHARGES
----------------------
   0 N :   -0.041480
   1 C :   -0.379461
   2 N :    0.081846
   3 C :   -0.270487
   4 C :   -0.324335
   5 O :    0.164533
   6 C :   -0.289692
   7 O :    0.169178
   8 C :   -0.285076
   9 H :    0.168971
  10 H :    0.173444
  11 H :    0.141427
  12 H :    0.144731
  13 H :    0.133170
  14 H :    0.142839
  15 H :    0.135845
  16 H :    0.134547

  Mayer bond orders larger than 0.1
B(  0-N ,  1-C ) :   1.1087 B(  0-N ,  9-H ) :   0.8707 B(  0-N , 10-H ) :   0.8617
B(  1-C ,  2-N ) :   1.8316 B(  1-C ,  8-C ) :   0.8940 B(  2-N ,  3-C ) :   0.8991
B(  3-C ,  4-C ) :   0.8999 B(  3-C , 11-H ) :   0.9075 B(  3-C , 12-H ) :   0.9255
B(  4-C ,  5-O ) :   2.0065 B(  4-C ,  6-C ) :   0.8771 B(  6-C ,  7-O ) :   0.9165
B(  6-C , 13-H ) :   0.9225 B(  6-C , 14-H ) :   0.9208 B(  7-O ,  8-C ) :   0.9141
B(  8-C , 15-H ) :   0.9217 B(  8-C , 16-H ) :   0.9315

MP2 TOTAL ENERGY:     -454.412375146 Eh
FINAL SINGLE POINT ENERGY      -454.412375145940

DIPOLE MOMENT
-------------
                                X             Y             Z
Electronic contribution:     -1.93126      -1.01483      -2.84556
Nuclear contribution   :      2.96059       1.68720       3.64769
                        -----------------------------------------
Total Dipole Moment    :      1.02934       0.67236       0.80213
                        -----------------------------------------
Magnitude (a.u.)       :      1.46800
Magnitude (Debye)      :      3.73135

                             ****ORCA TERMINATED NORMALLY****
TOTAL RUN TIME: 0 days 0 hours 16 minutes 47 seconds 93 msec
