                         Program Version 3.0.3 - RELEASE   -
|  1> ! RI-MP2 RIJK def2-TZVP def2-TZVP/C def2-TZVP/JK TIGHTSCF
|  2> % maxcore 2000
|  3> % mp2 density relaxed end
|  4> *xyz 0 1
|  5>  O       -0.0495922719     0.1008930693     0.4258413154
|  6>  C       -0.0425061730     1.2538224935     0.1062387551
|  7>  C       -1.1906213686     2.0896981301    -0.4522186066
|  8>  C       -0.6979034847     3.5307251157    -0.3018344744
|  9>  C        0.8400235819     3.3698391440    -0.2981881024
| 10>  O        1.0717194247     2.0286465535     0.1969709621
| 11>  C        1.4852297808     3.5434168438    -1.6492369943
| 12>  C        2.0132651017     4.9015386153    -2.0457994997
| 13>  C        2.9691086995     3.7749683122    -1.7488012853
| 14>  H       -1.3392038894     1.8020057019    -1.4988520940
| 15>  H       -2.1143854804     1.8611909089     0.0805814604
| 16>  H       -1.0296220405     4.1997733741    -1.0977976159
| 17>  H       -1.0319924513     3.9492434892     0.6516084871
| 18>  H        1.3177237401     4.0443665669     0.4192246782
| 19>  H        1.0331121567     2.9503799751    -2.4406188466
| 20>  H        1.8863477962     5.2185764165    -3.0745379820
| 21>  H        1.9376659928     5.7074921718    -1.3227207999
| 22>  H        3.5349662884     3.8167456407    -0.8242210640
| 23>  H        3.5020843072     3.3172472175    -2.5740424633
| 24> *
| 25>
| 26>                          ****END OF INPUT****

CARTESIAN COORDINATES (ANGSTROEM)
---------------------------------
  O     -0.049592    0.100893    0.425841
  C     -0.042506    1.253822    0.106239
  C     -1.190621    2.089698   -0.452219
  C     -0.697903    3.530725   -0.301834
  C      0.840024    3.369839   -0.298188
  O      1.071719    2.028647    0.196971
  C      1.485230    3.543417   -1.649237
  C      2.013265    4.901539   -2.045799
  C      2.969109    3.774968   -1.748801
  H     -1.339204    1.802006   -1.498852
  H     -2.114385    1.861191    0.080581
  H     -1.029622    4.199773   -1.097798
  H     -1.031992    3.949243    0.651608
  H      1.317724    4.044367    0.419225
  H      1.033112    2.950380   -2.440619
  H      1.886348    5.218576   -3.074538
  H      1.937666    5.707492   -1.322721
  H      3.534966    3.816746   -0.824221
  H      3.502084    3.317247   -2.574042

 Total Charge           Charge          ....    0
 Multiplicity           Mult            ....    1
 Number of Electrons    NEL             ....   68
 Basis Dimension        Dim             ....  339

ORBITAL ENERGIES
----------------

  NO   OCC          E(Eh)            E(eV)
   0   2.0000     -20.594457      -560.4037
   1   2.0000     -20.534443      -558.7706
   2   2.0000     -11.373174      -309.4798
   3   2.0000     -11.307219      -307.6851
   4   2.0000     -11.253626      -306.2267
   5   2.0000     -11.249735      -306.1208
   6   2.0000     -11.245540      -306.0067
   7   2.0000     -11.240721      -305.8756
   8   2.0000     -11.236806      -305.7690
   9   2.0000      -1.451933       -39.5091
  10   2.0000      -1.361147       -37.0387
  11   2.0000      -1.160800       -31.5870
  12   2.0000      -1.086337       -29.5607
  13   2.0000      -0.992940       -27.0193
  14   2.0000      -0.869190       -23.6519
  15   2.0000      -0.836021       -22.7493
  16   2.0000      -0.813630       -22.1400
  17   2.0000      -0.765686       -20.8354
  18   2.0000      -0.710394       -19.3308
  19   2.0000      -0.690941       -18.8015
  20   2.0000      -0.662187       -18.0190
  21   2.0000      -0.640141       -17.4191
  22   2.0000      -0.625753       -17.0276
  23   2.0000      -0.594495       -16.1770
  24   2.0000      -0.580435       -15.7944
  25   2.0000      -0.557087       -15.1591
  26   2.0000      -0.534982       -14.5576
  27   2.0000      -0.528425       -14.3792
  28   2.0000      -0.518621       -14.1124
  29   2.0000      -0.491817       -13.3830
  30   2.0000      -0.456813       -12.4305
  31   2.0000      -0.433748       -11.8029
  32   2.0000      -0.429248       -11.6804
  33   2.0000      -0.425376       -11.5751
  34   0.0000       0.125138         3.4052
  35   0.0000       0.137197         3.7333
  36   0.0000       0.153445         4.1754
  37   0.0000       0.158363         4.3093
  38   0.0000       0.167917         4.5693

MULLIKEN ATOMIC CHARGES
-----------------------
   0 O :   -0.286700
   1 C :    0.240668
   2 C :   -0.261600
   3 C :   -0.253059
   4 C :    0.091716
   5 O :   -0.217645
   6 C :   -0.143101
   7 C :   -0.273385
   8 C :   -0.252648
   9 H :    0.143420
  10 H :    0.146962
  11 H :    0.139733
  12 H :    0.134557
  13 H :    0.119365
  14 H :    0.128660
  15 H :    0.135641
  16 H :    0.131821
  17 H :    0.138042
  18 H :    0.137554
Sum of atomic charges:    0.0000000

LOEWDIN ATOMIC CHARGES
----------------------
   0 O :    0.134273
   1 C :   -0.468862
   2 C :   -0.229668
   3 C :   -0.228030
   4 C :   -0.259530
   5 O :    0.277588
   6 C :   -0.216697
   7 C :   -0.223649
   8 C :   -0.217548
   9 H :    0.154832
  10 H :    0.150990
  11 H :    0.143528
  12 H :    0.142460
  13 H :    0.149683
  14 H :    0.151952
  15 H :    0.132860
  16 H :    0.133833
  17 H :    0.137373
  18 H :    0.134613

  Mayer bond orders larger than 0.1
B(  0-O ,  1-C ) :   2.0450 B(  1-C ,  2-C ) :   0.9263 B(  1-C ,  5-O ) :   1.1096
B(  2-C ,  3-C ) :   0.9449 B(  2-C ,  9-H ) :   0.9102 B(  2-C , 10-H ) :   0.9170
B(  3-C ,  4-C ) :   0.8852 B(  3-C , 11-H ) :   0.9282 B(  3-C , 12-H ) :   0.9278
B(  4-C ,  5-O ) :   0.8622 B(  4-C ,  6-C ) :   0.9355 B(  4-C , 13-H ) :   0.9273
B(  6-C ,  7-C ) :   0.8770 B(  6-C ,  8-C ) :   0.8821 B(  6-C , 14-H ) :   0.9110
B(  7-C ,  8-C ) :   0.9027 B(  7-C , 15-H ) :   0.9268 B(  7-C , 16-H ) :   0.9264
B(  8-C , 17-H ) :   0.9305 B(  8-C , 18-H ) :   0.9307

MP2 TOTAL ENERGY:     -422.355751465 Eh
FINAL SINGLE POINT ENERGY      -422.355751464884

DIPOLE MOMENT
-------------
                                X             Y             Z
Electronic contribution:     -0.99386      -7.54797       4.39468
Nuclear contribution   :      0.61961       9.17662      -5.08938
                        -----------------------------------------
Total Dipole Moment    :     -0.37425       1.62865      -0.69470
                        -----------------------------------------
Magnitude (a.u.)       :      1.80975
Magnitude (Debye)      :      4.60001

                             ****ORCA TERMINATED NORMALLY****
TOTAL RUN TIME: 0 days 0 hours 16 minutes 43 seconds 574 msec
