                         Program Version 3.0.3 - RELEASE   -
|  1> ! RI-MP2 RIJK def2-TZVP def2-TZVP/C def2-TZVP/JK TIGHTSCF
|  2> % maxcore 2000
|  3> % mp2 density relaxed end
|  4> *xyz 0 1
|  5>  N       -0.1082669313     1.2058253087     0.2883493309
|  6>  C       -0.0400013863    -0.0298299239     0.0332242124
|  7>  O        1.1487448326    -0.7177043449    -0.2222282842
|  8>  C        0.7906421164    -2.0319522992    -0.6112511988
|  9>  C        1.0328162576    -3.3907685865     0.1060147968
| 10>  N        0.3139232075    -3.4345450742     1.3916448574
| 11>  C       -0.4594733111    -3.6142296472     0.1223206655
| 12>  C       -0.6625724582    -2.1783946306    -0.3022672611
| 13>  C       -1.1677827629    -0.9979657693     0.0489646064
| 14>  H        0.8221639067     1.6256119107     0.2941332002
| 15>  H        1.0397828208    -2.1810266845    -1.6708107676
| 16>  H        1.8299078205    -4.0891277436    -0.1164967282
| 17>  H        0.4708534233    -4.3658028744     1.7815348813
| 18>  H       -1.0364369117    -4.5071530095    -0.0716665955
| 19>  H       -2.1368246436    -0.7257048116     0.4396533647
| 20> *
| 21>
| 22>                          ****END OF INPUT****

CARTESIAN COORDINATES (ANGSTROEM)
---------------------------------
  N     -0.108267    1.205825    0.288349
  C     -0.040001   -0.029830    0.033224
  O      1.148745   -0.717704   -0.222228
  C      0.790642   -2.031952   -0.611251
  C      1.032816   -3.390769    0.106015
  N      0.313923   -3.434545    1.391645
  C     -0.459473   -3.614230    0.122321
  C     -0.662572   -2.178395   -0.302267
  C     -1.167783   -0.997966    0.048965
  H      0.822164    1.625612    0.294133
  H      1.039783   -2.181027   -1.670811
  H      1.829908   -4.089128   -0.116497
  H      0.470853   -4.365803    1.781535
  H     -1.036437   -4.507153   -0.071667
  H     -2.136825   -0.725705    0.439653

 Total Charge           Charge          ....    0
 Multiplicity           Mult            ....    1
 Number of Electrons    NEL             ....   64
 Basis Dimension        Dim             ....  315

ORBITAL ENERGIES
----------------

  NO   OCC          E(Eh)            E(eV)
   0   2.0000     -20.592942      -560.3624
   1   2.0000     -15.592746      -424.3002
   2   2.0000     -15.529101      -422.5683
   3   2.0000     -11.338508      -308.5365
   4   2.0000     -11.308637      -307.7237
   5   2.0000     -11.305149      -307.6287
   6   2.0000     -11.296257      -307.3868
   7   2.0000     -11.265755      -306.5568
   8   2.0000     -11.251769      -306.1762
   9   2.0000      -1.428017       -38.8583
  10   2.0000      -1.308959       -35.6186
  11   2.0000      -1.191730       -32.4286
  12   2.0000      -1.108867       -30.1738
  13   2.0000      -1.010033       -27.4844
  14   2.0000      -0.898841       -24.4587
  15   2.0000      -0.849677       -23.1209
  16   2.0000      -0.781539       -21.2668
  17   2.0000      -0.768604       -20.9148
  18   2.0000      -0.734046       -19.9744
  19   2.0000      -0.687642       -18.7117
  20   2.0000      -0.657277       -17.8854
  21   2.0000      -0.640104       -17.4181
  22   2.0000      -0.585764       -15.9394
  23   2.0000      -0.573878       -15.6160
  24   2.0000      -0.547989       -14.9115
  25   2.0000      -0.535054       -14.5596
  26   2.0000      -0.503701       -13.7064
  27   2.0000      -0.465529       -12.6677
  28   2.0000      -0.439163       -11.9502
  29   2.0000      -0.428249       -11.6532
  30   2.0000      -0.397687       -10.8216
  31   2.0000      -0.351183        -9.5562
  32   0.0000       0.088878         2.4185
  33   0.0000       0.131031         3.5655
  34   0.0000       0.152811         4.1582
  35   0.0000       0.165061         4.4915
  36   0.0000       0.173356         4.7173

MULLIKEN ATOMIC CHARGES
-----------------------
   0 N :   -0.368535
   1 C :    0.169452
   2 O :   -0.285312
   3 C :    0.198139
   4 C :   -0.123807
   5 N :   -0.341536
   6 C :   -0.082820
   7 C :   -0.033994
   8 C :   -0.157954
   9 H :    0.228006
  10 H :    0.113442
  11 H :    0.149295
  12 H :    0.221683
  13 H :    0.160923
  14 H :    0.153017
Sum of atomic charges:    0.0000000

LOEWDIN ATOMIC CHARGES
----------------------
   0 N :   -0.051472
   1 C :   -0.363407
   2 O :    0.244261
   3 C :   -0.224733
   4 C :   -0.200810
   5 N :    0.021402
   6 C :   -0.176024
   7 C :   -0.105845
   8 C :   -0.068302
   9 H :    0.170230
  10 H :    0.158535
  11 H :    0.132068
  12 H :    0.176744
  13 H :    0.135485
  14 H :    0.151869

  Mayer bond orders larger than 0.1
B(  0-N ,  1-C ) :   2.0136 B(  0-N ,  9-H ) :   0.8550 B(  1-C ,  2-O ) :   1.0413
B(  1-C ,  8-C ) :   0.9930 B(  2-O ,  3-C ) :   0.9049 B(  3-C ,  4-C ) :   0.8743
B(  3-C ,  7-C ) :   0.9832 B(  3-C , 10-H ) :   0.9097 B(  4-C ,  5-N ) :   0.9621
B(  4-C ,  6-C ) :   0.9012 B(  4-C , 11-H ) :   0.9196 B(  5-N ,  6-C ) :   0.9343
B(  5-N , 12-H ) :   0.8633 B(  6-C ,  7-C ) :   0.9376 B(  6-C , 13-H ) :   0.9022
B(  7-C ,  8-C ) :   1.7240 B(  8-C , 14-H ) :   0.9282

MP2 TOTAL ENERGY:     -416.024437414 Eh
FINAL SINGLE POINT ENERGY      -416.024437413919

DIPOLE MOMENT
-------------
                                X             Y             Z
Electronic contribution:      0.01832       2.07714      -0.40922
Nuclear contribution   :      0.19746      -3.93461       0.00149
                        -----------------------------------------
Total Dipole Moment    :      0.21577      -1.85746      -0.40773
                        -----------------------------------------
Magnitude (a.u.)       :      1.91389
Magnitude (Debye)      :      4.86472

                             ****ORCA TERMINATED NORMALLY****
TOTAL RUN TIME: 0 days 0 hours 15 minutes 45 seconds 262 msec
