                         Program Version 3.0.3 - RELEASE   -
|  1> ! RI-MP2 RIJK def2-TZVP def2-TZVP/C def2-TZVP/JK TIGHTSCF
|  2> % maxcore 2000
|  3> % mp2 density relaxed end
|  4> *xyz 0 1
|  5>  C        0.0513068622     1.4660331129    -0.1986278670
|  6>  C        0.0331491214    -0.0434269892     0.0473944224
|  7>  O        0.7511572794    -0.3836688373     1.2299160908
|  8>  C       -1.3857563128    -0.6046002450     0.1043625250
|  9>  C       -2.3029871358    -0.4879150690    -1.1565241527
| 10>  C       -2.7123814245    -1.9479216253    -0.9164088271
| 11>  O       -3.5875544921    -2.6558121757    -1.3231242699
| 12>  C       -1.5555159095    -2.1555027305     0.0965603859
| 13>  O       -0.4544291459    -2.7755811642    -0.5457789077
| 14>  H        1.0819825568     1.8307861967    -0.2006161432
| 15>  H       -0.4100646029     1.7266765940    -1.1562582968
| 16>  H       -0.4981073456     1.9965684003     0.5901366002
| 17>  H        0.5728509071    -0.5530422955    -0.7565913475
| 18>  H        0.3774899876     0.1274493842     1.9566664792
| 19>  H       -1.8998740659    -0.1931270360     0.9817195005
| 20>  H       -3.1055669031     0.2526706297    -1.1586616601
| 21>  H       -1.7319495907    -0.3904168002    -2.0870015297
| 22>  H       -1.8016381479    -2.6366524364     1.0516430193
| 23>  H       -0.7197565976    -3.6718969436    -0.7795729316
| 24> *
| 25>
| 26>                          ****END OF INPUT****

CARTESIAN COORDINATES (ANGSTROEM)
---------------------------------
  C      0.051307    1.466033   -0.198628
  C      0.033149   -0.043427    0.047394
  O      0.751157   -0.383669    1.229916
  C     -1.385756   -0.604600    0.104363
  C     -2.302987   -0.487915   -1.156524
  C     -2.712381   -1.947922   -0.916409
  O     -3.587554   -2.655812   -1.323124
  C     -1.555516   -2.155503    0.096560
  O     -0.454429   -2.775581   -0.545779
  H      1.081983    1.830786   -0.200616
  H     -0.410065    1.726677   -1.156258
  H     -0.498107    1.996568    0.590137
  H      0.572851   -0.553042   -0.756591
  H      0.377490    0.127449    1.956666
  H     -1.899874   -0.193127    0.981720
  H     -3.105567    0.252671   -1.158662
  H     -1.731950   -0.390417   -2.087002
  H     -1.801638   -2.636652    1.051643
  H     -0.719757   -3.671897   -0.779573

 Total Charge           Charge          ....    0
 Multiplicity           Mult            ....    1
 Number of Electrons    NEL             ....   70
 Basis Dimension        Dim             ....  339

ORBITAL ENERGIES
----------------

  NO   OCC          E(Eh)            E(eV)
   0   2.0000     -20.576833      -559.9241
   1   2.0000     -20.564173      -559.5796
   2   2.0000     -20.557289      -559.3923
   3   2.0000     -11.337280      -308.5031
   4   2.0000     -11.299952      -307.4873
   5   2.0000     -11.286295      -307.1157
   6   2.0000     -11.249983      -306.1276
   7   2.0000     -11.248515      -306.0877
   8   2.0000     -11.226854      -305.4982
   9   2.0000      -1.408111       -38.3166
  10   2.0000      -1.380011       -37.5520
  11   2.0000      -1.363223       -37.0952
  12   2.0000      -1.137969       -30.9657
  13   2.0000      -1.022735       -27.8300
  14   2.0000      -0.927030       -25.2258
  15   2.0000      -0.898008       -24.4360
  16   2.0000      -0.809429       -22.0257
  17   2.0000      -0.752153       -20.4671
  18   2.0000      -0.715081       -19.4583
  19   2.0000      -0.687420       -18.7056
  20   2.0000      -0.673291       -18.3212
  21   2.0000      -0.639315       -17.3966
  22   2.0000      -0.628209       -17.0944
  23   2.0000      -0.615523       -16.7492
  24   2.0000      -0.584069       -15.8933
  25   2.0000      -0.579900       -15.7799
  26   2.0000      -0.557580       -15.1725
  27   2.0000      -0.541565       -14.7367
  28   2.0000      -0.529515       -14.4088
  29   2.0000      -0.513761       -13.9802
  30   2.0000      -0.501323       -13.6417
  31   2.0000      -0.476688       -12.9713
  32   2.0000      -0.463576       -12.6146
  33   2.0000      -0.439567       -11.9612
  34   2.0000      -0.394786       -10.7427
  35   0.0000       0.111673         3.0388
  36   0.0000       0.127457         3.4683
  37   0.0000       0.143002         3.8913
  38   0.0000       0.152807         4.1581
  39   0.0000       0.163748         4.4558

MULLIKEN ATOMIC CHARGES
-----------------------
   0 C :   -0.387152
   1 C :    0.063382
   2 O :   -0.464334
   3 C :   -0.092631
   4 C :   -0.276109
   5 C :    0.125615
   6 O :   -0.243071
   7 C :    0.095619
   8 O :   -0.458997
   9 H :    0.153434
  10 H :    0.129184
  11 H :    0.112539
  12 H :    0.114412
  13 H :    0.305875
  14 H :    0.104932
  15 H :    0.143872
  16 H :    0.142760
  17 H :    0.105379
  18 H :    0.325291
Sum of atomic charges:   -0.0000000

LOEWDIN ATOMIC CHARGES
----------------------
   0 C :   -0.300411
   1 C :   -0.359349
   2 O :   -0.014023
   3 C :   -0.201857
   4 C :   -0.187919
   5 C :   -0.298334
   6 O :    0.166177
   7 C :   -0.267939
   8 O :    0.001409
   9 H :    0.128323
  10 H :    0.126496
  11 H :    0.120925
  12 H :    0.152373
  13 H :    0.171607
  14 H :    0.153575
  15 H :    0.139153
  16 H :    0.155554
  17 H :    0.129679
  18 H :    0.184561

  Mayer bond orders larger than 0.1
B(  0-C ,  1-C ) :   0.9340 B(  0-C ,  9-H ) :   0.9441 B(  0-C , 10-H ) :   0.9335
B(  0-C , 11-H ) :   0.9192 B(  1-C ,  2-O ) :   0.8971 B(  1-C ,  3-C ) :   0.9358
B(  1-C , 12-H ) :   0.9102 B(  2-O , 13-H ) :   0.8443 B(  3-C ,  4-C ) :   0.9146
B(  3-C ,  7-C ) :   0.9042 B(  3-C , 14-H ) :   0.9053 B(  4-C ,  5-C ) :   0.8927
B(  4-C ,  7-C ) :  -0.1078 B(  4-C , 15-H ) :   0.9020 B(  4-C , 16-H ) :   0.8981
B(  5-C ,  6-O ) :   2.0487 B(  5-C ,  7-C ) :   0.8281 B(  7-C ,  8-O ) :   1.0004
B(  7-C , 17-H ) :   0.9220 B(  8-O , 18-H ) :   0.8368

MP2 TOTAL ENERGY:     -459.426018792 Eh
FINAL SINGLE POINT ENERGY      -459.426018792107

DIPOLE MOMENT
-------------
                                X             Y             Z
Electronic contribution:     -3.69922      -7.88270      -0.81117
Nuclear contribution   :      3.57526       8.62779       1.14272
                        -----------------------------------------
Total Dipole Moment    :     -0.12396       0.74509       0.33154
                        -----------------------------------------
Magnitude (a.u.)       :      0.82489
Magnitude (Debye)      :      2.09670

                             ****ORCA TERMINATED NORMALLY****
TOTAL RUN TIME: 0 days 0 hours 19 minutes 52 seconds 728 msec
