                         Program Version 3.0.3 - RELEASE   -
|  1> ! RI-MP2 RIJK def2-TZVP def2-TZVP/C def2-TZVP/JK TIGHTSCF
|  2> % maxcore 2000
|  3> % mp2 density relaxed end
|  4> *xyz 0 1
|  5>  O       -0.0298355350     1.3367559026    -0.1986779499
|  6>  N        0.0540077562    -0.0679411247    -0.1597189492
|  7>  C       -1.0827962937    -0.6236518608     0.0148487559
|  8>  C       -2.4212916835     0.0527915257     0.1358562749
|  9>  C       -3.3303089746    -0.3382303464    -1.0533210174
| 10>  C       -3.2674406913    -1.8250604088    -1.4090132940
| 11>  C       -2.1702658513    -2.3410643802    -2.3126326794
| 12>  C       -2.1685920780    -2.7127046135    -0.8543234518
| 13>  C       -1.1166821769    -2.1280887769     0.0815103654
| 14>  H        0.8924173723     1.5849739042    -0.3182297388
| 15>  H       -2.8879378621    -0.2964094792     1.0665034259
| 16>  H       -2.3102229975     1.1346592218     0.1997044348
| 17>  H       -4.3612170505    -0.0629895567    -0.8088650598
| 18>  H       -3.0502871874     0.2640021011    -1.9250108609
| 19>  H       -4.2351447731    -2.3010312609    -1.5328409439
| 20>  H       -2.4112613170    -3.1038962665    -3.0449069960
| 21>  H       -1.4252155509    -1.6232205721    -2.6449378105
| 22>  H       -2.4479764254    -3.7354709023    -0.6188027121
| 23>  H       -0.1225326788    -2.5299209661    -0.1354639204
| 24>  H       -1.3679793214    -2.4165587002     1.1126889072
| 25> *
| 26>
| 27>                          ****END OF INPUT****

CARTESIAN COORDINATES (ANGSTROEM)
---------------------------------
  O     -0.029836    1.336756   -0.198678
  N      0.054008   -0.067941   -0.159719
  C     -1.082796   -0.623652    0.014849
  C     -2.421292    0.052792    0.135856
  C     -3.330309   -0.338230   -1.053321
  C     -3.267441   -1.825060   -1.409013
  C     -2.170266   -2.341064   -2.312633
  C     -2.168592   -2.712705   -0.854323
  C     -1.116682   -2.128089    0.081510
  H      0.892417    1.584974   -0.318230
  H     -2.887938   -0.296409    1.066503
  H     -2.310223    1.134659    0.199704
  H     -4.361217   -0.062990   -0.808865
  H     -3.050287    0.264002   -1.925011
  H     -4.235145   -2.301031   -1.532841
  H     -2.411261   -3.103896   -3.044907
  H     -1.425216   -1.623221   -2.644938
  H     -2.447976   -3.735471   -0.618803
  H     -0.122533   -2.529921   -0.135464
  H     -1.367979   -2.416559    1.112689

 Total Charge           Charge          ....    0
 Multiplicity           Mult            ....    1
 Number of Electrons    NEL             ....   68
 Basis Dimension        Dim             ....  345

ORBITAL ENERGIES
----------------

  NO   OCC          E(Eh)            E(eV)
   0   2.0000     -20.583092      -560.0944
   1   2.0000     -15.606962      -424.6870
   2   2.0000     -11.271518      -306.7136
   3   2.0000     -11.235019      -305.7204
   4   2.0000     -11.232342      -305.6476
   5   2.0000     -11.232226      -305.6444
   6   2.0000     -11.230836      -305.6066
   7   2.0000     -11.229557      -305.5718
   8   2.0000     -11.220848      -305.3348
   9   2.0000      -1.409231       -38.3471
  10   2.0000      -1.181453       -32.1490
  11   2.0000      -1.138865       -30.9901
  12   2.0000      -1.033732       -28.1293
  13   2.0000      -0.986932       -26.8558
  14   2.0000      -0.885120       -24.0853
  15   2.0000      -0.805089       -21.9076
  16   2.0000      -0.782487       -21.2925
  17   2.0000      -0.707173       -19.2432
  18   2.0000      -0.690304       -18.7841
  19   2.0000      -0.682505       -18.5719
  20   2.0000      -0.639068       -17.3899
  21   2.0000      -0.608073       -16.5465
  22   2.0000      -0.599035       -16.3006
  23   2.0000      -0.587379       -15.9834
  24   2.0000      -0.561086       -15.2679
  25   2.0000      -0.546105       -14.8603
  26   2.0000      -0.529566       -14.4102
  27   2.0000      -0.517117       -14.0715
  28   2.0000      -0.500381       -13.6161
  29   2.0000      -0.471152       -12.8207
  30   2.0000      -0.422151       -11.4873
  31   2.0000      -0.408989       -11.1292
  32   2.0000      -0.396708       -10.7950
  33   2.0000      -0.371421       -10.1069
  34   0.0000       0.128071         3.4850
  35   0.0000       0.154511         4.2045
  36   0.0000       0.163953         4.4614
  37   0.0000       0.167539         4.5590
  38   0.0000       0.178543         4.8584

MULLIKEN ATOMIC CHARGES
-----------------------
   0 O :   -0.375552
   1 N :   -0.082133
   2 C :    0.003462
   3 C :   -0.241812
   4 C :   -0.228266
   5 C :   -0.096158
   6 C :   -0.311263
   7 C :   -0.095824
   8 C :   -0.185941
   9 H :    0.334124
  10 H :    0.122363
  11 H :    0.151762
  12 H :    0.122734
  13 H :    0.129342
  14 H :    0.119813
  15 H :    0.130207
  16 H :    0.138941
  17 H :    0.119061
  18 H :    0.124746
  19 H :    0.120394
Sum of atomic charges:   -0.0000000

LOEWDIN ATOMIC CHARGES
----------------------
   0 O :   -0.084181
   1 N :    0.023298
   2 C :   -0.282570
   3 C :   -0.221962
   4 C :   -0.231195
   5 C :   -0.200793
   6 C :   -0.207785
   7 C :   -0.201945
   8 C :   -0.205569
   9 H :    0.167766
  10 H :    0.151559
  11 H :    0.146813
  12 H :    0.140510
  13 H :    0.143573
  14 H :    0.145465
  15 H :    0.130496
  16 H :    0.138857
  17 H :    0.146223
  18 H :    0.149980
  19 H :    0.151458

  Mayer bond orders larger than 0.1
B(  0-O ,  1-N ) :   0.8038 B(  0-O ,  9-H ) :   0.8450 B(  1-N ,  2-C ) :   1.8817
B(  2-C ,  3-C ) :   0.9358 B(  2-C ,  8-C ) :   0.9411 B(  3-C ,  4-C ) :   0.9277
B(  3-C , 10-H ) :   0.9131 B(  3-C , 11-H ) :   0.9233 B(  4-C ,  5-C ) :   0.9105
B(  4-C , 12-H ) :   0.9318 B(  4-C , 13-H ) :   0.9304 B(  5-C ,  6-C ) :   0.8811
B(  5-C ,  7-C ) :   0.8721 B(  5-C , 14-H ) :   0.9295 B(  6-C ,  7-C ) :   0.8900
B(  6-C , 15-H ) :   0.9302 B(  6-C , 16-H ) :   0.9217 B(  7-C ,  8-C ) :   0.9250
B(  7-C , 17-H ) :   0.9301 B(  8-C , 18-H ) :   0.9154 B(  8-C , 19-H ) :   0.9205

MP2 TOTAL ENERGY:     -402.419074257 Eh
FINAL SINGLE POINT ENERGY      -402.419074256572

DIPOLE MOMENT
-------------
                                X             Y             Z
Electronic contribution:      4.55103       2.86893       1.60523
Nuclear contribution   :     -4.87161      -3.01710      -1.59644
                        -----------------------------------------
Total Dipole Moment    :     -0.32058      -0.14817       0.00879
                        -----------------------------------------
Magnitude (a.u.)       :      0.35327
Magnitude (Debye)      :      0.89795

                             ****ORCA TERMINATED NORMALLY****
TOTAL RUN TIME: 0 days 0 hours 19 minutes 2 seconds 332 msec
