                         Program Version 3.0.3 - RELEASE   -
|  1> ! RI-MP2 RIJK def2-TZVP def2-TZVP/C def2-TZVP/JK TIGHTSCF
|  2> % maxcore 2000
|  3> % mp2 density relaxed end
|  4> *xyz 0 1
|  5>  C        0.8631486322     1.4156084734     0.0267709808
|  6>  C        0.1427426610     0.0744548588    -0.0690698297
|  7>  C        0.5604157755    -0.7803912728    -1.2866399734
|  8>  C        1.4937231155    -1.8339480148    -0.6918191006
|  9>  O        2.8432750156    -1.3687079652    -0.6025504198
| 10>  C        3.2977438338    -1.3836122453     0.7548575542
| 11>  C        2.2848076410    -2.2254566203     1.5399392859
| 12>  C        1.0011700310    -1.9785517748     0.7522560309
| 13>  O        0.4484584711    -0.7123389829     1.0969864681
| 14>  H        1.9446629722     1.2784445160    -0.0628160353
| 15>  H        0.5336012362     2.0838329412    -0.7761762770
| 16>  H        0.6461342543     1.8965970307     0.9846949161
| 17>  H       -0.9414886765     0.2499871426    -0.0762235520
| 18>  H       -0.3076484463    -1.2733794648    -1.7357490590
| 19>  H        1.0596280116    -0.1973364738    -2.0633588261
| 20>  H        1.4766912852    -2.7753602534    -1.2544738942
| 21>  H        4.3120593911    -1.7950789197     0.7770589626
| 22>  H        3.3336412193    -0.3574115325     1.1435572967
| 23>  H        2.5410658893    -3.2895908064     1.5025090401
| 24>  H        2.1917050366    -1.9243040791     2.5851683086
| 25>  H        0.2525485303    -2.7718616671     0.8790552032
| 26> *
| 27>
| 28>                          ****END OF INPUT****

CARTESIAN COORDINATES (ANGSTROEM)
---------------------------------
  C      0.863149    1.415608    0.026771
  C      0.142743    0.074455   -0.069070
  C      0.560416   -0.780391   -1.286640
  C      1.493723   -1.833948   -0.691819
  O      2.843275   -1.368708   -0.602550
  C      3.297744   -1.383612    0.754858
  C      2.284808   -2.225457    1.539939
  C      1.001170   -1.978552    0.752256
  O      0.448458   -0.712339    1.096986
  H      1.944663    1.278445   -0.062816
  H      0.533601    2.083833   -0.776176
  H      0.646134    1.896597    0.984695
  H     -0.941489    0.249987   -0.076224
  H     -0.307648   -1.273379   -1.735749
  H      1.059628   -0.197336   -2.063359
  H      1.476691   -2.775360   -1.254474
  H      4.312059   -1.795079    0.777059
  H      3.333641   -0.357412    1.143557
  H      2.541066   -3.289591    1.502509
  H      2.191705   -1.924304    2.585168
  H      0.252549   -2.771862    0.879055

 Total Charge           Charge          ....    0
 Multiplicity           Mult            ....    1
 Number of Electrons    NEL             ....   70
 Basis Dimension        Dim             ....  351

ORBITAL ENERGIES
----------------

  NO   OCC          E(Eh)            E(eV)
   0   2.0000     -20.547978      -559.1389
   1   2.0000     -20.546583      -559.1009
   2   2.0000     -11.278102      -306.8927
   3   2.0000     -11.277430      -306.8745
   4   2.0000     -11.277392      -306.8734
   5   2.0000     -11.270430      -306.6840
   6   2.0000     -11.224047      -305.4218
   7   2.0000     -11.222740      -305.3863
   8   2.0000     -11.209059      -305.0140
   9   2.0000      -1.388040       -37.7705
  10   2.0000      -1.353271       -36.8244
  11   2.0000      -1.066051       -29.0087
  12   2.0000      -1.044757       -28.4293
  13   2.0000      -1.002926       -27.2910
  14   2.0000      -0.914283       -24.8789
  15   2.0000      -0.817296       -22.2397
  16   2.0000      -0.789953       -21.4957
  17   2.0000      -0.782600       -21.2956
  18   2.0000      -0.713899       -19.4262
  19   2.0000      -0.651893       -17.7389
  20   2.0000      -0.648990       -17.6599
  21   2.0000      -0.622714       -16.9449
  22   2.0000      -0.615768       -16.7559
  23   2.0000      -0.589591       -16.0436
  24   2.0000      -0.560720       -15.2580
  25   2.0000      -0.552331       -15.0297
  26   2.0000      -0.525642       -14.3034
  27   2.0000      -0.516407       -14.0521
  28   2.0000      -0.501499       -13.6465
  29   2.0000      -0.495384       -13.4801
  30   2.0000      -0.486121       -13.2280
  31   2.0000      -0.472365       -12.8537
  32   2.0000      -0.447879       -12.1874
  33   2.0000      -0.413273       -11.2457
  34   2.0000      -0.405235       -11.0270
  35   0.0000       0.137407         3.7390
  36   0.0000       0.153021         4.1639
  37   0.0000       0.162615         4.4250
  38   0.0000       0.185625         5.0511
  39   0.0000       0.196223         5.3395

MULLIKEN ATOMIC CHARGES
-----------------------
   0 C :   -0.440606
   1 C :    0.128167
   2 C :   -0.218605
   3 C :    0.034976
   4 O :   -0.338818
   5 C :   -0.049372
   6 C :   -0.231369
   7 C :    0.067212
   8 O :   -0.333661
   9 H :    0.143117
  10 H :    0.123055
  11 H :    0.136100
  12 H :    0.083809
  13 H :    0.121518
  14 H :    0.124717
  15 H :    0.101499
  16 H :    0.114040
  17 H :    0.093841
  18 H :    0.112810
  19 H :    0.130986
  20 H :    0.096584
Sum of atomic charges:   -0.0000000

LOEWDIN ATOMIC CHARGES
----------------------
   0 C :   -0.298814
   1 C :   -0.316297
   2 C :   -0.218410
   3 C :   -0.284221
   4 O :    0.159316
   5 C :   -0.298099
   6 C :   -0.242879
   7 C :   -0.292122
   8 O :    0.188180
   9 H :    0.126621
  10 H :    0.124211
  11 H :    0.125377
  12 H :    0.135226
  13 H :    0.141483
  14 H :    0.147381
  15 H :    0.138891
  16 H :    0.122586
  17 H :    0.119091
  18 H :    0.141154
  19 H :    0.143911
  20 H :    0.137413

  Mayer bond orders larger than 0.1
B(  0-C ,  1-C ) :   0.9037 B(  0-C ,  9-H ) :   0.9372 B(  0-C , 10-H ) :   0.9318
B(  0-C , 11-H ) :   0.9383 B(  1-C ,  2-C ) :   0.9258 B(  1-C ,  8-O ) :   0.8927
B(  1-C , 12-H ) :   0.9282 B(  2-C ,  3-C ) :   0.9150 B(  2-C , 13-H ) :   0.9139
B(  2-C , 14-H ) :   0.9150 B(  3-C ,  4-O ) :   0.9504 B(  3-C ,  7-C ) :   0.9377
B(  3-C , 15-H ) :   0.9314 B(  4-O ,  5-C ) :   0.9256 B(  5-C ,  6-C ) :   0.9718
B(  5-C , 16-H ) :   0.9298 B(  5-C , 17-H ) :   0.9243 B(  6-C ,  7-C ) :   0.8900
B(  6-C , 18-H ) :   0.9131 B(  6-C , 19-H ) :   0.9179 B(  7-C ,  8-O ) :   0.9847
B(  7-C , 20-H ) :   0.9326

MP2 TOTAL ENERGY:     -423.545001362 Eh
FINAL SINGLE POINT ENERGY      -423.545001362454

DIPOLE MOMENT
-------------
                                X             Y             Z
Electronic contribution:      0.10369      -2.77377       0.09520
Nuclear contribution   :     -0.31423       2.46224      -0.15831
                        -----------------------------------------
Total Dipole Moment    :     -0.21054      -0.31152      -0.06311
                        -----------------------------------------
Magnitude (a.u.)       :      0.38126
Magnitude (Debye)      :      0.96908

                             ****ORCA TERMINATED NORMALLY****
TOTAL RUN TIME: 0 days 0 hours 19 minutes 53 seconds 150 msec
