                         Program Version 3.0.3 - RELEASE   -
|  1> ! RI-MP2 RIJK def2-TZVP def2-TZVP/C def2-TZVP/JK TIGHTSCF
|  2> % maxcore 2000
|  3> % mp2 density relaxed end
|  4> *xyz 0 1
|  5>  C       -1.5534755207     1.5478040399    -1.2320088564
|  6>  C       -1.7430692585     0.0440538375    -1.3385278191
|  7>  O       -1.2870373008    -0.5419218718    -0.1218307023
|  8>  C       -1.5564842793    -1.9210625010     0.0447370126
|  9>  C       -0.6917249254    -2.7635421813    -0.8880946632
| 10>  O        0.6761808701    -2.4522606476    -0.7181146296
| 11>  C       -1.4769705619    -2.3438990394     1.5225925926
| 12>  O       -2.7762139503    -2.9729085083     1.4399652701
| 13>  C       -3.0328150276    -2.3731615931     0.1554002412
| 14>  H       -1.8859868568     2.0385811260    -2.1513980749
| 15>  H       -2.1288296018     1.9486428069    -0.3931287866
| 16>  H       -0.4994351234     1.7921259182    -1.0714955891
| 17>  H       -2.8036695284    -0.2001643769    -1.4988838431
| 18>  H       -1.1826386224    -0.3518656741    -2.1978536735
| 19>  H       -0.8251196423    -3.8237598783    -0.6494626301
| 20>  H       -1.0144058409    -2.6214218328    -1.9330894747
| 21>  H        0.7196693107    -1.4932084172    -0.6161600669
| 22>  H       -0.6855879952    -3.0482313429     1.7957565505
| 23>  H       -1.4739369784    -1.4861637933     2.2059176888
| 24>  H       -3.7416398781    -1.5368935304     0.2235024084
| 25>  H       -3.3953936984    -3.1027165900    -0.5785185846
| 26> *
| 27>
| 28>                          ****END OF INPUT****

CARTESIAN COORDINATES (ANGSTROEM)
---------------------------------
  C     -1.553476    1.547804   -1.232009
  C     -1.743069    0.044054   -1.338528
  O     -1.287037   -0.541922   -0.121831
  C     -1.556484   -1.921063    0.044737
  C     -0.691725   -2.763542   -0.888095
  O      0.676181   -2.452261   -0.718115
  C     -1.476971   -2.343899    1.522593
  O     -2.776214   -2.972909    1.439965
  C     -3.032815   -2.373162    0.155400
  H     -1.885987    2.038581   -2.151398
  H     -2.128830    1.948643   -0.393129
  H     -0.499435    1.792126   -1.071496
  H     -2.803670   -0.200164   -1.498884
  H     -1.182639   -0.351866   -2.197854
  H     -0.825120   -3.823760   -0.649463
  H     -1.014406   -2.621422   -1.933089
  H      0.719669   -1.493208   -0.616160
  H     -0.685588   -3.048231    1.795757
  H     -1.473937   -1.486164    2.205918
  H     -3.741640   -1.536894    0.223502
  H     -3.395394   -3.102717   -0.578519

 Total Charge           Charge          ....    0
 Multiplicity           Mult            ....    1
 Number of Electrons    NEL             ....   72
 Basis Dimension        Dim             ....  351

ORBITAL ENERGIES
----------------

  NO   OCC          E(Eh)            E(eV)
   0   2.0000     -20.574441      -559.8590
   1   2.0000     -20.558654      -559.4294
   2   2.0000     -20.554950      -559.3286
   3   2.0000     -11.297211      -307.4127
   4   2.0000     -11.292352      -307.2805
   5   2.0000     -11.286570      -307.1232
   6   2.0000     -11.282216      -307.0047
   7   2.0000     -11.277630      -306.8799
   8   2.0000     -11.227768      -305.5231
   9   2.0000      -1.408374       -38.3238
  10   2.0000      -1.375330       -37.4246
  11   2.0000      -1.360123       -37.0108
  12   2.0000      -1.059943       -28.8425
  13   2.0000      -1.004113       -27.3233
  14   2.0000      -0.944689       -25.7063
  15   2.0000      -0.910156       -24.7666
  16   2.0000      -0.852717       -23.2036
  17   2.0000      -0.770357       -20.9625
  18   2.0000      -0.714796       -19.4506
  19   2.0000      -0.707545       -19.2533
  20   2.0000      -0.670400       -18.2425
  21   2.0000      -0.663103       -18.0439
  22   2.0000      -0.628990       -17.1157
  23   2.0000      -0.620915       -16.8960
  24   2.0000      -0.601190       -16.3592
  25   2.0000      -0.576993       -15.7008
  26   2.0000      -0.565876       -15.3983
  27   2.0000      -0.558008       -15.1842
  28   2.0000      -0.542464       -14.7612
  29   2.0000      -0.532882       -14.5004
  30   2.0000      -0.492673       -13.4063
  31   2.0000      -0.488620       -13.2960
  32   2.0000      -0.475044       -12.9266
  33   2.0000      -0.447200       -12.1689
  34   2.0000      -0.434706       -11.8289
  35   2.0000      -0.411928       -11.2091
  36   0.0000       0.124788         3.3956
  37   0.0000       0.150804         4.1036
  38   0.0000       0.161220         4.3870
  39   0.0000       0.167440         4.5563
  40   0.0000       0.184079         5.0090

MULLIKEN ATOMIC CHARGES
-----------------------
   0 C :   -0.362900
   1 C :   -0.069436
   2 O :   -0.325860
   3 C :    0.130045
   4 C :   -0.059723
   5 O :   -0.472159
   6 C :   -0.033166
   7 O :   -0.325616
   8 C :   -0.071950
   9 H :    0.128054
  10 H :    0.134545
  11 H :    0.130946
  12 H :    0.102957
  13 H :    0.112331
  14 H :    0.131599
  15 H :    0.102021
  16 H :    0.325066
  17 H :    0.119029
  18 H :    0.098372
  19 H :    0.096248
  20 H :    0.109599
Sum of atomic charges:   -0.0000000

LOEWDIN ATOMIC CHARGES
----------------------
   0 C :   -0.314439
   1 C :   -0.342035
   2 O :    0.190678
   3 C :   -0.374267
   4 C :   -0.317903
   5 O :   -0.037689
   6 C :   -0.225646
   7 O :    0.116052
   8 C :   -0.243158
   9 H :    0.126390
  10 H :    0.125535
  11 H :    0.124747
  12 H :    0.121320
  13 H :    0.119991
  14 H :    0.139841
  15 H :    0.119704
  16 H :    0.177602
  17 H :    0.124973
  18 H :    0.124312
  19 H :    0.122610
  20 H :    0.121382

  Mayer bond orders larger than 0.1
B(  0-C ,  1-C ) :   0.9568 B(  0-C ,  9-H ) :   0.9326 B(  0-C , 10-H ) :   0.9364
B(  0-C , 11-H ) :   0.9353 B(  1-C ,  2-O ) :   0.8726 B(  1-C , 12-H ) :   0.9189
B(  1-C , 13-H ) :   0.9218 B(  2-O ,  3-C ) :   0.9650 B(  3-C ,  4-C ) :   0.9494
B(  3-C ,  6-C ) :   0.9516 B(  3-C ,  8-C ) :   0.9559 B(  4-C ,  5-O ) :   0.9302
B(  4-C , 14-H ) :   0.9197 B(  4-C , 15-H ) :   0.9087 B(  5-O , 16-H ) :   0.8295
B(  6-C ,  7-O ) :   0.9410 B(  6-C , 17-H ) :   0.9114 B(  6-C , 18-H ) :   0.9015
B(  7-O ,  8-C ) :   0.9602 B(  8-C , 19-H ) :   0.8936 B(  8-C , 20-H ) :   0.9098

MP2 TOTAL ENERGY:     -460.594703189 Eh
FINAL SINGLE POINT ENERGY      -460.594703188759

DIPOLE MOMENT
-------------
                                X             Y             Z
Electronic contribution:      0.83349      -5.20272       4.10091
Nuclear contribution   :     -1.20433       5.97284      -4.87761
                        -----------------------------------------
Total Dipole Moment    :     -0.37084       0.77011      -0.77669
                        -----------------------------------------
Magnitude (a.u.)       :      1.15492
Magnitude (Debye)      :      2.93558

                             ****ORCA TERMINATED NORMALLY****
TOTAL RUN TIME: 0 days 0 hours 16 minutes 37 seconds 162 msec
