                         Program Version 3.0.3 - RELEASE   -
|  1> ! RI-MP2 RIJK def2-TZVP def2-TZVP/C def2-TZVP/JK TIGHTSCF
|  2> % maxcore 2000
|  3> % mp2 density relaxed end
|  4> *xyz 0 1
|  5>  O       -0.1546168412    -0.0278909133     0.2594799177
|  6>  C       -0.0076694486     1.1152126369    -0.0819969710
|  7>  C        1.3395750437     1.8154263498    -0.1661995850
|  8>  N        1.3315087360     2.8145996775    -1.2237395867
|  9>  C        2.5064239323     3.6862809148    -1.2056641384
| 10>  C        2.5042602471     4.6270711597    -2.3165481162
| 11>  C        2.5276093524     5.3998594149    -3.2441668083
| 12>  C        2.5204477030     6.3128207967    -4.3587565278
| 13>  O        3.3415673414     7.1828308376    -4.5348446666
| 14>  H       -0.8647438315     1.7694784396    -0.3571633628
| 15>  H        1.4761288337     2.3371661011     0.7938180700
| 16>  H        2.1350334247     1.0553384659    -0.2320665502
| 17>  H        1.2664580585     2.3654262494    -2.1316557818
| 18>  H        2.5020617705     4.2493310742    -0.2619388221
| 19>  H        3.4657657490     3.1349434815    -1.2222510203
| 20>  H        1.6808018690     6.1552692336    -5.0657476506
| 21> *
| 22>
| 23>                          ****END OF INPUT****

CARTESIAN COORDINATES (ANGSTROEM)
---------------------------------
  O     -0.154617   -0.027891    0.259480
  C     -0.007669    1.115213   -0.081997
  C      1.339575    1.815426   -0.166200
  N      1.331509    2.814600   -1.223740
  C      2.506424    3.686281   -1.205664
  C      2.504260    4.627071   -2.316548
  C      2.527609    5.399859   -3.244167
  C      2.520448    6.312821   -4.358757
  O      3.341567    7.182831   -4.534845
  H     -0.864744    1.769478   -0.357163
  H      1.476129    2.337166    0.793818
  H      2.135033    1.055338   -0.232067
  H      1.266458    2.365426   -2.131656
  H      2.502062    4.249331   -0.261939
  H      3.465766    3.134943   -1.222251
  H      1.680802    6.155269   -5.065748

 Total Charge           Charge          ....    0
 Multiplicity           Mult            ....    1
 Number of Electrons    NEL             ....   66
 Basis Dimension        Dim             ....  321

ORBITAL ENERGIES
----------------

  NO   OCC          E(Eh)            E(eV)
   0   2.0000     -20.575431      -559.8859
   1   2.0000     -20.571073      -559.7674
   2   2.0000     -15.588231      -424.1773
   3   2.0000     -11.365727      -309.2771
   4   2.0000     -11.343875      -308.6825
   5   2.0000     -11.313918      -307.8674
   6   2.0000     -11.288280      -307.1697
   7   2.0000     -11.277993      -306.8898
   8   2.0000     -11.256732      -306.3113
   9   2.0000      -1.410883       -38.3921
  10   2.0000      -1.410447       -38.3802
  11   2.0000      -1.254664       -34.1411
  12   2.0000      -1.092530       -29.7292
  13   2.0000      -1.022404       -27.8210
  14   2.0000      -0.945568       -25.7302
  15   2.0000      -0.893934       -24.3252
  16   2.0000      -0.818023       -22.2595
  17   2.0000      -0.741412       -20.1748
  18   2.0000      -0.722174       -19.6513
  19   2.0000      -0.679340       -18.4858
  20   2.0000      -0.676225       -18.4010
  21   2.0000      -0.664605       -18.0848
  22   2.0000      -0.645715       -17.5708
  23   2.0000      -0.618682       -16.8352
  24   2.0000      -0.600111       -16.3298
  25   2.0000      -0.584156       -15.8957
  26   2.0000      -0.560036       -15.2394
  27   2.0000      -0.521455       -14.1895
  28   2.0000      -0.461765       -12.5653
  29   2.0000      -0.439601       -11.9621
  30   2.0000      -0.427997       -11.6464
  31   2.0000      -0.421510       -11.4699
  32   2.0000      -0.406569       -11.0633
  33   0.0000       0.072284         1.9670
  34   0.0000       0.104865         2.8535
  35   0.0000       0.122511         3.3337
  36   0.0000       0.147001         4.0001
  37   0.0000       0.158691         4.3182

MULLIKEN ATOMIC CHARGES
-----------------------
   0 O :   -0.256310
   1 C :    0.081610
   2 C :   -0.101814
   3 N :   -0.333135
   4 C :   -0.274479
   5 C :    0.015547
   6 C :    0.118253
   7 C :    0.034057
   8 O :   -0.250441
   9 H :    0.091108
  10 H :    0.131413
  11 H :    0.123327
  12 H :    0.215498
  13 H :    0.151452
  14 H :    0.145831
  15 H :    0.108085
Sum of atomic charges:   -0.0000000

LOEWDIN ATOMIC CHARGES
----------------------
   0 O :    0.138591
   1 C :   -0.295828
   2 C :   -0.309967
   3 N :   -0.016652
   4 C :   -0.288629
   5 C :   -0.029614
   6 C :   -0.055972
   7 C :   -0.292083
   8 O :    0.150746
   9 H :    0.113752
  10 H :    0.150860
  11 H :    0.130003
  12 H :    0.177646
  13 H :    0.157124
  14 H :    0.144663
  15 H :    0.125362

  Mayer bond orders larger than 0.1
B(  0-O ,  1-C ) :   2.0029 B(  1-C ,  2-C ) :   0.8874 B(  1-C ,  9-H ) :   0.9299
B(  2-C ,  3-N ) :   0.9233 B(  2-C , 10-H ) :   0.9017 B(  2-C , 11-H ) :   0.8950
B(  3-N ,  4-C ) :   1.0089 B(  3-N , 12-H ) :   0.8755 B(  4-C ,  5-C ) :   1.0368
B(  4-C ,  6-C ) :  -0.1227 B(  4-C , 13-H ) :   0.8889 B(  4-C , 14-H ) :   0.9427
B(  5-C ,  6-C ) :   2.6822 B(  6-C ,  7-C ) :   0.8525 B(  6-C , 15-H ) :  -0.1046
B(  7-C ,  8-O ) :   2.0092 B(  7-C , 15-H ) :   1.0010

MP2 TOTAL ENERGY:     -437.107702362 Eh
FINAL SINGLE POINT ENERGY      -437.107702361867

DIPOLE MOMENT
-------------
                                X             Y             Z
Electronic contribution:      0.48876       3.60141      -3.95447
Nuclear contribution   :     -0.51863      -3.90399       4.14958
                        -----------------------------------------
Total Dipole Moment    :     -0.02988      -0.30257       0.19511
                        -----------------------------------------
Magnitude (a.u.)       :      0.36126
Magnitude (Debye)      :      0.91826

                             ****ORCA TERMINATED NORMALLY****
TOTAL RUN TIME: 0 days 0 hours 10 minutes 52 seconds 299 msec
