                         Program Version 3.0.3 - RELEASE   -
|  1> ! RI-MP2 RIJK def2-TZVP def2-TZVP/C def2-TZVP/JK TIGHTSCF
|  2> % maxcore 2000
|  3> % mp2 density relaxed end
|  4> *xyz 0 1
|  5>  C       -0.0315564192     1.4078671254     0.0088571193
|  6>  N       -0.0183753562    -0.0339908105    -0.0011622058
|  7>  C       -1.2053084974    -0.8531108104     0.0037025074
|  8>  C       -0.6527076050    -2.2487677407    -0.0065562004
|  9>  C        0.6894654797    -2.2200290426    -0.0153272920
| 10>  C        1.5988350021    -3.2988718107    -0.0264047095
| 11>  C        2.3904501892    -4.2055097874    -0.0359435776
| 12>  C        1.1418460543    -0.7770045312    -0.0113961065
| 13>  O        2.2731792392    -0.3438307807    -0.0158814222
| 14>  H        1.0079414732     1.7412884002     0.0019208156
| 15>  H       -0.5435162876     1.8114177973    -0.8737395333
| 16>  H       -0.5276719838     1.7994818840     0.9058305099
| 17>  H       -1.8291454312    -0.6683653573     0.8925991843
| 18>  H       -1.8419648225    -0.6603624196    -0.8743089855
| 19>  H       -1.2806915677    -3.1287488633    -0.0066458211
| 20>  H        3.0944710327    -5.0001299023    -0.0444154426
| 21> *
| 22>
| 23>                          ****END OF INPUT****

CARTESIAN COORDINATES (ANGSTROEM)
---------------------------------
  C     -0.031556    1.407867    0.008857
  N     -0.018375   -0.033991   -0.001162
  C     -1.205308   -0.853111    0.003703
  C     -0.652708   -2.248768   -0.006556
  C      0.689465   -2.220029   -0.015327
  C      1.598835   -3.298872   -0.026405
  C      2.390450   -4.205510   -0.035944
  C      1.141846   -0.777005   -0.011396
  O      2.273179   -0.343831   -0.015881
  H      1.007941    1.741288    0.001921
  H     -0.543516    1.811418   -0.873740
  H     -0.527672    1.799482    0.905831
  H     -1.829145   -0.668365    0.892599
  H     -1.841965   -0.660362   -0.874309
  H     -1.280692   -3.128749   -0.006646
  H      3.094471   -5.000130   -0.044415

 Total Charge           Charge          ....    0
 Multiplicity           Mult            ....    1
 Number of Electrons    NEL             ....   64
 Basis Dimension        Dim             ....  321

ORBITAL ENERGIES
----------------

  NO   OCC          E(Eh)            E(eV)
   0   2.0000     -20.518483      -558.3363
   1   2.0000     -15.589140      -424.2021
   2   2.0000     -11.353163      -308.9353
   3   2.0000     -11.293153      -307.3023
   4   2.0000     -11.277625      -306.8798
   5   2.0000     -11.273579      -306.7697
   6   2.0000     -11.264354      -306.5186
   7   2.0000     -11.242921      -305.9354
   8   2.0000     -11.235453      -305.7322
   9   2.0000      -1.385675       -37.7061
  10   2.0000      -1.275205       -34.7001
  11   2.0000      -1.122329       -30.5401
  12   2.0000      -1.037735       -28.2382
  13   2.0000      -0.976616       -26.5751
  14   2.0000      -0.950479       -25.8638
  15   2.0000      -0.835188       -22.7266
  16   2.0000      -0.775840       -21.1117
  17   2.0000      -0.729548       -19.8520
  18   2.0000      -0.699980       -19.0474
  19   2.0000      -0.676129       -18.3984
  20   2.0000      -0.652680       -17.7603
  21   2.0000      -0.619978       -16.8705
  22   2.0000      -0.596551       -16.2330
  23   2.0000      -0.583018       -15.8647
  24   2.0000      -0.570503       -15.5242
  25   2.0000      -0.546695       -14.8763
  26   2.0000      -0.538047       -14.6410
  27   2.0000      -0.464076       -12.6281
  28   2.0000      -0.435399       -11.8478
  29   2.0000      -0.395550       -10.7635
  30   2.0000      -0.380598       -10.3566
  31   2.0000      -0.350733        -9.5439
  32   0.0000       0.080225         2.1830
  33   0.0000       0.126200         3.4341
  34   0.0000       0.154107         4.1935
  35   0.0000       0.162898         4.4327
  36   0.0000       0.178574         4.8592

MULLIKEN ATOMIC CHARGES
-----------------------
   0 C :   -0.332253
   1 N :   -0.098206
   2 C :   -0.088401
   3 C :   -0.205191
   4 C :   -0.140177
   5 C :    0.085804
   6 C :   -0.117767
   7 C :    0.175884
   8 O :   -0.347163
   9 H :    0.180537
  10 H :    0.134967
  11 H :    0.134901
  12 H :    0.133741
  13 H :    0.133783
  14 H :    0.152974
  15 H :    0.196568
Sum of atomic charges:   -0.0000000

LOEWDIN ATOMIC CHARGES
----------------------
   0 C :   -0.290162
   1 N :    0.180977
   2 C :   -0.234318
   3 C :   -0.077229
   4 C :   -0.120499
   5 C :   -0.059626
   6 C :   -0.054279
   7 C :   -0.381947
   8 O :    0.097177
   9 H :    0.138402
  10 H :    0.117966
  11 H :    0.117935
  12 H :    0.144554
  13 H :    0.144549
  14 H :    0.146987
  15 H :    0.129516

  Mayer bond orders larger than 0.1
B(  0-C ,  1-N ) :   0.8715 B(  0-C ,  9-H ) :   0.9230 B(  0-C , 10-H ) :   0.9317
B(  0-C , 11-H ) :   0.9317 B(  1-N ,  2-C ) :   0.9463 B(  1-N ,  7-C ) :   1.1662
B(  2-C ,  3-C ) :   0.9779 B(  2-C , 12-H ) :   0.8999 B(  2-C , 13-H ) :   0.8999
B(  3-C ,  4-C ) :   1.6455 B(  3-C , 14-H ) :   0.9220 B(  4-C ,  5-C ) :   1.1614
B(  4-C ,  6-C ) :  -0.1626 B(  4-C ,  7-C ) :   0.9011 B(  4-C ,  8-O ) :  -0.1011
B(  5-C ,  6-C ) :   2.6100 B(  6-C , 15-H ) :   0.8696 B(  7-C ,  8-O ) :   1.9978

MP2 TOTAL ENERGY:     -400.054096276 Eh
FINAL SINGLE POINT ENERGY      -400.054096276246

DIPOLE MOMENT
-------------
                                X             Y             Z
Electronic contribution:      4.57443      -4.72139      -0.05880
Nuclear contribution   :     -6.19435       4.65872       0.06981
                        -----------------------------------------
Total Dipole Moment    :     -1.61992      -0.06266       0.01101
                        -----------------------------------------
Magnitude (a.u.)       :      1.62117
Magnitude (Debye)      :      4.12068

                             ****ORCA TERMINATED NORMALLY****
TOTAL RUN TIME: 0 days 0 hours 17 minutes 44 seconds 970 msec
