                         Program Version 3.0.3 - RELEASE   -
|  1> ! RI-MP2 RIJK def2-TZVP def2-TZVP/C def2-TZVP/JK TIGHTSCF
|  2> % maxcore 2000
|  3> % mp2 density relaxed end
|  4> *xyz 0 1
|  5>  O        0.1132307236    -0.0448894291     0.0204225796
|  6>  C        0.0214686940     1.1758569203     0.0209147902
|  7>  C       -1.2209236077     1.9190518952     0.0558449476
|  8>  C       -1.2143008016     3.2782776563     0.1093420408
|  9>  N       -0.0920992075     4.0403970973     0.0344092821
| 10>  C        1.1319139944     3.4335772815    -0.4838403061
| 11>  C        1.2781634431     2.0260910146     0.0536125359
| 12>  C        2.2495440170     1.6834033144     1.1357241470
| 13>  N        2.5359970602     1.3537354984    -0.2625417960
| 14>  H       -2.1505626602     1.3707613341     0.1301543207
| 15>  H       -2.1381661250     3.8351347945     0.2391309912
| 16>  H       -0.2150981886     5.0266633096    -0.1265864780
| 17>  H        1.0968268958     3.3896514582    -1.5847206057
| 18>  H        1.9915575457     4.0463691440    -0.2020238992
| 19>  H        2.8639950246     2.4714556147     1.5642861374
| 20>  H        1.9776390196     0.8777008155     1.8113640536
| 21>  H        2.2991100525     0.3706296105    -0.4131095512
| 22> *
| 23>
| 24>                          ****END OF INPUT****

CARTESIAN COORDINATES (ANGSTROEM)
---------------------------------
  O      0.113231   -0.044889    0.020423
  C      0.021469    1.175857    0.020915
  C     -1.220924    1.919052    0.055845
  C     -1.214301    3.278278    0.109342
  N     -0.092099    4.040397    0.034409
  C      1.131914    3.433577   -0.483840
  C      1.278163    2.026091    0.053613
  C      2.249544    1.683403    1.135724
  N      2.535997    1.353735   -0.262542
  H     -2.150563    1.370761    0.130154
  H     -2.138166    3.835135    0.239131
  H     -0.215098    5.026663   -0.126586
  H      1.096827    3.389651   -1.584721
  H      1.991558    4.046369   -0.202024
  H      2.863995    2.471456    1.564286
  H      1.977639    0.877701    1.811364
  H      2.299110    0.370630   -0.413110

 Total Charge           Charge          ....    0
 Multiplicity           Mult            ....    1
 Number of Electrons    NEL             ....   66
 Basis Dimension        Dim             ....  327

ORBITAL ENERGIES
----------------

  NO   OCC          E(Eh)            E(eV)
   0   2.0000     -20.525727      -558.5334
   1   2.0000     -15.601482      -424.5379
   2   2.0000     -15.561494      -423.4498
   3   2.0000     -11.323355      -308.1242
   4   2.0000     -11.314023      -307.8702
   5   2.0000     -11.282879      -307.0227
   6   2.0000     -11.272714      -306.7461
   7   2.0000     -11.264007      -306.5092
   8   2.0000     -11.218436      -305.2692
   9   2.0000      -1.371386       -37.3173
  10   2.0000      -1.286524       -35.0081
  11   2.0000      -1.262751       -34.3612
  12   2.0000      -1.056306       -28.7436
  13   2.0000      -1.013141       -27.5690
  14   2.0000      -0.886822       -24.1317
  15   2.0000      -0.862001       -23.4562
  16   2.0000      -0.836699       -22.7677
  17   2.0000      -0.750474       -20.4214
  18   2.0000      -0.719884       -19.5890
  19   2.0000      -0.693275       -18.8650
  20   2.0000      -0.640807       -17.4372
  21   2.0000      -0.636192       -17.3117
  22   2.0000      -0.613776       -16.7017
  23   2.0000      -0.604854       -16.4589
  24   2.0000      -0.578724       -15.7479
  25   2.0000      -0.539244       -14.6736
  26   2.0000      -0.533004       -14.5038
  27   2.0000      -0.500896       -13.6301
  28   2.0000      -0.484598       -13.1866
  29   2.0000      -0.468092       -12.7374
  30   2.0000      -0.408902       -11.1268
  31   2.0000      -0.395098       -10.7512
  32   2.0000      -0.330719        -8.9993
  33   0.0000       0.098253         2.6736
  34   0.0000       0.114314         3.1106
  35   0.0000       0.158307         4.3078
  36   0.0000       0.173663         4.7256
  37   0.0000       0.179344         4.8802

MULLIKEN ATOMIC CHARGES
-----------------------
   0 O :   -0.359527
   1 C :    0.195735
   2 C :   -0.264720
   3 C :    0.010194
   4 N :   -0.299182
   5 C :   -0.134595
   6 C :    0.136071
   7 C :   -0.195001
   8 N :   -0.381126
   9 H :    0.137225
  10 H :    0.141022
  11 H :    0.242150
  12 H :    0.128319
  13 H :    0.140072
  14 H :    0.119171
  15 H :    0.143912
  16 H :    0.240281
Sum of atomic charges:   -0.0000000

LOEWDIN ATOMIC CHARGES
----------------------
   0 O :    0.109554
   1 C :   -0.321859
   2 C :   -0.187165
   3 C :   -0.198247
   4 N :    0.093946
   5 C :   -0.220929
   6 C :   -0.280205
   7 C :   -0.227228
   8 N :    0.026503
   9 H :    0.152579
  10 H :    0.145838
  11 H :    0.186967
  12 H :    0.140707
  13 H :    0.143111
  14 H :    0.125965
  15 H :    0.131354
  16 H :    0.179109

  Mayer bond orders larger than 0.1
B(  0-O ,  1-C ) :   1.8135 B(  1-C ,  2-C ) :   1.1334 B(  1-C ,  6-C ) :   0.9332
B(  2-C ,  3-C ) :   1.5430 B(  2-C ,  9-H ) :   0.9146 B(  3-C ,  4-N ) :   1.2097
B(  3-C , 10-H ) :   0.9073 B(  4-N ,  5-C ) :   0.9053 B(  4-N , 11-H ) :   0.8754
B(  5-C ,  6-C ) :   0.8854 B(  5-C , 12-H ) :   0.9405 B(  5-C , 13-H ) :   0.9189
B(  6-C ,  7-C ) :   0.8866 B(  6-C ,  8-N ) :   0.9083 B(  7-C ,  8-N ) :   0.9472
B(  7-C , 14-H ) :   0.9148 B(  7-C , 15-H ) :   0.9074 B(  8-N , 16-H ) :   0.8537

MP2 TOTAL ENERGY:     -417.307088827 Eh
FINAL SINGLE POINT ENERGY      -417.307088827315

DIPOLE MOMENT
-------------
                                X             Y             Z
Electronic contribution:     -1.64195      -2.55044      -0.57796
Nuclear contribution   :      1.21332       4.39843       0.76747
                        -----------------------------------------
Total Dipole Moment    :     -0.42863       1.84800       0.18950
                        -----------------------------------------
Magnitude (a.u.)       :      1.90650
Magnitude (Debye)      :      4.84593

                             ****ORCA TERMINATED NORMALLY****
TOTAL RUN TIME: 0 days 0 hours 16 minutes 34 seconds 924 msec
