                         Program Version 3.0.3 - RELEASE   -
|  1> ! RI-MP2 RIJK def2-TZVP def2-TZVP/C def2-TZVP/JK TIGHTSCF
|  2> % maxcore 2000
|  3> % mp2 density relaxed end
|  4> *xyz 0 1
|  5>  O       -0.0071162618     1.4682324889    -0.2187707964
|  6>  C       -0.0350737351     0.0861662966    -0.0995986841
|  7>  C       -1.2931777497    -0.7092696084     0.0923093580
|  8>  C       -2.6400117057    -0.0388572881    -0.0457492706
|  9>  O       -2.6764561515     0.9187330474    -1.1306345983
| 10>  C       -2.0482155906     0.5290978714    -2.2856534913
| 11>  N       -1.0832377207    -0.2769819937    -2.4008064390
| 12>  C       -0.5247181740    -0.8437413781    -1.2190157550
| 13>  H       -0.8789634774     1.7808687343    -0.4864125221
| 14>  H        0.8476711986    -0.2549637239     0.4322932511
| 15>  H       -1.2813497124    -1.5373964259     0.7960374542
| 16>  H       -3.4169655677    -0.7919349277    -0.2279259371
| 17>  H       -2.9159986310     0.5332650865     0.8442884444
| 18>  H       -2.4768264960     1.0352817790    -3.1468547216
| 19>  H        0.0566512450    -1.7405216482    -1.4031126024
| 20> *
| 21>
| 22>                          ****END OF INPUT****

CARTESIAN COORDINATES (ANGSTROEM)
---------------------------------
  O     -0.007116    1.468232   -0.218771
  C     -0.035074    0.086166   -0.099599
  C     -1.293178   -0.709270    0.092309
  C     -2.640012   -0.038857   -0.045749
  O     -2.676456    0.918733   -1.130635
  C     -2.048216    0.529098   -2.285653
  N     -1.083238   -0.276982   -2.400806
  C     -0.524718   -0.843741   -1.219016
  H     -0.878963    1.780869   -0.486413
  H      0.847671   -0.254964    0.432293
  H     -1.281350   -1.537396    0.796037
  H     -3.416966   -0.791935   -0.227926
  H     -2.915999    0.533265    0.844288
  H     -2.476826    1.035282   -3.146855
  H      0.056651   -1.740522   -1.403113

 Total Charge           Charge          ....    0
 Multiplicity           Mult            ....    1
 Number of Electrons    NEL             ....   60
 Basis Dimension        Dim             ....  290

ORBITAL ENERGIES
----------------

  NO   OCC          E(Eh)            E(eV)
   0   2.0000     -20.607867      -560.7686
   1   2.0000     -20.565483      -559.6152
   2   2.0000     -15.561175      -423.4411
   3   2.0000     -11.338262      -308.5298
   4   2.0000     -11.310016      -307.7612
   5   2.0000     -11.296154      -307.3840
   6   2.0000     -11.266786      -306.5848
   7   2.0000     -11.248476      -306.0866
   8   2.0000      -1.437024       -39.1034
   9   2.0000      -1.377354       -37.4797
  10   2.0000      -1.238248       -33.6944
  11   2.0000      -1.132899       -30.8278
  12   2.0000      -0.980628       -26.6843
  13   2.0000      -0.897695       -24.4275
  14   2.0000      -0.832654       -22.6577
  15   2.0000      -0.759633       -20.6707
  16   2.0000      -0.727268       -19.7900
  17   2.0000      -0.707024       -19.2391
  18   2.0000      -0.683761       -18.6061
  19   2.0000      -0.637826       -17.3561
  20   2.0000      -0.623784       -16.9740
  21   2.0000      -0.600252       -16.3337
  22   2.0000      -0.574937       -15.6448
  23   2.0000      -0.567052       -15.4303
  24   2.0000      -0.540867       -14.7177
  25   2.0000      -0.504588       -13.7305
  26   2.0000      -0.487459       -13.2644
  27   2.0000      -0.446964       -12.1625
  28   2.0000      -0.388080       -10.5602
  29   2.0000      -0.362062        -9.8522
  30   0.0000       0.130164         3.5419
  31   0.0000       0.154286         4.1983
  32   0.0000       0.161062         4.3827
  33   0.0000       0.179705         4.8900
  34   0.0000       0.184618         5.0237

MULLIKEN ATOMIC CHARGES
-----------------------
   0 O :   -0.441563
   1 C :    0.045938
   2 C :   -0.161927
   3 C :   -0.047743
   4 O :   -0.313214
   5 C :    0.046851
   6 N :   -0.234393
   7 C :   -0.031619
   8 H :    0.335424
   9 H :    0.126762
  10 H :    0.135608
  11 H :    0.126306
  12 H :    0.141477
  13 H :    0.140321
  14 H :    0.131772
Sum of atomic charges:    0.0000000

LOEWDIN ATOMIC CHARGES
----------------------
   0 O :    0.023001
   1 C :   -0.285597
   2 C :   -0.215715
   3 C :   -0.255893
   4 O :    0.188640
   5 C :   -0.359255
   6 N :    0.115475
   7 C :   -0.239072
   8 H :    0.179444
   9 H :    0.145518
  10 H :    0.154178
  11 H :    0.135446
  12 H :    0.137148
  13 H :    0.133443
  14 H :    0.143239

  Mayer bond orders larger than 0.1
B(  0-O ,  1-C ) :   1.0227 B(  0-O ,  8-H ) :   0.8139 B(  1-C ,  2-C ) :   0.8843
B(  1-C ,  7-C ) :   0.8314 B(  1-C ,  9-H ) :   0.9402 B(  2-C ,  3-C ) :   0.9364
B(  2-C ,  7-C ) :   0.8377 B(  2-C , 10-H ) :   0.9005 B(  3-C ,  4-O ) :   0.8379
B(  3-C , 11-H ) :   0.9312 B(  3-C , 12-H ) :   0.9355 B(  4-O ,  5-C ) :   0.9946
B(  5-C ,  6-N ) :   1.8339 B(  5-C , 13-H ) :   0.9287 B(  6-N ,  7-C ) :   0.9755
B(  7-C , 14-H ) :   0.9343

MP2 TOTAL ENERGY:     -399.131684634 Eh
FINAL SINGLE POINT ENERGY      -399.131684634292

DIPOLE MOMENT
-------------
                                X             Y             Z
Electronic contribution:      0.22746       1.58363      -2.18915
Nuclear contribution   :     -0.91959      -2.14184       2.87729
                        -----------------------------------------
Total Dipole Moment    :     -0.69213      -0.55822       0.68814
                        -----------------------------------------
Magnitude (a.u.)       :      1.12436
Magnitude (Debye)      :      2.85790

                             ****ORCA TERMINATED NORMALLY****
TOTAL RUN TIME: 0 days 0 hours 11 minutes 34 seconds 370 msec
