                         Program Version 3.0.3 - RELEASE   -
|  1> ! RI-MP2 RIJK def2-TZVP def2-TZVP/C def2-TZVP/JK TIGHTSCF
|  2> % maxcore 2000
|  3> % mp2 density relaxed end
|  4> *xyz 0 1
|  5>  C        0.1037131991     1.4208353008     0.3434684671
|  6>  C       -0.0771188660    -0.0263433718    -0.0505796067
|  7>  C        0.6386267283    -0.6795711384    -1.2166593587
|  8>  C        1.6072207398     0.0535307089    -2.1162178299
|  9>  N        0.9720350366    -1.0009825118     0.1589009823
| 10>  C        2.1596427488    -0.8422983921     0.8312579279
| 11>  O        2.2856570517    -0.2928314621     1.9018320146
| 12>  H        1.0768094830     1.8170754315     0.0482163832
| 13>  H       -0.6761739578     2.0320316047    -0.1221718196
| 14>  H        0.0261575095     1.5261401142     1.4286289312
| 15>  H       -1.0706095951    -0.4183138792     0.1676772077
| 16>  H        0.0908561901    -1.4749834663    -1.7225882674
| 17>  H        2.1526038118     0.8384881152    -1.5872295478
| 18>  H        2.3425474487    -0.6390985109    -2.5383040846
| 19>  H        1.0691439417     0.5121176882    -2.9524116591
| 20>  H        2.9956988798    -1.3531384508     0.3134144697
| 21> *
| 22>
| 23>                          ****END OF INPUT****

CARTESIAN COORDINATES (ANGSTROEM)
---------------------------------
  C      0.103713    1.420835    0.343468
  C     -0.077119   -0.026343   -0.050580
  C      0.638627   -0.679571   -1.216659
  C      1.607221    0.053531   -2.116218
  N      0.972035   -1.000983    0.158901
  C      2.159643   -0.842298    0.831258
  O      2.285657   -0.292831    1.901832
  H      1.076809    1.817075    0.048216
  H     -0.676174    2.032032   -0.122172
  H      0.026158    1.526140    1.428629
  H     -1.070610   -0.418314    0.167677
  H      0.090856   -1.474983   -1.722588
  H      2.152604    0.838488   -1.587230
  H      2.342547   -0.639099   -2.538304
  H      1.069144    0.512118   -2.952412
  H      2.995699   -1.353138    0.313414

 Total Charge           Charge          ....    0
 Multiplicity           Mult            ....    1
 Number of Electrons    NEL             ....   54
 Basis Dimension        Dim             ....  271

ORBITAL ENERGIES
----------------

  NO   OCC          E(Eh)            E(eV)
   0   2.0000     -20.531109      -558.6799
   1   2.0000     -15.581541      -423.9953
   2   2.0000     -11.349775      -308.8431
   3   2.0000     -11.287578      -307.1506
   4   2.0000     -11.281618      -306.9884
   5   2.0000     -11.240709      -305.8752
   6   2.0000     -11.227239      -305.5087
   7   2.0000      -1.388598       -37.7857
   8   2.0000      -1.294539       -35.2262
   9   2.0000      -1.031927       -28.0802
  10   2.0000      -1.008649       -27.4467
  11   2.0000      -0.942633       -25.6503
  12   2.0000      -0.794570       -21.6214
  13   2.0000      -0.761452       -20.7202
  14   2.0000      -0.704934       -19.1822
  15   2.0000      -0.670325       -18.2405
  16   2.0000      -0.640525       -17.4296
  17   2.0000      -0.599321       -16.3083
  18   2.0000      -0.585869       -15.9423
  19   2.0000      -0.563641       -15.3374
  20   2.0000      -0.556261       -15.1366
  21   2.0000      -0.540261       -14.7013
  22   2.0000      -0.511365       -13.9149
  23   2.0000      -0.486099       -13.2274
  24   2.0000      -0.478900       -13.0315
  25   2.0000      -0.421016       -11.4564
  26   2.0000      -0.383563       -10.4373
  27   0.0000       0.127875         3.4796
  28   0.0000       0.153332         4.1724
  29   0.0000       0.163007         4.4357
  30   0.0000       0.163985         4.4623
  31   0.0000       0.188933         5.1411

MULLIKEN ATOMIC CHARGES
-----------------------
   0 C :   -0.381448
   1 C :   -0.024458
   2 C :   -0.028401
   3 C :   -0.405516
   4 N :   -0.166640
   5 C :    0.151075
   6 O :   -0.324215
   7 H :    0.124198
   8 H :    0.136095
   9 H :    0.158128
  10 H :    0.126432
  11 H :    0.124822
  12 H :    0.138190
  13 H :    0.146010
  14 H :    0.143029
  15 H :    0.082699
Sum of atomic charges:    0.0000000

LOEWDIN ATOMIC CHARGES
----------------------
   0 C :   -0.289206
   1 C :   -0.232930
   2 C :   -0.236978
   3 C :   -0.293004
   4 N :    0.189291
   5 C :   -0.410083
   6 O :    0.085628
   7 H :    0.126847
   8 H :    0.129880
   9 H :    0.136930
  10 H :    0.145982
  11 H :    0.144367
  12 H :    0.128289
  13 H :    0.130211
  14 H :    0.133263
  15 H :    0.111513

  Mayer bond orders larger than 0.1
B(  0-C ,  1-C ) :   0.9299 B(  0-C ,  7-H ) :   0.9346 B(  0-C ,  8-H ) :   0.9285
B(  0-C ,  9-H ) :   0.9292 B(  1-C ,  2-C ) :   0.9147 B(  1-C ,  4-N ) :   0.8633
B(  1-C , 10-H ) :   0.9120 B(  2-C ,  3-C ) :   0.9144 B(  2-C ,  4-N ) :   0.8668
B(  2-C , 11-H ) :   0.9118 B(  3-C , 12-H ) :   0.9368 B(  3-C , 13-H ) :   0.9325
B(  3-C , 14-H ) :   0.9294 B(  4-N ,  5-C ) :   1.0702 B(  5-C ,  6-O ) :   1.9322
B(  5-C , 15-H ) :   0.9292

MP2 TOTAL ENERGY:     -325.221713425 Eh
FINAL SINGLE POINT ENERGY      -325.221713424982

DIPOLE MOMENT
-------------
                                X             Y             Z
Electronic contribution:      1.48098      -3.94615       5.01641
Nuclear contribution   :     -1.96761       4.08324      -6.42864
                        -----------------------------------------
Total Dipole Moment    :     -0.48663       0.13710      -1.41223
                        -----------------------------------------
Magnitude (a.u.)       :      1.50000
Magnitude (Debye)      :      3.81271

                             ****ORCA TERMINATED NORMALLY****
TOTAL RUN TIME: 0 days 0 hours 9 minutes 45 seconds 652 msec
