                         Program Version 3.0.3 - RELEASE   -
|  1> ! RI-MP2 RIJK def2-TZVP def2-TZVP/C def2-TZVP/JK TIGHTSCF
|  2> % maxcore 2000
|  3> % mp2 density relaxed end
|  4> *xyz 0 1
|  5>  O        0.2121501310    -0.1202838970     0.2481463267
|  6>  C        0.1441038006     1.0181608518    -0.1289829959
|  7>  C        1.2986102283     2.0129478838    -0.0551695037
|  8>  N        1.3242478983     2.9339531619    -1.1616005123
|  9>  C        1.6088891856     2.5671874358    -2.5336640144
| 10>  C        1.5691858445     3.9548209889    -3.2095071722
| 11>  O        0.9001690474     4.8145438407    -2.2779537986
| 12>  C        0.8415256175     4.2186828376    -1.0524430836
| 13>  O        0.4286321882     4.7593977462    -0.0624550418
| 14>  H       -0.7927672073     1.4462363124    -0.5552190830
| 15>  H        1.1544733712     2.6172108769     0.8497746450
| 16>  H        2.2406138487     1.4619392846     0.0377525251
| 17>  H        2.5883385285     2.0871317216    -2.6326605778
| 18>  H        0.8539167928     1.8821577621    -2.9438199864
| 19>  H        2.5754378896     4.3473068918    -3.3888364468
| 20>  H        1.0126860552     3.9589804809    -4.1481463101
| 21> *
| 22>
| 23>                          ****END OF INPUT****

CARTESIAN COORDINATES (ANGSTROEM)
---------------------------------
  O      0.212150   -0.120284    0.248146
  C      0.144104    1.018161   -0.128983
  C      1.298610    2.012948   -0.055170
  N      1.324248    2.933953   -1.161601
  C      1.608889    2.567187   -2.533664
  C      1.569186    3.954821   -3.209507
  O      0.900169    4.814544   -2.277954
  C      0.841526    4.218683   -1.052443
  O      0.428632    4.759398   -0.062455
  H     -0.792767    1.446236   -0.555219
  H      1.154473    2.617211    0.849775
  H      2.240614    1.461939    0.037753
  H      2.588339    2.087132   -2.632661
  H      0.853917    1.882158   -2.943820
  H      2.575438    4.347307   -3.388836
  H      1.012686    3.958980   -4.148146

 Total Charge           Charge          ....    0
 Multiplicity           Mult            ....    1
 Number of Electrons    NEL             ....   68
 Basis Dimension        Dim             ....  321

ORBITAL ENERGIES
----------------

  NO   OCC          E(Eh)            E(eV)
   0   2.0000     -20.615190      -560.9678
   1   2.0000     -20.575124      -559.8776
   2   2.0000     -20.537125      -558.8436
   3   2.0000     -15.614700      -424.8976
   4   2.0000     -11.412701      -310.5554
   5   2.0000     -11.347631      -308.7847
   6   2.0000     -11.321396      -308.0709
   7   2.0000     -11.305304      -307.6330
   8   2.0000     -11.295895      -307.3769
   9   2.0000      -1.482256       -40.3342
  10   2.0000      -1.414592       -38.4930
  11   2.0000      -1.376974       -37.4694
  12   2.0000      -1.280478       -34.8436
  13   2.0000      -1.061471       -28.8841
  14   2.0000      -1.012551       -27.5529
  15   2.0000      -0.902624       -24.5617
  16   2.0000      -0.842141       -22.9158
  17   2.0000      -0.793448       -21.5908
  18   2.0000      -0.732351       -19.9283
  19   2.0000      -0.726096       -19.7581
  20   2.0000      -0.695154       -18.9161
  21   2.0000      -0.674264       -18.3477
  22   2.0000      -0.657572       -17.8934
  23   2.0000      -0.631413       -17.1816
  24   2.0000      -0.615740       -16.7551
  25   2.0000      -0.599484       -16.3128
  26   2.0000      -0.596583       -16.2339
  27   2.0000      -0.580205       -15.7882
  28   2.0000      -0.542853       -14.7718
  29   2.0000      -0.519233       -14.1290
  30   2.0000      -0.472901       -12.8683
  31   2.0000      -0.468968       -12.7613
  32   2.0000      -0.456200       -12.4138
  33   2.0000      -0.400103       -10.8874
  34   0.0000       0.109522         2.9802
  35   0.0000       0.122358         3.3295
  36   0.0000       0.149679         4.0730
  37   0.0000       0.154319         4.1992
  38   0.0000       0.162429         4.4199

MULLIKEN ATOMIC CHARGES
-----------------------
   0 O :   -0.248478
   1 C :    0.070470
   2 C :   -0.109026
   3 N :   -0.166051
   4 C :   -0.191192
   5 C :   -0.033093
   6 O :   -0.245287
   7 C :    0.329289
   8 O :   -0.341169
   9 H :    0.093854
  10 H :    0.178820
  11 H :    0.140822
  12 H :    0.140394
  13 H :    0.128928
  14 H :    0.120781
  15 H :    0.130938
Sum of atomic charges:    0.0000000

LOEWDIN ATOMIC CHARGES
----------------------
   0 O :    0.144316
   1 C :   -0.291602
   2 C :   -0.256070
   3 N :    0.172489
   4 C :   -0.249334
   5 C :   -0.255977
   6 O :    0.242768
   7 C :   -0.558079
   8 O :    0.099728
   9 H :    0.114081
  10 H :    0.168966
  11 H :    0.144548
  12 H :    0.135320
  13 H :    0.129938
  14 H :    0.128611
  15 H :    0.130297

  Mayer bond orders larger than 0.1
B(  0-O ,  1-C ) :   2.0077 B(  1-C ,  2-C ) :   0.8563 B(  1-C ,  9-H ) :   0.9339
B(  2-C ,  3-N ) :   0.8594 B(  2-C , 10-H ) :   0.8891 B(  2-C , 11-H ) :   0.9082
B(  3-N ,  4-C ) :   0.9045 B(  3-N ,  7-C ) :   1.1105 B(  4-C ,  5-C ) :   0.9354
B(  4-C , 12-H ) :   0.9292 B(  4-C , 13-H ) :   0.9196 B(  5-C ,  6-O ) :   0.8916
B(  5-C , 14-H ) :   0.9274 B(  5-C , 15-H ) :   0.9319 B(  6-O ,  7-C ) :   1.0838
B(  7-C ,  8-O ) :   1.9683

MP2 TOTAL ENERGY:     -474.318638824 Eh
FINAL SINGLE POINT ENERGY      -474.318638823971

DIPOLE MOMENT
-------------
                                X             Y             Z
Electronic contribution:     -2.15052       1.88643       3.12262
Nuclear contribution   :      2.99313      -2.39818      -4.52218
                        -----------------------------------------
Total Dipole Moment    :      0.84261      -0.51175      -1.39956
                        -----------------------------------------
Magnitude (a.u.)       :      1.71191
Magnitude (Debye)      :      4.35134

                             ****ORCA TERMINATED NORMALLY****
TOTAL RUN TIME: 0 days 0 hours 14 minutes 39 seconds 224 msec
