                         Program Version 3.0.3 - RELEASE   -
|  1> ! RI-MP2 RIJK def2-TZVP def2-TZVP/C def2-TZVP/JK TIGHTSCF
|  2> % maxcore 2000
|  3> % mp2 density relaxed end
|  4> *xyz 0 1
|  5>  O        0.0020003148    -0.1019407870    -0.1029982959
|  6>  C       -0.0136382591     1.1177467397    -0.0313234618
|  7>  N       -1.2114161589     1.7973403260     0.0566226874
|  8>  C       -1.4899171798     3.2235670514    -0.1005691602
|  9>  C       -0.7070777758     4.0892022791     0.8578842401
| 10>  C        0.6221627085     4.1072789007     0.8402130544
| 11>  C        1.4025063674     3.2629140722    -0.1390250204
| 12>  N        1.1671310650     1.8296954025     0.0249201135
| 13>  H       -1.9832719316     1.1641232839    -0.0784485314
| 14>  H       -1.3049021735     3.5564774885    -1.1352265243
| 15>  H       -2.5608800758     3.3497360759     0.0734032512
| 16>  H       -1.2618938194     4.6817870847     1.5788837134
| 17>  H        1.1796288351     4.7149948253     1.5464218670
| 18>  H        1.1811249596     3.5903482992    -1.1682742787
| 19>  H        2.4738868268     3.4181860085     0.0065150468
| 20>  H        1.9520495468     1.2176460594    -0.1308602810
| 21> *
| 22>
| 23>                          ****END OF INPUT****

CARTESIAN COORDINATES (ANGSTROEM)
---------------------------------
  O      0.002000   -0.101941   -0.102998
  C     -0.013638    1.117747   -0.031323
  N     -1.211416    1.797340    0.056623
  C     -1.489917    3.223567   -0.100569
  C     -0.707078    4.089202    0.857884
  C      0.622163    4.107279    0.840213
  C      1.402506    3.262914   -0.139025
  N      1.167131    1.829695    0.024920
  H     -1.983272    1.164123   -0.078449
  H     -1.304902    3.556477   -1.135227
  H     -2.560880    3.349736    0.073403
  H     -1.261894    4.681787    1.578884
  H      1.179629    4.714995    1.546422
  H      1.181125    3.590348   -1.168274
  H      2.473887    3.418186    0.006515
  H      1.952050    1.217646   -0.130860

 Total Charge           Charge          ....    0
 Multiplicity           Mult            ....    1
 Number of Electrons    NEL             ....   60
 Basis Dimension        Dim             ....  296

ORBITAL ENERGIES
----------------

  NO   OCC          E(Eh)            E(eV)
   0   2.0000     -20.492627      -557.6327
   1   2.0000     -15.574076      -423.7922
   2   2.0000     -15.574053      -423.7915
   3   2.0000     -11.366324      -309.2934
   4   2.0000     -11.284153      -307.0574
   5   2.0000     -11.284147      -307.0572
   6   2.0000     -11.244364      -305.9747
   7   2.0000     -11.242605      -305.9268
   8   2.0000      -1.379421       -37.5360
   9   2.0000      -1.239354       -33.7245
  10   2.0000      -1.202815       -32.7303
  11   2.0000      -1.089062       -29.6349
  12   2.0000      -0.974210       -26.5096
  13   2.0000      -0.925555       -25.1856
  14   2.0000      -0.799173       -21.7466
  15   2.0000      -0.764170       -20.7941
  16   2.0000      -0.697234       -18.9727
  17   2.0000      -0.668612       -18.1938
  18   2.0000      -0.666197       -18.1281
  19   2.0000      -0.650395       -17.6981
  20   2.0000      -0.637786       -17.3550
  21   2.0000      -0.588033       -16.0012
  22   2.0000      -0.566939       -15.4272
  23   2.0000      -0.557389       -15.1673
  24   2.0000      -0.531770       -14.4702
  25   2.0000      -0.517370       -14.0784
  26   2.0000      -0.428800       -11.6682
  27   2.0000      -0.390757       -10.6330
  28   2.0000      -0.385981       -10.5031
  29   2.0000      -0.377074       -10.2607
  30   0.0000       0.125277         3.4090
  31   0.0000       0.126943         3.4543
  32   0.0000       0.151444         4.1210
  33   0.0000       0.152177         4.1409
  34   0.0000       0.171865         4.6767

MULLIKEN ATOMIC CHARGES
-----------------------
   0 O :   -0.405967
   1 C :    0.327539
   2 N :   -0.341005
   3 C :   -0.115962
   4 C :   -0.154147
   5 C :   -0.154148
   6 C :   -0.115957
   7 N :   -0.341009
   8 H :    0.247723
   9 H :    0.127603
  10 H :    0.139032
  11 H :    0.135970
  12 H :    0.135971
  13 H :    0.127602
  14 H :    0.139031
  15 H :    0.247724
Sum of atomic charges:   -0.0000000

LOEWDIN ATOMIC CHARGES
----------------------
   0 O :    0.033282
   1 C :   -0.557729
   2 N :    0.088767
   3 C :   -0.273844
   4 C :   -0.166788
   5 C :   -0.166788
   6 C :   -0.273845
   7 N :    0.088770
   8 H :    0.192800
   9 H :    0.135818
  10 H :    0.141683
  11 H :    0.143785
  12 H :    0.143785
  13 H :    0.135818
  14 H :    0.141684
  15 H :    0.192801

  Mayer bond orders larger than 0.1
B(  0-O ,  1-C ) :   1.9422 B(  1-C ,  2-N ) :   1.1230 B(  1-C ,  7-N ) :   1.1230
B(  2-N ,  3-C ) :   0.9104 B(  2-N ,  8-H ) :   0.8650 B(  3-C ,  4-C ) :   0.9306
B(  3-C ,  9-H ) :   0.9439 B(  3-C , 10-H ) :   0.9292 B(  4-C ,  5-C ) :   1.8000
B(  4-C , 11-H ) :   0.9223 B(  5-C ,  6-C ) :   0.9306 B(  5-C , 12-H ) :   0.9223
B(  6-C ,  7-N ) :   0.9104 B(  6-C , 13-H ) :   0.9439 B(  6-C , 14-H ) :   0.9292
B(  7-N , 15-H ) :   0.8650

MP2 TOTAL ENERGY:     -379.316103955 Eh
FINAL SINGLE POINT ENERGY      -379.316103955492

DIPOLE MOMENT
-------------
                                X             Y             Z
Electronic contribution:      0.06788      -4.66859       0.33422
Nuclear contribution   :     -0.09294       6.33470      -0.51569
                        -----------------------------------------
Total Dipole Moment    :     -0.02506       1.66611      -0.18147
                        -----------------------------------------
Magnitude (a.u.)       :      1.67615
Magnitude (Debye)      :      4.26043

                             ****ORCA TERMINATED NORMALLY****
TOTAL RUN TIME: 0 days 0 hours 11 minutes 53 seconds 307 msec
