                         Program Version 3.0.3 - RELEASE   -
|  1> ! RI-MP2 RIJK def2-TZVP def2-TZVP/C def2-TZVP/JK TIGHTSCF
|  2> % maxcore 2000
|  3> % mp2 density relaxed end
|  4> *xyz 0 1
|  5>  C       -0.0835273678     1.6091737704    -0.0401823372
|  6>  C       -0.0436514535     0.0822704887    -0.1054378607
|  7>  O        0.9507108371    -0.4438601230     0.7733864637
|  8>  C       -1.4191762149    -0.5528677665     0.1574537927
|  9>  C       -1.4238154610    -2.0513742465     0.0283936813
| 10>  C       -1.5472874264    -2.7496904439    -1.3005598656
| 11>  C       -2.5827956960    -3.0200759555    -0.2413746437
| 12>  C       -2.0274239788    -4.0128957929     0.7855456827
| 13>  C       -0.8387967084    -3.0333472664     1.0569066400
| 14>  H        0.9157967569     2.0213275300    -0.2044379418
| 15>  H       -0.7598028908     2.0232576848    -0.7952598793
| 16>  H       -0.4356311374     1.9481749396     0.9426754598
| 17>  H        0.2932292131    -0.2255845443    -1.1028605131
| 18>  H        0.7116106151    -0.1851494631     1.6705560297
| 19>  H       -1.7522915241    -0.2596089390     1.1658133649
| 20>  H       -2.1465509326    -0.1208294045    -0.5424320483
| 21>  H       -1.8793353916    -2.1238587986    -2.1240334460
| 22>  H       -0.8418066675    -3.5260956451    -1.5910838857
| 23>  H       -3.6315824859    -2.7997554607    -0.4075292129
| 24>  H       -2.6706533745    -4.1367816207     1.6598899169
| 25>  H       -1.7735545416    -5.0062492940     0.3996001856
| 26>  H        0.1722790009    -3.3954745343     0.8509882744
| 27>  H       -0.8593805502    -2.6368818244     2.0755929328
| 28> *
| 29>
| 30>                          ****END OF INPUT****

CARTESIAN COORDINATES (ANGSTROEM)
---------------------------------
  C     -0.083527    1.609174   -0.040182
  C     -0.043651    0.082270   -0.105438
  O      0.950711   -0.443860    0.773386
  C     -1.419176   -0.552868    0.157454
  C     -1.423815   -2.051374    0.028394
  C     -1.547287   -2.749690   -1.300560
  C     -2.582796   -3.020076   -0.241375
  C     -2.027424   -4.012896    0.785546
  C     -0.838797   -3.033347    1.056907
  H      0.915797    2.021328   -0.204438
  H     -0.759803    2.023258   -0.795260
  H     -0.435631    1.948175    0.942675
  H      0.293229   -0.225585   -1.102861
  H      0.711611   -0.185149    1.670556
  H     -1.752292   -0.259609    1.165813
  H     -2.146551   -0.120829   -0.542432
  H     -1.879335   -2.123859   -2.124033
  H     -0.841807   -3.526096   -1.591084
  H     -3.631582   -2.799755   -0.407529
  H     -2.670653   -4.136782    1.659890
  H     -1.773555   -5.006249    0.399600
  H      0.172279   -3.395475    0.850988
  H     -0.859381   -2.636882    2.075593

 Total Charge           Charge          ....    0
 Multiplicity           Mult            ....    1
 Number of Electrons    NEL             ....   70
 Basis Dimension        Dim             ....  363

ORBITAL ENERGIES
----------------

  NO   OCC          E(Eh)            E(eV)
   0   2.0000     -20.549153      -559.1709
   1   2.0000     -11.276643      -306.8530
   2   2.0000     -11.229957      -305.5827
   3   2.0000     -11.223910      -305.4181
   4   2.0000     -11.223590      -305.4094
   5   2.0000     -11.218583      -305.2732
   6   2.0000     -11.217468      -305.2428
   7   2.0000     -11.216703      -305.2220
   8   2.0000     -11.215213      -305.1814
   9   2.0000      -1.355280       -36.8790
  10   2.0000      -1.184446       -32.2304
  11   2.0000      -1.044586       -28.4246
  12   2.0000      -0.978001       -26.6128
  13   2.0000      -0.953369       -25.9425
  14   2.0000      -0.867827       -23.6148
  15   2.0000      -0.821579       -22.3563
  16   2.0000      -0.782100       -21.2820
  17   2.0000      -0.712708       -19.3938
  18   2.0000      -0.677904       -18.4467
  19   2.0000      -0.642834       -17.4924
  20   2.0000      -0.629015       -17.1164
  21   2.0000      -0.613400       -16.6915
  22   2.0000      -0.605653       -16.4806
  23   2.0000      -0.585929       -15.9439
  24   2.0000      -0.546678       -14.8759
  25   2.0000      -0.535918       -14.5831
  26   2.0000      -0.527232       -14.3467
  27   2.0000      -0.518362       -14.1053
  28   2.0000      -0.507635       -13.8135
  29   2.0000      -0.472973       -12.8703
  30   2.0000      -0.457736       -12.4556
  31   2.0000      -0.451946       -12.2981
  32   2.0000      -0.437426       -11.9030
  33   2.0000      -0.394917       -10.7463
  34   2.0000      -0.358943        -9.7673
  35   0.0000       0.125879         3.4253
  36   0.0000       0.156388         4.2555
  37   0.0000       0.157388         4.2827
  38   0.0000       0.170119         4.6292
  39   0.0000       0.177289         4.8243

MULLIKEN ATOMIC CHARGES
-----------------------
   0 C :   -0.379535
   1 C :    0.102836
   2 O :   -0.465991
   3 C :   -0.384699
   4 C :    0.188938
   5 C :   -0.290797
   6 C :   -0.130027
   7 C :   -0.221865
   8 C :   -0.241863
   9 H :    0.147355
  10 H :    0.124895
  11 H :    0.112338
  12 H :    0.090341
  13 H :    0.307230
  14 H :    0.117737
  15 H :    0.115724
  16 H :    0.122653
  17 H :    0.123548
  18 H :    0.123390
  19 H :    0.112445
  20 H :    0.107462
  21 H :    0.118738
  22 H :    0.099146
Sum of atomic charges:   -0.0000000

LOEWDIN ATOMIC CHARGES
----------------------
   0 C :   -0.306500
   1 C :   -0.364680
   2 O :   -0.017046
   3 C :   -0.226822
   4 C :   -0.206454
   5 C :   -0.191054
   6 C :   -0.171949
   7 C :   -0.218705
   8 C :   -0.196846
   9 H :    0.126101
  10 H :    0.125103
  11 H :    0.120035
  12 H :    0.145770
  13 H :    0.172096
  14 H :    0.141715
  15 H :    0.150022
  16 H :    0.138781
  17 H :    0.132223
  18 H :    0.132006
  19 H :    0.131435
  20 H :    0.124807
  21 H :    0.129164
  22 H :    0.130797

  Mayer bond orders larger than 0.1
B(  0-C ,  1-C ) :   0.9278 B(  0-C ,  9-H ) :   0.9451 B(  0-C , 10-H ) :   0.9347
B(  0-C , 11-H ) :   0.9198 B(  1-C ,  2-O ) :   0.9219 B(  1-C ,  3-C ) :   0.9462
B(  1-C , 12-H ) :   0.9261 B(  2-O , 13-H ) :   0.8447 B(  3-C ,  4-C ) :   0.8950
B(  3-C , 14-H ) :   0.9266 B(  3-C , 15-H ) :   0.9166 B(  4-C ,  5-C ) :   0.8807
B(  4-C ,  6-C ) :   0.8036 B(  4-C ,  8-C ) :   0.9275 B(  5-C ,  6-C ) :   0.8910
B(  5-C , 16-H ) :   0.9306 B(  5-C , 17-H ) :   0.9136 B(  6-C ,  7-C ) :   0.9427
B(  6-C , 18-H ) :   0.9187 B(  7-C ,  8-C ) :   0.9703 B(  7-C , 19-H ) :   0.9281
B(  7-C , 20-H ) :   0.9201 B(  8-C , 21-H ) :   0.9188 B(  8-C , 22-H ) :   0.9276

MP2 TOTAL ENERGY:     -387.590398646 Eh
FINAL SINGLE POINT ENERGY      -387.590398646255

DIPOLE MOMENT
-------------
                                X             Y             Z
Electronic contribution:      0.80823      -2.13804       0.22058
Nuclear contribution   :     -1.30994       2.56519      -0.04005
                        -----------------------------------------
Total Dipole Moment    :     -0.50171       0.42715       0.18053
                        -----------------------------------------
Magnitude (a.u.)       :      0.68320
Magnitude (Debye)      :      1.73655

                             ****ORCA TERMINATED NORMALLY****
TOTAL RUN TIME: 0 days 0 hours 20 minutes 50 seconds 185 msec
