                         Program Version 3.0.3 - RELEASE   -
|  1> ! RI-MP2 RIJK def2-TZVP def2-TZVP/C def2-TZVP/JK TIGHTSCF
|  2> % maxcore 2000
|  3> % mp2 density relaxed end
|  4> *xyz 0 1
|  5>  O       -0.1830943061     0.0667754129    -0.2265050335
|  6>  C       -0.0141192459     1.2213894050     0.0086110494
|  7>  C       -0.8397729550     2.3779062243     0.5784825526
|  8>  O        0.2495872304     3.2819680415     0.2891773099
|  9>  C        1.1366507995     2.2347805181    -0.1719167043
| 10>  C        2.3292654616     2.0350436539     0.7415172906
| 11>  C        3.0805073598     3.3144361827     1.1797516613
| 12>  C        2.5697691758     2.9557725509     2.5888944143
| 13>  O        1.9110560000     1.7655233840     2.0970338513
| 14>  H       -1.7585662280     2.6264031319     0.0341034581
| 15>  H       -1.0463699674     2.2944755169     1.6519752969
| 16>  H        1.4619004518     2.3902964172    -1.2100827939
| 17>  H        2.9545137064     1.2254004663     0.3418034346
| 18>  H        4.1621547760     3.2830901389     1.0460719423
| 19>  H        2.6807616243     4.2398370408     0.7652937259
| 20>  H        3.3398264594     2.7123724594     3.3296881200
| 21>  H        1.8553151774     3.6618454353     3.0252709544
| 22> *
| 23>
| 24>                          ****END OF INPUT****

CARTESIAN COORDINATES (ANGSTROEM)
---------------------------------
  O     -0.183094    0.066775   -0.226505
  C     -0.014119    1.221389    0.008611
  C     -0.839773    2.377906    0.578483
  O      0.249587    3.281968    0.289177
  C      1.136651    2.234781   -0.171917
  C      2.329265    2.035044    0.741517
  C      3.080507    3.314436    1.179752
  C      2.569769    2.955773    2.588894
  O      1.911056    1.765523    2.097034
  H     -1.758566    2.626403    0.034103
  H     -1.046370    2.294476    1.651975
  H      1.461900    2.390296   -1.210083
  H      2.954514    1.225400    0.341803
  H      4.162155    3.283090    1.046072
  H      2.680762    4.239837    0.765294
  H      3.339826    2.712372    3.329688
  H      1.855315    3.661845    3.025271

 Total Charge           Charge          ....    0
 Multiplicity           Mult            ....    1
 Number of Electrons    NEL             ....   68
 Basis Dimension        Dim             ....  327

ORBITAL ENERGIES
----------------

  NO   OCC          E(Eh)            E(eV)
   0   2.0000     -20.573496      -559.8333
   1   2.0000     -20.570792      -559.7597
   2   2.0000     -20.558250      -559.4184
   3   2.0000     -11.347234      -308.7739
   4   2.0000     -11.303883      -307.5943
   5   2.0000     -11.301151      -307.5200
   6   2.0000     -11.298215      -307.4400
   7   2.0000     -11.286342      -307.1170
   8   2.0000     -11.240289      -305.8638
   9   2.0000      -1.425733       -38.7962
  10   2.0000      -1.399118       -38.0719
  11   2.0000      -1.382115       -37.6092
  12   2.0000      -1.041970       -28.3534
  13   2.0000      -1.006818       -27.3969
  14   2.0000      -0.977093       -26.5881
  15   2.0000      -0.901469       -24.5302
  16   2.0000      -0.790006       -21.4972
  17   2.0000      -0.734433       -19.9849
  18   2.0000      -0.720300       -19.6004
  19   2.0000      -0.689851       -18.7718
  20   2.0000      -0.687465       -18.7069
  21   2.0000      -0.658488       -17.9184
  22   2.0000      -0.640136       -17.4190
  23   2.0000      -0.610201       -16.6044
  24   2.0000      -0.578275       -15.7357
  25   2.0000      -0.564421       -15.3587
  26   2.0000      -0.549312       -14.9475
  27   2.0000      -0.539956       -14.6930
  28   2.0000      -0.526804       -14.3351
  29   2.0000      -0.489072       -13.3083
  30   2.0000      -0.473903       -12.8956
  31   2.0000      -0.454280       -12.3616
  32   2.0000      -0.422537       -11.4978
  33   2.0000      -0.407619       -11.0919
  34   0.0000       0.124585         3.3901
  35   0.0000       0.142555         3.8791
  36   0.0000       0.154943         4.2162
  37   0.0000       0.158581         4.3152
  38   0.0000       0.172155         4.6846

MULLIKEN ATOMIC CHARGES
-----------------------
   0 O :   -0.233513
   1 C :    0.115676
   2 C :   -0.038275
   3 O :   -0.353239
   4 C :    0.109813
   5 C :    0.099039
   6 C :   -0.301279
   7 C :   -0.017797
   8 O :   -0.353134
   9 H :    0.129672
  10 H :    0.126802
  11 H :    0.126380
  12 H :    0.107199
  13 H :    0.132575
  14 H :    0.142624
  15 H :    0.103913
  16 H :    0.103544
Sum of atomic charges:    0.0000000

LOEWDIN ATOMIC CHARGES
----------------------
   0 O :    0.185167
   1 C :   -0.293393
   2 C :   -0.240434
   3 O :    0.147459
   4 C :   -0.243715
   5 C :   -0.268830
   6 C :   -0.221283
   7 C :   -0.266022
   8 O :    0.139521
   9 H :    0.129049
  10 H :    0.134218
  11 H :    0.149843
  12 H :    0.143846
  13 H :    0.131316
  14 H :    0.138227
  15 H :    0.116326
  16 H :    0.118707

  Mayer bond orders larger than 0.1
B(  0-O ,  1-C ) :   2.0572 B(  1-C ,  2-C ) :   0.9601 B(  1-C ,  4-C ) :   0.8443
B(  2-C ,  3-O ) :   0.9360 B(  2-C ,  9-H ) :   0.8972 B(  2-C , 10-H ) :   0.8997
B(  3-O ,  4-C ) :   0.9140 B(  4-C ,  5-C ) :   0.9348 B(  4-C , 11-H ) :   0.8867
B(  5-C ,  6-C ) :   0.9069 B(  5-C ,  8-O ) :   0.9219 B(  5-C , 12-H ) :   0.9081
B(  6-C ,  7-C ) :   0.9832 B(  6-C , 13-H ) :   0.9284 B(  6-C , 14-H ) :   0.9224
B(  7-C ,  8-O ) :   0.9230 B(  7-C , 15-H ) :   0.9167 B(  7-C , 16-H ) :   0.9212

MP2 TOTAL ENERGY:     -458.189023075 Eh
FINAL SINGLE POINT ENERGY      -458.189023075323

DIPOLE MOMENT
-------------
                                X             Y             Z
Electronic contribution:     -3.79451      -4.11118      -2.46313
Nuclear contribution   :      4.31236       4.96165       2.40515
                        -----------------------------------------
Total Dipole Moment    :      0.51785       0.85047      -0.05798
                        -----------------------------------------
Magnitude (a.u.)       :      0.99742
Magnitude (Debye)      :      2.53523

                             ****ORCA TERMINATED NORMALLY****
TOTAL RUN TIME: 0 days 0 hours 15 minutes 29 seconds 190 msec
