                         Program Version 3.0.3 - RELEASE   -
|  1> ! RI-MP2 RIJK def2-TZVP def2-TZVP/C def2-TZVP/JK TIGHTSCF
|  2> % maxcore 2000
|  3> % mp2 density relaxed end
|  4> *xyz 0 1
|  5>  O        0.1504695818     1.2265441152    -0.3817627991
|  6>  C        0.0669912826    -0.1712373236    -0.1814643234
|  7>  C       -1.3673280312    -0.6108037156     0.0585917501
|  8>  O       -2.1344394550    -0.2403841305    -1.1088073484
|  9>  C       -3.2271140909    -1.1509930626    -1.1725168754
| 10>  C       -2.5634090106    -2.4957737281    -0.9110238290
| 11>  O       -1.8143005175    -2.9280489349    -2.0453279684
| 12>  C       -1.5853095206    -2.1474340619     0.2504382716
| 13>  O       -0.4120874534    -2.9226732979     0.2056479070
| 14>  H       -0.4925124136     1.4441022888    -1.0661674125
| 15>  H        0.4788606499    -0.7303513092    -1.0356487531
| 16>  H        0.6792655368    -0.4149925701     0.6905059623
| 17>  H       -1.7733571322    -0.0596502105     0.9192958078
| 18>  H       -3.9841837538    -0.9240645002    -0.4049698018
| 19>  H       -3.6862745399    -1.0790661966    -2.1614214829
| 20>  H       -3.2535362222    -3.3045413402    -0.6645545438
| 21>  H       -1.4438855105    -2.1316744925    -2.4493242602
| 22>  H       -2.0664269086    -2.3301725856     1.2171592073
| 23>  H       -0.3663664112    -3.2674543541    -0.6992806979
| 24> *
| 25>
| 26>                          ****END OF INPUT****

CARTESIAN COORDINATES (ANGSTROEM)
---------------------------------
  O      0.150470    1.226544   -0.381763
  C      0.066991   -0.171237   -0.181464
  C     -1.367328   -0.610804    0.058592
  O     -2.134439   -0.240384   -1.108807
  C     -3.227114   -1.150993   -1.172517
  C     -2.563409   -2.495774   -0.911024
  O     -1.814301   -2.928049   -2.045328
  C     -1.585310   -2.147434    0.250438
  O     -0.412087   -2.922673    0.205648
  H     -0.492512    1.444102   -1.066167
  H      0.478861   -0.730351   -1.035649
  H      0.679266   -0.414993    0.690506
  H     -1.773357   -0.059650    0.919296
  H     -3.984184   -0.924065   -0.404970
  H     -3.686275   -1.079066   -2.161421
  H     -3.253536   -3.304541   -0.664555
  H     -1.443886   -2.131674   -2.449324
  H     -2.066427   -2.330173    1.217159
  H     -0.366366   -3.267454   -0.699281

 Total Charge           Charge          ....    0
 Multiplicity           Mult            ....    1
 Number of Electrons    NEL             ....   72
 Basis Dimension        Dim             ....  339

ORBITAL ENERGIES
----------------

  NO   OCC          E(Eh)            E(eV)
   0   2.0000     -20.585177      -560.1511
   1   2.0000     -20.578662      -559.9739
   2   2.0000     -20.560760      -559.4867
   3   2.0000     -20.552638      -559.2657
   4   2.0000     -11.302690      -307.5618
   5   2.0000     -11.297698      -307.4260
   6   2.0000     -11.296152      -307.3839
   7   2.0000     -11.289234      -307.1957
   8   2.0000     -11.276178      -306.8404
   9   2.0000      -1.420570       -38.6557
  10   2.0000      -1.384860       -37.6840
  11   2.0000      -1.362931       -37.0872
  12   2.0000      -1.355220       -36.8774
  13   2.0000      -1.046198       -28.4685
  14   2.0000      -1.032578       -28.0979
  15   2.0000      -0.914798       -24.8929
  16   2.0000      -0.845749       -23.0140
  17   2.0000      -0.804663       -21.8960
  18   2.0000      -0.746943       -20.3253
  19   2.0000      -0.717968       -19.5369
  20   2.0000      -0.686481       -18.6801
  21   2.0000      -0.682972       -18.5846
  22   2.0000      -0.653466       -17.7817
  23   2.0000      -0.637222       -17.3397
  24   2.0000      -0.610215       -16.6048
  25   2.0000      -0.604524       -16.4499
  26   2.0000      -0.584920       -15.9165
  27   2.0000      -0.565899       -15.3989
  28   2.0000      -0.549030       -14.9399
  29   2.0000      -0.531505       -14.4630
  30   2.0000      -0.511282       -13.9127
  31   2.0000      -0.496245       -13.5035
  32   2.0000      -0.476651       -12.9703
  33   2.0000      -0.471368       -12.8266
  34   2.0000      -0.434036       -11.8107
  35   2.0000      -0.422564       -11.4985
  36   0.0000       0.131461         3.5772
  37   0.0000       0.137036         3.7290
  38   0.0000       0.166883         4.5411
  39   0.0000       0.168185         4.5765
  40   0.0000       0.181632         4.9425

MULLIKEN ATOMIC CHARGES
-----------------------
   0 O :   -0.473849
   1 C :    0.039987
   2 C :   -0.017178
   3 O :   -0.348670
   4 C :   -0.091613
   5 C :    0.057845
   6 O :   -0.494277
   7 C :    0.022906
   8 O :   -0.474841
   9 H :    0.325624
  10 H :    0.069525
  11 H :    0.123124
  12 H :    0.090423
  13 H :    0.110979
  14 H :    0.143260
  15 H :    0.131978
  16 H :    0.332487
  17 H :    0.113653
  18 H :    0.338635
Sum of atomic charges:   -0.0000000

LOEWDIN ATOMIC CHARGES
----------------------
   0 O :   -0.043295
   1 C :   -0.331333
   2 C :   -0.296253
   3 O :    0.143144
   4 C :   -0.300242
   5 C :   -0.321663
   6 O :   -0.017268
   7 C :   -0.309040
   8 O :   -0.007334
   9 H :    0.176692
  10 H :    0.116040
  11 H :    0.138057
  12 H :    0.140826
  13 H :    0.129830
  14 H :    0.133822
  15 H :    0.144566
  16 H :    0.181932
  17 H :    0.144019
  18 H :    0.177501

  Mayer bond orders larger than 0.1
B(  0-O ,  1-C ) :   0.9252 B(  0-O ,  9-H ) :   0.8359 B(  1-C ,  2-C ) :   0.9750
B(  1-C , 10-H ) :   0.9051 B(  1-C , 11-H ) :   0.9238 B(  2-C ,  3-O ) :   0.8847
B(  2-C ,  7-C ) :   0.8501 B(  2-C , 12-H ) :   0.9146 B(  3-O ,  4-C ) :   0.9033
B(  4-C ,  5-C ) :   0.9672 B(  4-C , 13-H ) :   0.9298 B(  4-C , 14-H ) :   0.9237
B(  5-C ,  6-O ) :   0.8750 B(  5-C ,  7-C ) :   0.9361 B(  5-C , 15-H ) :   0.9287
B(  6-O , 16-H ) :   0.8249 B(  7-C ,  8-O ) :   1.0275 B(  7-C , 17-H ) :   0.9394
B(  8-O , 18-H ) :   0.8043

MP2 TOTAL ENERGY:     -496.543160603 Eh
FINAL SINGLE POINT ENERGY      -496.543160603099

DIPOLE MOMENT
-------------
                                X             Y             Z
Electronic contribution:      0.70992      -0.08397      -0.76584
Nuclear contribution   :     -1.78232      -0.13302       0.45089
                        -----------------------------------------
Total Dipole Moment    :     -1.07240      -0.21700      -0.31496
                        -----------------------------------------
Magnitude (a.u.)       :      1.13856
Magnitude (Debye)      :      2.89400

                             ****ORCA TERMINATED NORMALLY****
TOTAL RUN TIME: 0 days 0 hours 25 minutes 22 seconds 658 msec
