                         Program Version 3.0.3 - RELEASE   -
|  1> ! RI-MP2 RIJK def2-TZVP def2-TZVP/C def2-TZVP/JK TIGHTSCF
|  2> % maxcore 2000
|  3> % mp2 density relaxed end
|  4> *xyz 0 1
|  5>  O       -0.7464294136     1.1238386069     0.6145510695
|  6>  C        0.1957695504     1.0816189014    -0.1351502438
|  7>  C        1.4010716496     1.9881014621    -0.0669292516
|  8>  C        1.4456270178     2.8980156487    -1.3066776835
|  9>  C        0.4004634632     4.0555445289    -1.2656075763
| 10>  C        1.5181318873     5.0428833104    -0.8321942898
| 11>  C        2.5630537950     3.9880823470    -1.3098460441
| 12>  C        3.8386755228     3.8361300819    -0.5310064551
| 13>  O        4.3220995487     2.7921800155    -0.1682031044
| 14>  H        0.2217562239     0.3480701456    -0.9761766276
| 15>  H        1.3458624559     2.5718531286     0.8571193717
| 16>  H        2.3100698839     1.3777844526    -0.0368771304
| 17>  H        1.4207414389     2.2790973996    -2.2085246853
| 18>  H        0.0088581620     4.2919166573    -2.2581597090
| 19>  H       -0.4387587426     3.9248494256    -0.5791784770
| 20>  H        1.5422636030     6.0224578543    -1.3127824140
| 21>  H        1.5471248111     5.1874517512     0.2516064460
| 22>  H        2.8612608661     4.2174775665    -2.3422857183
| 23>  H        4.3433758767     4.8055651059    -0.3043785071
| 24> *
| 25>
| 26>                          ****END OF INPUT****

CARTESIAN COORDINATES (ANGSTROEM)
---------------------------------
  O     -0.746429    1.123839    0.614551
  C      0.195770    1.081619   -0.135150
  C      1.401072    1.988101   -0.066929
  C      1.445627    2.898016   -1.306678
  C      0.400463    4.055545   -1.265608
  C      1.518132    5.042883   -0.832194
  C      2.563054    3.988082   -1.309846
  C      3.838676    3.836130   -0.531006
  O      4.322100    2.792180   -0.168203
  H      0.221756    0.348070   -0.976177
  H      1.345862    2.571853    0.857119
  H      2.310070    1.377784   -0.036877
  H      1.420741    2.279097   -2.208525
  H      0.008858    4.291917   -2.258160
  H     -0.438759    3.924849   -0.579178
  H      1.542264    6.022458   -1.312782
  H      1.547125    5.187452    0.251606
  H      2.861261    4.217478   -2.342286
  H      4.343376    4.805565   -0.304379

 Total Charge           Charge          ....    0
 Multiplicity           Mult            ....    1
 Number of Electrons    NEL             ....   68
 Basis Dimension        Dim             ....  339

ORBITAL ENERGIES
----------------

  NO   OCC          E(Eh)            E(eV)
   0   2.0000     -20.565240      -559.6086
   1   2.0000     -20.555910      -559.3548
   2   2.0000     -11.340799      -308.5988
   3   2.0000     -11.330258      -308.3120
   4   2.0000     -11.258492      -306.3591
   5   2.0000     -11.257358      -306.3283
   6   2.0000     -11.247391      -306.0571
   7   2.0000     -11.239187      -305.8338
   8   2.0000     -11.238059      -305.8031
   9   2.0000      -1.404136       -38.2085
  10   2.0000      -1.394291       -37.9406
  11   2.0000      -1.163411       -31.6580
  12   2.0000      -1.034849       -28.1597
  13   2.0000      -0.967670       -26.3316
  14   2.0000      -0.896131       -24.3850
  15   2.0000      -0.828469       -22.5438
  16   2.0000      -0.796541       -21.6750
  17   2.0000      -0.747865       -20.3504
  18   2.0000      -0.691828       -18.8256
  19   2.0000      -0.686508       -18.6808
  20   2.0000      -0.661022       -17.9873
  21   2.0000      -0.654246       -17.8029
  22   2.0000      -0.624701       -16.9990
  23   2.0000      -0.598244       -16.2790
  24   2.0000      -0.576064       -15.6755
  25   2.0000      -0.544384       -14.8135
  26   2.0000      -0.540980       -14.7208
  27   2.0000      -0.517474       -14.0812
  28   2.0000      -0.501343       -13.6422
  29   2.0000      -0.493810       -13.4373
  30   2.0000      -0.468028       -12.7357
  31   2.0000      -0.456519       -12.4225
  32   2.0000      -0.423172       -11.5151
  33   2.0000      -0.409335       -11.1386
  34   0.0000       0.115304         3.1376
  35   0.0000       0.129127         3.5137
  36   0.0000       0.132058         3.5935
  37   0.0000       0.152059         4.1377
  38   0.0000       0.157581         4.2880

MULLIKEN ATOMIC CHARGES
-----------------------
   0 O :   -0.267725
   1 C :    0.098150
   2 C :   -0.205524
   3 C :   -0.106879
   4 C :   -0.229582
   5 C :   -0.297119
   6 C :    0.000722
   7 C :    0.069064
   8 O :   -0.274145
   9 H :    0.073370
  10 H :    0.116224
  11 H :    0.160513
  12 H :    0.116528
  13 H :    0.125744
  14 H :    0.141643
  15 H :    0.131836
  16 H :    0.131961
  17 H :    0.129279
  18 H :    0.085939
Sum of atomic charges:    0.0000000

LOEWDIN ATOMIC CHARGES
----------------------
   0 O :    0.129384
   1 C :   -0.294298
   2 C :   -0.241653
   3 C :   -0.195328
   4 C :   -0.212430
   5 C :   -0.209478
   6 C :   -0.214584
   7 C :   -0.278994
   8 O :    0.133687
   9 H :    0.109886
  10 H :    0.148989
  11 H :    0.157975
  12 H :    0.145026
  13 H :    0.136155
  14 H :    0.134420
  15 H :    0.126709
  16 H :    0.137809
  17 H :    0.170991
  18 H :    0.115732

  Mayer bond orders larger than 0.1
B(  0-O ,  1-C ) :   1.9917 B(  1-C ,  2-C ) :   0.8727 B(  1-C ,  9-H ) :   0.9371
B(  2-C ,  3-C ) :   0.9136 B(  2-C , 10-H ) :   0.8997 B(  2-C , 11-H ) :   0.9127
B(  3-C ,  4-C ) :   0.9084 B(  3-C ,  6-C ) :   0.8873 B(  3-C , 12-H ) :   0.9166
B(  4-C ,  5-C ) :   0.9335 B(  4-C , 13-H ) :   0.9287 B(  4-C , 14-H ) :   0.9227
B(  5-C ,  6-C ) :   0.9234 B(  5-C , 15-H ) :   0.9274 B(  5-C , 16-H ) :   0.9236
B(  6-C ,  7-C ) :   0.8423 B(  6-C , 17-H ) :   0.8981 B(  7-C ,  8-O ) :   1.9772
B(  7-C , 18-H ) :   0.9478

MP2 TOTAL ENERGY:     -422.316195976 Eh
FINAL SINGLE POINT ENERGY      -422.316195975724

DIPOLE MOMENT
-------------
                                X             Y             Z
Electronic contribution:      1.59560      -4.14565       2.35645
Nuclear contribution   :     -1.31139       5.10044      -3.33387
                        -----------------------------------------
Total Dipole Moment    :      0.28421       0.95480      -0.97742
                        -----------------------------------------
Magnitude (a.u.)       :      1.39562
Magnitude (Debye)      :      3.54739

                             ****ORCA TERMINATED NORMALLY****
TOTAL RUN TIME: 0 days 0 hours 18 minutes 15 seconds 962 msec
