                         Program Version 3.0.3 - RELEASE   -
|  1> ! RI-MP2 RIJK def2-TZVP def2-TZVP/C def2-TZVP/JK TIGHTSCF
|  2> % maxcore 2000
|  3> % mp2 density relaxed end
|  4> *xyz 0 1
|  5>  C       -0.0052258596     1.4682137223     0.0951104729
|  6>  N       -0.0013979553     0.0466205554    -0.1971005453
|  7>  C       -1.1616375557    -0.6791404980    -0.0725827677
|  8>  C       -1.2890777264    -2.0704278511    -0.0084388641
|  9>  N       -2.6404782140    -2.3226362150     0.0572335450
| 10>  N       -3.3721095726    -1.2171044646     0.0449667766
| 11>  C       -2.4981386933    -0.2114667651    -0.0300290097
| 12>  C       -0.3006876265    -3.0687717989     0.0020490786
| 13>  N        0.5353705739    -3.8740926882     0.0144520027
| 14>  H        1.0043452812     1.8596535044    -0.0438169982
| 15>  H       -0.6630444998     1.9946942462    -0.6044743655
| 16>  H       -0.3351156145     1.7027892464     1.1185852970
| 17>  H        0.8361179105    -0.4457047858     0.0738863394
| 18>  H       -3.0869882626    -3.2224934698     0.1160647402
| 19>  H       -2.8515865252     0.8071149019    -0.0524151022
| 20> *
| 21>
| 22>                          ****END OF INPUT****

CARTESIAN COORDINATES (ANGSTROEM)
---------------------------------
  C     -0.005226    1.468214    0.095110
  N     -0.001398    0.046621   -0.197101
  C     -1.161638   -0.679140   -0.072583
  C     -1.289078   -2.070428   -0.008439
  N     -2.640478   -2.322636    0.057234
  N     -3.372110   -1.217104    0.044967
  C     -2.498139   -0.211467   -0.030029
  C     -0.300688   -3.068772    0.002049
  N      0.535371   -3.874093    0.014452
  H      1.004345    1.859654   -0.043817
  H     -0.663044    1.994694   -0.604474
  H     -0.335116    1.702789    1.118585
  H      0.836118   -0.445705    0.073886
  H     -3.086988   -3.222493    0.116065
  H     -2.851587    0.807115   -0.052415

 Total Charge           Charge          ....    0
 Multiplicity           Mult            ....    1
 Number of Electrons    NEL             ....   64
 Basis Dimension        Dim             ....  315

ORBITAL ENERGIES
----------------

  NO   OCC          E(Eh)            E(eV)
   0   2.0000     -15.663666      -426.2300
   1   2.0000     -15.625929      -425.2031
   2   2.0000     -15.586949      -424.1425
   3   2.0000     -15.584504      -424.0759
   4   2.0000     -11.305236      -307.6311
   5   2.0000     -11.302723      -307.5627
   6   2.0000     -11.289681      -307.2078
   7   2.0000     -11.274644      -306.7987
   8   2.0000     -11.269297      -306.6532
   9   2.0000      -1.406956       -38.2852
  10   2.0000      -1.258883       -34.2560
  11   2.0000      -1.228464       -33.4282
  12   2.0000      -1.123077       -30.5605
  13   2.0000      -1.074344       -29.2344
  14   2.0000      -0.947060       -25.7708
  15   2.0000      -0.890744       -24.2384
  16   2.0000      -0.834471       -22.7071
  17   2.0000      -0.793788       -21.6001
  18   2.0000      -0.709183       -19.2978
  19   2.0000      -0.668878       -18.2011
  20   2.0000      -0.652615       -17.7585
  21   2.0000      -0.632411       -17.2088
  22   2.0000      -0.616814       -16.7844
  23   2.0000      -0.592694       -16.1280
  24   2.0000      -0.567557       -15.4440
  25   2.0000      -0.560202       -15.2439
  26   2.0000      -0.510626       -13.8949
  27   2.0000      -0.502831       -13.6827
  28   2.0000      -0.474259       -12.9052
  29   2.0000      -0.467570       -12.7232
  30   2.0000      -0.374931       -10.2024
  31   2.0000      -0.317691        -8.6448
  32   0.0000       0.091028         2.4770
  33   0.0000       0.121342         3.3019
  34   0.0000       0.131781         3.5860
  35   0.0000       0.144280         3.9261
  36   0.0000       0.179366         4.8808

MULLIKEN ATOMIC CHARGES
-----------------------
   0 C :   -0.295724
   1 N :   -0.350913
   2 C :    0.158131
   3 C :    0.167888
   4 N :   -0.101226
   5 N :   -0.211796
   6 C :   -0.160689
   7 C :   -0.246014
   8 N :   -0.041547
   9 H :    0.147235
  10 H :    0.142102
  11 H :    0.136021
  12 H :    0.240578
  13 H :    0.270972
  14 H :    0.144982
Sum of atomic charges:   -0.0000000

LOEWDIN ATOMIC CHARGES
----------------------
   0 C :   -0.320227
   1 N :    0.054802
   2 C :   -0.228186
   3 C :   -0.226588
   4 N :    0.158769
   5 N :    0.030172
   6 C :   -0.244859
   7 C :   -0.177135
   8 N :    0.075997
   9 H :    0.122335
  10 H :    0.120388
  11 H :    0.110145
  12 H :    0.188152
  13 H :    0.197134
  14 H :    0.139101

  Mayer bond orders larger than 0.1
B(  0-C ,  1-N ) :   0.9093 B(  0-C ,  9-H ) :   0.9346 B(  0-C , 10-H ) :   0.9334
B(  0-C , 11-H ) :   0.9326 B(  1-N ,  2-C ) :   1.1291 B(  1-N , 12-H ) :   0.8699
B(  2-C ,  3-C ) :   1.2588 B(  2-C ,  6-C ) :   1.2786 B(  3-C ,  4-N ) :   1.1486
B(  3-C ,  5-N ) :   0.1175 B(  3-C ,  7-C ) :   0.8958 B(  4-N ,  5-N ) :   1.0982
B(  4-N , 13-H ) :   0.8642 B(  5-N ,  6-C ) :   1.4925 B(  6-C , 14-H ) :   0.9401
B(  7-C ,  8-N ) :   2.8548

MP2 TOTAL ENERGY:     -412.303280182 Eh
FINAL SINGLE POINT ENERGY      -412.303280181569

DIPOLE MOMENT
-------------
                                X             Y             Z
Electronic contribution:     -1.98831      -8.68230      -0.37780
Nuclear contribution   :      1.89746       9.67299       0.60132
                        -----------------------------------------
Total Dipole Moment    :     -0.09085       0.99069       0.22351
                        -----------------------------------------
Magnitude (a.u.)       :      1.01964
Magnitude (Debye)      :      2.59173

                             ****ORCA TERMINATED NORMALLY****
TOTAL RUN TIME: 0 days 0 hours 17 minutes 18 seconds 724 msec
