                         Program Version 3.0.3 - RELEASE   -
|  1> ! RI-MP2 RIJK def2-TZVP def2-TZVP/C def2-TZVP/JK TIGHTSCF
|  2> % maxcore 2000
|  3> % mp2 density relaxed end
|  4> *xyz 0 1
|  5>  C        0.0197365362     1.4957987010    -0.5137641360
|  6>  C       -0.0146650666     0.0513851462    -0.0567959775
|  7>  C        1.1979320294    -0.7652430196    -0.2209927995
|  8>  O        0.8432698731    -0.2365960527     1.0615109500
|  9>  C       -1.3976717887    -0.5811207296     0.0103822534
| 10>  C       -1.4422106060    -2.0802029482     0.3656101673
| 11>  C       -2.8728563284    -2.2894331284     0.8786947325
| 12>  C       -3.1270195521    -1.0431176252     1.7477873462
| 13>  C       -2.3158725617     0.0984639271     1.0768243994
| 14>  H        1.0404546476     1.8847642380    -0.4840468863
| 15>  H       -0.3592512872     1.5861749946    -1.5377745513
| 16>  H       -0.6028464670     2.1249818702     0.1300316087
| 17>  H        1.1270755788    -1.8468164996    -0.3139513835
| 18>  H        2.0833264564    -0.3224389168    -0.6770049579
| 19>  H       -1.8570422105    -0.4500909406    -0.9786724494
| 20>  H       -1.1915012819    -2.7257082540    -0.4813711213
| 21>  H       -0.7237623675    -2.2804426916     1.1694776857
| 22>  H       -3.5706224835    -2.3115684078     0.0319019535
| 23>  H       -3.0008951537    -3.2269744813     1.4275324894
| 24>  H       -4.1901632059    -0.8048550982     1.8410323811
| 25>  H       -2.7518467557    -1.2202144892     2.7611346217
| 26>  H       -1.7093515070     0.6260435065     1.8185082517
| 27>  H       -2.9707805180     0.8420940093     0.6142961321
| 28> *
| 29>
| 30>                          ****END OF INPUT****

CARTESIAN COORDINATES (ANGSTROEM)
---------------------------------
  C      0.019737    1.495799   -0.513764
  C     -0.014665    0.051385   -0.056796
  C      1.197932   -0.765243   -0.220993
  O      0.843270   -0.236596    1.061511
  C     -1.397672   -0.581121    0.010382
  C     -1.442211   -2.080203    0.365610
  C     -2.872856   -2.289433    0.878695
  C     -3.127020   -1.043118    1.747787
  C     -2.315873    0.098464    1.076824
  H      1.040455    1.884764   -0.484047
  H     -0.359251    1.586175   -1.537775
  H     -0.602846    2.124982    0.130032
  H      1.127076   -1.846816   -0.313951
  H      2.083326   -0.322439   -0.677005
  H     -1.857042   -0.450091   -0.978672
  H     -1.191501   -2.725708   -0.481371
  H     -0.723762   -2.280443    1.169478
  H     -3.570622   -2.311568    0.031902
  H     -3.000895   -3.226974    1.427532
  H     -4.190163   -0.804855    1.841032
  H     -2.751847   -1.220214    2.761135
  H     -1.709352    0.626044    1.818508
  H     -2.970781    0.842094    0.614296

 Total Charge           Charge          ....    0
 Multiplicity           Mult            ....    1
 Number of Electrons    NEL             ....   70
 Basis Dimension        Dim             ....  363

ORBITAL ENERGIES
----------------

  NO   OCC          E(Eh)            E(eV)
   0   2.0000     -20.556937      -559.3827
   1   2.0000     -11.286078      -307.1098
   2   2.0000     -11.273418      -306.7653
   3   2.0000     -11.227725      -305.5219
   4   2.0000     -11.220037      -305.3127
   5   2.0000     -11.215047      -305.1770
   6   2.0000     -11.214759      -305.1691
   7   2.0000     -11.213706      -305.1405
   8   2.0000     -11.213521      -305.1354
   9   2.0000      -1.401215       -38.1290
  10   2.0000      -1.120186       -30.4818
  11   2.0000      -1.023199       -27.8427
  12   2.0000      -0.961443       -26.1622
  13   2.0000      -0.951733       -25.8980
  14   2.0000      -0.901139       -24.5212
  15   2.0000      -0.817664       -22.2498
  16   2.0000      -0.777105       -21.1461
  17   2.0000      -0.742568       -20.2063
  18   2.0000      -0.685508       -18.6536
  19   2.0000      -0.651399       -17.7255
  20   2.0000      -0.646098       -17.5812
  21   2.0000      -0.599723       -16.3193
  22   2.0000      -0.578369       -15.7382
  23   2.0000      -0.570193       -15.5157
  24   2.0000      -0.558942       -15.2096
  25   2.0000      -0.548434       -14.9237
  26   2.0000      -0.515566       -14.0293
  27   2.0000      -0.487177       -13.2568
  28   2.0000      -0.474057       -12.8998
  29   2.0000      -0.473252       -12.8779
  30   2.0000      -0.467782       -12.7290
  31   2.0000      -0.460665       -12.5353
  32   2.0000      -0.451371       -12.2824
  33   2.0000      -0.429644       -11.6912
  34   2.0000      -0.410971       -11.1831
  35   0.0000       0.133215         3.6250
  36   0.0000       0.152957         4.1622
  37   0.0000       0.162516         4.4223
  38   0.0000       0.169416         4.6100
  39   0.0000       0.187273         5.0960

MULLIKEN ATOMIC CHARGES
-----------------------
   0 C :   -0.426969
   1 C :    0.158223
   2 C :   -0.080540
   3 O :   -0.350224
   4 C :    0.003920
   5 C :   -0.281886
   6 C :   -0.191340
   7 C :   -0.226196
   8 C :   -0.294386
   9 H :    0.139638
  10 H :    0.131124
  11 H :    0.142921
  12 H :    0.118975
  13 H :    0.112633
  14 H :    0.091096
  15 H :    0.117516
  16 H :    0.131844
  17 H :    0.102212
  18 H :    0.120822
  19 H :    0.116733
  20 H :    0.115046
  21 H :    0.128898
  22 H :    0.119941
Sum of atomic charges:    0.0000000

LOEWDIN ATOMIC CHARGES
----------------------
   0 C :   -0.264487
   1 C :   -0.332968
   2 C :   -0.247212
   3 O :    0.157191
   4 C :   -0.208602
   5 C :   -0.238525
   6 C :   -0.261224
   7 C :   -0.254703
   8 C :   -0.222984
   9 H :    0.131093
  10 H :    0.130111
  11 H :    0.130522
  12 H :    0.120519
  13 H :    0.119296
  14 H :    0.158280
  15 H :    0.131796
  16 H :    0.146466
  17 H :    0.134914
  18 H :    0.131565
  19 H :    0.130359
  20 H :    0.136377
  21 H :    0.140608
  22 H :    0.131608

  Mayer bond orders larger than 0.1
B(  0-C ,  1-C ) :   0.8969 B(  0-C ,  9-H ) :   0.9374 B(  0-C , 10-H ) :   0.9357
B(  0-C , 11-H ) :   0.9369 B(  1-C ,  2-C ) :   0.9794 B(  1-C ,  3-O ) :   0.8465
B(  1-C ,  4-C ) :   0.9138 B(  2-C ,  3-O ) :   0.8991 B(  2-C , 12-H ) :   0.9028
B(  2-C , 13-H ) :   0.9145 B(  4-C ,  5-C ) :   0.9259 B(  4-C ,  8-C ) :   0.8854
B(  4-C , 14-H ) :   0.9202 B(  5-C ,  6-C ) :   0.9350 B(  5-C , 15-H ) :   0.9244
B(  5-C , 16-H ) :   0.9267 B(  6-C ,  7-C ) :   0.9385 B(  6-C , 17-H ) :   0.9320
B(  6-C , 18-H ) :   0.9346 B(  7-C ,  8-C ) :   0.9439 B(  7-C , 19-H ) :   0.9345
B(  7-C , 20-H ) :   0.9326 B(  8-C , 21-H ) :   0.9269 B(  8-C , 22-H ) :   0.9324

MP2 TOTAL ENERGY:     -387.618127010 Eh
FINAL SINGLE POINT ENERGY      -387.618127009916

DIPOLE MOMENT
-------------
                                X             Y             Z
Electronic contribution:      4.24382      -0.06413       0.77789
Nuclear contribution   :     -4.49862       0.02095      -1.43514
                        -----------------------------------------
Total Dipole Moment    :     -0.25480      -0.04317      -0.65726
                        -----------------------------------------
Magnitude (a.u.)       :      0.70624
Magnitude (Debye)      :      1.79512

                             ****ORCA TERMINATED NORMALLY****
TOTAL RUN TIME: 0 days 0 hours 20 minutes 47 seconds 491 msec
