                         Program Version 3.0.3 - RELEASE   -
|  1> ! RI-MP2 RIJK def2-TZVP def2-TZVP/C def2-TZVP/JK TIGHTSCF
|  2> % maxcore 2000
|  3> % mp2 density relaxed end
|  4> *xyz 0 1
|  5>  C        0.3748572358     1.3921173134    -0.3646597074
|  6>  C        0.0981675505    -0.0407597783    -0.0364339781
|  7>  C        0.9275506059    -1.3137936606    -0.3556278178
|  8>  C       -0.4647812085    -1.7356016415     0.1706999727
|  9>  C       -1.1289910181    -3.0920664130     0.1722665694
| 10>  C       -0.4521139079    -4.0391057189     1.0490343314
| 11>  C        0.1224383961    -4.8022209167     1.7778214964
| 12>  C       -0.3469623018    -0.6877662799     1.3028230139
| 13>  O       -1.0748560915    -0.6954713537    -0.6907558166
| 14>  H        1.2566142967     1.7418991492     0.1814285456
| 15>  H        0.5609623302     1.5115628264    -1.4362458847
| 16>  H       -0.4765472305     2.0208822140    -0.0872328959
| 17>  H        1.0952727995    -1.5005913781    -1.4177953590
| 18>  H        1.8006834812    -1.5322495175     0.2637690435
| 19>  H       -2.1747378661    -2.9672994531     0.4804895674
| 20>  H       -1.1477841669    -3.4716317909    -0.8571643971
| 21>  H        0.6215887659    -5.4857251368     2.4188777510
| 22>  H        0.4072785426    -0.8478089751     2.0769358439
| 23>  H       -1.2980819930    -0.3250153088     1.6965336114
| 24> *
| 25>
| 26>                          ****END OF INPUT****

CARTESIAN COORDINATES (ANGSTROEM)
---------------------------------
  C      0.374857    1.392117   -0.364660
  C      0.098168   -0.040760   -0.036434
  C      0.927551   -1.313794   -0.355628
  C     -0.464781   -1.735602    0.170700
  C     -1.128991   -3.092066    0.172267
  C     -0.452114   -4.039106    1.049034
  C      0.122438   -4.802221    1.777821
  C     -0.346962   -0.687766    1.302823
  O     -1.074856   -0.695471   -0.690756
  H      1.256614    1.741899    0.181429
  H      0.560962    1.511563   -1.436246
  H     -0.476547    2.020882   -0.087233
  H      1.095273   -1.500591   -1.417795
  H      1.800683   -1.532250    0.263769
  H     -2.174738   -2.967299    0.480490
  H     -1.147784   -3.471632   -0.857164
  H      0.621589   -5.485725    2.418878
  H      0.407279   -0.847809    2.076936
  H     -1.298082   -0.325015    1.696534

 Total Charge           Charge          ....    0
 Multiplicity           Mult            ....    1
 Number of Electrons    NEL             ....   66
 Basis Dimension        Dim             ....  339

ORBITAL ENERGIES
----------------

  NO   OCC          E(Eh)            E(eV)
   0   2.0000     -20.543101      -559.0062
   1   2.0000     -11.307117      -307.6823
   2   2.0000     -11.304067      -307.5993
   3   2.0000     -11.259018      -306.3734
   4   2.0000     -11.239532      -305.8432
   5   2.0000     -11.232829      -305.6608
   6   2.0000     -11.232814      -305.6604
   7   2.0000     -11.225698      -305.4668
   8   2.0000     -11.225504      -305.4615
   9   2.0000      -1.392735       -37.8982
  10   2.0000      -1.090655       -29.6782
  11   2.0000      -1.067689       -29.0533
  12   2.0000      -1.006244       -27.3813
  13   2.0000      -0.971885       -26.4463
  14   2.0000      -0.926200       -25.2032
  15   2.0000      -0.795149       -21.6371
  16   2.0000      -0.742462       -20.2034
  17   2.0000      -0.721854       -19.6427
  18   2.0000      -0.647098       -17.6084
  19   2.0000      -0.635751       -17.2997
  20   2.0000      -0.635127       -17.2827
  21   2.0000      -0.622770       -16.9464
  22   2.0000      -0.609348       -16.5812
  23   2.0000      -0.584235       -15.8978
  24   2.0000      -0.565859       -15.3978
  25   2.0000      -0.510869       -13.9015
  26   2.0000      -0.499063       -13.5802
  27   2.0000      -0.474566       -12.9136
  28   2.0000      -0.454611       -12.3706
  29   2.0000      -0.446346       -12.1457
  30   2.0000      -0.407521       -11.0892
  31   2.0000      -0.390402       -10.6234
  32   2.0000      -0.389824       -10.6077
  33   0.0000       0.136655         3.7186
  34   0.0000       0.148225         4.0334
  35   0.0000       0.163642         4.4529
  36   0.0000       0.173552         4.7226
  37   0.0000       0.176400         4.8001

MULLIKEN ATOMIC CHARGES
-----------------------
   0 C :   -0.422067
   1 C :    0.044966
   2 C :   -0.105174
   3 C :    0.040041
   4 C :   -0.320682
   5 C :   -0.035908
   6 C :   -0.170810
   7 C :   -0.105194
   8 O :   -0.307842
   9 H :    0.139069
  10 H :    0.144927
  11 H :    0.144933
  12 H :    0.107271
  13 H :    0.120127
  14 H :    0.154176
  15 H :    0.154183
  16 H :    0.190589
  17 H :    0.120123
  18 H :    0.107272
Sum of atomic charges:    0.0000000

LOEWDIN ATOMIC CHARGES
----------------------
   0 C :   -0.272419
   1 C :   -0.288527
   2 C :   -0.155387
   3 C :   -0.272556
   4 C :   -0.210203
   5 C :   -0.100815
   6 C :   -0.101192
   7 C :   -0.155393
   8 O :    0.155294
   9 H :    0.134990
  10 H :    0.134915
  11 H :    0.134921
  12 H :    0.134105
  13 H :    0.132467
  14 H :    0.168159
  15 H :    0.168165
  16 H :    0.126908
  17 H :    0.132466
  18 H :    0.134104

  Mayer bond orders larger than 0.1
B(  0-C ,  1-C ) :   0.8290 B(  0-C ,  9-H ) :   0.9380 B(  0-C , 10-H ) :   0.9447
B(  0-C , 11-H ) :   0.9447 B(  1-C ,  2-C ) :   0.9012 B(  1-C ,  7-C ) :   0.9012
B(  1-C ,  8-O ) :   0.9183 B(  2-C ,  3-C ) :   0.9039 B(  2-C , 12-H ) :   0.9108
B(  2-C , 13-H ) :   0.9053 B(  3-C ,  4-C ) :   0.8353 B(  3-C ,  7-C ) :   0.9039
B(  3-C ,  8-O ) :   0.9704 B(  4-C ,  5-C ) :   1.0857 B(  4-C , 14-H ) :   0.9236
B(  4-C , 15-H ) :   0.9235 B(  5-C ,  6-C ) :   2.6174 B(  6-C , 16-H ) :   0.9046
B(  7-C , 17-H ) :   0.9053 B(  7-C , 18-H ) :   0.9108

MP2 TOTAL ENERGY:     -385.118727467 Eh
FINAL SINGLE POINT ENERGY      -385.118727466524

DIPOLE MOMENT
-------------
                                X             Y             Z
Electronic contribution:     -2.13459      -4.61050       0.09893
Nuclear contribution   :      2.66571       4.73095       0.26391
                        -----------------------------------------
Total Dipole Moment    :      0.53112       0.12045       0.36284
                        -----------------------------------------
Magnitude (a.u.)       :      0.65440
Magnitude (Debye)      :      1.66336

                             ****ORCA TERMINATED NORMALLY****
TOTAL RUN TIME: 0 days 0 hours 19 minutes 54 seconds 171 msec
