                         Program Version 3.0.3 - RELEASE   -
|  1> ! RI-MP2 RIJK def2-TZVP def2-TZVP/C def2-TZVP/JK TIGHTSCF
|  2> % maxcore 2000
|  3> % mp2 density relaxed end
|  4> *xyz 0 1
|  5>  O        0.1380765506     1.3868025950    -0.2899639062
|  6>  C        0.0688243581    -0.0085645642    -0.0044686982
|  7>  C        0.8367447198    -0.3840687941     1.2789667660
|  8>  C        0.0183147015    -0.1518221930     2.5651343821
|  9>  C       -1.4292010812    -0.6653944462     2.4214721116
| 10>  C       -1.4819942550    -2.1300642262     1.9150176286
| 11>  C       -1.4586185072    -2.0258935806     0.3564218999
| 12>  C       -1.3914865865    -0.5087611182     0.0484537849
| 13>  C       -2.1101764545     0.0959565113     1.2698353684
| 14>  H       -0.2429173923     1.8663150091     0.4521051922
| 15>  H        0.5677035679    -0.4759254456    -0.8613366119
| 16>  H        1.1147997760    -1.4424057795     1.2191452895
| 17>  H        1.7744918482     0.1800200708     1.3026154703
| 18>  H        0.5174290352    -0.6418149846     3.4092041322
| 19>  H       -0.0106931950     0.9189246962     2.8106958121
| 20>  H       -1.9552933728    -0.5472282205     3.3735979144
| 21>  H       -0.6564714812    -2.7308581380     2.3084081236
| 22>  H       -2.4063043429    -2.6092280800     2.2509954714
| 23>  H       -0.6209972736    -2.5724598460    -0.0884745773
| 24>  H       -2.3715901776    -2.4523759676    -0.0695371473
| 25>  H       -1.8760536536    -0.2537886148    -0.8978841422
| 26>  H       -3.1831849884    -0.1241442732     1.2289472842
| 27>  H       -2.0145567754     1.1848932600     1.3520925017
| 28> *
| 29>
| 30>                          ****END OF INPUT****

CARTESIAN COORDINATES (ANGSTROEM)
---------------------------------
  O      0.138077    1.386803   -0.289964
  C      0.068824   -0.008565   -0.004469
  C      0.836745   -0.384069    1.278967
  C      0.018315   -0.151822    2.565134
  C     -1.429201   -0.665394    2.421472
  C     -1.481994   -2.130064    1.915018
  C     -1.458619   -2.025894    0.356422
  C     -1.391487   -0.508761    0.048454
  C     -2.110176    0.095957    1.269835
  H     -0.242917    1.866315    0.452105
  H      0.567704   -0.475925   -0.861337
  H      1.114800   -1.442406    1.219145
  H      1.774492    0.180020    1.302615
  H      0.517429   -0.641815    3.409204
  H     -0.010693    0.918925    2.810696
  H     -1.955293   -0.547228    3.373598
  H     -0.656471   -2.730858    2.308408
  H     -2.406304   -2.609228    2.250995
  H     -0.620997   -2.572460   -0.088475
  H     -2.371590   -2.452376   -0.069537
  H     -1.876054   -0.253789   -0.897884
  H     -3.183185   -0.124144    1.228947
  H     -2.014557    1.184893    1.352093

 Total Charge           Charge          ....    0
 Multiplicity           Mult            ....    1
 Number of Electrons    NEL             ....   70
 Basis Dimension        Dim             ....  363

ORBITAL ENERGIES
----------------

  NO   OCC          E(Eh)            E(eV)
   0   2.0000     -20.546046      -559.0863
   1   2.0000     -11.270823      -306.6947
   2   2.0000     -11.224692      -305.4394
   3   2.0000     -11.221324      -305.3478
   4   2.0000     -11.220693      -305.3306
   5   2.0000     -11.219422      -305.2960
   6   2.0000     -11.218377      -305.2675
   7   2.0000     -11.218296      -305.2654
   8   2.0000     -11.217046      -305.2313
   9   2.0000      -1.352576       -36.8055
  10   2.0000      -1.146134       -31.1879
  11   2.0000      -1.028478       -27.9863
  12   2.0000      -1.004716       -27.3397
  13   2.0000      -0.961654       -26.1679
  14   2.0000      -0.869228       -23.6529
  15   2.0000      -0.833143       -22.6710
  16   2.0000      -0.763172       -20.7670
  17   2.0000      -0.732386       -19.9292
  18   2.0000      -0.687602       -18.7106
  19   2.0000      -0.658604       -17.9215
  20   2.0000      -0.644242       -17.5307
  21   2.0000      -0.604233       -16.4420
  22   2.0000      -0.576446       -15.6859
  23   2.0000      -0.573583       -15.6080
  24   2.0000      -0.560426       -15.2500
  25   2.0000      -0.536848       -14.6084
  26   2.0000      -0.519446       -14.1349
  27   2.0000      -0.503896       -13.7117
  28   2.0000      -0.482362       -13.1257
  29   2.0000      -0.477835       -13.0026
  30   2.0000      -0.464459       -12.6386
  31   2.0000      -0.452960       -12.3257
  32   2.0000      -0.440175       -11.9778
  33   2.0000      -0.426636       -11.6094
  34   2.0000      -0.407255       -11.0820
  35   0.0000       0.124252         3.3811
  36   0.0000       0.150638         4.0991
  37   0.0000       0.157890         4.2964
  38   0.0000       0.165399         4.5007
  39   0.0000       0.180075         4.9001

MULLIKEN ATOMIC CHARGES
-----------------------
   0 O :   -0.461927
   1 C :   -0.006663
   2 C :   -0.210803
   3 C :   -0.340468
   4 C :    0.073574
   5 C :   -0.293159
   6 C :   -0.308726
   7 C :    0.081939
   8 C :   -0.361827
   9 H :    0.308878
  10 H :    0.102318
  11 H :    0.117577
  12 H :    0.130642
  13 H :    0.124306
  14 H :    0.114421
  15 H :    0.108028
  16 H :    0.119428
  17 H :    0.122196
  18 H :    0.121703
  19 H :    0.122158
  20 H :    0.105160
  21 H :    0.121357
  22 H :    0.109888
Sum of atomic charges:    0.0000000

LOEWDIN ATOMIC CHARGES
----------------------
   0 O :   -0.019262
   1 C :   -0.319270
   2 C :   -0.245096
   3 C :   -0.245682
   4 C :   -0.242668
   5 C :   -0.228369
   6 C :   -0.225544
   7 C :   -0.228560
   8 C :   -0.218096
   9 H :    0.166241
  10 H :    0.145752
  11 H :    0.142719
  12 H :    0.140622
  13 H :    0.138385
  14 H :    0.135135
  15 H :    0.144662
  16 H :    0.134082
  17 H :    0.134903
  18 H :    0.134973
  19 H :    0.135589
  20 H :    0.148463
  21 H :    0.141691
  22 H :    0.129331

  Mayer bond orders larger than 0.1
B(  0-O ,  1-C ) :   0.9209 B(  0-O ,  9-H ) :   0.8434 B(  1-C ,  2-C ) :   0.9373
B(  1-C ,  7-C ) :   0.9053 B(  1-C , 10-H ) :   0.9225 B(  2-C ,  3-C ) :   0.9183
B(  2-C , 11-H ) :   0.9215 B(  2-C , 12-H ) :   0.9320 B(  3-C ,  4-C ) :   0.8904
B(  3-C , 13-H ) :   0.9276 B(  3-C , 14-H ) :   0.9380 B(  4-C ,  5-C ) :   0.8909
B(  4-C ,  8-C ) :   0.8907 B(  4-C , 15-H ) :   0.9301 B(  5-C ,  6-C ) :   0.9439
B(  5-C , 16-H ) :   0.9344 B(  5-C , 17-H ) :   0.9273 B(  6-C ,  7-C ) :   0.8718
B(  6-C , 18-H ) :   0.9348 B(  6-C , 19-H ) :   0.9231 B(  7-C ,  8-C ) :   0.8831
B(  7-C , 20-H ) :   0.9270 B(  8-C , 21-H ) :   0.9249 B(  8-C , 22-H ) :   0.9409

MP2 TOTAL ENERGY:     -387.660744509 Eh
FINAL SINGLE POINT ENERGY      -387.660744509295

DIPOLE MOMENT
-------------
                                X             Y             Z
Electronic contribution:      0.70537       2.79424      -2.40263
Nuclear contribution   :     -1.00094      -3.14108       2.97313
                        -----------------------------------------
Total Dipole Moment    :     -0.29558      -0.34684       0.57050
                        -----------------------------------------
Magnitude (a.u.)       :      0.73016
Magnitude (Debye)      :      1.85592

                             ****ORCA TERMINATED NORMALLY****
TOTAL RUN TIME: 0 days 0 hours 23 minutes 13 seconds 122 msec
