                         Program Version 3.0.3 - RELEASE   -
|  1> ! RI-MP2 RIJK def2-TZVP def2-TZVP/C def2-TZVP/JK TIGHTSCF
|  2> % maxcore 2000
|  3> % mp2 density relaxed end
|  4> *xyz 0 1
|  5>  O       -0.0721425709     1.3554633868     0.3199884846
|  6>  C        0.0301046597     0.0087035313    -0.1635382336
|  7>  C       -1.3589650571    -0.5972661268    -0.0588025383
|  8>  C       -1.5281844802    -2.1165839841    -0.1440766431
|  9>  C       -0.8445214979    -2.8032562182     1.0251456051
| 10>  C       -2.1494947354    -2.1403517913     1.2710095670
| 11>  O       -3.1946042333    -2.8739307293     1.7956157076
| 12>  C       -1.9931632204    -0.6261688404     1.3843549444
| 13>  O       -1.2046311019    -0.1746591608     2.4572522092
| 14>  H        0.8041345535     1.7519272474     0.3005911109
| 15>  H        0.3753985585    -0.0049268860    -1.2076028663
| 16>  H        0.7511066822    -0.5602434951     0.4366522864
| 17>  H       -2.0227851785    -0.0723178278    -0.7519560589
| 18>  H       -1.8151735326    -2.6680401496    -1.0310837646
| 19>  H       -0.9146567860    -3.8858153605     0.9956469350
| 20>  H        0.0694584265    -2.4212323245     1.4693355253
| 21>  H       -4.0202982272    -2.4439934210     1.5464363486
| 22>  H       -2.9785267525    -0.1326376733     1.3768457164
| 23>  H       -0.8331352565     0.6719350233     2.1721299143
| 24> *
| 25>
| 26>                          ****END OF INPUT****

CARTESIAN COORDINATES (ANGSTROEM)
---------------------------------
  O     -0.072143    1.355463    0.319988
  C      0.030105    0.008704   -0.163538
  C     -1.358965   -0.597266   -0.058803
  C     -1.528184   -2.116584   -0.144077
  C     -0.844521   -2.803256    1.025146
  C     -2.149495   -2.140352    1.271010
  O     -3.194604   -2.873931    1.795616
  C     -1.993163   -0.626169    1.384355
  O     -1.204631   -0.174659    2.457252
  H      0.804135    1.751927    0.300591
  H      0.375399   -0.004927   -1.207603
  H      0.751107   -0.560243    0.436652
  H     -2.022785   -0.072318   -0.751956
  H     -1.815174   -2.668040   -1.031084
  H     -0.914657   -3.885815    0.995647
  H      0.069458   -2.421232    1.469336
  H     -4.020298   -2.443993    1.546436
  H     -2.978527   -0.132638    1.376846
  H     -0.833135    0.671935    2.172130

 Total Charge           Charge          ....    0
 Multiplicity           Mult            ....    1
 Number of Electrons    NEL             ....   70
 Basis Dimension        Dim             ....  339

ORBITAL ENERGIES
----------------

  NO   OCC          E(Eh)            E(eV)
   0   2.0000     -20.572936      -559.8180
   1   2.0000     -20.567498      -559.6701
   2   2.0000     -20.544114      -559.0338
   3   2.0000     -11.286282      -307.1154
   4   2.0000     -11.283794      -307.0476
   5   2.0000     -11.282182      -307.0038
   6   2.0000     -11.236989      -305.7740
   7   2.0000     -11.234734      -305.7127
   8   2.0000     -11.225065      -305.4495
   9   2.0000      -1.382309       -37.6145
  10   2.0000      -1.374822       -37.4108
  11   2.0000      -1.351618       -36.7794
  12   2.0000      -1.177613       -32.0445
  13   2.0000      -1.014970       -27.6187
  14   2.0000      -0.936150       -25.4739
  15   2.0000      -0.858382       -23.3578
  16   2.0000      -0.784728       -21.3535
  17   2.0000      -0.758160       -20.6306
  18   2.0000      -0.716481       -19.4964
  19   2.0000      -0.709691       -19.3117
  20   2.0000      -0.677935       -18.4476
  21   2.0000      -0.660906       -17.9842
  22   2.0000      -0.634384       -17.2625
  23   2.0000      -0.597166       -16.2497
  24   2.0000      -0.591034       -16.0829
  25   2.0000      -0.571460       -15.5502
  26   2.0000      -0.547460       -14.8971
  27   2.0000      -0.540547       -14.7090
  28   2.0000      -0.524343       -14.2681
  29   2.0000      -0.500928       -13.6309
  30   2.0000      -0.476180       -12.9575
  31   2.0000      -0.458331       -12.4718
  32   2.0000      -0.422848       -11.5063
  33   2.0000      -0.406934       -11.0732
  34   2.0000      -0.363931        -9.9031
  35   0.0000       0.125318         3.4101
  36   0.0000       0.138172         3.7598
  37   0.0000       0.159497         4.3401
  38   0.0000       0.172075         4.6824
  39   0.0000       0.185241         5.0407

MULLIKEN ATOMIC CHARGES
-----------------------
   0 O :   -0.501287
   1 C :   -0.114917
   2 C :   -0.048854
   3 C :   -0.137976
   4 C :   -0.278151
   5 C :    0.152452
   6 O :   -0.444410
   7 C :    0.045380
   8 O :   -0.472920
   9 H :    0.324870
  10 H :    0.110095
  11 H :    0.116790
  12 H :    0.099020
  13 H :    0.136433
  14 H :    0.131282
  15 H :    0.138178
  16 H :    0.322581
  17 H :    0.087997
  18 H :    0.333438
Sum of atomic charges:   -0.0000000

LOEWDIN ATOMIC CHARGES
----------------------
   0 O :   -0.059791
   1 C :   -0.318659
   2 C :   -0.204587
   3 C :   -0.148914
   4 C :   -0.178891
   5 C :   -0.320751
   6 O :    0.038556
   7 C :   -0.273116
   8 O :   -0.011455
   9 H :    0.174214
  10 H :    0.120805
  11 H :    0.121901
  12 H :    0.153046
  13 H :    0.135073
  14 H :    0.147988
  15 H :    0.131786
  16 H :    0.183673
  17 H :    0.133269
  18 H :    0.175853

  Mayer bond orders larger than 0.1
B(  0-O ,  1-C ) :   0.9418 B(  0-O ,  9-H ) :   0.8432 B(  1-C ,  2-C ) :   0.9021
B(  1-C , 10-H ) :   0.9249 B(  1-C , 11-H ) :   0.9246 B(  2-C ,  3-C ) :   0.9283
B(  2-C ,  7-C ) :   0.9614 B(  2-C , 12-H ) :   0.9139 B(  3-C ,  4-C ) :   0.8712
B(  3-C ,  5-C ) :   0.7486 B(  3-C , 13-H ) :   0.9114 B(  4-C ,  5-C ) :   0.9132
B(  4-C , 14-H ) :   0.9260 B(  4-C , 15-H ) :   0.9130 B(  5-C ,  6-O ) :   1.0645
B(  5-C ,  7-C ) :   0.9218 B(  6-O , 16-H ) :   0.8366 B(  7-C ,  8-O ) :   1.0587
B(  7-C , 17-H ) :   0.9763 B(  8-O , 18-H ) :   0.8158

MP2 TOTAL ENERGY:     -459.395665575 Eh
FINAL SINGLE POINT ENERGY      -459.395665575155

DIPOLE MOMENT
-------------
                                X             Y             Z
Electronic contribution:     -2.42076      -0.16178       2.44171
Nuclear contribution   :      2.78196       0.68701      -3.52300
                        -----------------------------------------
Total Dipole Moment    :      0.36120       0.52523      -1.08129
                        -----------------------------------------
Magnitude (a.u.)       :      1.25519
Magnitude (Debye)      :      3.19045

                             ****ORCA TERMINATED NORMALLY****
TOTAL RUN TIME: 0 days 0 hours 25 minutes 53 seconds 269 msec
