                         Program Version 3.0.3 - RELEASE   -
|  1> ! RI-MP2 RIJK def2-TZVP def2-TZVP/C def2-TZVP/JK TIGHTSCF
|  2> % maxcore 2000
|  3> % mp2 density relaxed end
|  4> *xyz 0 1
|  5>  C        0.0749491088     1.5377030605     0.0074606958
|  6>  O        1.2052976181     0.6679412295    -0.0303845916
|  7>  C       -0.0928692823     0.0714595258     0.0222886255
|  8>  C       -0.4224409597    -0.6713488559     1.2558836596
|  9>  C        0.3556002557    -0.7799518635     2.3678587031
| 10>  O       -0.2616521017    -1.5379372467     3.3119040700
| 11>  C       -1.4557771826    -1.9229788943     2.7918274284
| 12>  C       -1.6117310911    -1.4290579104     1.5372483184
| 13>  H       -0.0598709752     2.0887919413     0.9363961177
| 14>  H       -0.1164553263     2.0961204496    -0.9082333054
| 15>  H       -0.4056244100    -0.4009622134    -0.9100055303
| 16>  H        1.3344807991    -0.4066309654     2.6142320594
| 17>  H       -2.0686779784    -2.5379909388     3.4297283134
| 18>  H       -2.4614441546    -1.5759185484     0.8886040359
| 19> *
| 20>
| 21>                          ****END OF INPUT****

CARTESIAN COORDINATES (ANGSTROEM)
---------------------------------
  C      0.074949    1.537703    0.007461
  O      1.205298    0.667941   -0.030385
  C     -0.092869    0.071460    0.022289
  C     -0.422441   -0.671349    1.255884
  C      0.355600   -0.779952    2.367859
  O     -0.261652   -1.537937    3.311904
  C     -1.455777   -1.922979    2.791827
  C     -1.611731   -1.429058    1.537248
  H     -0.059871    2.088792    0.936396
  H     -0.116455    2.096120   -0.908233
  H     -0.405624   -0.400962   -0.910006
  H      1.334481   -0.406631    2.614232
  H     -2.068678   -2.537991    3.429728
  H     -2.461444   -1.575919    0.888604

 Total Charge           Charge          ....    0
 Multiplicity           Mult            ....    1
 Number of Electrons    NEL             ....   58
 Basis Dimension        Dim             ....  284

ORBITAL ENERGIES
----------------

  NO   OCC          E(Eh)            E(eV)
   0   2.0000     -20.624628      -561.2247
   1   2.0000     -20.575223      -559.8803
   2   2.0000     -11.300448      -307.5008
   3   2.0000     -11.291784      -307.2651
   4   2.0000     -11.288579      -307.1778
   5   2.0000     -11.286234      -307.1140
   6   2.0000     -11.239358      -305.8385
   7   2.0000     -11.234614      -305.7094
   8   2.0000      -1.461996       -39.7829
   9   2.0000      -1.418633       -38.6030
  10   2.0000      -1.100383       -29.9430
  11   2.0000      -1.014023       -27.5930
  12   2.0000      -0.939364       -25.5614
  13   2.0000      -0.882520       -24.0146
  14   2.0000      -0.804775       -21.8990
  15   2.0000      -0.771051       -20.9814
  16   2.0000      -0.738386       -20.0925
  17   2.0000      -0.690878       -18.7998
  18   2.0000      -0.643498       -17.5105
  19   2.0000      -0.637058       -17.3352
  20   2.0000      -0.609032       -16.5726
  21   2.0000      -0.579244       -15.7620
  22   2.0000      -0.567574       -15.4445
  23   2.0000      -0.542837       -14.7713
  24   2.0000      -0.526320       -14.3219
  25   2.0000      -0.476551       -12.9676
  26   2.0000      -0.459187       -12.4951
  27   2.0000      -0.386225       -10.5097
  28   2.0000      -0.319287        -8.6882
  29   0.0000       0.136859         3.7241
  30   0.0000       0.157464         4.2848
  31   0.0000       0.173765         4.7284
  32   0.0000       0.175331         4.7710
  33   0.0000       0.184486         5.0201

MULLIKEN ATOMIC CHARGES
-----------------------
   0 C :   -0.061175
   1 O :   -0.328405
   2 C :   -0.004114
   3 C :    0.081900
   4 C :   -0.048681
   5 O :   -0.206443
   6 C :    0.032189
   7 C :   -0.305080
   8 H :    0.124856
   9 H :    0.118058
  10 H :    0.140518
  11 H :    0.163177
  12 H :    0.151810
  13 H :    0.141389
Sum of atomic charges:   -0.0000000

LOEWDIN ATOMIC CHARGES
----------------------
   0 C :   -0.254663
   1 O :    0.154494
   2 C :   -0.253314
   3 C :   -0.183514
   4 C :   -0.205409
   5 O :    0.342619
   6 C :   -0.243251
   7 C :   -0.162172
   8 H :    0.122711
   9 H :    0.118824
  10 H :    0.145105
  11 H :    0.139632
  12 H :    0.133040
  13 H :    0.145901

  Mayer bond orders larger than 0.1
B(  0-C ,  1-O ) :   0.8997 B(  0-C ,  2-C ) :   0.9790 B(  0-C ,  8-H ) :   0.9088
B(  0-C ,  9-H ) :   0.9229 B(  1-O ,  2-C ) :   0.9236 B(  2-C ,  3-C ) :   0.9033
B(  2-C , 10-H ) :   0.9160 B(  3-C ,  4-C ) :   1.5110 B(  3-C ,  7-C ) :   1.1276
B(  4-C ,  5-O ) :   1.0489 B(  4-C , 11-H ) :   0.9185 B(  5-O ,  6-C ) :   1.0410
B(  6-C ,  7-C ) :   1.5562 B(  6-C , 12-H ) :   0.9343 B(  7-C , 13-H ) :   0.9217

MP2 TOTAL ENERGY:     -381.892927288 Eh
FINAL SINGLE POINT ENERGY      -381.892927287697

DIPOLE MOMENT
-------------
                                X             Y             Z
Electronic contribution:      1.38045      -1.88236       2.06336
Nuclear contribution   :     -2.16454       2.02112      -2.21346
                        -----------------------------------------
Total Dipole Moment    :     -0.78409       0.13876      -0.15010
                        -----------------------------------------
Magnitude (a.u.)       :      0.81030
Magnitude (Debye)      :      2.05962

                             ****ORCA TERMINATED NORMALLY****
TOTAL RUN TIME: 0 days 0 hours 9 minutes 52 seconds 213 msec
