                         Program Version 3.0.3 - RELEASE   -
|  1> ! RI-MP2 RIJK def2-TZVP def2-TZVP/C def2-TZVP/JK TIGHTSCF
|  2> % maxcore 2000
|  3> % mp2 density relaxed end
|  4> *xyz 0 1
|  5>  O        0.0315391089    -0.0020218822    -0.0859656704
|  6>  C       -0.0218632485     1.1868258901     0.0130260102
|  7>  N       -1.1443026647     1.9955704023     0.1161231066
|  8>  C       -0.8063712668     3.3762062324     0.0552959982
|  9>  C        0.6889451300     3.3460017793     0.0464520204
| 10>  O        1.0923283092     2.0030035351     0.0592382683
| 11>  C       -0.0386302486     3.8702871967    -1.1906422062
| 12>  C       -0.0703739516     3.1403324884    -2.4174208103
| 13>  C       -0.1116543280     2.5056557599    -3.4379844130
| 14>  H       -2.0103716289     1.6282617615    -0.2442214942
| 15>  H       -1.3989682583     4.0710169430     0.6382997027
| 16>  H        1.3319946946     3.9946266995     0.6264011329
| 17>  H       -0.0021810803     4.9535368094    -1.2751425644
| 18>  H       -0.1321501868     1.9460274146    -4.3401391207
| 19> *
| 20>
| 21>                          ****END OF INPUT****

CARTESIAN COORDINATES (ANGSTROEM)
---------------------------------
  O      0.031539   -0.002022   -0.085966
  C     -0.021863    1.186826    0.013026
  N     -1.144303    1.995570    0.116123
  C     -0.806371    3.376206    0.055296
  C      0.688945    3.346002    0.046452
  O      1.092328    2.003004    0.059238
  C     -0.038630    3.870287   -1.190642
  C     -0.070374    3.140332   -2.417421
  C     -0.111654    2.505656   -3.437984
  H     -2.010372    1.628262   -0.244221
  H     -1.398968    4.071017    0.638300
  H      1.331995    3.994627    0.626401
  H     -0.002181    4.953537   -1.275143
  H     -0.132150    1.946027   -4.340139

 Total Charge           Charge          ....    0
 Multiplicity           Mult            ....    1
 Number of Electrons    NEL             ....   64
 Basis Dimension        Dim             ....  309

ORBITAL ENERGIES
----------------

  NO   OCC          E(Eh)            E(eV)
   0   2.0000     -20.617620      -561.0340
   1   2.0000     -20.535887      -558.8099
   2   2.0000     -15.607578      -424.7038
   3   2.0000     -11.411260      -310.5162
   4   2.0000     -11.329438      -308.2897
   5   2.0000     -11.310275      -307.7682
   6   2.0000     -11.286104      -307.1105
   7   2.0000     -11.248783      -306.0949
   8   2.0000     -11.238239      -305.8080
   9   2.0000      -1.484583       -40.3975
  10   2.0000      -1.380235       -37.5581
  11   2.0000      -1.267243       -34.4834
  12   2.0000      -1.152859       -31.3709
  13   2.0000      -1.040688       -28.3185
  14   2.0000      -0.908683       -24.7265
  15   2.0000      -0.879879       -23.9427
  16   2.0000      -0.844930       -22.9917
  17   2.0000      -0.766079       -20.8461
  18   2.0000      -0.732664       -19.9368
  19   2.0000      -0.708122       -19.2690
  20   2.0000      -0.673068       -18.3151
  21   2.0000      -0.656895       -17.8750
  22   2.0000      -0.630873       -17.1669
  23   2.0000      -0.613328       -16.6895
  24   2.0000      -0.595778       -16.2120
  25   2.0000      -0.575560       -15.6618
  26   2.0000      -0.505692       -13.7606
  27   2.0000      -0.466853       -12.7037
  28   2.0000      -0.460410       -12.5284
  29   2.0000      -0.424807       -11.5596
  30   2.0000      -0.397290       -10.8108
  31   2.0000      -0.371024       -10.0961
  32   0.0000       0.127168         3.4604
  33   0.0000       0.138999         3.7823
  34   0.0000       0.155698         4.2368
  35   0.0000       0.163330         4.4444
  36   0.0000       0.172552         4.6954

MULLIKEN ATOMIC CHARGES
-----------------------
   0 O :   -0.300856
   1 C :    0.332398
   2 N :   -0.352268
   3 C :   -0.000522
   4 C :    0.080589
   5 O :   -0.237751
   6 C :   -0.317260
   7 C :   -0.001832
   8 C :   -0.115171
   9 H :    0.262393
  10 H :    0.152628
  11 H :    0.151424
  12 H :    0.149460
  13 H :    0.196769
Sum of atomic charges:    0.0000000

LOEWDIN ATOMIC CHARGES
----------------------
   0 O :    0.121477
   1 C :   -0.537145
   2 N :    0.126394
   3 C :   -0.214441
   4 C :   -0.217518
   5 O :    0.281951
   6 C :   -0.179920
   7 C :   -0.097911
   8 C :   -0.073841
   9 H :    0.197810
  10 H :    0.145943
  11 H :    0.144997
  12 H :    0.172164
  13 H :    0.130041

  Mayer bond orders larger than 0.1
B(  0-O ,  1-C ) :   2.0448 B(  1-C ,  2-N ) :   1.1183 B(  1-C ,  5-O ) :   1.0343
B(  2-N ,  3-C ) :   0.9779 B(  2-N ,  9-H ) :   0.8618 B(  3-C ,  4-C ) :   0.8926
B(  3-C ,  6-C ) :   0.8189 B(  3-C , 10-H ) :   0.9257 B(  4-C ,  5-O ) :   0.9614
B(  4-C ,  6-C ) :   0.8323 B(  4-C , 11-H ) :   0.9343 B(  6-C ,  7-C ) :   1.1900
B(  6-C ,  8-C ) :  -0.1160 B(  6-C , 12-H ) :   0.9121 B(  7-C ,  8-C ) :   2.5534
B(  8-C , 13-H ) :   0.9014

MP2 TOTAL ENERGY:     -435.946933325 Eh
FINAL SINGLE POINT ENERGY      -435.946933324773

DIPOLE MOMENT
-------------
                                X             Y             Z
Electronic contribution:      1.10065      -2.96979       0.98092
Nuclear contribution   :     -1.88803       4.62975      -0.98287
                        -----------------------------------------
Total Dipole Moment    :     -0.78738       1.65996      -0.00196
                        -----------------------------------------
Magnitude (a.u.)       :      1.83724
Magnitude (Debye)      :      4.66988

                             ****ORCA TERMINATED NORMALLY****
TOTAL RUN TIME: 0 days 0 hours 15 minutes 43 seconds 320 msec
