                         Program Version 3.0.3 - RELEASE   -
|  1> ! RI-MP2 RIJK def2-TZVP def2-TZVP/C def2-TZVP/JK TIGHTSCF
|  2> % maxcore 2000
|  3> % mp2 density relaxed end
|  4> *xyz 0 1
|  5>  O       -0.0877509581     0.0061203972     0.1152510756
|  6>  C        0.0346275967     1.1689472334    -0.1766998493
|  7>  C        1.3268239001     1.9183037782    -0.0675835573
|  8>  C        1.6470089788     2.7945693319     1.1804250463
|  9>  C        2.4603470882     3.5016044409     0.0757100031
| 10>  C        3.5751355516     2.4917386782    -0.2697533601
| 11>  C        2.6720707320     1.2205789949    -0.3683092358
| 12>  O        1.4070367122     3.1338278179    -0.8749909266
| 13>  H       -0.8210241014     1.7872596767    -0.5267895137
| 14>  H        0.7853109474     3.3826701435     1.4973368664
| 15>  H        2.1605710433     2.3323687114     2.0263979970
| 16>  H        2.6900586506     4.5665662766     0.0921559702
| 17>  H        4.0542478125     2.7405628317    -1.2184358153
| 18>  H        4.3436800646     2.4253733366     0.5046351132
| 19>  H        2.9102372791     0.4435130866     0.3598058807
| 20>  H        2.6688377824     0.7762220745    -1.3649201343
| 21> *
| 22>
| 23>                          ****END OF INPUT****

CARTESIAN COORDINATES (ANGSTROEM)
---------------------------------
  O     -0.087751    0.006120    0.115251
  C      0.034628    1.168947   -0.176700
  C      1.326824    1.918304   -0.067584
  C      1.647009    2.794569    1.180425
  C      2.460347    3.501604    0.075710
  C      3.575136    2.491739   -0.269753
  C      2.672071    1.220579   -0.368309
  O      1.407037    3.133828   -0.874991
  H     -0.821024    1.787260   -0.526790
  H      0.785311    3.382670    1.497337
  H      2.160571    2.332369    2.026398
  H      2.690059    4.566566    0.092156
  H      4.054248    2.740563   -1.218436
  H      4.343680    2.425373    0.504635
  H      2.910237    0.443513    0.359806
  H      2.668838    0.776222   -1.364920

 Total Charge           Charge          ....    0
 Multiplicity           Mult            ....    1
 Number of Electrons    NEL             ....   60
 Basis Dimension        Dim             ....  296

ORBITAL ENERGIES
----------------

  NO   OCC          E(Eh)            E(eV)
   0   2.0000     -20.566245      -559.6360
   1   2.0000     -20.564128      -559.5784
   2   2.0000     -11.337502      -308.5091
   3   2.0000     -11.307442      -307.6911
   4   2.0000     -11.301920      -307.5409
   5   2.0000     -11.249614      -306.1176
   6   2.0000     -11.237990      -305.8012
   7   2.0000     -11.237343      -305.7837
   8   2.0000      -1.411744       -38.4155
   9   2.0000      -1.397640       -38.0317
  10   2.0000      -1.092331       -29.7238
  11   2.0000      -1.001972       -27.2650
  12   2.0000      -0.984004       -26.7761
  13   2.0000      -0.868529       -23.6339
  14   2.0000      -0.786409       -21.3993
  15   2.0000      -0.761157       -20.7121
  16   2.0000      -0.715616       -19.4729
  17   2.0000      -0.670051       -18.2330
  18   2.0000      -0.652578       -17.7575
  19   2.0000      -0.642139       -17.4735
  20   2.0000      -0.603639       -16.4258
  21   2.0000      -0.554730       -15.0950
  22   2.0000      -0.540819       -14.7164
  23   2.0000      -0.538040       -14.6408
  24   2.0000      -0.511443       -13.9171
  25   2.0000      -0.506253       -13.7759
  26   2.0000      -0.485937       -13.2230
  27   2.0000      -0.462863       -12.5951
  28   2.0000      -0.431374       -11.7383
  29   2.0000      -0.421711       -11.4753
  30   0.0000       0.112547         3.0626
  31   0.0000       0.137358         3.7377
  32   0.0000       0.158431         4.3111
  33   0.0000       0.172075         4.6824
  34   0.0000       0.182427         4.9641

MULLIKEN ATOMIC CHARGES
-----------------------
   0 O :   -0.259506
   1 C :    0.039885
   2 C :    0.161560
   3 C :   -0.209530
   4 C :    0.030049
   5 C :   -0.230290
   6 C :   -0.218998
   7 O :   -0.311891
   8 H :    0.101921
   9 H :    0.128988
  10 H :    0.129420
  11 H :    0.135309
  12 H :    0.126208
  13 H :    0.118175
  14 H :    0.133199
  15 H :    0.125502
Sum of atomic charges:    0.0000000

LOEWDIN ATOMIC CHARGES
----------------------
   0 O :    0.147273
   1 C :   -0.249455
   2 C :   -0.310663
   3 C :   -0.167827
   4 C :   -0.252033
   5 C :   -0.226738
   6 C :   -0.196383
   7 O :    0.174871
   8 H :    0.120543
   9 H :    0.142343
  10 H :    0.133653
  11 H :    0.130837
  12 H :    0.137229
  13 H :    0.134812
  14 H :    0.140920
  15 H :    0.140618

  Mayer bond orders larger than 0.1
B(  0-O ,  1-C ) :   2.0160 B(  1-C ,  2-C ) :   0.7829 B(  1-C ,  8-H ) :   0.9679
B(  2-C ,  3-C ) :   0.9132 B(  2-C ,  6-C ) :   0.9254 B(  2-C ,  7-O ) :   0.9561
B(  3-C ,  4-C ) :   0.9326 B(  3-C ,  9-H ) :   0.9146 B(  3-C , 10-H ) :   0.9208
B(  4-C ,  5-C ) :   0.9340 B(  4-C ,  7-O ) :   0.9074 B(  4-C , 11-H ) :   0.9103
B(  5-C ,  6-C ) :   0.9816 B(  5-C , 12-H ) :   0.9236 B(  5-C , 13-H ) :   0.9204
B(  6-C , 14-H ) :   0.9165 B(  6-C , 15-H ) :   0.9227

MP2 TOTAL ENERGY:     -383.092934366 Eh
FINAL SINGLE POINT ENERGY      -383.092934365923

DIPOLE MOMENT
-------------
                                X             Y             Z
Electronic contribution:     -4.80506      -1.49118      -1.26835
Nuclear contribution   :      5.50188       2.16406       1.69655
                        -----------------------------------------
Total Dipole Moment    :      0.69682       0.67288       0.42820
                        -----------------------------------------
Magnitude (a.u.)       :      1.05910
Magnitude (Debye)      :      2.69201

                             ****ORCA TERMINATED NORMALLY****
TOTAL RUN TIME: 0 days 0 hours 13 minutes 13 seconds 172 msec
