                         Program Version 3.0.3 - RELEASE   -
|  1> ! RI-MP2 RIJK def2-TZVP def2-TZVP/C def2-TZVP/JK TIGHTSCF
|  2> % maxcore 2000
|  3> % mp2 density relaxed end
|  4> *xyz 0 1
|  5>  N       -0.1267268741     1.3615787392     0.0105536787
|  6>  C        0.1068213702     0.0280442102     0.0020105186
|  7>  O        1.1784506316    -0.5166979736    -0.0118630976
|  8>  N       -1.1128726534    -0.7331543657     0.0093239314
|  9>  N       -2.3381533629    -0.1131006241     0.0218352416
| 10>  N       -3.2439039513    -0.9968829444     0.0262430325
| 11>  N       -2.6485694277    -2.2088316159     0.0167500734
| 12>  C       -1.2568891614    -2.1358007967     0.0050993992
| 13>  O       -0.4523614601    -3.0252496085    -0.0043787804
| 14>  H        0.6742433345     1.9678367133     0.0010384319
| 15>  H       -1.0595052399     1.7369391675     0.0169337599
| 16>  H       -3.2017938057    -3.0496130613     0.0192094707
| 17> *
| 18>
| 19>                          ****END OF INPUT****

CARTESIAN COORDINATES (ANGSTROEM)
---------------------------------
  N     -0.126727    1.361579    0.010554
  C      0.106821    0.028044    0.002011
  O      1.178451   -0.516698   -0.011863
  N     -1.112873   -0.733154    0.009324
  N     -2.338153   -0.113101    0.021835
  N     -3.243904   -0.996883    0.026243
  N     -2.648569   -2.208832    0.016750
  C     -1.256889   -2.135801    0.005099
  O     -0.452361   -3.025250   -0.004379
  H      0.674243    1.967837    0.001038
  H     -1.059505    1.736939    0.016934
  H     -3.201794   -3.049613    0.019209

 Total Charge           Charge          ....    0
 Multiplicity           Mult            ....    1
 Number of Electrons    NEL             ....   66
 Basis Dimension        Dim             ....  297

ORBITAL ENERGIES
----------------

  NO   OCC          E(Eh)            E(eV)
   0   2.0000     -20.551562      -559.2364
   1   2.0000     -20.545031      -559.0587
   2   2.0000     -15.710709      -427.5101
   3   2.0000     -15.700830      -427.2413
   4   2.0000     -15.679677      -426.6657
   5   2.0000     -15.672755      -426.4773
   6   2.0000     -15.607746      -424.7084
   7   2.0000     -11.424236      -310.8693
   8   2.0000     -11.420182      -310.7589
   9   2.0000      -1.534387       -41.7528
  10   2.0000      -1.428009       -38.8581
  11   2.0000      -1.412810       -38.4445
  12   2.0000      -1.302826       -35.4517
  13   2.0000      -1.239596       -33.7311
  14   2.0000      -1.213112       -33.0105
  15   2.0000      -0.969085       -26.3702
  16   2.0000      -0.937759       -25.5177
  17   2.0000      -0.838257       -22.8101
  18   2.0000      -0.802837       -21.8463
  19   2.0000      -0.760471       -20.6935
  20   2.0000      -0.731159       -19.8959
  21   2.0000      -0.701272       -19.0826
  22   2.0000      -0.669982       -18.2311
  23   2.0000      -0.648923       -17.6581
  24   2.0000      -0.621248       -16.9050
  25   2.0000      -0.604037       -16.4367
  26   2.0000      -0.566639       -15.4190
  27   2.0000      -0.559599       -15.2275
  28   2.0000      -0.506344       -13.7783
  29   2.0000      -0.478553       -13.0221
  30   2.0000      -0.453862       -12.3502
  31   2.0000      -0.444550       -12.0968
  32   2.0000      -0.399631       -10.8745
  33   0.0000       0.094630         2.5750
  34   0.0000       0.123357         3.3567
  35   0.0000       0.133690         3.6379
  36   0.0000       0.167461         4.5568
  37   0.0000       0.180045         4.8993

MULLIKEN ATOMIC CHARGES
-----------------------
   0 N :   -0.490621
   1 C :    0.320369
   2 O :   -0.294228
   3 N :    0.035754
   4 N :   -0.108724
   5 N :   -0.101191
   6 N :   -0.167378
   7 C :    0.251498
   8 O :   -0.294885
   9 H :    0.274599
  10 H :    0.293108
  11 H :    0.281697
Sum of atomic charges:   -0.0000000

LOEWDIN ATOMIC CHARGES
----------------------
   0 N :   -0.003352
   1 C :   -0.520321
   2 O :    0.133750
   3 N :    0.179385
   4 N :   -0.027038
   5 N :   -0.033422
   6 N :    0.094205
   7 C :   -0.500855
   8 O :    0.120826
   9 H :    0.183639
  10 H :    0.176889
  11 H :    0.196294

  Mayer bond orders larger than 0.1
B(  0-N ,  1-C ) :   1.2126 B(  0-N ,  9-H ) :   0.8602 B(  0-N , 10-H ) :   0.8461
B(  1-C ,  2-O ) :   2.0212 B(  1-C ,  3-N ) :   0.8967 B(  3-N ,  4-N ) :   0.9189
B(  3-N ,  7-C ) :   1.0115 B(  4-N ,  5-N ) :   1.4941 B(  5-N ,  6-N ) :   1.0075
B(  6-N ,  7-C ) :   1.0711 B(  6-N , 11-H ) :   0.8594 B(  7-C ,  8-O ) :   2.0152

MP2 TOTAL ENERGY:     -501.374955654 Eh
FINAL SINGLE POINT ENERGY      -501.374955654143

DIPOLE MOMENT
-------------
                                X             Y             Z
Electronic contribution:     -0.81363      -2.27272      -0.00128
Nuclear contribution   :     -0.32632       3.19505       0.01176
                        -----------------------------------------
Total Dipole Moment    :     -1.13995       0.92232       0.01048
                        -----------------------------------------
Magnitude (a.u.)       :      1.46638
Magnitude (Debye)      :      3.72724

                             ****ORCA TERMINATED NORMALLY****
TOTAL RUN TIME: 0 days 0 hours 12 minutes 36 seconds 379 msec
