                         Program Version 3.0.3 - RELEASE   -
|  1> ! RI-MP2 RIJK def2-TZVP def2-TZVP/C def2-TZVP/JK TIGHTSCF
|  2> % maxcore 2000
|  3> % mp2 density relaxed end
|  4> *xyz 0 1
|  5>  C        0.0012115244     1.4434184680     0.1081170932
|  6>  N       -0.1664543994     0.0253303121    -0.1278134347
|  7>  C        0.5427213513    -0.6385034093    -1.1201279844
|  8>  C        1.2000954650     0.0428826126    -2.1534705089
|  9>  C        1.8577536076    -0.6780168565    -3.1482444253
| 10>  C        1.8844579547    -2.0656652745    -3.1353186154
| 11>  C        1.2387660859    -2.7644583136    -2.1057199080
| 12>  C        1.2593623592    -4.2739722611    -2.0776543951
| 13>  C        0.5798271083    -2.0453762455    -1.1165654603
| 14>  H        1.0495008389     1.7403597122     0.2711553848
| 15>  H       -0.3840486569     2.0259608099    -0.7364217819
| 16>  H       -0.5781925148     1.7243430712     0.9905702927
| 17>  H       -0.3238420455    -0.5233727869     0.7023229425
| 18>  H        1.1995409840     1.1253097433    -2.1855347406
| 19>  H        2.3619039536    -0.1373906131    -3.9436025234
| 20>  H        2.4046566886    -2.6112386100    -3.9161630023
| 21>  H        2.2856611837    -4.6578847032    -2.0599772237
| 22>  H        0.7393021904    -4.6670505583    -1.1999321417
| 23>  H        0.7774964993    -4.6941119320    -2.9679639341
| 24>  H        0.0719601818    -2.5796729251    -0.3166792534
| 25> *
| 26>
| 27>                          ****END OF INPUT****

CARTESIAN COORDINATES (ANGSTROEM)
---------------------------------
  C      0.001212    1.443418    0.108117
  N     -0.166454    0.025330   -0.127813
  C      0.542721   -0.638503   -1.120128
  C      1.200095    0.042883   -2.153471
  C      1.857754   -0.678017   -3.148244
  C      1.884458   -2.065665   -3.135319
  C      1.238766   -2.764458   -2.105720
  C      1.259362   -4.273972   -2.077654
  C      0.579827   -2.045376   -1.116565
  H      1.049501    1.740360    0.271155
  H     -0.384049    2.025961   -0.736422
  H     -0.578193    1.724343    0.990570
  H     -0.323842   -0.523373    0.702323
  H      1.199541    1.125310   -2.185535
  H      2.361904   -0.137391   -3.943603
  H      2.404657   -2.611239   -3.916163
  H      2.285661   -4.657885   -2.059977
  H      0.739302   -4.667051   -1.199932
  H      0.777496   -4.694112   -2.967964
  H      0.071960   -2.579673   -0.316679

 Total Charge           Charge          ....    0
 Multiplicity           Mult            ....    1
 Number of Electrons    NEL             ....   66
 Basis Dimension        Dim             ....  345

ORBITAL ENERGIES
----------------

  NO   OCC          E(Eh)            E(eV)
   0   2.0000     -15.561416      -423.4477
   1   2.0000     -11.271845      -306.7225
   2   2.0000     -11.255836      -306.2869
   3   2.0000     -11.236980      -305.7738
   4   2.0000     -11.227984      -305.5290
   5   2.0000     -11.219447      -305.2967
   6   2.0000     -11.213271      -305.1286
   7   2.0000     -11.211453      -305.0791
   8   2.0000     -11.207163      -304.9624
   9   2.0000      -1.237935       -33.6859
  10   2.0000      -1.131636       -30.7934
  11   2.0000      -1.033125       -28.1128
  12   2.0000      -1.001660       -27.2566
  13   2.0000      -0.927531       -25.2394
  14   2.0000      -0.913527       -24.8583
  15   2.0000      -0.819500       -22.2997
  16   2.0000      -0.775896       -21.1132
  17   2.0000      -0.701562       -19.0905
  18   2.0000      -0.669132       -18.2080
  19   2.0000      -0.637520       -17.3478
  20   2.0000      -0.610664       -16.6170
  21   2.0000      -0.592600       -16.1255
  22   2.0000      -0.586190       -15.9510
  23   2.0000      -0.569180       -15.4882
  24   2.0000      -0.563143       -15.3239
  25   2.0000      -0.535029       -14.5589
  26   2.0000      -0.531043       -14.4504
  27   2.0000      -0.499732       -13.5984
  28   2.0000      -0.491141       -13.3646
  29   2.0000      -0.476212       -12.9584
  30   2.0000      -0.417906       -11.3718
  31   2.0000      -0.324447        -8.8287
  32   2.0000      -0.282223        -7.6797
  33   0.0000       0.132721         3.6115
  34   0.0000       0.139059         3.7840
  35   0.0000       0.144422         3.9299
  36   0.0000       0.151456         4.1213
  37   0.0000       0.159517         4.3407

MULLIKEN ATOMIC CHARGES
-----------------------
   0 C :   -0.302658
   1 N :   -0.321563
   2 C :    0.325202
   3 C :   -0.283548
   4 C :   -0.097980
   5 C :   -0.229024
   6 C :    0.187674
   7 C :   -0.437521
   8 C :   -0.330806
   9 H :    0.130939
  10 H :    0.139580
  11 H :    0.140478
  12 H :    0.224373
  13 H :    0.117670
  14 H :    0.114658
  15 H :    0.113635
  16 H :    0.139936
  17 H :    0.128882
  18 H :    0.141003
  19 H :    0.099069
Sum of atomic charges:   -0.0000000

LOEWDIN ATOMIC CHARGES
----------------------
   0 C :   -0.334653
   1 N :    0.049404
   2 C :   -0.220066
   3 C :   -0.140722
   4 C :   -0.155652
   5 C :   -0.138430
   6 C :   -0.178537
   7 C :   -0.267469
   8 C :   -0.107595
   9 H :    0.108365
  10 H :    0.117041
  11 H :    0.119282
  12 H :    0.180007
  13 H :    0.146615
  14 H :    0.144765
  15 H :    0.145602
  16 H :    0.130198
  17 H :    0.126121
  18 H :    0.130691
  19 H :    0.145033

  Mayer bond orders larger than 0.1
B(  0-C ,  1-N ) :   0.9226 B(  0-C ,  9-H ) :   0.9323 B(  0-C , 10-H ) :   0.9315
B(  0-C , 11-H ) :   0.9339 B(  1-N ,  2-C ) :   1.0711 B(  1-N , 12-H ) :   0.8765
B(  2-C ,  3-C ) :   1.2836 B(  2-C ,  8-C ) :   1.2221 B(  3-C ,  4-C ) :   1.3333
B(  3-C , 13-H ) :   0.9283 B(  4-C ,  5-C ) :   1.3535 B(  4-C , 14-H ) :   0.9353
B(  5-C ,  6-C ) :   1.2728 B(  5-C , 15-H ) :   0.9414 B(  6-C ,  7-C ) :   0.8546
B(  6-C ,  8-C ) :   1.4132 B(  7-C , 16-H ) :   0.9361 B(  7-C , 17-H ) :   0.9511
B(  7-C , 18-H ) :   0.9343 B(  8-C , 19-H ) :   0.9147

MP2 TOTAL ENERGY:     -365.404134046 Eh
FINAL SINGLE POINT ENERGY      -365.404134045560

DIPOLE MOMENT
-------------
                                X             Y             Z
Electronic contribution:      0.29138       0.26888      -1.55933
Nuclear contribution   :     -0.38154      -0.09033       2.15292
                        -----------------------------------------
Total Dipole Moment    :     -0.09015       0.17854       0.59359
                        -----------------------------------------
Magnitude (a.u.)       :      0.62638
Magnitude (Debye)      :      1.59213

                             ****ORCA TERMINATED NORMALLY****
TOTAL RUN TIME: 0 days 0 hours 18 minutes 16 seconds 825 msec
