                         Program Version 3.0.3 - RELEASE   -
|  1> ! RI-MP2 RIJK def2-TZVP def2-TZVP/C def2-TZVP/JK TIGHTSCF
|  2> % maxcore 2000
|  3> % mp2 density relaxed end
|  4> *xyz 0 1
|  5>  C       -0.2562367171     1.5083652967     0.0728747956
|  6>  N        0.1109010130     0.1032337824     0.0508083277
|  7>  C        1.1573881001    -0.3771226002    -0.8869907517
|  8>  C        1.8512426324    -1.1234859194     0.2618305482
|  9>  C        2.3835634069    -2.5214400084     0.1711550143
| 10>  O        3.5288571484    -2.6054719666    -0.6685172505
| 11>  C        2.2597248143    -0.1336497707     1.3105548104
| 12>  O        2.8136465140     1.0935570957     0.9272853264
| 13>  C        0.7949704629    -0.4869122932     1.1906100827
| 14>  H        0.6002935182     2.1963308529     0.1457262741
| 15>  H       -0.8133622431     1.7521693859    -0.8385230004
| 16>  H       -0.9225515535     1.6896497533     0.9234122377
| 17>  H        0.7504870389    -1.0374683183    -1.6602568593
| 18>  H        1.7587112717     0.4097811602    -1.3557073132
| 19>  H        2.5938350681    -2.9090555050     1.1814094921
| 20>  H        1.6400249495    -3.1856395983    -0.2832193121
| 21>  H        4.1719579879    -1.9669758980    -0.3418073971
| 22>  H        2.7425915402    -0.6014223360     2.1730918489
| 23>  H        2.5660051272     1.7518885240     1.5848294309
| 24>  H        0.2308092700    -0.9151736468     2.0155533151
| 25> *
| 26>
| 27>                          ****END OF INPUT****

CARTESIAN COORDINATES (ANGSTROEM)
---------------------------------
  C     -0.256237    1.508365    0.072875
  N      0.110901    0.103234    0.050808
  C      1.157388   -0.377123   -0.886991
  C      1.851243   -1.123486    0.261831
  C      2.383563   -2.521440    0.171155
  O      3.528857   -2.605472   -0.668517
  C      2.259725   -0.133650    1.310555
  O      2.813647    1.093557    0.927285
  C      0.794970   -0.486912    1.190610
  H      0.600294    2.196331    0.145726
  H     -0.813362    1.752169   -0.838523
  H     -0.922552    1.689650    0.923412
  H      0.750487   -1.037468   -1.660257
  H      1.758711    0.409781   -1.355707
  H      2.593835   -2.909056    1.181409
  H      1.640025   -3.185640   -0.283219
  H      4.171958   -1.966976   -0.341807
  H      2.742592   -0.601422    2.173092
  H      2.566005    1.751889    1.584829
  H      0.230809   -0.915174    2.015553

 Total Charge           Charge          ....    0
 Multiplicity           Mult            ....    1
 Number of Electrons    NEL             ....   70
 Basis Dimension        Dim             ....  345

ORBITAL ENERGIES
----------------

  NO   OCC          E(Eh)            E(eV)
   0   2.0000     -20.571248      -559.7721
   1   2.0000     -20.554709      -559.3221
   2   2.0000     -15.549732      -423.1297
   3   2.0000     -11.292483      -307.2841
   4   2.0000     -11.280531      -306.9589
   5   2.0000     -11.266565      -306.5788
   6   2.0000     -11.251617      -306.1721
   7   2.0000     -11.240983      -305.8827
   8   2.0000     -11.240883      -305.8800
   9   2.0000      -1.382019       -37.6066
  10   2.0000      -1.358389       -36.9636
  11   2.0000      -1.265620       -34.4393
  12   2.0000      -1.097625       -29.8679
  13   2.0000      -0.963365       -26.2145
  14   2.0000      -0.947468       -25.7819
  15   2.0000      -0.879706       -23.9380
  16   2.0000      -0.793515       -21.5926
  17   2.0000      -0.743231       -20.2243
  18   2.0000      -0.718003       -19.5379
  19   2.0000      -0.691566       -18.8185
  20   2.0000      -0.665383       -18.1060
  21   2.0000      -0.638702       -17.3800
  22   2.0000      -0.625097       -17.0098
  23   2.0000      -0.603311       -16.4169
  24   2.0000      -0.588739       -16.0204
  25   2.0000      -0.585957       -15.9447
  26   2.0000      -0.550109       -14.9692
  27   2.0000      -0.527926       -14.3656
  28   2.0000      -0.506221       -13.7750
  29   2.0000      -0.489726       -13.3261
  30   2.0000      -0.484924       -13.1954
  31   2.0000      -0.450715       -12.2646
  32   2.0000      -0.437147       -11.8954
  33   2.0000      -0.392987       -10.6937
  34   2.0000      -0.341499        -9.2927
  35   0.0000       0.128638         3.5004
  36   0.0000       0.142154         3.8682
  37   0.0000       0.160209         4.3595
  38   0.0000       0.172564         4.6957
  39   0.0000       0.183011         4.9800

MULLIKEN ATOMIC CHARGES
-----------------------
   0 C :   -0.321155
   1 N :   -0.160593
   2 C :   -0.102463
   3 C :   -0.098541
   4 C :    0.003291
   5 O :   -0.464468
   6 C :   -0.014762
   7 O :   -0.464207
   8 C :   -0.077698
   9 H :    0.106709
  10 H :    0.137241
  11 H :    0.132822
  12 H :    0.115271
  13 H :    0.121042
  14 H :    0.094775
  15 H :    0.117349
  16 H :    0.318302
  17 H :    0.105237
  18 H :    0.325299
  19 H :    0.126550
Sum of atomic charges:    0.0000000

LOEWDIN ATOMIC CHARGES
----------------------
   0 C :   -0.336842
   1 N :    0.094982
   2 C :   -0.190212
   3 C :   -0.202062
   4 C :   -0.312311
   5 O :   -0.046145
   6 C :   -0.303254
   7 O :   -0.000975
   8 C :   -0.190564
   9 H :    0.101025
  10 H :    0.118001
  11 H :    0.118484
  12 H :    0.131395
  13 H :    0.129520
  14 H :    0.122520
  15 H :    0.135679
  16 H :    0.176381
  17 H :    0.142309
  18 H :    0.179022
  19 H :    0.133047

  Mayer bond orders larger than 0.1
B(  0-C ,  1-N ) :   0.8884 B(  0-C ,  9-H ) :   0.9249 B(  0-C , 10-H ) :   0.9391
B(  0-C , 11-H ) :   0.9380 B(  1-N ,  2-C ) :   0.9554 B(  1-N ,  8-C ) :   1.0125
B(  2-C ,  3-C ) :   0.9281 B(  2-C , 12-H ) :   0.9104 B(  2-C , 13-H ) :   0.9156
B(  3-C ,  4-C ) :   0.9743 B(  3-C ,  6-C ) :   0.8270 B(  3-C ,  7-O ) :  -0.1043
B(  3-C ,  8-C ) :   0.8085 B(  4-C ,  5-O ) :   0.9007 B(  4-C , 14-H ) :   0.9175
B(  4-C , 15-H ) :   0.9291 B(  5-O , 16-H ) :   0.8439 B(  6-C ,  7-O ) :   1.0691
B(  6-C ,  8-C ) :   0.8694 B(  6-C , 17-H ) :   0.9597 B(  7-O , 18-H ) :   0.8393
B(  8-C , 19-H ) :   0.9134

MP2 TOTAL ENERGY:     -439.505060115 Eh
FINAL SINGLE POINT ENERGY      -439.505060114707

DIPOLE MOMENT
-------------
                                X             Y             Z
Electronic contribution:      2.78580      -1.82722       0.34271
Nuclear contribution   :     -2.91901       2.40546       0.61256
                        -----------------------------------------
Total Dipole Moment    :     -0.13321       0.57824       0.95527
                        -----------------------------------------
Magnitude (a.u.)       :      1.12457
Magnitude (Debye)      :      2.85843

                             ****ORCA TERMINATED NORMALLY****
TOTAL RUN TIME: 0 days 0 hours 18 minutes 0 seconds 393 msec
