                         Program Version 3.0.3 - RELEASE   -
|  1> ! RI-MP2 RIJK def2-TZVP def2-TZVP/C def2-TZVP/JK TIGHTSCF
|  2> % maxcore 2000
|  3> % mp2 density relaxed end
|  4> *xyz 0 1
|  5>  O       -0.3636392949     0.1334882389    -0.3238602441
|  6>  C        0.0941966094     0.9088224418     0.4848253366
|  7>  C        1.2410958691     1.7464637958     0.2521683921
|  8>  C        2.2040746624     2.4595782901     0.0902813963
|  9>  C        3.3186686347     3.3366015171    -0.1456417479
| 10>  C        3.9640301530     3.4353614031    -1.5723602928
| 11>  C        3.9437029607     4.9893076383    -1.4952467812
| 12>  C        3.0451881531     4.8828091925    -0.2574309072
| 13>  O        2.3467284702     5.6318797569     0.3469022550
| 14>  H       -0.3555378998     1.0283193425     1.4913369573
| 15>  H        4.0892570139     3.1954736777     0.6235976893
| 16>  H        4.9423291339     2.9662289626    -1.6711548946
| 17>  H        3.2960042469     3.0438887426    -2.3399884303
| 18>  H        4.9127757253     5.4347833827    -1.2474709539
| 19>  H        3.5155600421     5.5388037974    -2.3364625847
| 20> *
| 21>
| 22>                          ****END OF INPUT****

CARTESIAN COORDINATES (ANGSTROEM)
---------------------------------
  O     -0.363639    0.133488   -0.323860
  C      0.094197    0.908822    0.484825
  C      1.241096    1.746464    0.252168
  C      2.204075    2.459578    0.090281
  C      3.318669    3.336602   -0.145642
  C      3.964030    3.435361   -1.572360
  C      3.943703    4.989308   -1.495247
  C      3.045188    4.882809   -0.257431
  O      2.346728    5.631880    0.346902
  H     -0.355538    1.028319    1.491337
  H      4.089257    3.195474    0.623598
  H      4.942329    2.966229   -1.671155
  H      3.296004    3.043889   -2.339988
  H      4.912776    5.434783   -1.247471
  H      3.515560    5.538804   -2.336463

 Total Charge           Charge          ....    0
 Multiplicity           Mult            ....    1
 Number of Electrons    NEL             ....   64
 Basis Dimension        Dim             ....  315

ORBITAL ENERGIES
----------------

  NO   OCC          E(Eh)            E(eV)
   0   2.0000     -20.576784      -559.9228
   1   2.0000     -20.571130      -559.7689
   2   2.0000     -11.361029      -309.1493
   3   2.0000     -11.359048      -309.0954
   4   2.0000     -11.290838      -307.2393
   5   2.0000     -11.275019      -306.8089
   6   2.0000     -11.265741      -306.5564
   7   2.0000     -11.262925      -306.4798
   8   2.0000     -11.252094      -306.1850
   9   2.0000      -1.422402       -38.7055
  10   2.0000      -1.405907       -38.2567
  11   2.0000      -1.168728       -31.8027
  12   2.0000      -1.075081       -29.2544
  13   2.0000      -0.980360       -26.6770
  14   2.0000      -0.899951       -24.4889
  15   2.0000      -0.887214       -24.1423
  16   2.0000      -0.775753       -21.1093
  17   2.0000      -0.726177       -19.7603
  18   2.0000      -0.706726       -19.2310
  19   2.0000      -0.689946       -18.7744
  20   2.0000      -0.660908       -17.9842
  21   2.0000      -0.647326       -17.6146
  22   2.0000      -0.611858       -16.6495
  23   2.0000      -0.566748       -15.4220
  24   2.0000      -0.557506       -15.1705
  25   2.0000      -0.546227       -14.8636
  26   2.0000      -0.525920       -14.3110
  27   2.0000      -0.509844       -13.8735
  28   2.0000      -0.457577       -12.4513
  29   2.0000      -0.448754       -12.2112
  30   2.0000      -0.409188       -11.1346
  31   2.0000      -0.389464       -10.5979
  32   0.0000       0.071543         1.9468
  33   0.0000       0.105607         2.8737
  34   0.0000       0.128861         3.5065
  35   0.0000       0.145872         3.9694
  36   0.0000       0.158005         4.2995

MULLIKEN ATOMIC CHARGES
-----------------------
   0 O :   -0.255991
   1 C :    0.030504
   2 C :    0.099881
   3 C :   -0.039938
   4 C :   -0.118907
   5 C :   -0.263594
   6 C :   -0.192859
   7 C :    0.110885
   8 O :   -0.220664
   9 H :    0.109390
  10 H :    0.157288
  11 H :    0.137485
  12 H :    0.150288
  13 H :    0.146902
  14 H :    0.149329
Sum of atomic charges:   -0.0000000

LOEWDIN ATOMIC CHARGES
----------------------
   0 O :    0.146166
   1 C :   -0.292829
   2 C :   -0.049665
   3 C :   -0.013949
   4 C :   -0.189026
   5 C :   -0.190990
   6 C :   -0.205580
   7 C :   -0.277275
   8 O :    0.192037
   9 H :    0.125634
  10 H :    0.183554
  11 H :    0.132310
  12 H :    0.143847
  13 H :    0.151404
  14 H :    0.144363

  Mayer bond orders larger than 0.1
B(  0-O ,  1-C ) :   2.0105 B(  1-C ,  2-C ) :   0.8374 B(  1-C ,  9-H ) :   1.0101
B(  2-C ,  3-C ) :   2.6551 B(  2-C ,  4-C ) :  -0.1324 B(  2-C ,  9-H ) :  -0.1088
B(  3-C ,  4-C ) :   1.1200 B(  4-C ,  5-C ) :   0.9116 B(  4-C ,  6-C ) :  -0.1283
B(  4-C ,  7-C ) :   0.7913 B(  4-C , 10-H ) :   0.8706 B(  5-C ,  6-C ) :   0.9400
B(  5-C , 11-H ) :   0.9331 B(  5-C , 12-H ) :   0.9272 B(  6-C ,  7-C ) :   0.8896
B(  6-C , 13-H ) :   0.9004 B(  6-C , 14-H ) :   0.9040 B(  7-C ,  8-O ) :   2.0642

MP2 TOTAL ENERGY:     -419.879398688 Eh
FINAL SINGLE POINT ENERGY      -419.879398687897

DIPOLE MOMENT
-------------
                                X             Y             Z
Electronic contribution:     -5.38433      -2.17029       3.30395
Nuclear contribution   :      6.83311       2.60748      -3.43097
                        -----------------------------------------
Total Dipole Moment    :      1.44878       0.43718      -0.12702
                        -----------------------------------------
Magnitude (a.u.)       :      1.51863
Magnitude (Debye)      :      3.86005

                             ****ORCA TERMINATED NORMALLY****
TOTAL RUN TIME: 0 days 0 hours 12 minutes 15 seconds 822 msec
