                         Program Version 3.0.3 - RELEASE   -
|  1> ! RI-MP2 RIJK def2-TZVP def2-TZVP/C def2-TZVP/JK TIGHTSCF
|  2> % maxcore 2000
|  3> % mp2 density relaxed end
|  4> *xyz 0 1
|  5>  C        0.0485692888     1.4967509142     0.0234152158
|  6>  C        0.0559560696    -0.0120993976     0.0157394077
|  7>  C        0.0476245372    -0.7286547752    -1.1840000810
|  8>  C        0.0543771899    -2.1214859936    -1.1992855968
|  9>  O        0.0464944549    -2.8495312990    -2.3584075035
| 10>  C        0.0697823848    -2.8199894816     0.0072749099
| 11>  C        0.0781890642    -2.1223628166     1.2069370831
| 12>  C        0.0714081916    -0.7286353705     1.2193347645
| 13>  O        0.0804830409    -0.1130197509     2.4435167076
| 14>  H        0.9362092930     1.9103602562     0.5211419970
| 15>  H        0.0366612694     1.8943614479    -0.9939471680
| 16>  H       -0.8332191243     1.9016194795     0.5384328555
| 17>  H        0.0356003426    -0.1807419887    -2.1239679287
| 18>  H        0.0362920779    -2.2440621407    -3.1062748425
| 19>  H        0.0749936788    -3.9036108475    -0.0094984404
| 20>  H        0.0901730564    -2.6479528905     2.1551341585
| 21>  H        0.0743760643     0.8404897446     2.3199716314
| 22> *
| 23>
| 24>                          ****END OF INPUT****

CARTESIAN COORDINATES (ANGSTROEM)
---------------------------------
  C      0.048569    1.496751    0.023415
  C      0.055956   -0.012099    0.015739
  C      0.047625   -0.728655   -1.184000
  C      0.054377   -2.121486   -1.199286
  O      0.046494   -2.849531   -2.358408
  C      0.069782   -2.819989    0.007275
  C      0.078189   -2.122363    1.206937
  C      0.071408   -0.728635    1.219335
  O      0.080483   -0.113020    2.443517
  H      0.936209    1.910360    0.521142
  H      0.036661    1.894361   -0.993947
  H     -0.833219    1.901619    0.538433
  H      0.035600   -0.180742   -2.123968
  H      0.036292   -2.244062   -3.106275
  H      0.074994   -3.903611   -0.009498
  H      0.090173   -2.647953    2.155134
  H      0.074376    0.840490    2.319972

 Total Charge           Charge          ....    0
 Multiplicity           Mult            ....    1
 Number of Electrons    NEL             ....   66
 Basis Dimension        Dim             ....  327

ORBITAL ENERGIES
----------------

  NO   OCC          E(Eh)            E(eV)
   0   2.0000     -20.583024      -560.0925
   1   2.0000     -20.581685      -560.0561
   2   2.0000     -11.292743      -307.2912
   3   2.0000     -11.288416      -307.1734
   4   2.0000     -11.247104      -306.0493
   5   2.0000     -11.242042      -305.9115
   6   2.0000     -11.235036      -305.7209
   7   2.0000     -11.231045      -305.6123
   8   2.0000     -11.227660      -305.5202
   9   2.0000      -1.399624       -38.0857
  10   2.0000      -1.398099       -38.0442
  11   2.0000      -1.147072       -31.2134
  12   2.0000      -1.052886       -28.6505
  13   2.0000      -0.998081       -27.1592
  14   2.0000      -0.947767       -25.7901
  15   2.0000      -0.842658       -22.9299
  16   2.0000      -0.816522       -22.2187
  17   2.0000      -0.737894       -20.0791
  18   2.0000      -0.716542       -19.4981
  19   2.0000      -0.684000       -18.6126
  20   2.0000      -0.617274       -16.7969
  21   2.0000      -0.609678       -16.5902
  22   2.0000      -0.592180       -16.1140
  23   2.0000      -0.581493       -15.8232
  24   2.0000      -0.579615       -15.7721
  25   2.0000      -0.569090       -15.4857
  26   2.0000      -0.563945       -15.3457
  27   2.0000      -0.563692       -15.3388
  28   2.0000      -0.524106       -14.2616
  29   2.0000      -0.488756       -13.2997
  30   2.0000      -0.458320       -12.4715
  31   2.0000      -0.340130        -9.2554
  32   2.0000      -0.292869        -7.9694
  33   0.0000       0.119058         3.2397
  34   0.0000       0.124980         3.4009
  35   0.0000       0.138085         3.7575
  36   0.0000       0.153535         4.1779
  37   0.0000       0.176776         4.8103

MULLIKEN ATOMIC CHARGES
-----------------------
   0 C :   -0.525761
   1 C :    0.112859
   2 C :   -0.269804
   3 C :    0.282155
   4 O :   -0.429078
   5 C :   -0.193383
   6 C :   -0.194962
   7 C :    0.167533
   8 O :   -0.421718
   9 H :    0.156350
  10 H :    0.143678
  11 H :    0.156349
  12 H :    0.104185
  13 H :    0.325766
  14 H :    0.126538
  15 H :    0.125764
  16 H :    0.333528
Sum of atomic charges:    0.0000000

LOEWDIN ATOMIC CHARGES
----------------------
   0 C :   -0.278617
   1 C :   -0.168531
   2 C :   -0.129190
   3 C :   -0.280229
   4 O :    0.061190
   5 C :   -0.121870
   6 C :   -0.121216
   7 C :   -0.249139
   8 O :    0.067832
   9 H :    0.130118
  10 H :    0.133910
  11 H :    0.130117
  12 H :    0.145555
  13 H :    0.187750
  14 H :    0.152839
  15 H :    0.153354
  16 H :    0.186126

  Mayer bond orders larger than 0.1
B(  0-C ,  1-C ) :   0.8106 B(  0-C ,  9-H ) :   0.9387 B(  0-C , 10-H ) :   0.9382
B(  0-C , 11-H ) :   0.9387 B(  1-C ,  2-C ) :   1.2846 B(  1-C ,  7-C ) :   1.2271
B(  2-C ,  3-C ) :   1.3073 B(  2-C , 12-H ) :   0.8981 B(  3-C ,  4-O ) :   1.0540
B(  3-C ,  5-C ) :   1.3230 B(  4-O , 13-H ) :   0.8371 B(  5-C ,  6-C ) :   1.3443
B(  5-C , 14-H ) :   0.9410 B(  6-C ,  7-C ) :   1.3484 B(  6-C , 15-H ) :   0.9387
B(  7-C ,  8-O ) :   1.0985 B(  8-O , 16-H ) :   0.8317

MP2 TOTAL ENERGY:     -421.185491251 Eh
FINAL SINGLE POINT ENERGY      -421.185491251329

DIPOLE MOMENT
-------------
                                X             Y             Z
Electronic contribution:      0.02586      -4.77058       0.22944
Nuclear contribution   :     -0.03634       5.83235      -0.75960
                        -----------------------------------------
Total Dipole Moment    :     -0.01047       1.06177      -0.53016
                        -----------------------------------------
Magnitude (a.u.)       :      1.18682
Magnitude (Debye)      :      3.01666

                             ****ORCA TERMINATED NORMALLY****
TOTAL RUN TIME: 0 days 0 hours 16 minutes 28 seconds 825 msec
