                         Program Version 3.0.3 - RELEASE   -
|  1> ! RI-MP2 RIJK def2-TZVP def2-TZVP/C def2-TZVP/JK TIGHTSCF
|  2> % maxcore 2000
|  3> % mp2 density relaxed end
|  4> *xyz 0 1
|  5>  C        0.3309133165     1.3368201121     0.1625194313
|  6>  C       -0.2179525255    -0.0949664233    -0.0042118491
|  7>  C       -1.6801873232    -0.1127584710    -0.0253348581
|  8>  C       -2.8818621540    -0.1148726069    -0.0617327214
|  9>  C        0.3444316002    -0.7309179658    -1.2715151222
| 10>  N        1.7114596627    -1.2657123916    -1.1875524050
| 11>  C        0.5837985142    -2.1836339594    -1.4683246005
| 12>  C        0.3646980699    -3.2566256078    -0.4268377649
| 13>  O        1.4191323978    -4.2044473344    -0.4536391615
| 14>  H        1.4235595786     1.3080504293     0.1939776286
| 15>  H        0.0192917648     1.9711967099    -0.6730611201
| 16>  H       -0.0377833811     1.7891161759     1.0863942377
| 17>  H        0.1288552918    -0.6851013407     0.8511979907
| 18>  H       -3.9434361057    -0.1249254960    -0.0827311426
| 19>  H        0.0826629217    -0.1754072708    -2.1718666999
| 20>  H        2.2315486869    -1.0612866224    -2.0357953049
| 21>  H        0.4969140326    -2.5461595617    -2.4914261059
| 22>  H        0.2581871179    -2.8112348077     0.5717875063
| 23>  H       -0.5556301320    -3.8086925879    -0.6428018165
| 24>  H        2.2308002158    -3.6982991198    -0.3292050621
| 25> *
| 26>
| 27>                          ****END OF INPUT****

CARTESIAN COORDINATES (ANGSTROEM)
---------------------------------
  C      0.330913    1.336820    0.162519
  C     -0.217953   -0.094966   -0.004212
  C     -1.680187   -0.112758   -0.025335
  C     -2.881862   -0.114873   -0.061733
  C      0.344432   -0.730918   -1.271515
  N      1.711460   -1.265712   -1.187552
  C      0.583799   -2.183634   -1.468325
  C      0.364698   -3.256626   -0.426838
  O      1.419132   -4.204447   -0.453639
  H      1.423560    1.308050    0.193978
  H      0.019292    1.971197   -0.673061
  H     -0.037783    1.789116    1.086394
  H      0.128855   -0.685101    0.851198
  H     -3.943436   -0.124925   -0.082731
  H      0.082663   -0.175407   -2.171867
  H      2.231549   -1.061287   -2.035795
  H      0.496914   -2.546160   -2.491426
  H      0.258187   -2.811235    0.571788
  H     -0.555630   -3.808693   -0.642802
  H      2.230800   -3.698299   -0.329205

 Total Charge           Charge          ....    0
 Multiplicity           Mult            ....    1
 Number of Electrons    NEL             ....   68
 Basis Dimension        Dim             ....  345

ORBITAL ENERGIES
----------------

  NO   OCC          E(Eh)            E(eV)
   0   2.0000     -20.551199      -559.2266
   1   2.0000     -15.568634      -423.6441
   2   2.0000     -11.276470      -306.8483
   3   2.0000     -11.276290      -306.8435
   4   2.0000     -11.266667      -306.5816
   5   2.0000     -11.264593      -306.5252
   6   2.0000     -11.235977      -305.7465
   7   2.0000     -11.227243      -305.5088
   8   2.0000     -11.224758      -305.4412
   9   2.0000      -1.358158       -36.9574
  10   2.0000      -1.273275       -34.6476
  11   2.0000      -1.095855       -29.8197
  12   2.0000      -1.002667       -27.2839
  13   2.0000      -0.973262       -26.4838
  14   2.0000      -0.910818       -24.7846
  15   2.0000      -0.845466       -23.0063
  16   2.0000      -0.796711       -21.6796
  17   2.0000      -0.741417       -20.1750
  18   2.0000      -0.712801       -19.3963
  19   2.0000      -0.678615       -18.4660
  20   2.0000      -0.651599       -17.7309
  21   2.0000      -0.635021       -17.2798
  22   2.0000      -0.600994       -16.3539
  23   2.0000      -0.572174       -15.5696
  24   2.0000      -0.566249       -15.4084
  25   2.0000      -0.531873       -14.4730
  26   2.0000      -0.521564       -14.1925
  27   2.0000      -0.509982       -13.8773
  28   2.0000      -0.475817       -12.9476
  29   2.0000      -0.471671       -12.8348
  30   2.0000      -0.450495       -12.2586
  31   2.0000      -0.405723       -11.0403
  32   2.0000      -0.389826       -10.6077
  33   2.0000      -0.387613       -10.5475
  34   0.0000       0.126980         3.4553
  35   0.0000       0.145749         3.9660
  36   0.0000       0.156543         4.2597
  37   0.0000       0.162628         4.4253
  38   0.0000       0.169662         4.6168

MULLIKEN ATOMIC CHARGES
-----------------------
   0 C :   -0.397500
   1 C :   -0.125385
   2 C :   -0.052135
   3 C :   -0.170154
   4 C :   -0.019097
   5 N :   -0.413747
   6 C :   -0.089648
   7 C :   -0.005780
   8 O :   -0.477728
   9 H :    0.147131
  10 H :    0.126962
  11 H :    0.144074
  12 H :    0.119145
  13 H :    0.190419
  14 H :    0.130801
  15 H :    0.227540
  16 H :    0.122724
  17 H :    0.105062
  18 H :    0.114089
  19 H :    0.323226
Sum of atomic charges:   -0.0000000

LOEWDIN ATOMIC CHARGES
----------------------
   0 C :   -0.266118
   1 C :   -0.255390
   2 C :   -0.084378
   3 C :   -0.098437
   4 C :   -0.224520
   5 N :   -0.002284
   6 C :   -0.261715
   7 C :   -0.328513
   8 O :   -0.047407
   9 H :    0.128908
  10 H :    0.126598
  11 H :    0.128355
  12 H :    0.171840
  13 H :    0.126878
  14 H :    0.146681
  15 H :    0.167332
  16 H :    0.140973
  17 H :    0.120465
  18 H :    0.133489
  19 H :    0.177243

  Mayer bond orders larger than 0.1
B(  0-C ,  1-C ) :   0.9103 B(  0-C ,  9-H ) :   0.9373 B(  0-C , 10-H ) :   0.9301
B(  0-C , 11-H ) :   0.9372 B(  1-C ,  2-C ) :   1.1143 B(  1-C ,  4-C ) :   0.8689
B(  1-C , 12-H ) :   0.9332 B(  2-C ,  3-C ) :   2.6000 B(  3-C , 13-H ) :   0.8975
B(  4-C ,  5-N ) :   0.8866 B(  4-C ,  6-C ) :   0.9161 B(  4-C , 14-H ) :   0.9131
B(  5-N ,  6-C ) :   0.9006 B(  5-N , 15-H ) :   0.8650 B(  6-C ,  7-C ) :   0.9356
B(  6-C , 16-H ) :   0.9238 B(  7-C ,  8-O ) :   0.9027 B(  7-C , 17-H ) :   0.9209
B(  7-C , 18-H ) :   0.9310 B(  8-O , 19-H ) :   0.8378

MP2 TOTAL ENERGY:     -402.393207374 Eh
FINAL SINGLE POINT ENERGY      -402.393207374470

DIPOLE MOMENT
-------------
                                X             Y             Z
Electronic contribution:     -1.33100      -2.91465      -0.61178
Nuclear contribution   :      1.30224       3.65444       0.13868
                        -----------------------------------------
Total Dipole Moment    :     -0.02876       0.73979      -0.47309
                        -----------------------------------------
Magnitude (a.u.)       :      0.87860
Magnitude (Debye)      :      2.23322

                             ****ORCA TERMINATED NORMALLY****
TOTAL RUN TIME: 0 days 0 hours 26 minutes 54 seconds 565 msec
