                         Program Version 3.0.3 - RELEASE   -
|  1> ! RI-MP2 RIJK def2-TZVP def2-TZVP/C def2-TZVP/JK TIGHTSCF
|  2> % maxcore 2000
|  3> % mp2 density relaxed end
|  4> *xyz 0 1
|  5>  C       -0.0463845954     1.4885239273    -0.0111486881
|  6>  C       -0.0551642437    -0.0135707847    -0.0140180460
|  7>  C       -0.9281871971    -0.8526414399     0.8535651778
|  8>  O       -1.9173891273    -1.7374200826     0.3976764983
|  9>  C        0.5644542662    -1.0507072000     0.9527973340
| 10>  N        1.3299683320    -1.7335376225    -0.1535993830
| 11>  C        0.4146941303    -2.2551482612    -1.2005864425
| 12>  C        0.6713387938    -0.8013052161    -1.1265971092
| 13>  H        0.9574887140     1.8792004699    -0.2128185060
| 14>  H       -0.7183364758     1.8865071855    -0.7817656745
| 15>  H       -0.3746426691     1.8864738815     0.9537824936
| 16>  H       -1.2601435586    -0.2660477583     1.7159070344
| 17>  H       -2.0283372028    -2.4196125608     1.0698098136
| 18>  H        1.0979112969    -0.9194638931     1.8881551439
| 19>  H        0.9705202631    -2.7964275735    -1.9623561824
| 20>  H       -0.5504474240    -2.6604864867    -0.9395810459
| 21>  H        1.2720657076    -0.2729653547    -1.8615499080
| 22> *
| 23>
| 24>                          ****END OF INPUT****

CARTESIAN COORDINATES (ANGSTROEM)
---------------------------------
  C     -0.046385    1.488524   -0.011149
  C     -0.055164   -0.013571   -0.014018
  C     -0.928187   -0.852641    0.853565
  O     -1.917389   -1.737420    0.397676
  C      0.564454   -1.050707    0.952797
  N      1.329968   -1.733538   -0.153599
  C      0.414694   -2.255148   -1.200586
  C      0.671339   -0.801305   -1.126597
  H      0.957489    1.879200   -0.212819
  H     -0.718336    1.886507   -0.781766
  H     -0.374643    1.886474    0.953782
  H     -1.260144   -0.266048    1.715907
  H     -2.028337   -2.419613    1.069810
  H      1.097911   -0.919464    1.888155
  H      0.970520   -2.796428   -1.962356
  H     -0.550447   -2.660486   -0.939581
  H      1.272066   -0.272965   -1.861550

 Total Charge           Charge          ....    0
 Multiplicity           Mult            ....    1
 Number of Electrons    NEL             ....   60
 Basis Dimension        Dim             ....  302

ORBITAL ENERGIES
----------------

  NO   OCC          E(Eh)            E(eV)
   0   2.0000     -20.569707      -559.7302
   1   2.0000     -15.558075      -423.3567
   2   2.0000     -11.296537      -307.3944
   3   2.0000     -11.264053      -306.5105
   4   2.0000     -11.262212      -306.4604
   5   2.0000     -11.250139      -306.1318
   6   2.0000     -11.249255      -306.1078
   7   2.0000     -11.226419      -305.4864
   8   2.0000      -1.379358       -37.5342
   9   2.0000      -1.293151       -35.1884
  10   2.0000      -1.114542       -30.3282
  11   2.0000      -0.982440       -26.7336
  12   2.0000      -0.905128       -24.6298
  13   2.0000      -0.863866       -23.5070
  14   2.0000      -0.784044       -21.3349
  15   2.0000      -0.743384       -20.2285
  16   2.0000      -0.704799       -19.1786
  17   2.0000      -0.666243       -18.1294
  18   2.0000      -0.628971       -17.1152
  19   2.0000      -0.604010       -16.4360
  20   2.0000      -0.583815       -15.8864
  21   2.0000      -0.573655       -15.6099
  22   2.0000      -0.562059       -15.2944
  23   2.0000      -0.552898       -15.0451
  24   2.0000      -0.494927       -13.4676
  25   2.0000      -0.459704       -12.5092
  26   2.0000      -0.457593       -12.4517
  27   2.0000      -0.450214       -12.2509
  28   2.0000      -0.369469       -10.0538
  29   2.0000      -0.337124        -9.1736
  30   0.0000       0.136513         3.7147
  31   0.0000       0.142871         3.8877
  32   0.0000       0.173608         4.7241
  33   0.0000       0.181181         4.9302
  34   0.0000       0.190810         5.1922

MULLIKEN ATOMIC CHARGES
-----------------------
   0 C :   -0.415283
   1 C :    0.075557
   2 C :   -0.007956
   3 O :   -0.466033
   4 C :   -0.084123
   5 N :   -0.239060
   6 C :   -0.147185
   7 C :   -0.096692
   8 H :    0.138345
   9 H :    0.142481
  10 H :    0.129166
  11 H :    0.102452
  12 H :    0.325583
  13 H :    0.130050
  14 H :    0.123248
  15 H :    0.152511
  16 H :    0.136938
Sum of atomic charges:   -0.0000000

LOEWDIN ATOMIC CHARGES
----------------------
   0 C :   -0.271280
   1 C :   -0.199693
   2 C :   -0.294431
   3 O :   -0.009968
   4 C :   -0.178168
   5 N :    0.114257
   6 C :   -0.235363
   7 C :   -0.181351
   8 H :    0.129910
   9 H :    0.132345
  10 H :    0.129562
  11 H :    0.150379
  12 H :    0.180517
  13 H :    0.133507
  14 H :    0.132606
  15 H :    0.129046
  16 H :    0.138124

  Mayer bond orders larger than 0.1
B(  0-C ,  1-C ) :   0.8867 B(  0-C ,  8-H ) :   0.9404 B(  0-C ,  9-H ) :   0.9393
B(  0-C , 10-H ) :   0.9357 B(  1-C ,  2-C ) :   0.8508 B(  1-C ,  3-O ) :  -0.1099
B(  1-C ,  4-C ) :   0.8551 B(  1-C ,  7-C ) :   0.9224 B(  2-C ,  3-O ) :   1.0364
B(  2-C ,  4-C ) :   0.8942 B(  2-C , 11-H ) :   0.9524 B(  3-O , 12-H ) :   0.8375
B(  4-C ,  5-N ) :   0.9360 B(  4-C , 13-H ) :   0.9170 B(  5-N ,  6-C ) :   0.8852
B(  5-N ,  7-C ) :   0.8793 B(  6-C ,  7-C ) :   0.9542 B(  6-C , 14-H ) :   0.9229
B(  6-C , 15-H ) :   0.8922 B(  7-C , 16-H ) :   0.8954

MP2 TOTAL ENERGY:     -363.141886079 Eh
FINAL SINGLE POINT ENERGY      -363.141886078509

DIPOLE MOMENT
-------------
                                X             Y             Z
Electronic contribution:     -0.11266      -3.71005       0.33477
Nuclear contribution   :     -0.21744       3.94571       0.07141
                        -----------------------------------------
Total Dipole Moment    :     -0.33010       0.23566       0.40618
                        -----------------------------------------
Magnitude (a.u.)       :      0.57401
Magnitude (Debye)      :      1.45902

                             ****ORCA TERMINATED NORMALLY****
TOTAL RUN TIME: 0 days 0 hours 12 minutes 48 seconds 129 msec
