                         Program Version 3.0.3 - RELEASE   -
|  1> ! RI-MP2 RIJK def2-TZVP def2-TZVP/C def2-TZVP/JK TIGHTSCF
|  2> % maxcore 2000
|  3> % mp2 density relaxed end
|  4> *xyz 0 1
|  5>  O        0.3883369593     1.0915943772    -0.6726397213
|  6>  C        0.0449264249    -0.2540087308    -0.3771133298
|  7>  C       -1.3260868212    -0.3751604295     0.2798623924
|  8>  C       -2.5310245864    -0.2218654965    -0.7107586950
|  9>  C       -2.6691641713    -1.7425032802    -0.6990212612
| 10>  C       -3.5872542602    -2.6975139721    -1.3094802712
| 11>  O       -2.2553959342    -2.5122366116    -1.8321041255
| 12>  C       -1.7807909567    -1.8582706962     0.5454664666
| 13>  O       -0.8421195923    -2.8956939125     0.5347043331
| 14>  H       -0.2383367258     1.4202941033    -1.3249698259
| 15>  H        0.0939818643    -0.8838630990    -1.2791109682
| 16>  H        0.8126930885    -0.6184648975     0.3109808121
| 17>  H       -1.3597014437     0.2798963586     1.1536662177
| 18>  H       -3.3929652584     0.2908867157    -0.2763040936
| 19>  H       -2.3193048488     0.2115270365    -1.6930118548
| 20>  H       -3.7646674525    -3.6581991097    -0.8284600117
| 21>  H       -4.3850423722    -2.3469011999    -1.9621475881
| 22>  H       -2.3620487747    -1.9278032342     1.4717106305
| 23>  H       -0.7754618586    -3.1849189717    -0.3865759060
| 24> *
| 25>
| 26>                          ****END OF INPUT****

CARTESIAN COORDINATES (ANGSTROEM)
---------------------------------
  O      0.388337    1.091594   -0.672640
  C      0.044926   -0.254009   -0.377113
  C     -1.326087   -0.375160    0.279862
  C     -2.531025   -0.221865   -0.710759
  C     -2.669164   -1.742503   -0.699021
  C     -3.587254   -2.697514   -1.309480
  O     -2.255396   -2.512237   -1.832104
  C     -1.780791   -1.858271    0.545466
  O     -0.842120   -2.895694    0.534704
  H     -0.238337    1.420294   -1.324970
  H      0.093982   -0.883863   -1.279111
  H      0.812693   -0.618465    0.310981
  H     -1.359701    0.279896    1.153666
  H     -3.392965    0.290887   -0.276304
  H     -2.319305    0.211527   -1.693012
  H     -3.764667   -3.658199   -0.828460
  H     -4.385042   -2.346901   -1.962148
  H     -2.362049   -1.927803    1.471711
  H     -0.775462   -3.184919   -0.386576

 Total Charge           Charge          ....    0
 Multiplicity           Mult            ....    1
 Number of Electrons    NEL             ....   70
 Basis Dimension        Dim             ....  339

ORBITAL ENERGIES
----------------

  NO   OCC          E(Eh)            E(eV)
   0   2.0000     -20.584988      -560.1460
   1   2.0000     -20.560907      -559.4907
   2   2.0000     -20.555156      -559.3342
   3   2.0000     -11.303199      -307.5757
   4   2.0000     -11.297627      -307.4241
   5   2.0000     -11.291871      -307.2674
   6   2.0000     -11.274025      -306.7818
   7   2.0000     -11.244043      -305.9660
   8   2.0000     -11.237679      -305.7928
   9   2.0000      -1.429277       -38.8926
  10   2.0000      -1.369222       -37.2584
  11   2.0000      -1.358800       -36.9748
  12   2.0000      -1.131295       -30.7841
  13   2.0000      -0.967105       -26.3163
  14   2.0000      -0.926475       -25.2107
  15   2.0000      -0.909127       -24.7386
  16   2.0000      -0.831807       -22.6346
  17   2.0000      -0.767104       -20.8740
  18   2.0000      -0.721752       -19.6399
  19   2.0000      -0.703486       -19.1428
  20   2.0000      -0.688865       -18.7450
  21   2.0000      -0.641706       -17.4617
  22   2.0000      -0.621920       -16.9233
  23   2.0000      -0.606456       -16.5025
  24   2.0000      -0.592612       -16.1258
  25   2.0000      -0.578672       -15.7465
  26   2.0000      -0.568574       -15.4717
  27   2.0000      -0.542974       -14.7751
  28   2.0000      -0.510367       -13.8878
  29   2.0000      -0.497718       -13.5436
  30   2.0000      -0.482750       -13.1363
  31   2.0000      -0.454291       -12.3619
  32   2.0000      -0.448043       -12.1919
  33   2.0000      -0.439766       -11.9666
  34   2.0000      -0.409488       -11.1427
  35   0.0000       0.131815         3.5869
  36   0.0000       0.144005         3.9186
  37   0.0000       0.156474         4.2579
  38   0.0000       0.158091         4.3019
  39   0.0000       0.187826         5.1110

MULLIKEN ATOMIC CHARGES
-----------------------
   0 O :   -0.469946
   1 C :   -0.092439
   2 C :   -0.045282
   3 C :   -0.212499
   4 C :    0.013706
   5 C :   -0.057105
   6 O :   -0.365139
   7 C :    0.077372
   8 O :   -0.471135
   9 H :    0.311988
  10 H :    0.112891
  11 H :    0.132300
  12 H :    0.113395
  13 H :    0.134023
  14 H :    0.116416
  15 H :    0.127861
  16 H :    0.126144
  17 H :    0.112386
  18 H :    0.335063
Sum of atomic charges:    0.0000000

LOEWDIN ATOMIC CHARGES
----------------------
   0 O :   -0.045811
   1 C :   -0.325873
   2 C :   -0.214011
   3 C :   -0.182688
   4 C :   -0.303195
   5 C :   -0.232316
   6 O :    0.147940
   7 C :   -0.274975
   8 O :   -0.000083
   9 H :    0.170533
  10 H :    0.121225
  11 H :    0.136282
  12 H :    0.144057
  13 H :    0.141871
  14 H :    0.135727
  15 H :    0.126860
  16 H :    0.125497
  17 H :    0.145277
  18 H :    0.183684

  Mayer bond orders larger than 0.1
B(  0-O ,  1-C ) :   0.9085 B(  0-O ,  9-H ) :   0.8487 B(  1-C ,  2-C ) :   0.8961
B(  1-C , 10-H ) :   0.9349 B(  1-C , 11-H ) :   0.9245 B(  2-C ,  3-C ) :   0.9157
B(  2-C ,  7-C ) :   0.8403 B(  2-C , 12-H ) :   0.9245 B(  3-C ,  4-C ) :   0.8756
B(  3-C , 13-H ) :   0.9084 B(  3-C , 14-H ) :   0.9210 B(  4-C ,  5-C ) :   0.9748
B(  4-C ,  6-O ) :   0.8348 B(  4-C ,  7-C ) :   0.9231 B(  5-C ,  6-O ) :   0.8867
B(  5-C , 15-H ) :   0.9070 B(  5-C , 16-H ) :   0.9207 B(  7-C ,  8-O ) :   1.0210
B(  7-C , 17-H ) :   0.9405 B(  8-O , 18-H ) :   0.8142

MP2 TOTAL ENERGY:     -459.388584375 Eh
FINAL SINGLE POINT ENERGY      -459.388584375423

DIPOLE MOMENT
-------------
                                X             Y             Z
Electronic contribution:      0.57789      -2.07468      -0.34548
Nuclear contribution   :     -1.89793       2.14449       0.06430
                        -----------------------------------------
Total Dipole Moment    :     -1.32004       0.06982      -0.28118
                        -----------------------------------------
Magnitude (a.u.)       :      1.35146
Magnitude (Debye)      :      3.43513

                             ****ORCA TERMINATED NORMALLY****
TOTAL RUN TIME: 0 days 0 hours 28 minutes 13 seconds 142 msec
