                         Program Version 3.0.3 - RELEASE   -
|  1> ! RI-MP2 RIJK def2-TZVP def2-TZVP/C def2-TZVP/JK TIGHTSCF
|  2> % maxcore 2000
|  3> % mp2 density relaxed end
|  4> *xyz 0 1
|  5>  C        0.0511401324     1.5407664868    -0.1397656689
|  6>  C        0.0442747164     0.0356051876    -0.0932770377
|  7>  C        0.5303779307    -0.9770141364    -1.1318758735
|  8>  N        0.0410839167    -1.9283239613    -0.0451783561
|  9>  C        0.5538063114    -0.9375126606     1.0261521224
| 10>  C       -0.7980788692    -1.0170548989     1.7652918787
| 11>  C       -1.2055311713     0.0745763247     2.6307589925
| 12>  N       -1.5312234669     0.9421265115     3.3226650975
| 13>  C       -1.1209636601    -0.9536056849     0.2579870758
| 14>  H        1.0737071087     1.9163188480    -0.2546542596
| 15>  H       -0.5344608839     1.9008598384    -0.9925765674
| 16>  H       -0.3707783892     1.9748611890     0.7706410729
| 17>  H       -0.0286666920    -1.0643797005    -2.0694965544
| 18>  H        1.6069648688    -1.0486669280    -1.3192855820
| 19>  H        1.5579921762    -1.0297096189     1.4419245810
| 20>  H       -1.0005055588    -1.9875513845     2.2269573660
| 21>  H       -2.0895690100    -1.0647619219    -0.2310978571
| 22> *
| 23>
| 24>                          ****END OF INPUT****

CARTESIAN COORDINATES (ANGSTROEM)
---------------------------------
  C      0.051140    1.540766   -0.139766
  C      0.044275    0.035605   -0.093277
  C      0.530378   -0.977014   -1.131876
  N      0.041084   -1.928324   -0.045178
  C      0.553806   -0.937513    1.026152
  C     -0.798079   -1.017055    1.765292
  C     -1.205531    0.074576    2.630759
  N     -1.531223    0.942127    3.322665
  C     -1.120964   -0.953606    0.257987
  H      1.073707    1.916319   -0.254654
  H     -0.534461    1.900860   -0.992577
  H     -0.370778    1.974861    0.770641
  H     -0.028667   -1.064380   -2.069497
  H      1.606965   -1.048667   -1.319286
  H      1.557992   -1.029710    1.441925
  H     -1.000506   -1.987551    2.226957
  H     -2.089569   -1.064762   -0.231098

 Total Charge           Charge          ....    0
 Multiplicity           Mult            ....    1
 Number of Electrons    NEL             ....   64
 Basis Dimension        Dim             ....  327

ORBITAL ENERGIES
----------------

  NO   OCC          E(Eh)            E(eV)
   0   2.0000     -15.587065      -424.1456
   1   2.0000     -15.574420      -423.8015
   2   2.0000     -11.301129      -307.5194
   3   2.0000     -11.301050      -307.5172
   4   2.0000     -11.290607      -307.2330
   5   2.0000     -11.277554      -306.8778
   6   2.0000     -11.275565      -306.8237
   7   2.0000     -11.269539      -306.6597
   8   2.0000     -11.232574      -305.6539
   9   2.0000      -1.343883       -36.5689
  10   2.0000      -1.222217       -33.2582
  11   2.0000      -1.075717       -29.2718
  12   2.0000      -1.029261       -28.0076
  13   2.0000      -0.911044       -24.7908
  14   2.0000      -0.906534       -24.6681
  15   2.0000      -0.884277       -24.0624
  16   2.0000      -0.748446       -20.3662
  17   2.0000      -0.711169       -19.3519
  18   2.0000      -0.675332       -18.3767
  19   2.0000      -0.637405       -17.3447
  20   2.0000      -0.614248       -16.7145
  21   2.0000      -0.585984       -15.9454
  22   2.0000      -0.583591       -15.8803
  23   2.0000      -0.564513       -15.3612
  24   2.0000      -0.535830       -14.5807
  25   2.0000      -0.508460       -13.8359
  26   2.0000      -0.492986       -13.4148
  27   2.0000      -0.479012       -13.0346
  28   2.0000      -0.452640       -12.3170
  29   2.0000      -0.442908       -12.0521
  30   2.0000      -0.437823       -11.9138
  31   2.0000      -0.396032       -10.7766
  32   0.0000       0.129166         3.5148
  33   0.0000       0.145140         3.9494
  34   0.0000       0.149931         4.0798
  35   0.0000       0.157547         4.2871
  36   0.0000       0.176635         4.8065

MULLIKEN ATOMIC CHARGES
-----------------------
   0 C :   -0.384412
   1 C :   -0.050799
   2 C :   -0.143449
   3 N :   -0.215000
   4 C :   -0.015006
   5 C :   -0.036752
   6 C :   -0.214642
   7 N :   -0.054540
   8 C :   -0.015012
   9 H :    0.136410
  10 H :    0.136410
  11 H :    0.164490
  12 H :    0.120376
  13 H :    0.120377
  14 H :    0.149422
  15 H :    0.152704
  16 H :    0.149422
Sum of atomic charges:    0.0000000

LOEWDIN ATOMIC CHARGES
----------------------
   0 C :   -0.275675
   1 C :   -0.213587
   2 C :   -0.211014
   3 N :    0.134783
   4 C :   -0.119995
   5 C :   -0.182014
   6 C :   -0.171347
   7 N :    0.063935
   8 C :   -0.119996
   9 H :    0.132326
  10 H :    0.132325
  11 H :    0.138110
  12 H :    0.125739
  13 H :    0.125739
  14 H :    0.133295
  15 H :    0.174083
  16 H :    0.133295

  Mayer bond orders larger than 0.1
B(  0-C ,  1-C ) :   0.8836 B(  0-C ,  9-H ) :   0.9316 B(  0-C , 10-H ) :   0.9316
B(  0-C , 11-H ) :   0.9287 B(  1-C ,  2-C ) :   0.9375 B(  1-C ,  4-C ) :   0.9050
B(  1-C ,  8-C ) :   0.9050 B(  2-C ,  3-N ) :   0.9198 B(  2-C , 12-H ) :   0.9235
B(  2-C , 13-H ) :   0.9235 B(  3-N ,  4-C ) :   0.9216 B(  3-N ,  8-C ) :   0.9216
B(  4-C ,  5-C ) :   0.8862 B(  4-C , 14-H ) :   0.8762 B(  5-C ,  6-C ) :   0.9595
B(  5-C ,  8-C ) :   0.8862 B(  5-C , 15-H ) :   0.8787 B(  6-C ,  7-N ) :   2.8527
B(  8-C , 16-H ) :   0.8762

MP2 TOTAL ENERGY:     -380.114219318 Eh
FINAL SINGLE POINT ENERGY      -380.114219317697

DIPOLE MOMENT
-------------
                                X             Y             Z
Electronic contribution:     -2.44995      -2.35271       5.39069
Nuclear contribution   :      2.94674       2.18472      -6.47028
                        -----------------------------------------
Total Dipole Moment    :      0.49679      -0.16799      -1.07959
                        -----------------------------------------
Magnitude (a.u.)       :      1.20022
Magnitude (Debye)      :      3.05073

                             ****ORCA TERMINATED NORMALLY****
TOTAL RUN TIME: 0 days 0 hours 16 minutes 41 seconds 728 msec
