                         Program Version 3.0.3 - RELEASE   -
|  1> ! RI-MP2 RIJK def2-TZVP def2-TZVP/C def2-TZVP/JK TIGHTSCF
|  2> % maxcore 2000
|  3> % mp2 density relaxed end
|  4> *xyz 0 1
|  5>  C       -0.5073368627     0.8838819559     0.2681330082
|  6>  C        0.7371443084     0.1571023139    -0.2186600442
|  7>  O        1.4388599653    -0.4757280732     0.8739009353
|  8>  C        1.0066207908    -1.6879388442     1.2262204123
|  9>  O        0.1003477881    -2.2885541641     0.7085658002
| 10>  C        1.8179406894    -2.2427824165     2.3910269738
| 11>  N        2.6880022708    -1.5370776458     2.9813350500
| 12>  O        1.4292979225    -3.5126472678     2.6271344939
| 13>  C        2.0692264807    -4.1990279008     3.6922460514
| 14>  H       -0.2535297192     1.6090750178     1.0463314013
| 15>  H       -0.9701169081     1.4204845575    -0.5662605255
| 16>  H       -1.2366253577     0.1748074183     0.6665883123
| 17>  H        0.4846077278    -0.6023487330    -0.9625825789
| 18>  H        1.4669795051     0.8518374833    -0.6397277053
| 19>  H        3.1441263733    -2.0340604161     3.7461801008
| 20>  H        3.1487952959    -4.2871492588     3.5186553636
| 21>  H        1.8971947460    -3.6954936652     4.6514640775
| 22>  H        1.6237369933    -5.1934440211     3.7194650932
| 23> *
| 24>
| 25>                          ****END OF INPUT****

CARTESIAN COORDINATES (ANGSTROEM)
---------------------------------
  C     -0.507337    0.883882    0.268133
  C      0.737144    0.157102   -0.218660
  O      1.438860   -0.475728    0.873901
  C      1.006621   -1.687939    1.226220
  O      0.100348   -2.288554    0.708566
  C      1.817941   -2.242782    2.391027
  N      2.688002   -1.537078    2.981335
  O      1.429298   -3.512647    2.627134
  C      2.069226   -4.199028    3.692246
  H     -0.253530    1.609075    1.046331
  H     -0.970117    1.420485   -0.566261
  H     -1.236625    0.174807    0.666588
  H      0.484608   -0.602349   -0.962583
  H      1.466980    0.851837   -0.639728
  H      3.144126   -2.034060    3.746180
  H      3.148795   -4.287149    3.518655
  H      1.897195   -3.695494    4.651464
  H      1.623737   -5.193444    3.719465

 Total Charge           Charge          ....    0
 Multiplicity           Mult            ....    1
 Number of Electrons    NEL             ....   70
 Basis Dimension        Dim             ....  333

ORBITAL ENERGIES
----------------

  NO   OCC          E(Eh)            E(eV)
   0   2.0000     -20.609736      -560.8194
   1   2.0000     -20.601422      -560.5932
   2   2.0000     -20.551306      -559.2295
   3   2.0000     -15.562075      -423.4656
   4   2.0000     -11.389676      -309.9288
   5   2.0000     -11.359691      -309.1129
   6   2.0000     -11.302520      -307.5572
   7   2.0000     -11.289016      -307.1897
   8   2.0000     -11.221096      -305.3415
   9   2.0000      -1.470745       -40.0210
  10   2.0000      -1.440329       -39.1934
  11   2.0000      -1.365775       -37.1646
  12   2.0000      -1.214716       -33.0541
  13   2.0000      -1.041186       -28.3321
  14   2.0000      -0.999960       -27.2103
  15   2.0000      -0.913698       -24.8630
  16   2.0000      -0.840135       -22.8612
  17   2.0000      -0.763515       -20.7763
  18   2.0000      -0.742736       -20.2109
  19   2.0000      -0.715518       -19.4702
  20   2.0000      -0.685865       -18.6633
  21   2.0000      -0.674617       -18.3573
  22   2.0000      -0.652125       -17.7452
  23   2.0000      -0.642250       -17.4765
  24   2.0000      -0.598460       -16.2849
  25   2.0000      -0.572279       -15.5725
  26   2.0000      -0.549816       -14.9613
  27   2.0000      -0.542676       -14.7670
  28   2.0000      -0.531557       -14.4644
  29   2.0000      -0.520142       -14.1538
  30   2.0000      -0.496707       -13.5161
  31   2.0000      -0.485223       -13.2036
  32   2.0000      -0.457019       -12.4361
  33   2.0000      -0.441418       -12.0116
  34   2.0000      -0.422491       -11.4966
  35   0.0000       0.104940         2.8556
  36   0.0000       0.131028         3.5655
  37   0.0000       0.151617         4.1257
  38   0.0000       0.183244         4.9863
  39   0.0000       0.189906         5.1676

MULLIKEN ATOMIC CHARGES
-----------------------
   0 C :   -0.411436
   1 C :   -0.046924
   2 O :   -0.212608
   3 C :    0.347375
   4 O :   -0.314318
   5 C :    0.135490
   6 N :   -0.350791
   7 O :   -0.212304
   8 C :   -0.279770
   9 H :    0.136191
  10 H :    0.131312
  11 H :    0.153523
  12 H :    0.127771
  13 H :    0.131991
  14 H :    0.219430
  15 H :    0.142125
  16 H :    0.142116
  17 H :    0.160825
Sum of atomic charges:    0.0000000

LOEWDIN ATOMIC CHARGES
----------------------
   0 C :   -0.317205
   1 C :   -0.297031
   2 O :    0.281634
   3 C :   -0.457455
   4 O :    0.140768
   5 C :   -0.392281
   6 N :   -0.029746
   7 O :    0.250214
   8 C :   -0.327720
   9 H :    0.125596
  10 H :    0.128440
  11 H :    0.128466
  12 H :    0.131050
  13 H :    0.129992
  14 H :    0.161740
  15 H :    0.110630
  16 H :    0.110628
  17 H :    0.122281

  Mayer bond orders larger than 0.1
B(  0-C ,  1-C ) :   0.9340 B(  0-C ,  9-H ) :   0.9321 B(  0-C , 10-H ) :   0.9288
B(  0-C , 11-H ) :   0.9362 B(  1-C ,  2-O ) :   0.8197 B(  1-C , 12-H ) :   0.9353
B(  1-C , 13-H ) :   0.9296 B(  2-O ,  3-C ) :   1.1861 B(  3-C ,  4-O ) :   1.9181
B(  3-C ,  5-C ) :   0.9016 B(  5-C ,  6-N ) :   1.9383 B(  5-C ,  7-O ) :   1.1631
B(  6-N , 14-H ) :   0.8592 B(  7-O ,  8-C ) :   0.8606 B(  8-C , 15-H ) :   0.9308
B(  8-C , 16-H ) :   0.9307 B(  8-C , 17-H ) :   0.9366

MP2 TOTAL ENERGY:     -475.491709071 Eh
FINAL SINGLE POINT ENERGY      -475.491709071443

DIPOLE MOMENT
-------------
                                X             Y             Z
Electronic contribution:      1.63562      -3.28678      -0.06203
Nuclear contribution   :     -1.31974       3.05067       0.53713
                        -----------------------------------------
Total Dipole Moment    :      0.31588      -0.23611       0.47510
                        -----------------------------------------
Magnitude (a.u.)       :      0.61746
Magnitude (Debye)      :      1.56945

                             ****ORCA TERMINATED NORMALLY****
TOTAL RUN TIME: 0 days 0 hours 15 minutes 17 seconds 393 msec
