                         Program Version 3.0.3 - RELEASE   -
|  1> ! RI-MP2 RIJK def2-TZVP def2-TZVP/C def2-TZVP/JK TIGHTSCF
|  2> % maxcore 2000
|  3> % mp2 density relaxed end
|  4> *xyz 0 1
|  5>  O        0.0683320351     1.4306463146    -0.1056605332
|  6>  C        0.0429812098     0.0228757740     0.0367213405
|  7>  C        0.5251039837    -0.4985296591     1.3984790041
|  8>  O       -0.0640910193    -1.7810355513     1.5302790234
|  9>  C       -1.3430366508    -1.7896020421     0.8755798640
| 10>  C       -2.5130492185    -1.6853805701     1.8858375451
| 11>  C       -2.9855115885    -0.2604561180     1.7451635184
| 12>  C       -2.3989891138     0.3729881196     0.7307220882
| 13>  C       -1.4058759485    -0.5020112725     0.0027603776
| 14>  H        0.9870365108     1.7131865633    -0.1442948945
| 15>  H        0.6225016649    -0.4611511370    -0.7634345121
| 16>  H        1.6114194979    -0.6185575688     1.4667137182
| 17>  H        0.1960616656     0.1952171354     2.1874752706
| 18>  H       -1.3886279942    -2.7159928592     0.2960535856
| 19>  H       -3.3146350474    -2.3985425033     1.6504627870
| 20>  H       -2.1582237435    -1.9326413006     2.8927707936
| 21>  H       -3.7381669361     0.1715929960     2.3963277650
| 22>  H       -2.5825928198     1.3970068349     0.4311418191
| 23>  H       -1.7225755975    -0.6969774257    -1.0273470207
| 24> *
| 25>
| 26>                          ****END OF INPUT****

CARTESIAN COORDINATES (ANGSTROEM)
---------------------------------
  O      0.068332    1.430646   -0.105661
  C      0.042981    0.022876    0.036721
  C      0.525104   -0.498530    1.398479
  O     -0.064091   -1.781036    1.530279
  C     -1.343037   -1.789602    0.875580
  C     -2.513049   -1.685381    1.885838
  C     -2.985512   -0.260456    1.745164
  C     -2.398989    0.372988    0.730722
  C     -1.405876   -0.502011    0.002760
  H      0.987037    1.713187   -0.144295
  H      0.622502   -0.461151   -0.763435
  H      1.611419   -0.618558    1.466714
  H      0.196062    0.195217    2.187475
  H     -1.388628   -2.715993    0.296054
  H     -3.314635   -2.398543    1.650463
  H     -2.158224   -1.932641    2.892771
  H     -3.738167    0.171593    2.396328
  H     -2.582593    1.397007    0.431142
  H     -1.722576   -0.696977   -1.027347

 Total Charge           Charge          ....    0
 Multiplicity           Mult            ....    1
 Number of Electrons    NEL             ....   68
 Basis Dimension        Dim             ....  339

ORBITAL ENERGIES
----------------

  NO   OCC          E(Eh)            E(eV)
   0   2.0000     -20.564906      -559.5995
   1   2.0000     -20.549669      -559.1849
   2   2.0000     -11.283785      -307.0474
   3   2.0000     -11.278024      -306.8906
   4   2.0000     -11.269014      -306.6455
   5   2.0000     -11.231891      -305.6353
   6   2.0000     -11.223791      -305.4149
   7   2.0000     -11.221539      -305.3536
   8   2.0000     -11.220140      -305.3155
   9   2.0000      -1.381562       -37.5942
  10   2.0000      -1.363551       -37.1041
  11   2.0000      -1.126823       -30.6624
  12   2.0000      -1.027951       -27.9720
  13   2.0000      -0.967198       -26.3188
  14   2.0000      -0.932968       -25.3873
  15   2.0000      -0.815812       -22.1994
  16   2.0000      -0.777016       -21.1437
  17   2.0000      -0.739999       -20.1364
  18   2.0000      -0.707139       -19.2422
  19   2.0000      -0.684329       -18.6215
  20   2.0000      -0.662769       -18.0348
  21   2.0000      -0.630148       -17.1472
  22   2.0000      -0.601929       -16.3793
  23   2.0000      -0.580976       -15.8092
  24   2.0000      -0.553104       -15.0507
  25   2.0000      -0.536394       -14.5960
  26   2.0000      -0.528282       -14.3753
  27   2.0000      -0.519003       -14.1228
  28   2.0000      -0.504775       -13.7356
  29   2.0000      -0.477041       -12.9809
  30   2.0000      -0.457208       -12.4413
  31   2.0000      -0.438335       -11.9277
  32   2.0000      -0.408323       -11.1110
  33   2.0000      -0.346984        -9.4419
  34   0.0000       0.127794         3.4775
  35   0.0000       0.148649         4.0449
  36   0.0000       0.158136         4.3031
  37   0.0000       0.173637         4.7249
  38   0.0000       0.185891         5.0584

MULLIKEN ATOMIC CHARGES
-----------------------
   0 O :   -0.458418
   1 C :    0.013468
   2 C :   -0.058775
   3 O :   -0.324830
   4 C :    0.050303
   5 C :   -0.176393
   6 C :   -0.193672
   7 C :   -0.222085
   8 C :    0.028604
   9 H :    0.318527
  10 H :    0.085843
  11 H :    0.112489
  12 H :    0.097026
  13 H :    0.102554
  14 H :    0.115334
  15 H :    0.130238
  16 H :    0.125694
  17 H :    0.138094
  18 H :    0.116001
Sum of atomic charges:   -0.0000000

LOEWDIN ATOMIC CHARGES
----------------------
   0 O :   -0.009886
   1 C :   -0.325923
   2 C :   -0.300834
   3 O :    0.164825
   4 C :   -0.239243
   5 C :   -0.224285
   6 C :   -0.159016
   7 C :   -0.135414
   8 C :   -0.187765
   9 H :    0.177194
  10 H :    0.135037
  11 H :    0.123207
  12 H :    0.124640
  13 H :    0.136722
  14 H :    0.141017
  15 H :    0.145590
  16 H :    0.136290
  17 H :    0.142445
  18 H :    0.155398

  Mayer bond orders larger than 0.1
B(  0-O ,  1-C ) :   1.0633 B(  0-O ,  8-C ) :  -0.1005 B(  0-O ,  9-H ) :   0.8443
B(  1-C ,  2-C ) :   0.9316 B(  1-C ,  8-C ) :   0.8674 B(  1-C , 10-H ) :   0.9431
B(  2-C ,  3-O ) :   0.9506 B(  2-C , 11-H ) :   0.9226 B(  2-C , 12-H ) :   0.9093
B(  3-O ,  4-C ) :   0.9323 B(  4-C ,  5-C ) :   0.9238 B(  4-C ,  8-C ) :   0.9403
B(  4-C , 13-H ) :   0.9285 B(  5-C ,  6-C ) :   0.9326 B(  5-C , 14-H ) :   0.9105
B(  5-C , 15-H ) :   0.9136 B(  6-C ,  7-C ) :   1.7763 B(  6-C , 16-H ) :   0.9268
B(  7-C ,  8-C ) :   0.9191 B(  7-C , 17-H ) :   0.9256 B(  8-C , 18-H ) :   0.9099

MP2 TOTAL ENERGY:     -422.334092219 Eh
FINAL SINGLE POINT ENERGY      -422.334092218739

DIPOLE MOMENT
-------------
                                X             Y             Z
Electronic contribution:      1.13844       0.44818      -0.71481
Nuclear contribution   :     -0.88812      -0.31229       0.43923
                        -----------------------------------------
Total Dipole Moment    :      0.25032       0.13589      -0.27558
                        -----------------------------------------
Magnitude (a.u.)       :      0.39632
Magnitude (Debye)      :      1.00737

                             ****ORCA TERMINATED NORMALLY****
TOTAL RUN TIME: 0 days 0 hours 17 minutes 24 seconds 276 msec
