                         Program Version 3.0.3 - RELEASE   -
|  1> ! RI-MP2 RIJK def2-TZVP def2-TZVP/C def2-TZVP/JK TIGHTSCF
|  2> % maxcore 2000
|  3> % mp2 density relaxed end
|  4> *xyz 0 1
|  5>  C       -0.3692840897     1.4621953805    -0.0835449981
|  6>  C       -0.0418145351    -0.0137239458     0.0219115537
|  7>  C        1.3039937977    -0.6164991489    -0.3310819116
|  8>  C        2.5062993253     0.2984082839    -0.4353254336
|  9>  C        2.6159033641     0.9986462270     0.9286523914
| 10>  O        3.3157361295     1.9459765684     1.1744982156
| 11>  C        1.6854940179     0.2926983740     1.9267697468
| 12>  C        0.8025054134    -0.6406036643     1.1136817176
| 13>  C        0.3335052008    -1.9169179184     1.7731066085
| 14>  H        0.4605837637     2.1140024060     0.2017409545
| 15>  H       -0.6466067381     1.7232894113    -1.1108372069
| 16>  H       -1.2172881777     1.7180573075     0.5613366018
| 17>  H       -0.8770946933    -0.6451950159    -0.2742915273
| 18>  H        1.3086090126    -1.5323773425    -0.9127572873
| 19>  H        3.4275704493    -0.2761414746    -0.5960912200
| 20>  H        2.4606001823     1.0468686466    -1.2329083666
| 21>  H        2.3127022210    -0.2805842028     2.6229455253
| 22>  H        1.1517086035     1.0355956387     2.5281356738
| 23>  H       -0.3451820005    -1.7111884312     2.6095367159
| 24>  H       -0.2027361209    -2.5545898702     1.0628232593
| 25>  H        1.1778828539    -2.4946378993     2.1684973671
| 26> *
| 27>
| 28>                          ****END OF INPUT****

CARTESIAN COORDINATES (ANGSTROEM)
---------------------------------
  C     -0.369284    1.462195   -0.083545
  C     -0.041815   -0.013724    0.021912
  C      1.303994   -0.616499   -0.331082
  C      2.506299    0.298408   -0.435325
  C      2.615903    0.998646    0.928652
  O      3.315736    1.945977    1.174498
  C      1.685494    0.292698    1.926770
  C      0.802505   -0.640604    1.113682
  C      0.333505   -1.916918    1.773107
  H      0.460584    2.114002    0.201741
  H     -0.646607    1.723289   -1.110837
  H     -1.217288    1.718057    0.561337
  H     -0.877095   -0.645195   -0.274292
  H      1.308609   -1.532377   -0.912757
  H      3.427570   -0.276141   -0.596091
  H      2.460600    1.046869   -1.232908
  H      2.312702   -0.280584    2.622946
  H      1.151709    1.035596    2.528136
  H     -0.345182   -1.711188    2.609537
  H     -0.202736   -2.554590    1.062823
  H      1.177883   -2.494638    2.168497

 Total Charge           Charge          ....    0
 Multiplicity           Mult            ....    1
 Number of Electrons    NEL             ....   68
 Basis Dimension        Dim             ....  351

ORBITAL ENERGIES
----------------

  NO   OCC          E(Eh)            E(eV)
   0   2.0000     -20.542329      -558.9852
   1   2.0000     -11.328107      -308.2535
   2   2.0000     -11.244918      -305.9898
   3   2.0000     -11.238510      -305.8154
   4   2.0000     -11.236822      -305.7695
   5   2.0000     -11.236088      -305.7495
   6   2.0000     -11.235924      -305.7450
   7   2.0000     -11.226254      -305.4819
   8   2.0000     -11.224667      -305.4387
   9   2.0000      -1.387586       -37.7581
  10   2.0000      -1.189348       -32.3638
  11   2.0000      -1.026124       -27.9222
  12   2.0000      -1.011672       -27.5290
  13   2.0000      -0.972697       -26.4684
  14   2.0000      -0.927680       -25.2435
  15   2.0000      -0.780989       -21.2518
  16   2.0000      -0.752339       -20.4722
  17   2.0000      -0.734152       -19.9773
  18   2.0000      -0.670767       -18.2525
  19   2.0000      -0.645591       -17.5674
  20   2.0000      -0.616195       -16.7675
  21   2.0000      -0.599731       -16.3195
  22   2.0000      -0.591683       -16.1005
  23   2.0000      -0.581770       -15.8308
  24   2.0000      -0.564556       -15.3624
  25   2.0000      -0.552511       -15.0346
  26   2.0000      -0.548331       -14.9208
  27   2.0000      -0.539553       -14.6820
  28   2.0000      -0.508645       -13.8409
  29   2.0000      -0.495510       -13.4835
  30   2.0000      -0.482187       -13.1210
  31   2.0000      -0.400424       -10.8961
  32   2.0000      -0.396961       -10.8018
  33   2.0000      -0.389376       -10.5954
  34   0.0000       0.123141         3.3508
  35   0.0000       0.133293         3.6271
  36   0.0000       0.155891         4.2420
  37   0.0000       0.166542         4.5318
  38   0.0000       0.170164         4.6304

MULLIKEN ATOMIC CHARGES
-----------------------
   0 C :   -0.420832
   1 C :   -0.144590
   2 C :   -0.122555
   3 C :   -0.214718
   4 C :    0.068177
   5 O :   -0.259965
   6 C :   -0.211763
   7 C :    0.098082
   8 C :   -0.407715
   9 H :    0.149918
  10 H :    0.136218
  11 H :    0.136045
  12 H :    0.117263
  13 H :    0.127723
  14 H :    0.141072
  15 H :    0.137787
  16 H :    0.137109
  17 H :    0.140474
  18 H :    0.136044
  19 H :    0.128135
  20 H :    0.128090
Sum of atomic charges:   -0.0000000

LOEWDIN ATOMIC CHARGES
----------------------
   0 C :   -0.286258
   1 C :   -0.193549
   2 C :   -0.165282
   3 C :   -0.207561
   4 C :   -0.309619
   5 O :    0.151663
   6 C :   -0.181457
   7 C :   -0.229304
   8 C :   -0.269272
   9 H :    0.132535
  10 H :    0.128554
  11 H :    0.128334
  12 H :    0.154045
  13 H :    0.144819
  14 H :    0.157097
  15 H :    0.151015
  16 H :    0.159172
  17 H :    0.152762
  18 H :    0.127929
  19 H :    0.128346
  20 H :    0.126029

  Mayer bond orders larger than 0.1
B(  0-C ,  1-C ) :   0.8990 B(  0-C ,  9-H ) :   0.9356 B(  0-C , 10-H ) :   0.9342
B(  0-C , 11-H ) :   0.9357 B(  1-C ,  2-C ) :   0.8776 B(  1-C ,  7-C ) :   0.8751
B(  1-C , 12-H ) :   0.9340 B(  2-C ,  3-C ) :   0.9128 B(  2-C ,  7-C ) :   0.8021
B(  2-C , 13-H ) :   0.9191 B(  3-C ,  4-C ) :   0.9239 B(  3-C ,  6-C ) :  -0.1209
B(  3-C , 14-H ) :   0.9060 B(  3-C , 15-H ) :   0.9015 B(  4-C ,  5-O ) :   2.0748
B(  4-C ,  6-C ) :   0.9119 B(  6-C ,  7-C ) :   0.9122 B(  6-C , 16-H ) :   0.9070
B(  6-C , 17-H ) :   0.9020 B(  7-C ,  8-C ) :   0.8892 B(  8-C , 18-H ) :   0.9399
B(  8-C , 19-H ) :   0.9351 B(  8-C , 20-H ) :   0.9364

MP2 TOTAL ENERGY:     -386.440812329 Eh
FINAL SINGLE POINT ENERGY      -386.440812329187

DIPOLE MOMENT
-------------
                                X             Y             Z
Electronic contribution:      6.06879       3.35466       0.38207
Nuclear contribution   :     -6.77206      -4.22156      -0.58786
                        -----------------------------------------
Total Dipole Moment    :     -0.70327      -0.86690      -0.20579
                        -----------------------------------------
Magnitude (a.u.)       :      1.13510
Magnitude (Debye)      :      2.88519

                             ****ORCA TERMINATED NORMALLY****
TOTAL RUN TIME: 0 days 0 hours 21 minutes 29 seconds 970 msec
