                         Program Version 3.0.3 - RELEASE   -
|  1> ! RI-MP2 RIJK def2-TZVP def2-TZVP/C def2-TZVP/JK TIGHTSCF
|  2> % maxcore 2000
|  3> % mp2 density relaxed end
|  4> *xyz 0 1
|  5>  C        0.0742922821     1.5019456999     0.0914184242
|  6>  C       -0.0358238617    -0.0280372438     0.0336655985
|  7>  O        0.5708524721    -0.5010999205     1.2443829682
|  8>  C       -1.4445886197    -0.4480432066    -0.0153599302
|  9>  C       -2.5839486310    -0.8310760195    -0.0562317554
| 10>  C        0.7023804418    -0.5781834766    -1.2041739372
| 11>  C        2.2465566736    -0.4143933699    -1.2747325306
| 12>  C        2.3246601503    -1.8342170033    -1.8975137955
| 13>  C        0.8954107716    -2.1120421764    -1.3583487358
| 14>  H        1.1277030329     1.7857902191     0.1629864050
| 15>  H       -0.3568690953     1.9551732718    -0.8045375604
| 16>  H       -0.4506700077     1.8820278279     0.9701443387
| 17>  H        0.2586260586    -1.3985687526     1.3985408340
| 18>  H       -3.5942290272    -1.1572911803    -0.0874731783
| 19>  H        0.2243546120    -0.1672186704    -2.0993736922
| 20>  H        2.6450710702     0.4216140490    -1.8540584750
| 21>  H        2.6728662684    -0.3908802681    -0.2685924099
| 22>  H        2.3437596592    -1.7982965816    -2.9904961588
| 23>  H        3.1288818779    -2.4910201344    -1.5582945257
| 24>  H        0.9324014263    -2.6129726638    -0.3857023671
| 25>  H        0.1945558157    -2.6499287101    -1.9998047165
| 26> *
| 27>
| 28>                          ****END OF INPUT****

CARTESIAN COORDINATES (ANGSTROEM)
---------------------------------
  C      0.074292    1.501946    0.091418
  C     -0.035824   -0.028037    0.033666
  O      0.570852   -0.501100    1.244383
  C     -1.444589   -0.448043   -0.015360
  C     -2.583949   -0.831076   -0.056232
  C      0.702380   -0.578183   -1.204174
  C      2.246557   -0.414393   -1.274733
  C      2.324660   -1.834217   -1.897514
  C      0.895411   -2.112042   -1.358349
  H      1.127703    1.785790    0.162986
  H     -0.356869    1.955173   -0.804538
  H     -0.450670    1.882028    0.970144
  H      0.258626   -1.398569    1.398541
  H     -3.594229   -1.157291   -0.087473
  H      0.224355   -0.167219   -2.099374
  H      2.645071    0.421614   -1.854058
  H      2.672866   -0.390880   -0.268592
  H      2.343760   -1.798297   -2.990496
  H      3.128882   -2.491020   -1.558295
  H      0.932401   -2.612973   -0.385702
  H      0.194556   -2.649929   -1.999805

 Total Charge           Charge          ....    0
 Multiplicity           Mult            ....    1
 Number of Electrons    NEL             ....   68
 Basis Dimension        Dim             ....  351

ORBITAL ENERGIES
----------------

  NO   OCC          E(Eh)            E(eV)
   0   2.0000     -20.560109      -559.4690
   1   2.0000     -11.312476      -307.8281
   2   2.0000     -11.235874      -305.7437
   3   2.0000     -11.231769      -305.6320
   4   2.0000     -11.230036      -305.5848
   5   2.0000     -11.221851      -305.3621
   6   2.0000     -11.220556      -305.3268
   7   2.0000     -11.219383      -305.2949
   8   2.0000     -11.217732      -305.2500
   9   2.0000      -1.369454       -37.2647
  10   2.0000      -1.134366       -30.8677
  11   2.0000      -1.064909       -28.9777
  12   2.0000      -1.002175       -27.2706
  13   2.0000      -0.913716       -24.8635
  14   2.0000      -0.896542       -24.3962
  15   2.0000      -0.838717       -22.8227
  16   2.0000      -0.751299       -20.4439
  17   2.0000      -0.742249       -20.1976
  18   2.0000      -0.696380       -18.9495
  19   2.0000      -0.670080       -18.2338
  20   2.0000      -0.650143       -17.6913
  21   2.0000      -0.598053       -16.2738
  22   2.0000      -0.569382       -15.4937
  23   2.0000      -0.548991       -14.9388
  24   2.0000      -0.542910       -14.7733
  25   2.0000      -0.534599       -14.5472
  26   2.0000      -0.528777       -14.3887
  27   2.0000      -0.481908       -13.1134
  28   2.0000      -0.478802       -13.0289
  29   2.0000      -0.454283       -12.3617
  30   2.0000      -0.439288       -11.9536
  31   2.0000      -0.435489       -11.8503
  32   2.0000      -0.398633       -10.8474
  33   2.0000      -0.386380       -10.5139
  34   0.0000       0.128656         3.5009
  35   0.0000       0.149253         4.0614
  36   0.0000       0.155179         4.2226
  37   0.0000       0.162169         4.4128
  38   0.0000       0.170942         4.6516

MULLIKEN ATOMIC CHARGES
-----------------------
   0 C :   -0.382321
   1 C :    0.066686
   2 O :   -0.466840
   3 C :   -0.072745
   4 C :   -0.139121
   5 C :   -0.005094
   6 C :   -0.276265
   7 C :   -0.194370
   8 C :   -0.248360
   9 H :    0.142415
  10 H :    0.128976
  11 H :    0.142740
  12 H :    0.320510
  13 H :    0.193083
  14 H :    0.105813
  15 H :    0.119444
  16 H :    0.133805
  17 H :    0.111763
  18 H :    0.115528
  19 H :    0.082327
  20 H :    0.122026
Sum of atomic charges:   -0.0000000

LOEWDIN ATOMIC CHARGES
----------------------
   0 C :   -0.244600
   1 C :   -0.378705
   2 O :    0.021797
   3 C :   -0.069519
   4 C :   -0.087831
   5 C :   -0.192483
   6 C :   -0.220379
   7 C :   -0.241234
   8 C :   -0.218305
   9 H :    0.132137
  10 H :    0.131029
  11 H :    0.132080
  12 H :    0.175876
  13 H :    0.127888
  14 H :    0.158809
  15 H :    0.122423
  16 H :    0.140910
  17 H :    0.132843
  18 H :    0.122287
  19 H :    0.130161
  20 H :    0.124815

  Mayer bond orders larger than 0.1
B(  0-C ,  1-C ) :   0.8684 B(  0-C ,  9-H ) :   0.9375 B(  0-C , 10-H ) :   0.9296
B(  0-C , 11-H ) :   0.9378 B(  1-C ,  2-O ) :   0.9028 B(  1-C ,  3-C ) :   1.1862
B(  1-C ,  5-C ) :   0.9128 B(  2-O , 12-H ) :   0.8404 B(  3-C ,  4-C ) :   2.5616
B(  4-C , 13-H ) :   0.8866 B(  5-C ,  6-C ) :   0.9072 B(  5-C ,  8-C ) :   0.9134
B(  5-C , 14-H ) :   0.9019 B(  6-C ,  7-C ) :   0.9347 B(  6-C , 15-H ) :   0.9297
B(  6-C , 16-H ) :   0.9218 B(  7-C ,  8-C ) :   0.9401 B(  7-C , 17-H ) :   0.9295
B(  7-C , 18-H ) :   0.9271 B(  8-C , 19-H ) :   0.9178 B(  8-C , 20-H ) :   0.9291

MP2 TOTAL ENERGY:     -386.367549335 Eh
FINAL SINGLE POINT ENERGY      -386.367549335107

DIPOLE MOMENT
-------------
                                X             Y             Z
Electronic contribution:     -4.75369      -0.54803       3.26761
Nuclear contribution   :      4.53076       0.28656      -3.65197
                        -----------------------------------------
Total Dipole Moment    :     -0.22292      -0.26147      -0.38436
                        -----------------------------------------
Magnitude (a.u.)       :      0.51555
Magnitude (Debye)      :      1.31043

                             ****ORCA TERMINATED NORMALLY****
TOTAL RUN TIME: 0 days 0 hours 23 minutes 2 seconds 614 msec
