                         Program Version 3.0.3 - RELEASE   -
|  1> ! RI-MP2 RIJK def2-TZVP def2-TZVP/C def2-TZVP/JK TIGHTSCF
|  2> % maxcore 2000
|  3> % mp2 density relaxed end
|  4> *xyz 0 1
|  5>  C       -0.2050688021     1.5383315614     0.0419893300
|  6>  C        0.1029567286     0.0807249670     0.0224984119
|  7>  O       -0.7481884902    -0.8542956101     0.6903825673
|  8>  C        0.6353801189    -0.8667453513     1.0028988938
|  9>  C        1.3768476272    -1.6649985221    -0.1549291525
| 10>  O        0.4033116486    -2.0718586813    -1.1163566807
| 11>  C        0.8306199796    -0.7188621987    -1.1433567795
| 12>  C        2.6360333478    -2.3246083364    -0.0725352149
| 13>  N        3.6659187970    -2.8371093830     0.0505344162
| 14>  H        0.6719890499     2.1222864139    -0.2549903998
| 15>  H       -1.0184914546     1.7703214580    -0.6539446476
| 16>  H       -0.5092677935     1.8486077202     1.0445972860
| 17>  H        0.9586794710    -0.7695310827     2.0315117314
| 18>  H        1.2732568718    -0.3289290751    -2.0520493417
| 19> *
| 20>
| 21>                          ****END OF INPUT****

CARTESIAN COORDINATES (ANGSTROEM)
---------------------------------
  C     -0.205069    1.538332    0.041989
  C      0.102957    0.080725    0.022498
  O     -0.748188   -0.854296    0.690383
  C      0.635380   -0.866745    1.002899
  C      1.376848   -1.664999   -0.154929
  O      0.403312   -2.071859   -1.116357
  C      0.830620   -0.718862   -1.143357
  C      2.636033   -2.324608   -0.072535
  N      3.665919   -2.837109    0.050534
  H      0.671989    2.122286   -0.254990
  H     -1.018491    1.770321   -0.653945
  H     -0.509268    1.848608    1.044597
  H      0.958679   -0.769531    2.031512
  H      1.273257   -0.328929   -2.052049

 Total Charge           Charge          ....    0
 Multiplicity           Mult            ....    1
 Number of Electrons    NEL             ....   64
 Basis Dimension        Dim             ....  309

ORBITAL ENERGIES
----------------

  NO   OCC          E(Eh)            E(eV)
   0   2.0000     -20.618316      -561.0529
   1   2.0000     -20.602043      -560.6101
   2   2.0000     -15.595157      -424.3658
   3   2.0000     -11.355792      -309.0068
   4   2.0000     -11.337140      -308.4993
   5   2.0000     -11.333306      -308.3949
   6   2.0000     -11.329886      -308.3019
   7   2.0000     -11.295234      -307.3589
   8   2.0000     -11.257933      -306.3439
   9   2.0000      -1.493503       -40.6403
  10   2.0000      -1.428468       -38.8706
  11   2.0000      -1.237033       -33.6614
  12   2.0000      -1.076927       -29.3047
  13   2.0000      -1.031686       -28.0736
  14   2.0000      -0.949302       -25.8318
  15   2.0000      -0.898454       -24.4482
  16   2.0000      -0.803285       -21.8585
  17   2.0000      -0.781166       -21.2566
  18   2.0000      -0.715872       -19.4799
  19   2.0000      -0.669405       -18.2154
  20   2.0000      -0.637343       -17.3430
  21   2.0000      -0.610778       -16.6201
  22   2.0000      -0.603580       -16.4243
  23   2.0000      -0.582941       -15.8626
  24   2.0000      -0.568078       -15.4582
  25   2.0000      -0.552832       -15.0433
  26   2.0000      -0.537526       -14.6268
  27   2.0000      -0.520812       -14.1720
  28   2.0000      -0.507258       -13.8032
  29   2.0000      -0.478165       -13.0115
  30   2.0000      -0.431452       -11.7404
  31   2.0000      -0.403832       -10.9888
  32   0.0000       0.114305         3.1104
  33   0.0000       0.127077         3.4579
  34   0.0000       0.136829         3.7233
  35   0.0000       0.150612         4.0984
  36   0.0000       0.163215         4.4413

MULLIKEN ATOMIC CHARGES
-----------------------
   0 C :   -0.409371
   1 C :    0.200656
   2 O :   -0.285885
   3 C :   -0.066369
   4 C :    0.338857
   5 O :   -0.269124
   6 C :   -0.042355
   7 C :   -0.216843
   8 N :   -0.034757
   9 H :    0.144170
  10 H :    0.153262
  11 H :    0.155834
  12 H :    0.165821
  13 H :    0.166105
Sum of atomic charges:    0.0000000

LOEWDIN ATOMIC CHARGES
----------------------
   0 C :   -0.265318
   1 C :   -0.278527
   2 O :    0.232818
   3 C :   -0.175211
   4 C :   -0.253506
   5 O :    0.253065
   6 C :   -0.158065
   7 C :   -0.148789
   8 N :    0.092149
   9 H :    0.138001
  10 H :    0.138578
  11 H :    0.140891
  12 H :    0.141448
  13 H :    0.142464

  Mayer bond orders larger than 0.1
B(  0-C ,  1-C ) :   0.8673 B(  0-C ,  9-H ) :   0.9309 B(  0-C , 10-H ) :   0.9365
B(  0-C , 11-H ) :   0.9385 B(  1-C ,  2-O ) :   0.9133 B(  1-C ,  3-C ) :   0.9604
B(  1-C ,  6-C ) :   0.8362 B(  2-O ,  3-C ) :   0.9451 B(  3-C ,  4-C ) :   0.8066
B(  3-C , 12-H ) :   0.9183 B(  4-C ,  5-O ) :   0.8683 B(  4-C ,  6-C ) :   0.9103
B(  4-C ,  7-C ) :   0.9124 B(  5-O ,  6-C ) :   0.9346 B(  6-C , 13-H ) :   0.9143
B(  7-C ,  8-N ) :   2.8466

MP2 TOTAL ENERGY:     -435.871683409 Eh
FINAL SINGLE POINT ENERGY      -435.871683408979

DIPOLE MOMENT
-------------
                                X             Y             Z
Electronic contribution:      2.58575      -7.52376      -0.45596
Nuclear contribution   :     -2.98553       9.26392       0.47188
                        -----------------------------------------
Total Dipole Moment    :     -0.39978       1.74016       0.01593
                        -----------------------------------------
Magnitude (a.u.)       :      1.78556
Magnitude (Debye)      :      4.53854

                             ****ORCA TERMINATED NORMALLY****
TOTAL RUN TIME: 0 days 0 hours 13 minutes 57 seconds 15 msec
