                         Program Version 3.0.3 - RELEASE   -
|  1> ! RI-MP2 RIJK def2-TZVP def2-TZVP/C def2-TZVP/JK TIGHTSCF
|  2> % maxcore 2000
|  3> % mp2 density relaxed end
|  4> *xyz 0 1
|  5>  C       -0.5355529580     1.4533232057     0.1686635656
|  6>  C        0.1293632942     0.0899945412     0.0043733448
|  7>  C        1.3119489528     0.0527680152    -0.9705378269
|  8>  O        2.0658317368    -1.1084419462    -0.6304219679
|  9>  C        1.8382889685    -1.4625694850     0.7371748129
| 10>  C        3.0631400717    -1.1835042695     1.6132802639
| 11>  C        2.8846373366     0.2992573545     1.9451662988
| 12>  O        1.4738101464     0.5027850584     2.0398928626
| 13>  C        0.7741421366    -0.4848834626     1.2784387218
| 14>  H        0.1691303082     2.1743932782     0.5895964354
| 15>  H       -0.8934806925     1.8344571763    -0.7934508322
| 16>  H       -1.3955979986     1.3935476495     0.8431155891
| 17>  H       -0.6121209788    -0.6458736222    -0.3344674851
| 18>  H        1.0092253128    -0.0344540172    -2.0187804858
| 19>  H        1.9262937948     0.9619793362    -0.8691062101
| 20>  H        1.5274945468    -2.5118480894     0.7700634272
| 21>  H        3.0132920220    -1.7910049701     2.5233997284
| 22>  H        3.9943275949    -1.4080633366     1.0897107537
| 23>  H        3.3314416130     0.5959625729     2.8986837513
| 24>  H        3.3143179229     0.9318339240     1.1544772044
| 25>  H        0.0374625989    -0.9577785734     1.9370574980
| 26> *
| 27>
| 28>                          ****END OF INPUT****

CARTESIAN COORDINATES (ANGSTROEM)
---------------------------------
  C     -0.535553    1.453323    0.168664
  C      0.129363    0.089995    0.004373
  C      1.311949    0.052768   -0.970538
  O      2.065832   -1.108442   -0.630422
  C      1.838289   -1.462569    0.737175
  C      3.063140   -1.183504    1.613280
  C      2.884637    0.299257    1.945166
  O      1.473810    0.502785    2.039893
  C      0.774142   -0.484883    1.278439
  H      0.169130    2.174393    0.589596
  H     -0.893481    1.834457   -0.793451
  H     -1.395598    1.393548    0.843116
  H     -0.612121   -0.645874   -0.334467
  H      1.009225   -0.034454   -2.018780
  H      1.926294    0.961979   -0.869106
  H      1.527495   -2.511848    0.770063
  H      3.013292   -1.791005    2.523400
  H      3.994328   -1.408063    1.089711
  H      3.331442    0.595963    2.898684
  H      3.314318    0.931834    1.154477
  H      0.037463   -0.957779    1.937057

 Total Charge           Charge          ....    0
 Multiplicity           Mult            ....    1
 Number of Electrons    NEL             ....   70
 Basis Dimension        Dim             ....  351

ORBITAL ENERGIES
----------------

  NO   OCC          E(Eh)            E(eV)
   0   2.0000     -20.550384      -559.2044
   1   2.0000     -20.549829      -559.1893
   2   2.0000     -11.279355      -306.9269
   3   2.0000     -11.277548      -306.8777
   4   2.0000     -11.273270      -306.7613
   5   2.0000     -11.270086      -306.6746
   6   2.0000     -11.229387      -305.5672
   7   2.0000     -11.223984      -305.4201
   8   2.0000     -11.213955      -305.1472
   9   2.0000      -1.389225       -37.8027
  10   2.0000      -1.357838       -36.9486
  11   2.0000      -1.075951       -29.2781
  12   2.0000      -1.047319       -28.4990
  13   2.0000      -0.981808       -26.7164
  14   2.0000      -0.921713       -25.0811
  15   2.0000      -0.836064       -22.7505
  16   2.0000      -0.787511       -21.4293
  17   2.0000      -0.766567       -20.8593
  18   2.0000      -0.716729       -19.5032
  19   2.0000      -0.673820       -18.3356
  20   2.0000      -0.642672       -17.4880
  21   2.0000      -0.621575       -16.9139
  22   2.0000      -0.611422       -16.6376
  23   2.0000      -0.592737       -16.1292
  24   2.0000      -0.558862       -15.2074
  25   2.0000      -0.556637       -15.1469
  26   2.0000      -0.538186       -14.6448
  27   2.0000      -0.522583       -14.2202
  28   2.0000      -0.507327       -13.8051
  29   2.0000      -0.489931       -13.3317
  30   2.0000      -0.477571       -12.9954
  31   2.0000      -0.469548       -12.7770
  32   2.0000      -0.449364       -12.2278
  33   2.0000      -0.411201       -11.1894
  34   2.0000      -0.407983       -11.1018
  35   0.0000       0.134432         3.6581
  36   0.0000       0.152717         4.1557
  37   0.0000       0.159155         4.3308
  38   0.0000       0.182632         4.9697
  39   0.0000       0.192857         5.2479

MULLIKEN ATOMIC CHARGES
-----------------------
   0 C :   -0.410849
   1 C :   -0.063070
   2 C :   -0.058552
   3 O :   -0.327906
   4 C :    0.066135
   5 C :   -0.236889
   6 C :   -0.053354
   7 O :   -0.339945
   8 C :    0.060640
   9 H :    0.143487
  10 H :    0.132520
  11 H :    0.130804
  12 H :    0.088373
  13 H :    0.114879
  14 H :    0.084447
  15 H :    0.105191
  16 H :    0.110777
  17 H :    0.129999
  18 H :    0.117252
  19 H :    0.091783
  20 H :    0.114277
Sum of atomic charges:   -0.0000000

LOEWDIN ATOMIC CHARGES
----------------------
   0 C :   -0.291676
   1 C :   -0.263944
   2 C :   -0.282149
   3 O :    0.164862
   4 C :   -0.279880
   5 C :   -0.244247
   6 C :   -0.301684
   7 O :    0.167566
   8 C :   -0.261092
   9 H :    0.128506
  10 H :    0.124124
  11 H :    0.126325
  12 H :    0.156914
  13 H :    0.125984
  14 H :    0.120910
  15 H :    0.139990
  16 H :    0.141460
  17 H :    0.143170
  18 H :    0.124571
  19 H :    0.119034
  20 H :    0.141256

  Mayer bond orders larger than 0.1
B(  0-C ,  1-C ) :   0.8967 B(  0-C ,  9-H ) :   0.9295 B(  0-C , 10-H ) :   0.9399
B(  0-C , 11-H ) :   0.9360 B(  1-C ,  2-C ) :   0.9660 B(  1-C ,  8-C ) :   0.9134
B(  1-C , 12-H ) :   0.9134 B(  2-C ,  3-O ) :   0.9432 B(  2-C , 13-H ) :   0.9219
B(  2-C , 14-H ) :   0.9140 B(  3-O ,  4-C ) :   0.9436 B(  4-C ,  5-C ) :   0.9017
B(  4-C ,  8-C ) :   0.9392 B(  4-C , 15-H ) :   0.9299 B(  5-C ,  6-C ) :   0.9752
B(  5-C , 16-H ) :   0.9145 B(  5-C , 17-H ) :   0.9180 B(  6-C ,  7-O ) :   0.9312
B(  6-C , 18-H ) :   0.9296 B(  6-C , 19-H ) :   0.9182 B(  7-O ,  8-C ) :   0.9116
B(  8-C , 20-H ) :   0.9203

MP2 TOTAL ENERGY:     -423.542870269 Eh
FINAL SINGLE POINT ENERGY      -423.542870269229

DIPOLE MOMENT
-------------
                                X             Y             Z
Electronic contribution:      1.72980      -2.74648       0.49881
Nuclear contribution   :     -1.84854       2.61277      -0.40051
                        -----------------------------------------
Total Dipole Moment    :     -0.11874      -0.13371       0.09830
                        -----------------------------------------
Magnitude (a.u.)       :      0.20406
Magnitude (Debye)      :      0.51868

                             ****ORCA TERMINATED NORMALLY****
TOTAL RUN TIME: 0 days 0 hours 19 minutes 41 seconds 919 msec
