                         Program Version 3.0.3 - RELEASE   -
|  1> ! RI-MP2 RIJK def2-TZVP def2-TZVP/C def2-TZVP/JK TIGHTSCF
|  2> % maxcore 2000
|  3> % mp2 density relaxed end
|  4> *xyz 0 1
|  5>  C        0.0251220152     1.4647953969     0.0417964115
|  6>  C       -0.0298485073    -0.0258566948    -0.0346122774
|  7>  C       -0.1380970005    -0.8216891971    -1.1026806869
|  8>  C        0.0004725127    -2.2506953977    -0.6458477248
|  9>  C        1.4734845724    -2.4973595427    -0.1829960226
| 10>  C        1.0014976163    -2.0826588893     1.2040371815
| 11>  C        1.5816310907    -2.5973842381     2.4894321760
| 12>  C        0.0501271848    -0.9077613943     1.1700732835
| 13>  N       -0.4494486466    -2.2602237902     0.8251192694
| 14>  H        0.9819621504     1.8067814536     0.4561845290
| 15>  H       -0.0987066941     1.9202258489    -0.9440516011
| 16>  H       -0.7586804443     1.8580528788     0.7014388956
| 17>  H       -0.1593485306    -0.5148654683    -2.1414000484
| 18>  H       -0.4713124855    -3.0185134909    -1.2577189411
| 19>  H        1.7170104021    -3.5630219530    -0.1846866462
| 20>  H        2.2738195419    -1.9367971538    -0.6759839801
| 21>  H        2.5660643032    -2.1523872731     2.6764616568
| 22>  H        0.9339070142    -2.3537069176     3.3368976938
| 23>  H        1.7037400566    -3.6857390201     2.4594513522
| 24>  H       -0.2743143614    -0.5299396273     2.1369779094
| 25> *
| 26>
| 27>                          ****END OF INPUT****

CARTESIAN COORDINATES (ANGSTROEM)
---------------------------------
  C      0.025122    1.464795    0.041796
  C     -0.029849   -0.025857   -0.034612
  C     -0.138097   -0.821689   -1.102681
  C      0.000473   -2.250695   -0.645848
  C      1.473485   -2.497360   -0.182996
  C      1.001498   -2.082659    1.204037
  C      1.581631   -2.597384    2.489432
  C      0.050127   -0.907761    1.170073
  N     -0.449449   -2.260224    0.825119
  H      0.981962    1.806781    0.456185
  H     -0.098707    1.920226   -0.944052
  H     -0.758680    1.858053    0.701439
  H     -0.159349   -0.514865   -2.141400
  H     -0.471312   -3.018513   -1.257719
  H      1.717010   -3.563022   -0.184687
  H      2.273820   -1.936797   -0.675984
  H      2.566064   -2.152387    2.676462
  H      0.933907   -2.353707    3.336898
  H      1.703740   -3.685739    2.459451
  H     -0.274314   -0.529940    2.136978

 Total Charge           Charge          ....    0
 Multiplicity           Mult            ....    1
 Number of Electrons    NEL             ....   66
 Basis Dimension        Dim             ....  345

ORBITAL ENERGIES
----------------

  NO   OCC          E(Eh)            E(eV)
   0   2.0000     -15.551935      -423.1897
   1   2.0000     -11.265554      -306.5513
   2   2.0000     -11.259674      -306.3913
   3   2.0000     -11.256260      -306.2984
   4   2.0000     -11.235426      -305.7315
   5   2.0000     -11.228172      -305.5341
   6   2.0000     -11.227257      -305.5092
   7   2.0000     -11.220232      -305.3180
   8   2.0000     -11.217596      -305.2463
   9   2.0000      -1.300219       -35.3808
  10   2.0000      -1.081535       -29.4301
  11   2.0000      -1.017643       -27.6915
  12   2.0000      -0.997872       -27.1535
  13   2.0000      -0.942808       -25.6551
  14   2.0000      -0.889789       -24.2124
  15   2.0000      -0.791394       -21.5349
  16   2.0000      -0.750208       -20.4142
  17   2.0000      -0.705982       -19.2107
  18   2.0000      -0.670623       -18.2486
  19   2.0000      -0.608609       -16.5611
  20   2.0000      -0.597264       -16.2524
  21   2.0000      -0.581394       -15.8205
  22   2.0000      -0.574846       -15.6423
  23   2.0000      -0.568339       -15.4653
  24   2.0000      -0.549424       -14.9506
  25   2.0000      -0.548308       -14.9202
  26   2.0000      -0.516256       -14.0480
  27   2.0000      -0.499829       -13.6010
  28   2.0000      -0.466198       -12.6859
  29   2.0000      -0.440371       -11.9831
  30   2.0000      -0.424734       -11.5576
  31   2.0000      -0.386685       -10.5222
  32   2.0000      -0.314195        -8.5497
  33   0.0000       0.135439         3.6855
  34   0.0000       0.143440         3.9032
  35   0.0000       0.158280         4.3070
  36   0.0000       0.169109         4.6017
  37   0.0000       0.182144         4.9564

MULLIKEN ATOMIC CHARGES
-----------------------
   0 C :   -0.440556
   1 C :    0.075305
   2 C :   -0.290988
   3 C :    0.110830
   4 C :   -0.218847
   5 C :    0.138818
   6 C :   -0.409743
   7 C :   -0.180362
   8 N :   -0.224462
   9 H :    0.142234
  10 H :    0.141106
  11 H :    0.144821
  12 H :    0.125307
  13 H :    0.131166
  14 H :    0.117799
  15 H :    0.111581
  16 H :    0.132884
  17 H :    0.137997
  18 H :    0.129871
  19 H :    0.125238
Sum of atomic charges:   -0.0000000

LOEWDIN ATOMIC CHARGES
----------------------
   0 C :   -0.270533
   1 C :   -0.170585
   2 C :   -0.125477
   3 C :   -0.194004
   4 C :   -0.183794
   5 C :   -0.255121
   6 C :   -0.272732
   7 C :   -0.176206
   8 N :    0.165243
   9 H :    0.132899
  10 H :    0.131984
  11 H :    0.133109
  12 H :    0.139235
  13 H :    0.134872
  14 H :    0.142533
  15 H :    0.128534
  16 H :    0.131038
  17 H :    0.132280
  18 H :    0.128671
  19 H :    0.148053

  Mayer bond orders larger than 0.1
B(  0-C ,  1-C ) :   0.8686 B(  0-C ,  9-H ) :   0.9262 B(  0-C , 10-H ) :   0.9507
B(  0-C , 11-H ) :   0.9380 B(  1-C ,  2-C ) :   1.7690 B(  1-C ,  7-C ) :   0.9396
B(  2-C ,  3-C ) :   0.9523 B(  2-C , 12-H ) :   0.9289 B(  3-C ,  4-C ) :   0.9144
B(  3-C ,  8-N ) :   0.9239 B(  3-C , 13-H ) :   0.9108 B(  4-C ,  5-C ) :   0.9654
B(  4-C , 14-H ) :   0.9158 B(  4-C , 15-H ) :   0.8998 B(  5-C ,  6-C ) :   0.8618
B(  5-C ,  7-C ) :   0.9326 B(  5-C ,  8-N ) :   0.8026 B(  6-C , 16-H ) :   0.9381
B(  6-C , 17-H ) :   0.9379 B(  6-C , 18-H ) :   0.9310 B(  7-C ,  8-N ) :   0.9893
B(  7-C , 19-H ) :   0.8970

MP2 TOTAL ENERGY:     -365.321926660 Eh
FINAL SINGLE POINT ENERGY      -365.321926659580

DIPOLE MOMENT
-------------
                                X             Y             Z
Electronic contribution:     -3.00525      -1.86717      -1.76983
Nuclear contribution   :      3.64805       2.25883       1.60586
                        -----------------------------------------
Total Dipole Moment    :      0.64280       0.39166      -0.16397
                        -----------------------------------------
Magnitude (a.u.)       :      0.77038
Magnitude (Debye)      :      1.95814

                             ****ORCA TERMINATED NORMALLY****
TOTAL RUN TIME: 0 days 0 hours 20 minutes 39 seconds 736 msec
