                         Program Version 3.0.3 - RELEASE   -
|  1> ! RI-MP2 RIJK def2-TZVP def2-TZVP/C def2-TZVP/JK TIGHTSCF
|  2> % maxcore 2000
|  3> % mp2 density relaxed end
|  4> *xyz 0 1
|  5>  O       -0.0171421585     0.0415947569     0.0042763689
|  6>  C       -0.0073135510     1.2210748125     0.0097338467
|  7>  O       -1.1819002790     2.0179027128     0.0298733781
|  8>  C       -0.6918230770     3.2780436616     0.0292533170
|  9>  C        0.6325620757     3.3178734359     0.0112228190
| 10>  O        1.1177120954     2.0264313157    -0.0017845502
| 11>  N        1.0870639737     4.6044788314     0.0117351594
| 12>  C       -0.0283168821     5.2793638195     0.0313104338
| 13>  O       -1.1965767173     4.5168517584     0.0427158396
| 14>  H       -0.1726149099     6.3457264754     0.0390311576
| 15> *
| 16>
| 17>                          ****END OF INPUT****

CARTESIAN COORDINATES (ANGSTROEM)
---------------------------------
  O     -0.017142    0.041595    0.004276
  C     -0.007314    1.221075    0.009734
  O     -1.181900    2.017903    0.029873
  C     -0.691823    3.278044    0.029253
  C      0.632562    3.317873    0.011223
  O      1.117712    2.026431   -0.001785
  N      1.087064    4.604479    0.011735
  C     -0.028317    5.279364    0.031310
  O     -1.196577    4.516852    0.042716
  H     -0.172615    6.345726    0.039031

 Total Charge           Charge          ....    0
 Multiplicity           Mult            ....    1
 Number of Electrons    NEL             ....   64
 Basis Dimension        Dim             ....  285

ORBITAL ENERGIES
----------------

  NO   OCC          E(Eh)            E(eV)
   0   2.0000     -20.695785      -563.1609
   1   2.0000     -20.682822      -562.8082
   2   2.0000     -20.674815      -562.5903
   3   2.0000     -20.589585      -560.2711
   4   2.0000     -15.626633      -425.2223
   5   2.0000     -11.481552      -312.4289
   6   2.0000     -11.382813      -309.7421
   7   2.0000     -11.380898      -309.6900
   8   2.0000     -11.344794      -308.7075
   9   2.0000      -1.578823       -42.9620
  10   2.0000      -1.528866       -41.6026
  11   2.0000      -1.450637       -39.4738
  12   2.0000      -1.436151       -39.0797
  13   2.0000      -1.290143       -35.1066
  14   2.0000      -1.061466       -28.8840
  15   2.0000      -0.917809       -24.9749
  16   2.0000      -0.898854       -24.4591
  17   2.0000      -0.888167       -24.1683
  18   2.0000      -0.771670       -20.9982
  19   2.0000      -0.766963       -20.8701
  20   2.0000      -0.764641       -20.8069
  21   2.0000      -0.709406       -19.3039
  22   2.0000      -0.687681       -18.7128
  23   2.0000      -0.665827       -18.1181
  24   2.0000      -0.636677       -17.3249
  25   2.0000      -0.622073       -16.9275
  26   2.0000      -0.609333       -16.5808
  27   2.0000      -0.553331       -15.0569
  28   2.0000      -0.522930       -14.2297
  29   2.0000      -0.513975       -13.9860
  30   2.0000      -0.496632       -13.5140
  31   2.0000      -0.348491        -9.4829
  32   0.0000       0.104118         2.8332
  33   0.0000       0.131848         3.5878
  34   0.0000       0.155862         4.2412
  35   0.0000       0.166635         4.5344
  36   0.0000       0.193359         5.2616

MULLIKEN ATOMIC CHARGES
-----------------------
   0 O :   -0.224395
   1 C :    0.349269
   2 O :   -0.210996
   3 C :    0.275110
   4 C :    0.197618
   5 O :   -0.208797
   6 N :   -0.258189
   7 C :    0.096378
   8 O :   -0.193606
   9 H :    0.177607
Sum of atomic charges:   -0.0000000

LOEWDIN ATOMIC CHARGES
----------------------
   0 O :    0.184370
   1 C :   -0.488782
   2 O :    0.317677
   3 C :   -0.375361
   4 C :   -0.341584
   5 O :    0.327426
   6 N :    0.146127
   7 C :   -0.268697
   8 O :    0.360054
   9 H :    0.138768

  Mayer bond orders larger than 0.1
B(  0-O ,  1-C ) :   2.0956 B(  1-C ,  2-O ) :   0.9898 B(  1-C ,  5-O ) :   1.0737
B(  2-O ,  3-C ) :   1.0223 B(  3-C ,  4-C ) :   1.5099 B(  3-C ,  8-O ) :   1.0840
B(  4-C ,  5-O ) :   0.9551 B(  4-C ,  6-N ) :   1.2205 B(  6-N ,  7-C ) :   1.5966
B(  7-C ,  8-O ) :   1.0146 B(  7-C ,  9-H ) :   0.9245

MP2 TOTAL ENERGY:     -507.792947349 Eh
FINAL SINGLE POINT ENERGY      -507.792947348867

DIPOLE MOMENT
-------------
                                X             Y             Z
Electronic contribution:     -0.35835      -1.95522      -0.00585
Nuclear contribution   :     -0.12330       3.21853       0.01898
                        -----------------------------------------
Total Dipole Moment    :     -0.48165       1.26331       0.01313
                        -----------------------------------------
Magnitude (a.u.)       :      1.35208
Magnitude (Debye)      :      3.43671

                             ****ORCA TERMINATED NORMALLY****
TOTAL RUN TIME: 0 days 0 hours 10 minutes 34 seconds 285 msec
