                         Program Version 3.0.3 - RELEASE   -
|  1> ! RI-MP2 RIJK def2-TZVP def2-TZVP/C def2-TZVP/JK TIGHTSCF
|  2> % maxcore 2000
|  3> % mp2 density relaxed end
|  4> *xyz 0 1
|  5>  C       -0.3027995974     1.4018357959     0.0451087220
|  6>  C        0.2394032940     0.0024653576     0.0023224860
|  7>  N        1.2319045815    -0.5143246009     0.5793832248
|  8>  O       -0.5535160762    -0.7612048943    -0.8369424217
|  9>  C       -0.2550732966    -2.0673522450    -0.9856394844
| 10>  C        0.2627844109    -2.7907462140    -2.0023756014
| 11>  N        0.2381360031    -4.1348799494    -1.6424077689
| 12>  C       -0.2815705983    -4.1395976451    -0.4605632628
| 13>  O       -0.6209644144    -2.9153425567     0.0158258952
| 14>  H       -1.3270553554     1.3945999654     0.4302161461
| 15>  H        0.3156380017     2.0377670906     0.6794709531
| 16>  H       -0.3393198787     1.8225638635    -0.9642150365
| 17>  H        1.7168802909     0.1704494713     1.1544704154
| 18>  H        0.6478734445    -2.4487885370    -2.9481498875
| 19>  H       -0.4790301097    -4.9796257418     0.1859370407
| 20> *
| 21>
| 22>                          ****END OF INPUT****

CARTESIAN COORDINATES (ANGSTROEM)
---------------------------------
  C     -0.302800    1.401836    0.045109
  C      0.239403    0.002465    0.002322
  N      1.231905   -0.514325    0.579383
  O     -0.553516   -0.761205   -0.836942
  C     -0.255073   -2.067352   -0.985639
  C      0.262784   -2.790746   -2.002376
  N      0.238136   -4.134880   -1.642408
  C     -0.281571   -4.139598   -0.460563
  O     -0.620964   -2.915343    0.015826
  H     -1.327055    1.394600    0.430216
  H      0.315638    2.037767    0.679471
  H     -0.339320    1.822564   -0.964215
  H      1.716880    0.170449    1.154470
  H      0.647873   -2.448789   -2.948150
  H     -0.479030   -4.979626    0.185937

 Total Charge           Charge          ....    0
 Multiplicity           Mult            ....    1
 Number of Electrons    NEL             ....   66
 Basis Dimension        Dim             ....  315

ORBITAL ENERGIES
----------------

  NO   OCC          E(Eh)            E(eV)
   0   2.0000     -20.638347      -561.5980
   1   2.0000     -20.626173      -561.2667
   2   2.0000     -15.564876      -423.5418
   3   2.0000     -15.554467      -423.2586
   4   2.0000     -11.362148      -309.1798
   5   2.0000     -11.353211      -308.9366
   6   2.0000     -11.329487      -308.2910
   7   2.0000     -11.256222      -306.2974
   8   2.0000     -11.254368      -306.2469
   9   2.0000      -1.507505       -41.0213
  10   2.0000      -1.447368       -39.3849
  11   2.0000      -1.231606       -33.5137
  12   2.0000      -1.221641       -33.2425
  13   2.0000      -1.046934       -28.4885
  14   2.0000      -1.004610       -27.3368
  15   2.0000      -0.869686       -23.6654
  16   2.0000      -0.852251       -23.1909
  17   2.0000      -0.786060       -21.3898
  18   2.0000      -0.746925       -20.3249
  19   2.0000      -0.694411       -18.8959
  20   2.0000      -0.681976       -18.5575
  21   2.0000      -0.652691       -17.7606
  22   2.0000      -0.641442       -17.4545
  23   2.0000      -0.600001       -16.3269
  24   2.0000      -0.596287       -16.2258
  25   2.0000      -0.590987       -16.0816
  26   2.0000      -0.579611       -15.7720
  27   2.0000      -0.555284       -15.1101
  28   2.0000      -0.462124       -12.5750
  29   2.0000      -0.454892       -12.3782
  30   2.0000      -0.451351       -12.2819
  31   2.0000      -0.428553       -11.6615
  32   2.0000      -0.334063        -9.0903
  33   0.0000       0.124510         3.3881
  34   0.0000       0.148622         4.0442
  35   0.0000       0.162233         4.4146
  36   0.0000       0.169565         4.6141
  37   0.0000       0.180111         4.9011

MULLIKEN ATOMIC CHARGES
-----------------------
   0 C :   -0.368137
   1 C :    0.172353
   2 N :   -0.364839
   3 O :   -0.267219
   4 C :    0.331598
   5 C :   -0.140518
   6 N :   -0.267011
   7 C :    0.111237
   8 O :   -0.186747
   9 H :    0.158399
  10 H :    0.130407
  11 H :    0.156665
  12 H :    0.227142
  13 H :    0.148030
  14 H :    0.158640
Sum of atomic charges:   -0.0000000

LOEWDIN ATOMIC CHARGES
----------------------
   0 C :   -0.271724
   1 C :   -0.402714
   2 N :   -0.034257
   3 O :    0.310686
   4 C :   -0.367585
   5 C :   -0.227878
   6 N :    0.099007
   7 C :   -0.322601
   8 O :    0.356380
   9 H :    0.142066
  10 H :    0.131447
  11 H :    0.141278
  12 H :    0.173592
  13 H :    0.139984
  14 H :    0.132319

  Mayer bond orders larger than 0.1
B(  0-C ,  1-C ) :   0.9371 B(  0-C ,  9-H ) :   0.9156 B(  0-C , 10-H ) :   0.9373
B(  0-C , 11-H ) :   0.9166 B(  1-C ,  2-N ) :   1.9847 B(  1-C ,  3-O ) :   0.9388
B(  2-N , 12-H ) :   0.8553 B(  3-O ,  4-C ) :   1.0193 B(  4-C ,  5-C ) :   1.5879
B(  4-C ,  8-O ) :   1.0450 B(  5-C ,  6-N ) :   1.1774 B(  5-C , 13-H ) :   0.9290
B(  6-N ,  7-C ) :   1.6494 B(  7-C ,  8-O ) :   1.0605 B(  7-C , 14-H ) :   0.9256

MP2 TOTAL ENERGY:     -453.229012413 Eh
FINAL SINGLE POINT ENERGY      -453.229012413107

DIPOLE MOMENT
-------------
                                X             Y             Z
Electronic contribution:     -0.79372      -6.39674      -1.25353
Nuclear contribution   :      0.56956       7.80377       1.77289
                        -----------------------------------------
Total Dipole Moment    :     -0.22416       1.40703       0.51936
                        -----------------------------------------
Magnitude (a.u.)       :      1.51648
Magnitude (Debye)      :      3.85459

                             ****ORCA TERMINATED NORMALLY****
TOTAL RUN TIME: 0 days 0 hours 13 minutes 5 seconds 595 msec
