                         Program Version 3.0.3 - RELEASE   -
|  1> ! RI-MP2 RIJK def2-TZVP def2-TZVP/C def2-TZVP/JK TIGHTSCF
|  2> % maxcore 2000
|  3> % mp2 density relaxed end
|  4> *xyz 0 1
|  5>  C       -0.2312031797     1.6016354208    -0.1769164097
|  6>  C       -0.0057271605     0.1115673342     0.0158633267
|  7>  C        1.1647939927    -0.6754638635    -0.6404268559
|  8>  C        2.1781119018    -0.0402944044     0.3352985266
|  9>  C        0.9158637341    -0.4852024671     1.1268761608
| 10>  C        0.6907444648    -0.5844488013     2.6128722043
| 11>  C        1.7652433869    -1.4054300070     3.3033479664
| 12>  O        2.3755731839    -1.0411691204     4.2749161386
| 13>  O        0.9378820233    -1.7553063154     0.3496986372
| 14>  H        0.6865976363     2.1911806835    -0.1119129213
| 15>  H       -0.6807338120     1.7934834991    -1.1570554358
| 16>  H       -0.9263139364     1.9836199912     0.5785694000
| 17>  H       -0.9402433545    -0.4528676678    -0.0528528351
| 18>  H        1.3006934871    -0.9742397324    -1.6797376232
| 19>  H        3.0696689460    -0.6408584217     0.5204978510
| 20>  H        2.4027468900     1.0242547529     0.2541836441
| 21>  H        0.6525963460     0.4090332460     3.0689929003
| 22>  H       -0.2748215751    -1.0824333552     2.7799335025
| 23>  H        1.9514594254    -2.3963085217     2.8372212624
| 24> *
| 25>
| 26>                          ****END OF INPUT****

CARTESIAN COORDINATES (ANGSTROEM)
---------------------------------
  C     -0.231203    1.601635   -0.176916
  C     -0.005727    0.111567    0.015863
  C      1.164794   -0.675464   -0.640427
  C      2.178112   -0.040294    0.335299
  C      0.915864   -0.485202    1.126876
  C      0.690744   -0.584449    2.612872
  C      1.765243   -1.405430    3.303348
  O      2.375573   -1.041169    4.274916
  O      0.937882   -1.755306    0.349699
  H      0.686598    2.191181   -0.111913
  H     -0.680734    1.793483   -1.157055
  H     -0.926314    1.983620    0.578569
  H     -0.940243   -0.452868   -0.052853
  H      1.300693   -0.974240   -1.679738
  H      3.069669   -0.640858    0.520498
  H      2.402747    1.024255    0.254184
  H      0.652596    0.409033    3.068993
  H     -0.274822   -1.082433    2.779934
  H      1.951459   -2.396309    2.837221

 Total Charge           Charge          ....    0
 Multiplicity           Mult            ....    1
 Number of Electrons    NEL             ....   68
 Basis Dimension        Dim             ....  339

ORBITAL ENERGIES
----------------

  NO   OCC          E(Eh)            E(eV)
   0   2.0000     -20.558105      -559.4145
   1   2.0000     -20.556010      -559.3575
   2   2.0000     -11.332746      -308.3797
   3   2.0000     -11.317893      -307.9755
   4   2.0000     -11.306990      -307.6788
   5   2.0000     -11.252833      -306.2051
   6   2.0000     -11.250155      -306.1323
   7   2.0000     -11.244209      -305.9705
   8   2.0000     -11.233206      -305.6711
   9   2.0000      -1.404761       -38.2255
  10   2.0000      -1.396346       -37.9965
  11   2.0000      -1.099016       -29.9057
  12   2.0000      -1.050317       -28.5806
  13   2.0000      -0.993790       -27.0424
  14   2.0000      -0.895604       -24.3706
  15   2.0000      -0.865189       -23.5430
  16   2.0000      -0.799378       -21.7522
  17   2.0000      -0.732223       -19.9248
  18   2.0000      -0.696424       -18.9507
  19   2.0000      -0.657927       -17.9031
  20   2.0000      -0.651322       -17.7234
  21   2.0000      -0.631448       -17.1826
  22   2.0000      -0.615245       -16.7417
  23   2.0000      -0.597448       -16.2574
  24   2.0000      -0.585400       -15.9296
  25   2.0000      -0.553203       -15.0534
  26   2.0000      -0.528040       -14.3687
  27   2.0000      -0.518819       -14.1178
  28   2.0000      -0.500880       -13.6297
  29   2.0000      -0.481200       -13.0941
  30   2.0000      -0.468573       -12.7505
  31   2.0000      -0.456016       -12.4088
  32   2.0000      -0.424517       -11.5517
  33   2.0000      -0.407228       -11.0812
  34   0.0000       0.125830         3.4240
  35   0.0000       0.133964         3.6454
  36   0.0000       0.159396         4.3374
  37   0.0000       0.164313         4.4712
  38   0.0000       0.169279         4.6063

MULLIKEN ATOMIC CHARGES
-----------------------
   0 C :   -0.404408
   1 C :    0.032631
   2 C :   -0.060586
   3 C :   -0.155238
   4 C :   -0.033187
   5 C :   -0.162193
   6 C :    0.084907
   7 O :   -0.261691
   8 O :   -0.313457
   9 H :    0.128165
  10 H :    0.141432
  11 H :    0.137114
  12 H :    0.107280
  13 H :    0.140703
  14 H :    0.124888
  15 H :    0.120537
  16 H :    0.127780
  17 H :    0.141026
  18 H :    0.104297
Sum of atomic charges:   -0.0000000

LOEWDIN ATOMIC CHARGES
----------------------
   0 C :   -0.294624
   1 C :   -0.192842
   2 C :   -0.206580
   3 C :   -0.177365
   4 C :   -0.259365
   5 C :   -0.224322
   6 C :   -0.281868
   7 O :    0.133102
   8 O :    0.142228
   9 H :    0.123433
  10 H :    0.129837
  11 H :    0.128965
  12 H :    0.152001
  13 H :    0.124643
  14 H :    0.136263
  15 H :    0.127701
  16 H :    0.156120
  17 H :    0.164216
  18 H :    0.118457

  Mayer bond orders larger than 0.1
B(  0-C ,  1-C ) :   0.9157 B(  0-C ,  9-H ) :   0.9299 B(  0-C , 10-H ) :   0.9347
B(  0-C , 11-H ) :   0.9316 B(  1-C ,  2-C ) :   0.9324 B(  1-C ,  4-C ) :   0.8560
B(  1-C , 12-H ) :   0.9191 B(  2-C ,  3-C ) :   0.9078 B(  2-C ,  8-O ) :   0.9093
B(  2-C , 13-H ) :   0.8912 B(  3-C ,  4-C ) :   0.8844 B(  3-C , 14-H ) :   0.9165
B(  3-C , 15-H ) :   0.9198 B(  4-C ,  5-C ) :   0.8380 B(  4-C ,  8-O ) :   0.9143
B(  5-C ,  6-C ) :   0.8930 B(  5-C , 16-H ) :   0.8996 B(  5-C , 17-H ) :   0.9218
B(  6-C ,  7-O ) :   1.9933 B(  6-C , 18-H ) :   0.9324

MP2 TOTAL ENERGY:     -422.261077026 Eh
FINAL SINGLE POINT ENERGY      -422.261077026265

DIPOLE MOMENT
-------------
                                X             Y             Z
Electronic contribution:      2.87267      -5.52616       4.34624
Nuclear contribution   :     -3.46076       6.22110      -5.27097
                        -----------------------------------------
Total Dipole Moment    :     -0.58808       0.69493      -0.92473
                        -----------------------------------------
Magnitude (a.u.)       :      1.29765
Magnitude (Debye)      :      3.29837

                             ****ORCA TERMINATED NORMALLY****
TOTAL RUN TIME: 0 days 0 hours 18 minutes 37 seconds 463 msec
