                         Program Version 3.0.3 - RELEASE   -
|  1> ! RI-MP2 RIJK def2-TZVP def2-TZVP/C def2-TZVP/JK TIGHTSCF
|  2> % maxcore 2000
|  3> % mp2 density relaxed end
|  4> *xyz 0 1
|  5>  C       -0.0570143977     1.6103946080    -0.0321857209
|  6>  C        0.0248339812     0.0875401252    -0.1104394167
|  7>  C        0.4353963515    -0.8376656806    -1.2104392081
|  8>  C        1.5496950638    -0.5536786023    -2.2259611324
|  9>  C        2.6516363914    -1.4799860244    -1.5880239298
| 10>  C        2.5366142912    -0.4076296377    -0.4582336943
| 11>  C        2.3327948977     0.6379148134    -1.6007149456
| 12>  C        3.5797956125     1.1307783856    -2.3337741966
| 13>  N        1.1980467308    -0.8030419969     0.0857555716
| 14>  H       -0.1645106069     2.0885329904    -1.0094345535
| 15>  H       -0.9353500393     1.8853572813     0.5591286737
| 16>  H        0.8126673523     2.0466014503     0.4670833411
| 17>  H       -0.7880499421    -0.3566772630     0.4643161178
| 18>  H       -0.1752991327    -1.7202058823    -1.3971616809
| 19>  H        1.2903868901    -0.5911317588    -3.2847311473
| 20>  H        2.3533307349    -2.4931495011    -1.3105833384
| 21>  H        3.6004109540    -1.4961956987    -2.1220441515
| 22>  H        3.2854299971    -0.2845587625     0.3248998972
| 23>  H        1.7460542694     1.5149903985    -1.3549759319
| 24>  H        4.2590259880     0.3364390392    -2.6497614808
| 25>  H        3.2937192397     1.6933801592    -3.2296786366
| 26>  H        4.1491897830     1.8121909172    -1.6914851862
| 27> *
| 28>
| 29>                          ****END OF INPUT****

CARTESIAN COORDINATES (ANGSTROEM)
---------------------------------
  C     -0.057014    1.610395   -0.032186
  C      0.024834    0.087540   -0.110439
  C      0.435396   -0.837666   -1.210439
  C      1.549695   -0.553679   -2.225961
  C      2.651636   -1.479986   -1.588024
  C      2.536614   -0.407630   -0.458234
  C      2.332795    0.637915   -1.600715
  C      3.579796    1.130778   -2.333774
  N      1.198047   -0.803042    0.085756
  H     -0.164511    2.088533   -1.009435
  H     -0.935350    1.885357    0.559129
  H      0.812667    2.046601    0.467083
  H     -0.788050   -0.356677    0.464316
  H     -0.175299   -1.720206   -1.397162
  H      1.290387   -0.591132   -3.284731
  H      2.353331   -2.493150   -1.310583
  H      3.600411   -1.496196   -2.122044
  H      3.285430   -0.284559    0.324900
  H      1.746054    1.514990   -1.354976
  H      4.259026    0.336439   -2.649761
  H      3.293719    1.693380   -3.229679
  H      4.149190    1.812191   -1.691485

 Total Charge           Charge          ....    0
 Multiplicity           Mult            ....    1
 Number of Electrons    NEL             ....   68
 Basis Dimension        Dim             ....  357

ORBITAL ENERGIES
----------------

  NO   OCC          E(Eh)            E(eV)
   0   2.0000     -15.546128      -423.0316
   1   2.0000     -11.260081      -306.4024
   2   2.0000     -11.256205      -306.2969
   3   2.0000     -11.249973      -306.1273
   4   2.0000     -11.237136      -305.7780
   5   2.0000     -11.225924      -305.4729
   6   2.0000     -11.223628      -305.4104
   7   2.0000     -11.220904      -305.3363
   8   2.0000     -11.216776      -305.2240
   9   2.0000      -1.281555       -34.8729
  10   2.0000      -1.116828       -30.3904
  11   2.0000      -1.003173       -27.2977
  12   2.0000      -0.967659       -26.3313
  13   2.0000      -0.946567       -25.7574
  14   2.0000      -0.865739       -23.5579
  15   2.0000      -0.803665       -21.8688
  16   2.0000      -0.756380       -20.5821
  17   2.0000      -0.721733       -19.6394
  18   2.0000      -0.678461       -18.4619
  19   2.0000      -0.646124       -17.5819
  20   2.0000      -0.636096       -17.3091
  21   2.0000      -0.582338       -15.8462
  22   2.0000      -0.563095       -15.3226
  23   2.0000      -0.553203       -15.0534
  24   2.0000      -0.543962       -14.8020
  25   2.0000      -0.523120       -14.2348
  26   2.0000      -0.519460       -14.1352
  27   2.0000      -0.487151       -13.2560
  28   2.0000      -0.476622       -12.9696
  29   2.0000      -0.450748       -12.2655
  30   2.0000      -0.445237       -12.1155
  31   2.0000      -0.429599       -11.6900
  32   2.0000      -0.399935       -10.8828
  33   2.0000      -0.347083        -9.4446
  34   0.0000       0.134044         3.6475
  35   0.0000       0.159237         4.3331
  36   0.0000       0.161800         4.4028
  37   0.0000       0.171707         4.6724
  38   0.0000       0.190439         5.1821

MULLIKEN ATOMIC CHARGES
-----------------------
   0 C :   -0.400403
   1 C :   -0.047925
   2 C :   -0.114300
   3 C :   -0.019225
   4 C :   -0.297393
   5 C :    0.066617
   6 C :   -0.132930
   7 C :   -0.439132
   8 N :   -0.259655
   9 H :    0.142393
  10 H :    0.144289
  11 H :    0.147733
  12 H :    0.105007
  13 H :    0.122322
  14 H :    0.127533
  15 H :    0.121663
  16 H :    0.119048
  17 H :    0.121125
  18 H :    0.100197
  19 H :    0.124234
  20 H :    0.133879
  21 H :    0.134925
Sum of atomic charges:   -0.0000000

LOEWDIN ATOMIC CHARGES
----------------------
   0 C :   -0.312293
   1 C :   -0.252307
   2 C :   -0.199141
   3 C :   -0.178100
   4 C :   -0.187210
   5 C :   -0.214467
   6 C :   -0.218164
   7 C :   -0.290950
   8 N :    0.134118
   9 H :    0.124858
  10 H :    0.126433
  11 H :    0.128585
  12 H :    0.152165
  13 H :    0.137475
  14 H :    0.135514
  15 H :    0.132092
  16 H :    0.127870
  17 H :    0.131111
  18 H :    0.149209
  19 H :    0.121435
  20 H :    0.125658
  21 H :    0.126111

  Mayer bond orders larger than 0.1
B(  0-C ,  1-C ) :   0.8522 B(  0-C ,  9-H ) :   0.9334 B(  0-C , 10-H ) :   0.9342
B(  0-C , 11-H ) :   0.9403 B(  1-C ,  2-C ) :   0.9741 B(  1-C ,  8-N ) :   0.9144
B(  1-C , 12-H ) :   0.9367 B(  2-C ,  3-C ) :   0.9179 B(  2-C ,  8-N ) :   0.8682
B(  2-C , 13-H ) :   0.9062 B(  3-C ,  4-C ) :   0.9194 B(  3-C ,  6-C ) :   0.8895
B(  3-C , 14-H ) :   0.9073 B(  4-C ,  5-C ) :   0.8861 B(  4-C , 15-H ) :   0.9134
B(  4-C , 16-H ) :   0.9261 B(  5-C ,  6-C ) :   0.8679 B(  5-C ,  8-N ) :   0.8784
B(  5-C , 17-H ) :   0.9253 B(  6-C ,  7-C ) :   0.9075 B(  6-C , 18-H ) :   0.9356
B(  7-C , 19-H ) :   0.9343 B(  7-C , 20-H ) :   0.9407 B(  7-C , 21-H ) :   0.9423

MP2 TOTAL ENERGY:     -366.488844544 Eh
FINAL SINGLE POINT ENERGY      -366.488844543540

DIPOLE MOMENT
-------------
                                X             Y             Z
Electronic contribution:     -1.86270      -4.13828       1.90206
Nuclear contribution   :      1.86904       4.60490      -2.35634
                        -----------------------------------------
Total Dipole Moment    :      0.00633       0.46662      -0.45427
                        -----------------------------------------
Magnitude (a.u.)       :      0.65126
Magnitude (Debye)      :      1.65537

                             ****ORCA TERMINATED NORMALLY****
TOTAL RUN TIME: 0 days 0 hours 23 minutes 17 seconds 774 msec
