                         Program Version 3.0.3 - RELEASE   -
|  1> ! RI-MP2 RIJK def2-TZVP def2-TZVP/C def2-TZVP/JK TIGHTSCF
|  2> % maxcore 2000
|  3> % mp2 density relaxed end
|  4> *xyz 0 1
|  5>  C        0.1923159473     1.4295311962     0.1191604290
|  6>  C        0.0066280838    -0.0493759438     0.0077769781
|  7>  C        0.0493229061    -0.8119875173    -1.0889896581
|  8>  C       -0.1186356741    -2.2912751538    -0.8211848463
|  9>  O        0.9050259007    -3.0901657475    -1.4059873380
| 10>  C       -0.2058999590    -2.3564724436     0.7267104800
| 11>  C        1.1102074791    -2.4429026860     1.5312131103
| 12>  O        0.9681463248    -1.0932191969     2.0305748884
| 13>  C       -0.2323320782    -0.9000770435     1.2338903347
| 14>  H        1.0095281933     1.6551161970     0.8144622318
| 15>  H        0.4209522770     1.8875454942    -0.8465176551
| 16>  H       -0.7067533407     1.9112224226     0.5237887679
| 17>  H        0.2154419798    -0.4456528612    -2.0979023912
| 18>  H       -1.0407533522    -2.6811256440    -1.2685877056
| 19>  H        1.7463142163    -2.6506176209    -1.2416484007
| 20>  H       -0.9900961841    -3.0234895480     1.0825070720
| 21>  H        1.1156802385    -3.1738823209     2.3469773271
| 22>  H        2.0255613556    -2.5751473181     0.9405857610
| 23>  H       -1.0656349140    -0.5548786545     1.8576380547
| 24> *
| 25>
| 26>                          ****END OF INPUT****

CARTESIAN COORDINATES (ANGSTROEM)
---------------------------------
  C      0.192316    1.429531    0.119160
  C      0.006628   -0.049376    0.007777
  C      0.049323   -0.811988   -1.088990
  C     -0.118636   -2.291275   -0.821185
  O      0.905026   -3.090166   -1.405987
  C     -0.205900   -2.356472    0.726710
  C      1.110207   -2.442903    1.531213
  O      0.968146   -1.093219    2.030575
  C     -0.232332   -0.900077    1.233890
  H      1.009528    1.655116    0.814462
  H      0.420952    1.887545   -0.846518
  H     -0.706753    1.911222    0.523789
  H      0.215442   -0.445653   -2.097902
  H     -1.040753   -2.681126   -1.268588
  H      1.746314   -2.650618   -1.241648
  H     -0.990096   -3.023490    1.082507
  H      1.115680   -3.173882    2.346977
  H      2.025561   -2.575147    0.940586
  H     -1.065635   -0.554879    1.857638

 Total Charge           Charge          ....    0
 Multiplicity           Mult            ....    1
 Number of Electrons    NEL             ....   68
 Basis Dimension        Dim             ....  339

ORBITAL ENERGIES
----------------

  NO   OCC          E(Eh)            E(eV)
   0   2.0000     -20.558584      -559.4275
   1   2.0000     -20.549228      -559.1729
   2   2.0000     -11.289156      -307.1936
   3   2.0000     -11.288045      -307.1633
   4   2.0000     -11.281744      -306.9919
   5   2.0000     -11.244516      -305.9788
   6   2.0000     -11.234704      -305.7118
   7   2.0000     -11.229302      -305.5648
   8   2.0000     -11.229006      -305.5568
   9   2.0000      -1.380470       -37.5645
  10   2.0000      -1.362679       -37.0804
  11   2.0000      -1.128481       -30.7075
  12   2.0000      -1.028938       -27.9988
  13   2.0000      -0.957754       -26.0618
  14   2.0000      -0.932621       -25.3779
  15   2.0000      -0.883996       -24.0548
  16   2.0000      -0.765168       -20.8213
  17   2.0000      -0.732065       -19.9205
  18   2.0000      -0.709737       -19.3129
  19   2.0000      -0.679748       -18.4969
  20   2.0000      -0.638914       -17.3857
  21   2.0000      -0.611645       -16.6437
  22   2.0000      -0.604789       -16.4571
  23   2.0000      -0.585510       -15.9325
  24   2.0000      -0.580459       -15.7951
  25   2.0000      -0.565990       -15.4014
  26   2.0000      -0.550725       -14.9860
  27   2.0000      -0.520320       -14.1586
  28   2.0000      -0.505326       -13.7506
  29   2.0000      -0.463585       -12.6148
  30   2.0000      -0.459840       -12.5129
  31   2.0000      -0.434329       -11.8187
  32   2.0000      -0.417579       -11.3629
  33   2.0000      -0.361124        -9.8267
  34   0.0000       0.129920         3.5353
  35   0.0000       0.140679         3.8281
  36   0.0000       0.153716         4.1828
  37   0.0000       0.161260         4.3881
  38   0.0000       0.180892         4.9223

MULLIKEN ATOMIC CHARGES
-----------------------
   0 C :   -0.443266
   1 C :   -0.008748
   2 C :   -0.259355
   3 C :    0.097859
   4 O :   -0.460047
   5 C :   -0.093733
   6 C :   -0.044363
   7 O :   -0.344181
   8 C :    0.165442
   9 H :    0.158869
  10 H :    0.138267
  11 H :    0.142603
  12 H :    0.133168
  13 H :    0.106439
  14 H :    0.312825
  15 H :    0.122026
  16 H :    0.104966
  17 H :    0.067839
  18 H :    0.103392
Sum of atomic charges:    0.0000000

LOEWDIN ATOMIC CHARGES
----------------------
   0 C :   -0.268965
   1 C :   -0.162645
   2 C :   -0.120476
   3 C :   -0.304290
   4 O :   -0.018586
   5 C :   -0.172809
   6 C :   -0.244645
   7 O :    0.126883
   8 C :   -0.210196
   9 H :    0.139544
  10 H :    0.130686
  11 H :    0.133507
  12 H :    0.141568
  13 H :    0.146089
  14 H :    0.170173
  15 H :    0.144760
  16 H :    0.119963
  17 H :    0.112070
  18 H :    0.137368

  Mayer bond orders larger than 0.1
B(  0-C ,  1-C ) :   0.8959 B(  0-C ,  9-H ) :   0.9319 B(  0-C , 10-H ) :   0.9465
B(  0-C , 11-H ) :   0.9278 B(  1-C ,  2-C ) :   1.6904 B(  1-C ,  8-C ) :   0.9014
B(  2-C ,  3-C ) :   0.9806 B(  2-C , 12-H ) :   0.9330 B(  3-C ,  4-O ) :   0.9376
B(  3-C ,  5-C ) :   0.9206 B(  3-C , 13-H ) :   0.9172 B(  4-O , 14-H ) :   0.8401
B(  5-C ,  6-C ) :   0.9703 B(  5-C ,  8-C ) :   0.9392 B(  5-C , 15-H ) :   0.9140
B(  6-C ,  7-O ) :   0.9544 B(  6-C , 16-H ) :   0.9210 B(  6-C , 17-H ) :   0.8954
B(  7-O ,  8-C ) :   0.9214 B(  8-C , 18-H ) :   0.9175

MP2 TOTAL ENERGY:     -422.309707841 Eh
FINAL SINGLE POINT ENERGY      -422.309707841490

DIPOLE MOMENT
-------------
                                X             Y             Z
Electronic contribution:      0.27961      -2.92077       0.35164
Nuclear contribution   :     -0.57015       3.25357      -0.44518
                        -----------------------------------------
Total Dipole Moment    :     -0.29054       0.33280      -0.09354
                        -----------------------------------------
Magnitude (a.u.)       :      0.45157
Magnitude (Debye)      :      1.14780

                             ****ORCA TERMINATED NORMALLY****
TOTAL RUN TIME: 0 days 0 hours 18 minutes 18 seconds 579 msec
