                         Program Version 3.0.3 - RELEASE   -
|  1> ! RI-MP2 RIJK def2-TZVP def2-TZVP/C def2-TZVP/JK TIGHTSCF
|  2> % maxcore 2000
|  3> % mp2 density relaxed end
|  4> *xyz 0 1
|  5>  C        0.0701284207     1.6459683136     0.0346544947
|  6>  C       -0.0095910963     0.1177570964     0.0150810831
|  7>  O        0.6892711998    -0.3146222085     1.1790142961
|  8>  C       -1.4596822047    -0.4046027967     0.0209062294
|  9>  C       -2.2847912420     0.0216078692     1.2311136213
| 10>  O       -3.5032612505    -0.7068050451     1.1754955784
| 11>  C        0.6924662066    -0.4465627149    -1.2557825338
| 12>  C        2.1091058066    -0.1012621124    -1.3369835666
| 13>  N        3.2286022473     0.1743128905    -1.4125609703
| 14>  H        1.1109894526     1.9703838743    -0.0374790259
| 15>  H       -0.4918322975     2.0760551338    -0.7994215668
| 16>  H       -0.3387079713     2.0341823910     0.9696338317
| 17>  H        0.6483351735    -1.2767097342     1.2237810674
| 18>  H       -1.9749197241    -0.0916565226    -0.8946748701
| 19>  H       -1.4423777171    -1.5030498581     0.0053650488
| 20>  H       -1.7222908382    -0.1956286151     2.1501433373
| 21>  H       -2.4716062702     1.1053306316     1.2048224028
| 22>  H       -4.0400049144    -0.4505356735     1.9310633445
| 23>  H        0.5997774022    -1.5395784246    -1.2672699483
| 24>  H        0.1878867370    -0.0804931546    -2.1568818038
| 25> *
| 26>
| 27>                          ****END OF INPUT****

CARTESIAN COORDINATES (ANGSTROEM)
---------------------------------
  C      0.070128    1.645968    0.034654
  C     -0.009591    0.117757    0.015081
  O      0.689271   -0.314622    1.179014
  C     -1.459682   -0.404603    0.020906
  C     -2.284791    0.021608    1.231114
  O     -3.503261   -0.706805    1.175496
  C      0.692466   -0.446563   -1.255783
  C      2.109106   -0.101262   -1.336984
  N      3.228602    0.174313   -1.412561
  H      1.110989    1.970384   -0.037479
  H     -0.491832    2.076055   -0.799422
  H     -0.338708    2.034182    0.969634
  H      0.648335   -1.276710    1.223781
  H     -1.974920   -0.091657   -0.894675
  H     -1.442378   -1.503050    0.005365
  H     -1.722291   -0.195629    2.150143
  H     -2.471606    1.105331    1.204822
  H     -4.040005   -0.450536    1.931063
  H      0.599777   -1.539578   -1.267270
  H      0.187887   -0.080493   -2.156882

 Total Charge           Charge          ....    0
 Multiplicity           Mult            ....    1
 Number of Electrons    NEL             ....   70
 Basis Dimension        Dim             ....  345

ORBITAL ENERGIES
----------------

  NO   OCC          E(Eh)            E(eV)
   0   2.0000     -20.574103      -559.8498
   1   2.0000     -20.567202      -559.6620
   2   2.0000     -15.566539      -423.5870
   3   2.0000     -11.320424      -308.0444
   4   2.0000     -11.287822      -307.1573
   5   2.0000     -11.284793      -307.0748
   6   2.0000     -11.271530      -306.7139
   7   2.0000     -11.242119      -305.9136
   8   2.0000     -11.229374      -305.5668
   9   2.0000      -1.386306       -37.7233
  10   2.0000      -1.370980       -37.3063
  11   2.0000      -1.216248       -33.0958
  12   2.0000      -1.106066       -30.0976
  13   2.0000      -1.028329       -27.9823
  14   2.0000      -0.981964       -26.7206
  15   2.0000      -0.880739       -23.9661
  16   2.0000      -0.798797       -21.7364
  17   2.0000      -0.728625       -19.8269
  18   2.0000      -0.705216       -19.1899
  19   2.0000      -0.677201       -18.4276
  20   2.0000      -0.669823       -18.2268
  21   2.0000      -0.650638       -17.7048
  22   2.0000      -0.633989       -17.2517
  23   2.0000      -0.585227       -15.9248
  24   2.0000      -0.579670       -15.7736
  25   2.0000      -0.553311       -15.0564
  26   2.0000      -0.552183       -15.0257
  27   2.0000      -0.541791       -14.7429
  28   2.0000      -0.531060       -14.4509
  29   2.0000      -0.513002       -13.9595
  30   2.0000      -0.492051       -13.3894
  31   2.0000      -0.472214       -12.8496
  32   2.0000      -0.457962       -12.4618
  33   2.0000      -0.454382       -12.3644
  34   2.0000      -0.442225       -12.0336
  35   0.0000       0.107533         2.9261
  36   0.0000       0.129183         3.5152
  37   0.0000       0.146993         3.9999
  38   0.0000       0.163383         4.4459
  39   0.0000       0.167900         4.5688

MULLIKEN ATOMIC CHARGES
-----------------------
   0 C :   -0.442103
   1 C :    0.166009
   2 O :   -0.456843
   3 C :   -0.190913
   4 C :   -0.090786
   5 O :   -0.464009
   6 C :   -0.162469
   7 C :   -0.168320
   8 N :   -0.046067
   9 H :    0.170415
  10 H :    0.128496
  11 H :    0.145491
  12 H :    0.316036
  13 H :    0.119642
  14 H :    0.119750
  15 H :    0.113296
  16 H :    0.105747
  17 H :    0.318582
  18 H :    0.157044
  19 H :    0.161003
Sum of atomic charges:   -0.0000000

LOEWDIN ATOMIC CHARGES
----------------------
   0 C :   -0.257983
   1 C :   -0.395410
   2 O :    0.025153
   3 C :   -0.238542
   4 C :   -0.347162
   5 O :   -0.050467
   6 C :   -0.217584
   7 C :   -0.194538
   8 N :    0.060057
   9 H :    0.138547
  10 H :    0.131010
  11 H :    0.131220
  12 H :    0.179005
  13 H :    0.147514
  14 H :    0.145378
  15 H :    0.119655
  16 H :    0.116464
  17 H :    0.173665
  18 H :    0.164791
  19 H :    0.169227

  Mayer bond orders larger than 0.1
B(  0-C ,  1-C ) :   0.8903 B(  0-C ,  9-H ) :   0.9317 B(  0-C , 10-H ) :   0.9289
B(  0-C , 11-H ) :   0.9374 B(  1-C ,  2-O ) :   0.9157 B(  1-C ,  3-C ) :   0.9294
B(  1-C ,  6-C ) :   0.9003 B(  2-O , 12-H ) :   0.8382 B(  3-C ,  4-C ) :   0.9272
B(  3-C , 13-H ) :   0.9164 B(  3-C , 14-H ) :   0.9099 B(  4-C ,  5-O ) :   1.0187
B(  4-C , 15-H ) :   0.9298 B(  4-C , 16-H ) :   0.9358 B(  5-O , 17-H ) :   0.8478
B(  6-C ,  7-C ) :   0.9491 B(  6-C , 18-H ) :   0.8996 B(  6-C , 19-H ) :   0.9034
B(  7-C ,  8-N ) :   2.8834

MP2 TOTAL ENERGY:     -439.589238619 Eh
FINAL SINGLE POINT ENERGY      -439.589238618818

DIPOLE MOMENT
-------------
                                X             Y             Z
Electronic contribution:      6.02851      -2.25617      -1.50069
Nuclear contribution   :     -7.70804       2.05436       1.83328
                        -----------------------------------------
Total Dipole Moment    :     -1.67953      -0.20181       0.33259
                        -----------------------------------------
Magnitude (a.u.)       :      1.72399
Magnitude (Debye)      :      4.38204

                             ****ORCA TERMINATED NORMALLY****
TOTAL RUN TIME: 0 days 0 hours 16 minutes 29 seconds 165 msec
