                         Program Version 3.0.3 - RELEASE   -
|  1> ! RI-MP2 RIJK def2-TZVP def2-TZVP/C def2-TZVP/JK TIGHTSCF
|  2> % maxcore 2000
|  3> % mp2 density relaxed end
|  4> *xyz 0 1
|  5>  C        0.0347491600    -1.2031873486    -0.0013041698
|  6>  C        0.0093352354    -0.0024307541    -0.0159654203
|  7>  C       -0.0187548566     1.4568664294    -0.0038383816
|  8>  N        1.3203568104     2.0216139345     0.0653980169
|  9>  C        2.1101106726     1.8105354211     1.2934525126
| 10>  C        2.6750936552     3.2514273011     1.1152891239
| 11>  C        1.4411273057     3.4847050025     0.1948202060
| 12>  C        2.8256464108     4.0858552353     2.2912484751
| 13>  N        2.9367848978     4.7503111858     3.2308596525
| 14>  H        0.0531170732    -2.2650920948     0.0015080014
| 15>  H       -0.4952925915     1.8255939619    -0.9213833653
| 16>  H       -0.6527829512     1.7980553582     0.8390402755
| 17>  H        1.4970953895     1.7293092919     2.2039953294
| 18>  H        2.8201759838     0.9816925047     1.2564776876
| 19>  H        3.6034047721     3.2462441285     0.5409565676
| 20>  H        1.6044936954     4.0267954421    -0.7405753113
| 21>  H        0.6112403673     3.9504551905     0.7493884699
| 22> *
| 23>
| 24>                          ****END OF INPUT****

CARTESIAN COORDINATES (ANGSTROEM)
---------------------------------
  C      0.034749   -1.203187   -0.001304
  C      0.009335   -0.002431   -0.015965
  C     -0.018755    1.456866   -0.003838
  N      1.320357    2.021614    0.065398
  C      2.110111    1.810535    1.293453
  C      2.675094    3.251427    1.115289
  C      1.441127    3.484705    0.194820
  C      2.825646    4.085855    2.291248
  N      2.936785    4.750311    3.230860
  H      0.053117   -2.265092    0.001508
  H     -0.495293    1.825594   -0.921383
  H     -0.652783    1.798055    0.839040
  H      1.497095    1.729309    2.203995
  H      2.820176    0.981693    1.256478
  H      3.603405    3.246244    0.540957
  H      1.604494    4.026795   -0.740575
  H      0.611240    3.950455    0.749388

 Total Charge           Charge          ....    0
 Multiplicity           Mult            ....    1
 Number of Electrons    NEL             ....   64
 Basis Dimension        Dim             ....  327

ORBITAL ENERGIES
----------------

  NO   OCC          E(Eh)            E(eV)
   0   2.0000     -15.578109      -423.9019
   1   2.0000     -15.573625      -423.7799
   2   2.0000     -11.296499      -307.3934
   3   2.0000     -11.292126      -307.2744
   4   2.0000     -11.289157      -307.1936
   5   2.0000     -11.285716      -307.0999
   6   2.0000     -11.276401      -306.8465
   7   2.0000     -11.244606      -305.9813
   8   2.0000     -11.234847      -305.7157
   9   2.0000      -1.287798       -35.0428
  10   2.0000      -1.220669       -33.2161
  11   2.0000      -1.098878       -29.9020
  12   2.0000      -1.030229       -28.0340
  13   2.0000      -0.951668       -25.8962
  14   2.0000      -0.948179       -25.8013
  15   2.0000      -0.816048       -22.2058
  16   2.0000      -0.748875       -20.3779
  17   2.0000      -0.723971       -19.7003
  18   2.0000      -0.703978       -19.1562
  19   2.0000      -0.664351       -18.0779
  20   2.0000      -0.638362       -17.3707
  21   2.0000      -0.599369       -16.3097
  22   2.0000      -0.586554       -15.9609
  23   2.0000      -0.562340       -15.3021
  24   2.0000      -0.553652       -15.0656
  25   2.0000      -0.531844       -14.4722
  26   2.0000      -0.515995       -14.0409
  27   2.0000      -0.458607       -12.4793
  28   2.0000      -0.448743       -12.2109
  29   2.0000      -0.406828       -11.0704
  30   2.0000      -0.404060       -10.9950
  31   2.0000      -0.387019       -10.5313
  32   0.0000       0.122271         3.3272
  33   0.0000       0.134092         3.6488
  34   0.0000       0.146951         3.9987
  35   0.0000       0.157078         4.2743
  36   0.0000       0.161767         4.4019

MULLIKEN ATOMIC CHARGES
-----------------------
   0 C :   -0.103774
   1 C :   -0.019121
   2 C :   -0.319395
   3 N :   -0.112630
   4 C :   -0.210176
   5 C :    0.108968
   6 C :   -0.210745
   7 C :   -0.235070
   8 N :   -0.055437
   9 H :    0.195117
  10 H :    0.149614
  11 H :    0.132311
  12 H :    0.128817
  13 H :    0.137092
  14 H :    0.153352
  15 H :    0.132895
  16 H :    0.128184
Sum of atomic charges:    0.0000000

LOEWDIN ATOMIC CHARGES
----------------------
   0 C :   -0.089774
   1 C :   -0.106035
   2 C :   -0.281663
   3 N :    0.099029
   4 C :   -0.202638
   5 C :   -0.212356
   6 C :   -0.208963
   7 C :   -0.179977
   8 N :    0.063753
   9 H :    0.128517
  10 H :    0.155334
  11 H :    0.140277
  12 H :    0.132950
  13 H :    0.129042
  14 H :    0.175131
  15 H :    0.126664
  16 H :    0.130711

  Mayer bond orders larger than 0.1
B(  0-C ,  1-C ) :   2.6236 B(  0-C ,  2-C ) :  -0.1004 B(  0-C ,  9-H ) :   0.8988
B(  1-C ,  2-C ) :   1.0920 B(  2-C ,  3-N ) :   0.9662 B(  2-C , 10-H ) :   0.9007
B(  2-C , 11-H ) :   0.9464 B(  3-N ,  4-C ) :   0.9109 B(  3-N ,  6-C ) :   0.9183
B(  4-C ,  5-C ) :   0.8842 B(  4-C , 12-H ) :   0.9179 B(  4-C , 13-H ) :   0.9222
B(  5-C ,  6-C ) :   0.8834 B(  5-C ,  7-C ) :   0.9347 B(  5-C , 14-H ) :   0.8958
B(  6-C , 15-H ) :   0.9182 B(  6-C , 16-H ) :   0.9240 B(  7-C ,  8-N ) :   2.8597

MP2 TOTAL ENERGY:     -380.131302454 Eh
FINAL SINGLE POINT ENERGY      -380.131302454299

DIPOLE MOMENT
-------------
                                X             Y             Z
Electronic contribution:      2.20315       1.49449       2.12632
Nuclear contribution   :     -2.61474      -2.19353      -3.09331
                        -----------------------------------------
Total Dipole Moment    :     -0.41159      -0.69905      -0.96699
                        -----------------------------------------
Magnitude (a.u.)       :      1.26220
Magnitude (Debye)      :      3.20826

                             ****ORCA TERMINATED NORMALLY****
TOTAL RUN TIME: 0 days 0 hours 15 minutes 6 seconds 980 msec
