                         Program Version 3.0.3 - RELEASE   -
|  1> ! RI-MP2 RIJK def2-TZVP def2-TZVP/C def2-TZVP/JK TIGHTSCF
|  2> % maxcore 2000
|  3> % mp2 density relaxed end
|  4> *xyz 0 1
|  5>  C        0.2817925772     1.6287171878    -0.0445347283
|  6>  C       -0.0110980878     0.1225519750     0.0069863001
|  7>  C        0.5327039044    -0.5510095219    -1.2638602673
|  8>  O        0.0476741679    -1.8558460985    -1.5342565835
|  9>  C        0.2156972254    -2.8603781295    -0.5512372062
| 10>  C       -0.6769104686    -2.6924488547     0.7143082458
| 11>  C        0.5332217129    -2.0116155683     1.4214597753
| 12>  C        1.4507608559    -2.7165401846     0.3792108667
| 13>  C        0.5407934804    -0.4800513300     1.3175645716
| 14>  H        1.3596181845     1.8183678985    -0.1157181949
| 15>  H       -0.1984858418     2.1013038608    -0.9074469240
| 16>  H       -0.0806157898     2.1307732698     0.8581496115
| 17>  H       -1.1005349738    -0.0095986585    -0.0080253125
| 18>  H        0.2270527868     0.0334376871    -2.1381205858
| 19>  H        1.6346314233    -0.5362267921    -1.2424807407
| 20>  H        0.1129512373    -3.8024706531    -1.0957093914
| 21>  H       -1.6042291827    -2.1277656727     0.5956620221
| 22>  H       -0.9095137571    -3.6647589517     1.1585356694
| 23>  H        0.7040658524    -2.3005221826     2.4625487778
| 24>  H        1.7719572298    -3.7010118699     0.7303012012
| 25>  H        2.3277763971    -2.1826002257     0.0052291117
| 26>  H        1.5730509893    -0.1290519539     1.4623857264
| 27>  H       -0.0392853428    -0.0617574314     2.1502097349
| 28> *
| 29>
| 30>                          ****END OF INPUT****

CARTESIAN COORDINATES (ANGSTROEM)
---------------------------------
  C      0.281793    1.628717   -0.044535
  C     -0.011098    0.122552    0.006986
  C      0.532704   -0.551010   -1.263860
  O      0.047674   -1.855846   -1.534257
  C      0.215697   -2.860378   -0.551237
  C     -0.676910   -2.692449    0.714308
  C      0.533222   -2.011616    1.421460
  C      1.450761   -2.716540    0.379211
  C      0.540793   -0.480051    1.317565
  H      1.359618    1.818368   -0.115718
  H     -0.198486    2.101304   -0.907447
  H     -0.080616    2.130773    0.858150
  H     -1.100535   -0.009599   -0.008025
  H      0.227053    0.033438   -2.138121
  H      1.634631   -0.536227   -1.242481
  H      0.112951   -3.802471   -1.095709
  H     -1.604229   -2.127766    0.595662
  H     -0.909514   -3.664759    1.158536
  H      0.704066   -2.300522    2.462549
  H      1.771957   -3.701012    0.730301
  H      2.327776   -2.182600    0.005229
  H      1.573051   -0.129052    1.462386
  H     -0.039285   -0.061757    2.150210

 Total Charge           Charge          ....    0
 Multiplicity           Mult            ....    1
 Number of Electrons    NEL             ....   70
 Basis Dimension        Dim             ....  363

ORBITAL ENERGIES
----------------

  NO   OCC          E(Eh)            E(eV)
   0   2.0000     -20.544593      -559.0468
   1   2.0000     -11.273492      -306.7673
   2   2.0000     -11.266468      -306.5762
   3   2.0000     -11.227328      -305.5111
   4   2.0000     -11.225702      -305.4669
   5   2.0000     -11.219726      -305.3043
   6   2.0000     -11.217335      -305.2392
   7   2.0000     -11.216017      -305.2033
   8   2.0000     -11.214255      -305.1554
   9   2.0000      -1.364835       -37.1390
  10   2.0000      -1.127667       -30.6854
  11   2.0000      -1.078654       -29.3517
  12   2.0000      -0.952698       -25.9242
  13   2.0000      -0.922810       -25.1109
  14   2.0000      -0.900195       -24.4956
  15   2.0000      -0.854046       -23.2398
  16   2.0000      -0.755060       -20.5462
  17   2.0000      -0.728778       -19.8311
  18   2.0000      -0.686119       -18.6702
  19   2.0000      -0.659739       -17.9524
  20   2.0000      -0.624854       -17.0031
  21   2.0000      -0.619065       -16.8456
  22   2.0000      -0.580824       -15.8050
  23   2.0000      -0.565413       -15.3857
  24   2.0000      -0.562154       -15.2970
  25   2.0000      -0.550954       -14.9922
  26   2.0000      -0.527658       -14.3583
  27   2.0000      -0.515176       -14.0187
  28   2.0000      -0.492328       -13.3969
  29   2.0000      -0.479928       -13.0595
  30   2.0000      -0.447680       -12.1820
  31   2.0000      -0.446902       -12.1608
  32   2.0000      -0.430877       -11.7248
  33   2.0000      -0.418808       -11.3964
  34   2.0000      -0.389964       -10.6115
  35   0.0000       0.133185         3.6242
  36   0.0000       0.150467         4.0944
  37   0.0000       0.163502         4.4491
  38   0.0000       0.168620         4.5884
  39   0.0000       0.182365         4.9624

MULLIKEN ATOMIC CHARGES
-----------------------
   0 C :   -0.408405
   1 C :   -0.034958
   2 C :   -0.104549
   3 O :   -0.310625
   4 C :    0.121567
   5 C :   -0.299726
   6 C :    0.055940
   7 C :   -0.323312
   8 C :   -0.319386
   9 H :    0.125752
  10 H :    0.136296
  11 H :    0.134847
  12 H :    0.087968
  13 H :    0.122236
  14 H :    0.093471
  15 H :    0.107706
  16 H :    0.119638
  17 H :    0.117282
  18 H :    0.103848
  19 H :    0.124082
  20 H :    0.122420
  21 H :    0.109483
  22 H :    0.118424
Sum of atomic charges:    0.0000000

LOEWDIN ATOMIC CHARGES
----------------------
   0 C :   -0.292803
   1 C :   -0.284954
   2 C :   -0.299861
   3 O :    0.175951
   4 C :   -0.293335
   5 C :   -0.204491
   6 C :   -0.229450
   7 C :   -0.209228
   8 C :   -0.229668
   9 H :    0.123830
  10 H :    0.123246
  11 H :    0.125225
  12 H :    0.152337
  13 H :    0.134533
  14 H :    0.121548
  15 H :    0.130469
  16 H :    0.127877
  17 H :    0.136998
  18 H :    0.137706
  19 H :    0.140443
  20 H :    0.127576
  21 H :    0.143323
  22 H :    0.142730

  Mayer bond orders larger than 0.1
B(  0-C ,  1-C ) :   0.8989 B(  0-C ,  9-H ) :   0.9318 B(  0-C , 10-H ) :   0.9436
B(  0-C , 11-H ) :   0.9378 B(  1-C ,  2-C ) :   0.9109 B(  1-C ,  8-C ) :   0.9370
B(  1-C , 12-H ) :   0.9201 B(  2-C ,  3-O ) :   0.9586 B(  2-C , 13-H ) :   0.9262
B(  2-C , 14-H ) :   0.9373 B(  3-O ,  4-C ) :   0.9466 B(  4-C ,  5-C ) :   0.8818
B(  4-C ,  7-C ) :   0.8903 B(  4-C , 15-H ) :   0.9467 B(  5-C ,  6-C ) :   0.8969
B(  5-C , 16-H ) :   0.9268 B(  5-C , 17-H ) :   0.9130 B(  6-C ,  7-C ) :   0.8807
B(  6-C ,  8-C ) :   0.9051 B(  6-C , 18-H ) :   0.9282 B(  7-C , 19-H ) :   0.9144
B(  7-C , 20-H ) :   0.9290 B(  8-C , 21-H ) :   0.9268 B(  8-C , 22-H ) :   0.9229

MP2 TOTAL ENERGY:     -387.611063033 Eh
FINAL SINGLE POINT ENERGY      -387.611063032506

DIPOLE MOMENT
-------------
                                X             Y             Z
Electronic contribution:     -0.97381      -4.52576      -2.80714
Nuclear contribution   :      1.14758       4.67380       3.31933
                        -----------------------------------------
Total Dipole Moment    :      0.17377       0.14804       0.51219
                        -----------------------------------------
Magnitude (a.u.)       :      0.56076
Magnitude (Debye)      :      1.42535

                             ****ORCA TERMINATED NORMALLY****
TOTAL RUN TIME: 0 days 0 hours 21 minutes 42 seconds 31 msec
