                         Program Version 3.0.3 - RELEASE   -
|  1> ! RI-MP2 RIJK def2-TZVP def2-TZVP/C def2-TZVP/JK TIGHTSCF
|  2> % maxcore 2000
|  3> % mp2 density relaxed end
|  4> *xyz 0 1
|  5>  C       -0.1055716584     1.5968312335     0.0255696620
|  6>  C        0.0397698867     0.0770675753     0.0037049961
|  7>  C        0.9149141078    -0.5304021570    -1.1225779716
|  8>  C        2.3488969286    -0.0914755062    -0.7545271978
|  9>  C        2.2975300676    -0.6375119303     0.6669102005
| 10>  C        1.3652058342    -1.8264746481     0.5585671167
| 11>  O        0.9208790260    -1.9291837474    -0.7830842213
| 12>  C        0.8417450849    -0.5423613837     1.1547469628
| 13>  C        0.4579951982    -0.3841322585     2.5994097745
| 14>  H        0.8558594891     2.1033231461     0.1511170294
| 15>  H       -0.5631488525     1.9632808031    -0.9000038514
| 16>  H       -0.7488926092     1.9113565723     0.8538824694
| 17>  H       -0.9546076322    -0.3841521526    -0.0478616737
| 18>  H        0.5831064430    -0.4020539868    -2.1513264846
| 19>  H        3.0933967263    -0.5976097667    -1.3758054015
| 20>  H        2.5037176068     0.9877261548    -0.8169988122
| 21>  H        3.1373799263    -0.6156699657     1.3488754453
| 22>  H        1.4706527451    -2.7701580918     1.0758352983
| 23>  H        0.5031817939     0.6639860605     2.9179882150
| 24>  H       -0.5620343680    -0.7432820173     2.7808062305
| 25>  H        1.1286959859    -0.9519394134     3.2528592237
| 26> *
| 27>
| 28>                          ****END OF INPUT****

CARTESIAN COORDINATES (ANGSTROEM)
---------------------------------
  C     -0.105572    1.596831    0.025570
  C      0.039770    0.077068    0.003705
  C      0.914914   -0.530402   -1.122578
  C      2.348897   -0.091476   -0.754527
  C      2.297530   -0.637512    0.666910
  C      1.365206   -1.826475    0.558567
  O      0.920879   -1.929184   -0.783084
  C      0.841745   -0.542361    1.154747
  C      0.457995   -0.384132    2.599410
  H      0.855859    2.103323    0.151117
  H     -0.563149    1.963281   -0.900004
  H     -0.748893    1.911357    0.853882
  H     -0.954608   -0.384152   -0.047862
  H      0.583106   -0.402054   -2.151326
  H      3.093397   -0.597610   -1.375805
  H      2.503718    0.987726   -0.816999
  H      3.137380   -0.615670    1.348875
  H      1.470653   -2.770158    1.075835
  H      0.503182    0.663986    2.917988
  H     -0.562034   -0.743282    2.780806
  H      1.128696   -0.951939    3.252859

 Total Charge           Charge          ....    0
 Multiplicity           Mult            ....    1
 Number of Electrons    NEL             ....   68
 Basis Dimension        Dim             ....  351

ORBITAL ENERGIES
----------------

  NO   OCC          E(Eh)            E(eV)
   0   2.0000     -20.550078      -559.1961
   1   2.0000     -11.275559      -306.8236
   2   2.0000     -11.270907      -306.6970
   3   2.0000     -11.232006      -305.6384
   4   2.0000     -11.227459      -305.5147
   5   2.0000     -11.226029      -305.4758
   6   2.0000     -11.222250      -305.3729
   7   2.0000     -11.221851      -305.3621
   8   2.0000     -11.217651      -305.2478
   9   2.0000      -1.390406       -37.8349
  10   2.0000      -1.152612       -31.3642
  11   2.0000      -1.041490       -28.3404
  12   2.0000      -1.010260       -27.4906
  13   2.0000      -0.948948       -25.8222
  14   2.0000      -0.898627       -24.4529
  15   2.0000      -0.787362       -21.4252
  16   2.0000      -0.772123       -21.0105
  17   2.0000      -0.728357       -19.8196
  18   2.0000      -0.694971       -18.9111
  19   2.0000      -0.647403       -17.6167
  20   2.0000      -0.626380       -17.0447
  21   2.0000      -0.586618       -15.9627
  22   2.0000      -0.563507       -15.3338
  23   2.0000      -0.559214       -15.2170
  24   2.0000      -0.556022       -15.1301
  25   2.0000      -0.543795       -14.7974
  26   2.0000      -0.539498       -14.6805
  27   2.0000      -0.515767       -14.0347
  28   2.0000      -0.498611       -13.5679
  29   2.0000      -0.483670       -13.1613
  30   2.0000      -0.460638       -12.5346
  31   2.0000      -0.436648       -11.8818
  32   2.0000      -0.385530       -10.4908
  33   2.0000      -0.362955        -9.8765
  34   0.0000       0.132149         3.5960
  35   0.0000       0.159431         4.3383
  36   0.0000       0.167680         4.5628
  37   0.0000       0.174342         4.7441
  38   0.0000       0.190870         5.1938

MULLIKEN ATOMIC CHARGES
-----------------------
   0 C :   -0.450061
   1 C :   -0.011264
   2 C :    0.078807
   3 C :   -0.251465
   4 C :   -0.172560
   5 C :   -0.028310
   6 O :   -0.313839
   7 C :    0.044104
   8 C :   -0.449504
   9 H :    0.132242
  10 H :    0.137152
  11 H :    0.138761
  12 H :    0.095462
  13 H :    0.133699
  14 H :    0.119075
  15 H :    0.123174
  16 H :    0.131409
  17 H :    0.134367
  18 H :    0.138106
  19 H :    0.137034
  20 H :    0.133609
Sum of atomic charges:   -0.0000000

LOEWDIN ATOMIC CHARGES
----------------------
   0 C :   -0.285950
   1 C :   -0.204939
   2 C :   -0.251254
   3 C :   -0.209185
   4 C :   -0.164507
   5 C :   -0.227175
   6 O :    0.199882
   7 C :   -0.210459
   8 C :   -0.269073
   9 H :    0.124980
  10 H :    0.126062
  11 H :    0.126461
  12 H :    0.158452
  13 H :    0.138993
  14 H :    0.141255
  15 H :    0.137286
  16 H :    0.142868
  17 H :    0.138504
  18 H :    0.127551
  19 H :    0.129750
  20 H :    0.130498

  Mayer bond orders larger than 0.1
B(  0-C ,  1-C ) :   0.8776 B(  0-C ,  9-H ) :   0.9367 B(  0-C , 10-H ) :   0.9403
B(  0-C , 11-H ) :   0.9370 B(  1-C ,  2-C ) :   0.9526 B(  1-C ,  7-C ) :   0.9341
B(  1-C , 12-H ) :   0.9124 B(  2-C ,  3-C ) :   0.9407 B(  2-C ,  6-O ) :   0.8905
B(  2-C , 13-H ) :   0.9135 B(  3-C ,  4-C ) :   0.9533 B(  3-C , 14-H ) :   0.9149
B(  3-C , 15-H ) :   0.9292 B(  4-C ,  5-C ) :   0.8625 B(  4-C ,  7-C ) :   0.8231
B(  4-C , 16-H ) :   0.9244 B(  5-C ,  6-O ) :   0.9961 B(  5-C ,  7-C ) :   0.8630
B(  5-C , 17-H ) :   0.9303 B(  7-C ,  8-C ) :   0.8653 B(  8-C , 18-H ) :   0.9427
B(  8-C , 19-H ) :   0.9436 B(  8-C , 20-H ) :   0.9383

MP2 TOTAL ENERGY:     -386.427000779 Eh
FINAL SINGLE POINT ENERGY      -386.427000779411

DIPOLE MOMENT
-------------
                                X             Y             Z
Electronic contribution:      1.44851      -5.76304      -3.35341
Nuclear contribution   :     -1.37586       6.30916       3.71344
                        -----------------------------------------
Total Dipole Moment    :      0.07265       0.54612       0.36003
                        -----------------------------------------
Magnitude (a.u.)       :      0.65814
Magnitude (Debye)      :      1.67286

                             ****ORCA TERMINATED NORMALLY****
TOTAL RUN TIME: 0 days 0 hours 20 minutes 29 seconds 400 msec
