                         Program Version 3.0.3 - RELEASE   -
|  1> ! RI-MP2 RIJK def2-TZVP def2-TZVP/C def2-TZVP/JK TIGHTSCF
|  2> % maxcore 2000
|  3> % mp2 density relaxed end
|  4> *xyz 0 1
|  5>  C        0.5020258830     0.9227753959    -0.1626365806
|  6>  C       -0.3602851776    -0.0337947026     0.6264984908
|  7>  O       -0.0751528031    -0.4276438392     1.7330066866
|  8>  C       -1.6261826554    -0.5450589435    -0.0854664931
|  9>  C       -1.3523048350    -1.9785741380    -0.5503402835
| 10>  O       -0.9781500502    -2.2154795181    -1.6744734740
| 11>  C       -1.5333917233    -3.0604282008     0.5013499734
| 12>  C       -0.9885820890    -4.4067939353     0.0659938798
| 13>  O       -1.5910593195    -5.4408264578     0.1831735862
| 14>  H        1.4128597102     1.1565048735     0.3891002343
| 15>  H        0.7472099561     0.4771674527    -1.1338735848
| 16>  H       -0.0550713457     1.8435664959    -0.3705368732
| 17>  H       -2.4468506899    -0.5289800037     0.6362746676
| 18>  H       -1.8681929559     0.0613071290    -0.9592088376
| 19>  H       -1.0207890066    -2.7270026375     1.4162210383
| 20>  H       -2.5948767639    -3.1586431502     0.7565881140
| 21>  H        0.0353742857    -4.3750578301    -0.3610080341
| 22> *
| 23>
| 24>                          ****END OF INPUT****

CARTESIAN COORDINATES (ANGSTROEM)
---------------------------------
  C      0.502026    0.922775   -0.162637
  C     -0.360285   -0.033795    0.626498
  O     -0.075153   -0.427644    1.733007
  C     -1.626183   -0.545059   -0.085466
  C     -1.352305   -1.978574   -0.550340
  O     -0.978150   -2.215480   -1.674473
  C     -1.533392   -3.060428    0.501350
  C     -0.988582   -4.406794    0.065994
  O     -1.591059   -5.440826    0.183174
  H      1.412860    1.156505    0.389100
  H      0.747210    0.477167   -1.133874
  H     -0.055071    1.843566   -0.370537
  H     -2.446851   -0.528980    0.636275
  H     -1.868193    0.061307   -0.959209
  H     -1.020789   -2.727003    1.416221
  H     -2.594877   -3.158643    0.756588
  H      0.035374   -4.375058   -0.361008

 Total Charge           Charge          ....    0
 Multiplicity           Mult            ....    1
 Number of Electrons    NEL             ....   68
 Basis Dimension        Dim             ....  327

ORBITAL ENERGIES
----------------

  NO   OCC          E(Eh)            E(eV)
   0   2.0000     -20.577608      -559.9452
   1   2.0000     -20.573441      -559.8318
   2   2.0000     -20.563655      -559.5655
   3   2.0000     -11.367528      -309.3262
   4   2.0000     -11.364167      -309.2347
   5   2.0000     -11.340333      -308.5862
   6   2.0000     -11.271436      -306.7114
   7   2.0000     -11.262862      -306.4781
   8   2.0000     -11.254537      -306.2515
   9   2.0000      -1.425301       -38.7844
  10   2.0000      -1.417379       -38.5688
  11   2.0000      -1.402513       -38.1643
  12   2.0000      -1.094354       -29.7789
  13   2.0000      -1.052635       -28.6437
  14   2.0000      -1.000944       -27.2371
  15   2.0000      -0.838770       -22.8241
  16   2.0000      -0.782558       -21.2945
  17   2.0000      -0.758088       -20.6286
  18   2.0000      -0.702246       -19.1091
  19   2.0000      -0.685988       -18.6667
  20   2.0000      -0.677834       -18.4448
  21   2.0000      -0.665267       -18.1028
  22   2.0000      -0.644099       -17.5268
  23   2.0000      -0.625580       -17.0229
  24   2.0000      -0.606750       -16.5105
  25   2.0000      -0.600992       -16.3538
  26   2.0000      -0.581441       -15.8218
  27   2.0000      -0.562887       -15.3169
  28   2.0000      -0.536469       -14.5981
  29   2.0000      -0.524115       -14.2619
  30   2.0000      -0.516880       -14.0650
  31   2.0000      -0.453953       -12.3527
  32   2.0000      -0.441966       -12.0265
  33   2.0000      -0.418127       -11.3778
  34   0.0000       0.093932         2.5560
  35   0.0000       0.121098         3.2953
  36   0.0000       0.133538         3.6337
  37   0.0000       0.143269         3.8985
  38   0.0000       0.150948         4.1075

MULLIKEN ATOMIC CHARGES
-----------------------
   0 C :   -0.432954
   1 C :    0.207639
   2 O :   -0.288032
   3 C :   -0.177620
   4 C :    0.147447
   5 O :   -0.277231
   6 C :   -0.226895
   7 C :    0.108516
   8 O :   -0.258357
   9 H :    0.154806
  10 H :    0.166725
  11 H :    0.154000
  12 H :    0.149544
  13 H :    0.148703
  14 H :    0.184419
  15 H :    0.148796
  16 H :    0.090493
Sum of atomic charges:    0.0000000

LOEWDIN ATOMIC CHARGES
----------------------
   0 C :   -0.273366
   1 C :   -0.342508
   2 O :    0.153267
   3 C :   -0.198395
   4 C :   -0.318360
   5 O :    0.164926
   6 C :   -0.233882
   7 C :   -0.280356
   8 O :    0.139396
   9 H :    0.135040
  10 H :    0.145474
  11 H :    0.141545
  12 H :    0.159905
  13 H :    0.154078
  14 H :    0.173516
  15 H :    0.163348
  16 H :    0.116371

  Mayer bond orders larger than 0.1
B(  0-C ,  1-C ) :   0.9364 B(  0-C ,  9-H ) :   0.9351 B(  0-C , 10-H ) :   0.9098
B(  0-C , 11-H ) :   0.9090 B(  1-C ,  2-O ) :   1.9656 B(  1-C ,  3-C ) :   0.8367
B(  3-C ,  4-C ) :   0.8914 B(  3-C , 12-H ) :   0.9072 B(  3-C , 13-H ) :   0.9148
B(  4-C ,  5-O ) :   1.9785 B(  4-C ,  6-C ) :   0.9127 B(  6-C ,  7-C ) :   0.8697
B(  6-C , 14-H ) :   0.8871 B(  6-C , 15-H ) :   0.8727 B(  7-C ,  8-O ) :   1.9902
B(  7-C , 16-H ) :   0.9332

MP2 TOTAL ENERGY:     -458.258800555 Eh
FINAL SINGLE POINT ENERGY      -458.258800555073

DIPOLE MOMENT
-------------
                                X             Y             Z
Electronic contribution:     -1.21434      -5.98891       0.15473
Nuclear contribution   :      1.15794       7.57100      -0.17585
                        -----------------------------------------
Total Dipole Moment    :     -0.05640       1.58208      -0.02113
                        -----------------------------------------
Magnitude (a.u.)       :      1.58323
Magnitude (Debye)      :      4.02425

                             ****ORCA TERMINATED NORMALLY****
TOTAL RUN TIME: 0 days 0 hours 14 minutes 46 seconds 24 msec
