                         Program Version 3.0.3 - RELEASE   -
|  1> ! RI-MP2 RIJK def2-TZVP def2-TZVP/C def2-TZVP/JK TIGHTSCF
|  2> % maxcore 2000
|  3> % mp2 density relaxed end
|  4> *xyz 0 1
|  5>  C        0.1839798468     1.2969182192     0.2560683180
|  6>  C       -0.1696921705    -0.1858061717     0.0162454646
|  7>  C       -1.6163038309    -0.3806812131    -0.0875908832
|  8>  C       -2.8067444415    -0.5139555440    -0.1908332604
|  9>  C        0.5327631241    -0.7120043743    -1.2322541442
| 10>  C        2.0157149844    -1.0428957721    -1.2073812223
| 11>  O        2.7173982507    -0.9785251761    -0.0023235876
| 12>  C        0.9886120896    -2.1449786650    -1.3465851405
| 13>  O        0.8156704513    -2.9422026309    -0.1987943745
| 14>  H        1.2630959568     1.3945887259     0.3974613145
| 15>  H       -0.1187222181     1.9105803845    -0.5978733394
| 16>  H       -0.3278758938     1.6771056058     1.1440770746
| 17>  H        0.1846008281    -0.7607591355     0.8778814863
| 18>  H       -3.8574334488    -0.6447859221    -0.2677760797
| 19>  H        0.1616694930    -0.2787945545    -2.1573840066
| 20>  H        2.6324599182    -0.7573824749    -2.0543474621
| 21>  H        2.3897692777    -1.7134460485     0.5358324870
| 22>  H        0.8507426568    -2.6669179353    -2.2906803535
| 23>  H        1.3416033362    -3.7411006975    -0.3139616410
| 24> *
| 25>
| 26>                          ****END OF INPUT****

CARTESIAN COORDINATES (ANGSTROEM)
---------------------------------
  C      0.183980    1.296918    0.256068
  C     -0.169692   -0.185806    0.016245
  C     -1.616304   -0.380681   -0.087591
  C     -2.806744   -0.513956   -0.190833
  C      0.532763   -0.712004   -1.232254
  C      2.015715   -1.042896   -1.207381
  O      2.717398   -0.978525   -0.002324
  C      0.988612   -2.144979   -1.346585
  O      0.815670   -2.942203   -0.198794
  H      1.263096    1.394589    0.397461
  H     -0.118722    1.910580   -0.597873
  H     -0.327876    1.677106    1.144077
  H      0.184601   -0.760759    0.877881
  H     -3.857433   -0.644786   -0.267776
  H      0.161669   -0.278795   -2.157384
  H      2.632460   -0.757382   -2.054347
  H      2.389769   -1.713446    0.535832
  H      0.850743   -2.666918   -2.290680
  H      1.341603   -3.741101   -0.313962

 Total Charge           Charge          ....    0
 Multiplicity           Mult            ....    1
 Number of Electrons    NEL             ....   68
 Basis Dimension        Dim             ....  339

ORBITAL ENERGIES
----------------

  NO   OCC          E(Eh)            E(eV)
   0   2.0000     -20.586274      -560.1810
   1   2.0000     -20.563182      -559.5526
   2   2.0000     -11.294185      -307.3304
   3   2.0000     -11.286986      -307.1345
   4   2.0000     -11.256909      -306.3161
   5   2.0000     -11.239021      -305.8293
   6   2.0000     -11.225679      -305.4663
   7   2.0000     -11.215897      -305.2001
   8   2.0000     -11.212818      -305.1163
   9   2.0000      -1.402645       -38.1679
  10   2.0000      -1.364337       -37.1255
  11   2.0000      -1.141109       -31.0512
  12   2.0000      -1.066090       -29.0098
  13   2.0000      -0.989020       -26.9126
  14   2.0000      -0.885009       -24.0823
  15   2.0000      -0.833808       -22.6891
  16   2.0000      -0.796065       -21.6620
  17   2.0000      -0.741810       -20.1857
  18   2.0000      -0.716491       -19.4967
  19   2.0000      -0.704036       -19.1578
  20   2.0000      -0.651757       -17.7352
  21   2.0000      -0.637261       -17.3408
  22   2.0000      -0.616815       -16.7844
  23   2.0000      -0.568126       -15.4595
  24   2.0000      -0.565295       -15.3825
  25   2.0000      -0.556146       -15.1335
  26   2.0000      -0.539034       -14.6679
  27   2.0000      -0.528674       -14.3860
  28   2.0000      -0.513945       -13.9852
  29   2.0000      -0.495003       -13.4697
  30   2.0000      -0.410976       -11.1832
  31   2.0000      -0.398672       -10.8484
  32   2.0000      -0.377306       -10.2670
  33   2.0000      -0.370413       -10.0794
  34   0.0000       0.121143         3.2965
  35   0.0000       0.148649         4.0450
  36   0.0000       0.154014         4.1909
  37   0.0000       0.169663         4.6168
  38   0.0000       0.187441         5.1005

MULLIKEN ATOMIC CHARGES
-----------------------
   0 C :   -0.377851
   1 C :   -0.107793
   2 C :   -0.030464
   3 C :   -0.157453
   4 C :   -0.176274
   5 C :    0.100543
   6 O :   -0.477546
   7 C :   -0.028323
   8 O :   -0.480070
   9 H :    0.152857
  10 H :    0.121827
  11 H :    0.137630
  12 H :    0.097077
  13 H :    0.186542
  14 H :    0.128401
  15 H :    0.129124
  16 H :    0.330568
  17 H :    0.119143
  18 H :    0.332064
Sum of atomic charges:   -0.0000000

LOEWDIN ATOMIC CHARGES
----------------------
   0 C :   -0.263996
   1 C :   -0.245593
   2 C :   -0.079623
   3 C :   -0.105979
   4 C :   -0.167984
   5 C :   -0.301960
   6 O :    0.000300
   7 C :   -0.300288
   8 O :   -0.004368
   9 H :    0.130253
  10 H :    0.125642
  11 H :    0.126598
  12 H :    0.173036
  13 H :    0.125134
  14 H :    0.158826
  15 H :    0.136133
  16 H :    0.177861
  17 H :    0.131280
  18 H :    0.184730

  Mayer bond orders larger than 0.1
B(  0-C ,  1-C ) :   0.9039 B(  0-C ,  9-H ) :   0.9358 B(  0-C , 10-H ) :   0.9263
B(  0-C , 11-H ) :   0.9376 B(  1-C ,  2-C ) :   1.1575 B(  1-C ,  4-C ) :   0.9062
B(  1-C , 12-H ) :   0.9174 B(  2-C ,  3-C ) :   2.5915 B(  3-C , 13-H ) :   0.8964
B(  4-C ,  5-C ) :   0.8601 B(  4-C ,  7-C ) :   0.8827 B(  4-C , 14-H ) :   0.9026
B(  5-C ,  6-O ) :   0.9463 B(  5-C ,  7-C ) :   0.8661 B(  5-C , 15-H ) :   0.9435
B(  6-O , 16-H ) :   0.8161 B(  7-C ,  8-O ) :   1.0298 B(  7-C , 17-H ) :   0.9351
B(  8-O , 18-H ) :   0.8351

MP2 TOTAL ENERGY:     -422.255721567 Eh
FINAL SINGLE POINT ENERGY      -422.255721566902

DIPOLE MOMENT
-------------
                                X             Y             Z
Electronic contribution:     -0.34135      -3.80512      -0.07156
Nuclear contribution   :      0.51700       3.10586      -0.44396
                        -----------------------------------------
Total Dipole Moment    :      0.17565      -0.69926      -0.51552
                        -----------------------------------------
Magnitude (a.u.)       :      0.88633
Magnitude (Debye)      :      2.25287

                             ****ORCA TERMINATED NORMALLY****
TOTAL RUN TIME: 0 days 0 hours 17 minutes 58 seconds 170 msec
