                         Program Version 3.0.3 - RELEASE   -
|  1> ! RI-MP2 RIJK def2-TZVP def2-TZVP/C def2-TZVP/JK TIGHTSCF
|  2> % maxcore 2000
|  3> % mp2 density relaxed end
|  4> *xyz 0 1
|  5>  C        0.1041666165     1.5202353321    -0.0826475684
|  6>  C        0.4119187763     0.0476330102     0.0423951467
|  7>  N        1.7627452176    -0.3295232744     0.4926530194
|  8>  C        0.6026596176    -0.6760721182     1.3304851310
|  9>  C        0.5288172313    -0.0216444172     2.7031134906
| 10>  C        1.4834583241    -0.7350275843     3.6417241613
| 11>  O        1.1881013874    -1.7624263722     4.2179017861
| 12>  C        2.8774430209    -0.1576675388     3.8057333802
| 13>  O        3.6801735457    -0.9718824756     4.6068431077
| 14>  H        0.5911657172     2.1016580635     0.7030801282
| 15>  H        0.4636953241     1.9011603170    -1.0442033589
| 16>  H       -0.9753459218     1.6985831186    -0.0321750656
| 17>  H       -0.0189329620    -0.5599781161    -0.7532533351
| 18>  H        2.1058778792    -1.1439399406    -0.0080860529
| 19>  H        0.2945024365    -1.7201293711     1.3446364862
| 20>  H        0.7888519709     1.0369180891     2.6305728506
| 21>  H       -0.4863530475    -0.1166480399     3.1007486883
| 22>  H        3.3027852532    -0.0209524366     2.7978712134
| 23>  H        2.7718097809     0.8557145818     4.2327868099
| 24>  H        3.0946704717    -1.6915008173     4.8932531214
| 25> *
| 26>
| 27>                          ****END OF INPUT****

CARTESIAN COORDINATES (ANGSTROEM)
---------------------------------
  C      0.104167    1.520235   -0.082648
  C      0.411919    0.047633    0.042395
  N      1.762745   -0.329523    0.492653
  C      0.602660   -0.676072    1.330485
  C      0.528817   -0.021644    2.703113
  C      1.483458   -0.735028    3.641724
  O      1.188101   -1.762426    4.217902
  C      2.877443   -0.157668    3.805733
  O      3.680174   -0.971882    4.606843
  H      0.591166    2.101658    0.703080
  H      0.463695    1.901160   -1.044203
  H     -0.975346    1.698583   -0.032175
  H     -0.018933   -0.559978   -0.753253
  H      2.105878   -1.143940   -0.008086
  H      0.294502   -1.720129    1.344636
  H      0.788852    1.036918    2.630573
  H     -0.486353   -0.116648    3.100749
  H      3.302785   -0.020952    2.797871
  H      2.771810    0.855715    4.232787
  H      3.094670   -1.691501    4.893253

 Total Charge           Charge          ....    0
 Multiplicity           Mult            ....    1
 Number of Electrons    NEL             ....   70
 Basis Dimension        Dim             ....  345

ORBITAL ENERGIES
----------------

  NO   OCC          E(Eh)            E(eV)
   0   2.0000     -20.559658      -559.4567
   1   2.0000     -20.549701      -559.1858
   2   2.0000     -15.569804      -423.6759
   3   2.0000     -11.340035      -308.5780
   4   2.0000     -11.284677      -307.0717
   5   2.0000     -11.280368      -306.9544
   6   2.0000     -11.276879      -306.8595
   7   2.0000     -11.251186      -306.1603
   8   2.0000     -11.230988      -305.6107
   9   2.0000      -1.410817       -38.3903
  10   2.0000      -1.354507       -36.8580
  11   2.0000      -1.278388       -34.7867
  12   2.0000      -1.056311       -28.7437
  13   2.0000      -1.004100       -27.3230
  14   2.0000      -0.961593       -26.1663
  15   2.0000      -0.865959       -23.5640
  16   2.0000      -0.794231       -21.6121
  17   2.0000      -0.760404       -20.6916
  18   2.0000      -0.735977       -20.0269
  19   2.0000      -0.697645       -18.9839
  20   2.0000      -0.657901       -17.9024
  21   2.0000      -0.649414       -17.6715
  22   2.0000      -0.609896       -16.5961
  23   2.0000      -0.600250       -16.3336
  24   2.0000      -0.594712       -16.1829
  25   2.0000      -0.575499       -15.6601
  26   2.0000      -0.568538       -15.4707
  27   2.0000      -0.535169       -14.5627
  28   2.0000      -0.524188       -14.2639
  29   2.0000      -0.501318       -13.6416
  30   2.0000      -0.476020       -12.9532
  31   2.0000      -0.470314       -12.7979
  32   2.0000      -0.447032       -12.1644
  33   2.0000      -0.434619       -11.8266
  34   2.0000      -0.397883       -10.8269
  35   0.0000       0.125038         3.4025
  36   0.0000       0.131609         3.5813
  37   0.0000       0.146770         3.9938
  38   0.0000       0.156602         4.2614
  39   0.0000       0.174441         4.7468

MULLIKEN ATOMIC CHARGES
-----------------------
   0 C :   -0.394828
   1 C :    0.013692
   2 N :   -0.417292
   3 C :   -0.090970
   4 C :   -0.185386
   5 C :    0.199193
   6 O :   -0.329004
   7 C :   -0.050055
   8 O :   -0.489184
   9 H :    0.131189
  10 H :    0.137679
  11 H :    0.129734
  12 H :    0.121841
  13 H :    0.225582
  14 H :    0.141024
  15 H :    0.131810
  16 H :    0.133648
  17 H :    0.147835
  18 H :    0.110251
  19 H :    0.333243
Sum of atomic charges:    0.0000000

LOEWDIN ATOMIC CHARGES
----------------------
   0 C :   -0.294393
   1 C :   -0.279931
   2 N :    0.000323
   3 C :   -0.254164
   4 C :   -0.209907
   5 C :   -0.324502
   6 O :    0.135254
   7 C :   -0.338901
   8 O :   -0.036209
   9 H :    0.125852
  10 H :    0.129405
  11 H :    0.127848
  12 H :    0.139255
  13 H :    0.167740
  14 H :    0.145078
  15 H :    0.151304
  16 H :    0.155863
  17 H :    0.142695
  18 H :    0.136060
  19 H :    0.181330

  Mayer bond orders larger than 0.1
B(  0-C ,  1-C ) :   0.8978 B(  0-C ,  9-H ) :   0.9451 B(  0-C , 10-H ) :   0.9329
B(  0-C , 11-H ) :   0.9341 B(  1-C ,  2-N ) :   0.9002 B(  1-C ,  3-C ) :   0.8942
B(  1-C , 12-H ) :   0.9229 B(  2-N ,  3-C ) :   0.8760 B(  2-N , 13-H ) :   0.8654
B(  3-C ,  4-C ) :   0.8944 B(  3-C , 14-H ) :   0.9249 B(  4-C ,  5-C ) :   0.8961
B(  4-C , 15-H ) :   0.9316 B(  4-C , 16-H ) :   0.9084 B(  5-C ,  6-O ) :   1.9009
B(  5-C ,  7-C ) :   0.9582 B(  7-C ,  8-O ) :   0.9990 B(  7-C , 17-H ) :   0.9060
B(  7-C , 18-H ) :   0.8943 B(  8-O , 19-H ) :   0.8064

MP2 TOTAL ENERGY:     -439.556260910 Eh
FINAL SINGLE POINT ENERGY      -439.556260910371

DIPOLE MOMENT
-------------
                                X             Y             Z
Electronic contribution:      2.71412      -5.46097       6.31344
Nuclear contribution   :     -3.69748       5.86374      -7.43936
                        -----------------------------------------
Total Dipole Moment    :     -0.98336       0.40277      -1.12592
                        -----------------------------------------
Magnitude (a.u.)       :      1.54820
Magnitude (Debye)      :      3.93522

                             ****ORCA TERMINATED NORMALLY****
TOTAL RUN TIME: 0 days 0 hours 16 minutes 47 seconds 515 msec
