                         Program Version 3.0.3 - RELEASE   -
|  1> ! RI-MP2 RIJK def2-TZVP def2-TZVP/C def2-TZVP/JK TIGHTSCF
|  2> % maxcore 2000
|  3> % mp2 density relaxed end
|  4> *xyz 0 1
|  5>  C       -0.0303923839     1.4364138982    -0.3006559925
|  6>  C        0.0815896075    -0.0352404101     0.0344880120
|  7>  C        1.4127761294    -0.7543615970     0.0125631544
|  8>  C        0.6853677480    -0.5593504641     1.3223528040
|  9>  C        1.2591460229     0.3886316393     2.3571795096
| 10>  C        0.0038419457    -1.7916901835     1.9254905097
| 11>  C        0.9114793628    -2.6537897739     2.6788144616
| 12>  C        1.6713763523    -3.3529222553     3.2947127873
| 13>  H        0.8449406657     2.0025539382     0.0289672921
| 14>  H       -0.1189053873     1.5768928550    -1.3837383543
| 15>  H       -0.9134632414     1.8890717431     0.1645864814
| 16>  H       -0.7589452142    -0.6205077906    -0.3337448407
| 17>  H        1.4651960460    -1.7518408922    -0.4116943971
| 18>  H        2.3024982263    -0.1560801111    -0.1592673692
| 19>  H        1.7948489823     1.2224003472     1.8979559395
| 20>  H        0.4697993518     0.8073804485     2.9934968892
| 21>  H        1.9630717698    -0.1415109823     3.0068530329
| 22>  H       -0.8156427648    -1.4692275449     2.5832292386
| 23>  H       -0.4630205369    -2.3783680211     1.1245825994
| 24>  H        2.3360268479    -3.9772423533     3.8383424321
| 25> *
| 26>
| 27>                          ****END OF INPUT****

CARTESIAN COORDINATES (ANGSTROEM)
---------------------------------
  C     -0.030392    1.436414   -0.300656
  C      0.081590   -0.035240    0.034488
  C      1.412776   -0.754362    0.012563
  C      0.685368   -0.559350    1.322353
  C      1.259146    0.388632    2.357180
  C      0.003842   -1.791690    1.925491
  C      0.911479   -2.653790    2.678814
  C      1.671376   -3.352922    3.294713
  H      0.844941    2.002554    0.028967
  H     -0.118905    1.576893   -1.383738
  H     -0.913463    1.889072    0.164586
  H     -0.758945   -0.620508   -0.333745
  H      1.465196   -1.751841   -0.411694
  H      2.302498   -0.156080   -0.159267
  H      1.794849    1.222400    1.897956
  H      0.469799    0.807380    2.993497
  H      1.963072   -0.141511    3.006853
  H     -0.815643   -1.469228    2.583229
  H     -0.463021   -2.378368    1.124583
  H      2.336027   -3.977242    3.838342

 Total Charge           Charge          ....    0
 Multiplicity           Mult            ....    1
 Number of Electrons    NEL             ....   60
 Basis Dimension        Dim             ....  320

ORBITAL ENERGIES
----------------

  NO   OCC          E(Eh)            E(eV)
   0   2.0000     -11.250970      -306.1545
   1   2.0000     -11.241522      -305.8974
   2   2.0000     -11.230730      -305.6037
   3   2.0000     -11.229502      -305.5703
   4   2.0000     -11.219145      -305.2885
   5   2.0000     -11.218020      -305.2579
   6   2.0000     -11.215454      -305.1880
   7   2.0000     -11.214257      -305.1554
   8   2.0000      -1.164077       -31.6761
   9   2.0000      -1.054671       -28.6991
  10   2.0000      -0.987390       -26.8683
  11   2.0000      -0.948119       -25.7996
  12   2.0000      -0.942638       -25.6505
  13   2.0000      -0.798797       -21.7364
  14   2.0000      -0.738941       -20.1076
  15   2.0000      -0.712593       -19.3906
  16   2.0000      -0.659289       -17.9402
  17   2.0000      -0.631555       -17.1855
  18   2.0000      -0.624261       -16.9870
  19   2.0000      -0.574290       -15.6272
  20   2.0000      -0.572099       -15.5676
  21   2.0000      -0.553216       -15.0538
  22   2.0000      -0.538882       -14.6637
  23   2.0000      -0.533790       -14.5252
  24   2.0000      -0.501340       -13.6422
  25   2.0000      -0.485822       -13.2199
  26   2.0000      -0.404756       -11.0140
  27   2.0000      -0.393907       -10.7187
  28   2.0000      -0.380835       -10.3630
  29   2.0000      -0.378417       -10.2973
  30   0.0000       0.131027         3.5654
  31   0.0000       0.157927         4.2974
  32   0.0000       0.165906         4.5145
  33   0.0000       0.173925         4.7327
  34   0.0000       0.174555         4.7499

MULLIKEN ATOMIC CHARGES
-----------------------
   0 C :   -0.401282
   1 C :   -0.079699
   2 C :   -0.315341
   3 C :    0.105648
   4 C :   -0.423279
   5 C :   -0.306319
   6 C :   -0.031770
   7 C :   -0.179986
   8 H :    0.120326
   9 H :    0.136182
  10 H :    0.130518
  11 H :    0.109671
  12 H :    0.133520
  13 H :    0.124219
  14 H :    0.122516
  15 H :    0.126944
  16 H :    0.157144
  17 H :    0.141905
  18 H :    0.142499
  19 H :    0.186585
Sum of atomic charges:    0.0000000

LOEWDIN ATOMIC CHARGES
----------------------
   0 C :   -0.294129
   1 C :   -0.217248
   2 C :   -0.188090
   3 C :   -0.247381
   4 C :   -0.260882
   5 C :   -0.207296
   6 C :   -0.104199
   7 C :   -0.110709
   8 H :    0.123663
   9 H :    0.126556
  10 H :    0.125046
  11 H :    0.148027
  12 H :    0.134932
  13 H :    0.135920
  14 H :    0.125409
  15 H :    0.127509
  16 H :    0.134672
  17 H :    0.160840
  18 H :    0.162011
  19 H :    0.125351

  Mayer bond orders larger than 0.1
B(  0-C ,  1-C ) :   0.9088 B(  0-C ,  8-H ) :   0.9368 B(  0-C ,  9-H ) :   0.9389
B(  0-C , 10-H ) :   0.9404 B(  1-C ,  2-C ) :   0.8965 B(  1-C ,  3-C ) :   0.8482
B(  1-C , 11-H ) :   0.9261 B(  2-C ,  3-C ) :   0.8808 B(  2-C , 12-H ) :   0.9229
B(  2-C , 13-H ) :   0.9258 B(  3-C ,  4-C ) :   0.9300 B(  3-C ,  5-C ) :   0.8713
B(  4-C , 14-H ) :   0.9313 B(  4-C , 15-H ) :   0.9352 B(  4-C , 16-H ) :   0.9370
B(  5-C ,  6-C ) :   1.0885 B(  5-C , 17-H ) :   0.9260 B(  5-C , 18-H ) :   0.9260
B(  6-C ,  7-C ) :   2.6110 B(  7-C , 19-H ) :   0.9071

MP2 TOTAL ENERGY:     -311.244513487 Eh
FINAL SINGLE POINT ENERGY      -311.244513486826

DIPOLE MOMENT
-------------
                                X             Y             Z
Electronic contribution:      0.61240      -6.42881       2.88791
Nuclear contribution   :     -0.73860       6.65539      -3.03134
                        -----------------------------------------
Total Dipole Moment    :     -0.12619       0.22658      -0.14343
                        -----------------------------------------
Magnitude (a.u.)       :      0.29637
Magnitude (Debye)      :      0.75332

                             ****ORCA TERMINATED NORMALLY****
TOTAL RUN TIME: 0 days 0 hours 14 minutes 12 seconds 406 msec
