                         Program Version 3.0.3 - RELEASE   -
|  1> ! RI-MP2 RIJK def2-TZVP def2-TZVP/C def2-TZVP/JK TIGHTSCF
|  2> % maxcore 2000
|  3> % mp2 density relaxed end
|  4> *xyz 0 1
|  5>  C       -0.1282675477     1.5568555913     0.0180254153
|  6>  C       -0.0083876591     0.0540194295     0.0287628016
|  7>  C        1.1312124289    -0.7821129028    -0.6799376147
|  8>  C        2.1184857386    -0.4469117595     0.4510807717
|  9>  C        0.7724767627    -0.7975697629     1.1080394078
| 10>  N        0.6672425733    -1.9846979331     0.1466537763
| 11>  C       -0.7661461197    -2.1771744448    -0.1423969639
| 12>  C       -1.2716567847    -0.7355367141    -0.2321956679
| 13>  O       -2.3794567587    -0.3175030676    -0.4503844852
| 14>  H        0.8241863578     2.0584051434     0.2075635696
| 15>  H       -0.5105430798     1.8981371942    -0.9491854067
| 16>  H       -0.8462089544     1.8839400633     0.7767918022
| 17>  H        1.3139857672    -0.8695523340    -1.7532426702
| 18>  H        2.9192901731    -1.1715784925     0.6054365185
| 19>  H        2.4627821841     0.5836929128     0.5290957099
| 20>  H        0.5274331066    -0.9033917851     2.1671913947
| 21>  H       -0.9093448040    -2.7235031144    -1.0801545794
| 22>  H       -1.2580900344    -2.7376569038     0.6590018505
| 23> *
| 24>
| 25>                          ****END OF INPUT****

CARTESIAN COORDINATES (ANGSTROEM)
---------------------------------
  C     -0.128268    1.556856    0.018025
  C     -0.008388    0.054019    0.028763
  C      1.131212   -0.782113   -0.679938
  C      2.118486   -0.446912    0.451081
  C      0.772477   -0.797570    1.108039
  N      0.667243   -1.984698    0.146654
  C     -0.766146   -2.177174   -0.142397
  C     -1.271657   -0.735537   -0.232196
  O     -2.379457   -0.317503   -0.450384
  H      0.824186    2.058405    0.207564
  H     -0.510543    1.898137   -0.949185
  H     -0.846209    1.883940    0.776792
  H      1.313986   -0.869552   -1.753243
  H      2.919290   -1.171578    0.605437
  H      2.462782    0.583693    0.529096
  H      0.527433   -0.903392    2.167191
  H     -0.909345   -2.723503   -1.080155
  H     -1.258090   -2.737657    0.659002

 Total Charge           Charge          ....    0
 Multiplicity           Mult            ....    1
 Number of Electrons    NEL             ....   66
 Basis Dimension        Dim             ....  333

ORBITAL ENERGIES
----------------

  NO   OCC          E(Eh)            E(eV)
   0   2.0000     -20.549363      -559.1766
   1   2.0000     -15.575463      -423.8299
   2   2.0000     -11.327109      -308.2263
   3   2.0000     -11.292846      -307.2940
   4   2.0000     -11.292772      -307.2919
   5   2.0000     -11.260824      -306.4226
   6   2.0000     -11.260680      -306.4187
   7   2.0000     -11.245556      -306.0071
   8   2.0000     -11.228518      -305.5435
   9   2.0000      -1.393309       -37.9139
  10   2.0000      -1.318133       -35.8682
  11   2.0000      -1.081928       -29.4408
  12   2.0000      -1.037231       -28.2245
  13   2.0000      -0.922836       -25.1116
  14   2.0000      -0.896769       -24.4023
  15   2.0000      -0.891503       -24.2590
  16   2.0000      -0.763004       -20.7624
  17   2.0000      -0.715475       -19.4691
  18   2.0000      -0.704793       -19.1784
  19   2.0000      -0.656126       -17.8541
  20   2.0000      -0.636473       -17.3193
  21   2.0000      -0.628655       -17.1066
  22   2.0000      -0.591934       -16.1073
  23   2.0000      -0.580497       -15.7961
  24   2.0000      -0.547055       -14.8861
  25   2.0000      -0.522503       -14.2180
  26   2.0000      -0.519062       -14.1244
  27   2.0000      -0.497217       -13.5300
  28   2.0000      -0.484003       -13.1704
  29   2.0000      -0.465751       -12.6737
  30   2.0000      -0.440986       -11.9998
  31   2.0000      -0.438147       -11.9226
  32   2.0000      -0.370751       -10.0886
  33   0.0000       0.135015         3.6740
  34   0.0000       0.137956         3.7540
  35   0.0000       0.146780         3.9941
  36   0.0000       0.166492         4.5305
  37   0.0000       0.173189         4.7127

MULLIKEN ATOMIC CHARGES
-----------------------
   0 C :   -0.393982
   1 C :    0.033472
   2 C :   -0.044700
   3 C :   -0.209506
   4 C :   -0.044343
   5 N :   -0.224191
   6 C :   -0.166676
   7 C :    0.080166
   8 O :   -0.270879
   9 H :    0.134622
  10 H :    0.144526
  11 H :    0.144258
  12 H :    0.142265
  13 H :    0.122214
  14 H :    0.126613
  15 H :    0.142284
  16 H :    0.141917
  17 H :    0.141940
Sum of atomic charges:   -0.0000000

LOEWDIN ATOMIC CHARGES
----------------------
   0 C :   -0.264304
   1 C :   -0.195559
   2 C :   -0.148962
   3 C :   -0.194767
   4 C :   -0.148989
   5 N :    0.131798
   6 C :   -0.248985
   7 C :   -0.295197
   8 O :    0.154869
   9 H :    0.126567
  10 H :    0.137013
  11 H :    0.136963
  12 H :    0.128483
  13 H :    0.134539
  14 H :    0.130112
  15 H :    0.128484
  16 H :    0.143955
  17 H :    0.143978

  Mayer bond orders larger than 0.1
B(  0-C ,  1-C ) :   0.9155 B(  0-C ,  9-H ) :   0.9430 B(  0-C , 10-H ) :   0.9276
B(  0-C , 11-H ) :   0.9276 B(  1-C ,  2-C ) :   0.8558 B(  1-C ,  4-C ) :   0.8559
B(  1-C ,  6-C ) :  -0.1130 B(  1-C ,  7-C ) :   0.8682 B(  2-C ,  3-C ) :   0.9165
B(  2-C ,  5-N ) :   0.8554 B(  2-C , 12-H ) :   0.8813 B(  3-C ,  4-C ) :   0.9165
B(  3-C , 13-H ) :   0.9047 B(  3-C , 14-H ) :   0.9314 B(  4-C ,  5-N ) :   0.8553
B(  4-C , 15-H ) :   0.8813 B(  5-N ,  6-C ) :   0.9685 B(  6-C ,  7-C ) :   0.9489
B(  6-C , 16-H ) :   0.9126 B(  6-C , 17-H ) :   0.9127 B(  7-C ,  8-O ) :   2.0448

MP2 TOTAL ENERGY:     -401.220434669 Eh
FINAL SINGLE POINT ENERGY      -401.220434669410

DIPOLE MOMENT
-------------
                                X             Y             Z
Electronic contribution:     -3.54831      -2.99144      -0.74019
Nuclear contribution   :      4.34772       3.26978       0.90314
                        -----------------------------------------
Total Dipole Moment    :      0.79941       0.27835       0.16295
                        -----------------------------------------
Magnitude (a.u.)       :      0.86202
Magnitude (Debye)      :      2.19109

                             ****ORCA TERMINATED NORMALLY****
TOTAL RUN TIME: 0 days 0 hours 18 minutes 38 seconds 18 msec
