                         Program Version 3.0.3 - RELEASE   -
|  1> ! RI-MP2 RIJK def2-TZVP def2-TZVP/C def2-TZVP/JK TIGHTSCF
|  2> % maxcore 2000
|  3> % mp2 density relaxed end
|  4> *xyz 0 1
|  5>  O       -0.0379678264    -0.0937843758     0.1486703621
|  6>  C       -0.0202695589     1.1223581623     0.1201110085
|  7>  C        1.1954641118     1.8992868294     0.0162125431
|  8>  C        1.2938475171     3.2544366353    -0.0523296857
|  9>  N        2.5901056111     3.6924283502    -0.2268804528
| 10>  C        3.4970098198     2.5622578958     0.0598403545
| 11>  C        2.5879945699     1.3200500815    -0.1208304551
| 12>  C        0.2250039942     4.1963701221     0.0007648216
| 13>  N       -0.6240041357     4.9808946416     0.0557687119
| 14>  H       -0.9572807620     1.7159162822     0.1818809166
| 15>  H        2.8357995359     4.6157200627     0.0990329776
| 16>  H        4.3512637800     2.5746863020    -0.6201835193
| 17>  H        3.8741395253     2.6292928173     1.0891286737
| 18>  H        2.7892867359     0.5348042529     0.6106039291
| 19>  H        2.7131983920     0.8709606004    -1.1135204560
| 20> *
| 21>
| 22>                          ****END OF INPUT****

CARTESIAN COORDINATES (ANGSTROEM)
---------------------------------
  O     -0.037968   -0.093784    0.148670
  C     -0.020270    1.122358    0.120111
  C      1.195464    1.899287    0.016213
  C      1.293848    3.254437   -0.052330
  N      2.590106    3.692428   -0.226880
  C      3.497010    2.562258    0.059840
  C      2.587995    1.320050   -0.120830
  C      0.225004    4.196370    0.000765
  N     -0.624004    4.980895    0.055769
  H     -0.957281    1.715916    0.181881
  H      2.835800    4.615720    0.099033
  H      4.351264    2.574686   -0.620184
  H      3.874140    2.629293    1.089129
  H      2.789287    0.534804    0.610604
  H      2.713198    0.870961   -1.113520

 Total Charge           Charge          ....    0
 Multiplicity           Mult            ....    1
 Number of Electrons    NEL             ....   64
 Basis Dimension        Dim             ....  315

ORBITAL ENERGIES
----------------

  NO   OCC          E(Eh)            E(eV)
   0   2.0000     -20.554364      -559.3127
   1   2.0000     -15.611157      -424.8012
   2   2.0000     -15.610167      -424.7742
   3   2.0000     -11.352122      -308.9070
   4   2.0000     -11.338600      -308.5390
   5   2.0000     -11.306992      -307.6789
   6   2.0000     -11.294006      -307.3255
   7   2.0000     -11.264068      -306.5109
   8   2.0000     -11.258241      -306.3523
   9   2.0000      -1.389624       -37.8136
  10   2.0000      -1.308653       -35.6103
  11   2.0000      -1.247069       -33.9345
  12   2.0000      -1.097914       -29.8758
  13   2.0000      -1.051866       -28.6227
  14   2.0000      -0.912022       -24.8174
  15   2.0000      -0.875028       -23.8107
  16   2.0000      -0.833487       -22.6803
  17   2.0000      -0.745967       -20.2988
  18   2.0000      -0.687241       -18.7008
  19   2.0000      -0.684405       -18.6236
  20   2.0000      -0.637095       -17.3362
  21   2.0000      -0.625374       -17.0173
  22   2.0000      -0.590627       -16.0718
  23   2.0000      -0.571514       -15.5517
  24   2.0000      -0.564828       -15.3698
  25   2.0000      -0.561357       -15.2753
  26   2.0000      -0.538151       -14.6438
  27   2.0000      -0.524058       -14.2603
  28   2.0000      -0.498635       -13.5685
  29   2.0000      -0.474003       -12.8983
  30   2.0000      -0.435662       -11.8550
  31   2.0000      -0.340992        -9.2789
  32   0.0000       0.046882         1.2757
  33   0.0000       0.110977         3.0198
  34   0.0000       0.139760         3.8031
  35   0.0000       0.155062         4.2195
  36   0.0000       0.158864         4.3229

MULLIKEN ATOMIC CHARGES
-----------------------
   0 O :   -0.297509
   1 C :    0.084136
   2 C :   -0.068623
   3 C :    0.291104
   4 N :   -0.320438
   5 C :   -0.114049
   6 C :   -0.229941
   7 C :   -0.222362
   8 N :   -0.028700
   9 H :    0.098294
  10 H :    0.251038
  11 H :    0.140719
  12 H :    0.127225
  13 H :    0.152882
  14 H :    0.136223
Sum of atomic charges:   -0.0000000

LOEWDIN ATOMIC CHARGES
----------------------
   0 O :    0.114024
   1 C :   -0.288299
   2 C :   -0.147280
   3 C :   -0.200005
   4 N :    0.112784
   5 C :   -0.236360
   6 C :   -0.191475
   7 C :   -0.138684
   8 N :    0.099383
   9 H :    0.124885
  10 H :    0.186909
  11 H :    0.132377
  12 H :    0.130307
  13 H :    0.150476
  14 H :    0.150958

  Mayer bond orders larger than 0.1
B(  0-O ,  1-C ) :   1.9577 B(  0-O ,  2-C ) :  -0.1058 B(  1-C ,  2-C ) :   0.9289
B(  1-C ,  9-H ) :   0.9808 B(  2-C ,  3-C ) :   1.4506 B(  2-C ,  6-C ) :   0.9326
B(  2-C ,  9-H ) :  -0.1032 B(  3-C ,  4-N ) :   1.1689 B(  3-C ,  7-C ) :   0.8876
B(  4-N ,  5-C ) :   0.8696 B(  4-N , 10-H ) :   0.8652 B(  5-C ,  6-C ) :   0.9669
B(  5-C , 11-H ) :   0.9313 B(  5-C , 12-H ) :   0.9287 B(  6-C , 13-H ) :   0.9276
B(  6-C , 14-H ) :   0.9122 B(  7-C ,  8-N ) :   2.8262

MP2 TOTAL ENERGY:     -416.128223311 Eh
FINAL SINGLE POINT ENERGY      -416.128223310563

DIPOLE MOMENT
-------------
                                X             Y             Z
Electronic contribution:     -5.89704       2.48124      -0.07229
Nuclear contribution   :      7.79396      -1.95546       0.20903
                        -----------------------------------------
Total Dipole Moment    :      1.89692       0.52577       0.13674
                        -----------------------------------------
Magnitude (a.u.)       :      1.97318
Magnitude (Debye)      :      5.01543

                             ****ORCA TERMINATED NORMALLY****
TOTAL RUN TIME: 0 days 0 hours 15 minutes 0 seconds 484 msec
