                         Program Version 3.0.3 - RELEASE   -
|  1> ! RI-MP2 RIJK def2-TZVP def2-TZVP/C def2-TZVP/JK TIGHTSCF
|  2> % maxcore 2000
|  3> % mp2 density relaxed end
|  4> *xyz 0 1
|  5>  C        0.6693684612     1.1331946778    -0.2489822034
|  6>  O        0.6882059655    -0.2698096233    -0.3893727590
|  7>  C        0.0798721649    -0.7233440764    -1.5938177623
|  8>  C        0.2136572188    -2.2374032192    -1.6813183858
|  9>  C        1.6692096849    -2.7190602614    -1.7223511233
| 10>  O        2.3399338906    -2.5220138809    -0.4900730830
| 11>  C        1.7649794680    -4.2126436682    -2.0187678595
| 12>  O        1.2664680437    -4.4488819921    -3.3176901502
| 13>  C        1.2944428954    -5.8080940341    -3.6776204717
| 14>  H        1.2203112023     1.6304069868    -1.0617545222
| 15>  H       -0.3607196560     1.5200215602    -0.2422092775
| 16>  H        1.1451963014     1.3746923575     0.7041200970
| 17>  H       -0.9797850400    -0.4221486028    -1.6077755537
| 18>  H        0.5689536114    -0.2439017965    -2.4586095257
| 19>  H       -0.2882631366    -2.6984379006    -0.8216452908
| 20>  H       -0.2933738291    -2.5802086846    -2.5891329870
| 21>  H        2.1870738746    -2.1875119725    -2.5410628387
| 22>  H        2.0596022713    -1.6562850993    -0.1637519664
| 23>  H        2.8174430278    -4.5262211857    -1.9340865807
| 24>  H        1.1903749351    -4.7783749847    -1.2659882188
| 25>  H        0.6807719205    -6.4234737309    -3.0004592797
| 26>  H        0.8917565023    -5.8888534624    -4.6905158397
| 27>  H        2.3193026820    -6.2118603468    -3.6694972179
| 28> *
| 29>
| 30>                          ****END OF INPUT****

CARTESIAN COORDINATES (ANGSTROEM)
---------------------------------
  C      0.669368    1.133195   -0.248982
  O      0.688206   -0.269810   -0.389373
  C      0.079872   -0.723344   -1.593818
  C      0.213657   -2.237403   -1.681318
  C      1.669210   -2.719060   -1.722351
  O      2.339934   -2.522014   -0.490073
  C      1.764979   -4.212644   -2.018768
  O      1.266468   -4.448882   -3.317690
  C      1.294443   -5.808094   -3.677620
  H      1.220311    1.630407   -1.061755
  H     -0.360720    1.520022   -0.242209
  H      1.145196    1.374692    0.704120
  H     -0.979785   -0.422149   -1.607776
  H      0.568954   -0.243902   -2.458610
  H     -0.288263   -2.698438   -0.821645
  H     -0.293374   -2.580209   -2.589133
  H      2.187074   -2.187512   -2.541063
  H      2.059602   -1.656285   -0.163752
  H      2.817443   -4.526221   -1.934087
  H      1.190375   -4.778375   -1.265988
  H      0.680772   -6.423474   -3.000459
  H      0.891757   -5.888853   -4.690516
  H      2.319303   -6.211860   -3.669497

 Total Charge           Charge          ....    0
 Multiplicity           Mult            ....    1
 Number of Electrons    NEL             ....   74
 Basis Dimension        Dim             ....  363

ORBITAL ENERGIES
----------------

  NO   OCC          E(Eh)            E(eV)
   0   2.0000     -20.569571      -559.7265
   1   2.0000     -20.552975      -559.2749
   2   2.0000     -20.532797      -558.7258
   3   2.0000     -11.282671      -307.0171
   4   2.0000     -11.280332      -306.9534
   5   2.0000     -11.269719      -306.6646
   6   2.0000     -11.268913      -306.6427
   7   2.0000     -11.264320      -306.5177
   8   2.0000     -11.218930      -305.2826
   9   2.0000      -1.388997       -37.7965
  10   2.0000      -1.375527       -37.4300
  11   2.0000      -1.342559       -36.5329
  12   2.0000      -1.058127       -28.7931
  13   2.0000      -0.995165       -27.0798
  14   2.0000      -0.930777       -25.3277
  15   2.0000      -0.893992       -24.3268
  16   2.0000      -0.848657       -23.0931
  17   2.0000      -0.789704       -21.4889
  18   2.0000      -0.701165       -19.0797
  19   2.0000      -0.674127       -18.3439
  20   2.0000      -0.669224       -18.2105
  21   2.0000      -0.661527       -18.0011
  22   2.0000      -0.639930       -17.4134
  23   2.0000      -0.627888       -17.0857
  24   2.0000      -0.615882       -16.7590
  25   2.0000      -0.598959       -16.2985
  26   2.0000      -0.572663       -15.5830
  27   2.0000      -0.550249       -14.9730
  28   2.0000      -0.531119       -14.4525
  29   2.0000      -0.515785       -14.0352
  30   2.0000      -0.506998       -13.7961
  31   2.0000      -0.498399       -13.5621
  32   2.0000      -0.485187       -13.2026
  33   2.0000      -0.454012       -12.3543
  34   2.0000      -0.431137       -11.7318
  35   2.0000      -0.425387       -11.5754
  36   2.0000      -0.417533       -11.3617
  37   0.0000       0.137337         3.7371
  38   0.0000       0.149920         4.0795
  39   0.0000       0.167733         4.5642
  40   0.0000       0.177967         4.8427
  41   0.0000       0.186826         5.0838

MULLIKEN ATOMIC CHARGES
-----------------------
   0 C :   -0.214045
   1 O :   -0.346535
   2 C :   -0.052791
   3 C :   -0.252238
   4 C :    0.118364
   5 O :   -0.488435
   6 C :   -0.037465
   7 O :   -0.319531
   8 C :   -0.212865
   9 H :    0.117312
  10 H :    0.117492
  11 H :    0.142864
  12 H :    0.110166
  13 H :    0.104576
  14 H :    0.117018
  15 H :    0.134655
  16 H :    0.065244
  17 H :    0.333090
  18 H :    0.110728
  19 H :    0.092018
  20 H :    0.111211
  21 H :    0.135985
  22 H :    0.113181
Sum of atomic charges:   -0.0000000

LOEWDIN ATOMIC CHARGES
----------------------
   0 C :   -0.356962
   1 O :    0.116102
   2 C :   -0.321704
   3 C :   -0.257747
   4 C :   -0.357193
   5 O :   -0.021268
   6 C :   -0.307609
   7 O :    0.133748
   8 C :   -0.362279
   9 H :    0.103271
  10 H :    0.105223
  11 H :    0.114821
  12 H :    0.122194
  13 H :    0.122295
  14 H :    0.144969
  15 H :    0.153071
  16 H :    0.136016
  17 H :    0.169684
  18 H :    0.125439
  19 H :    0.122196
  20 H :    0.101194
  21 H :    0.112278
  22 H :    0.102262

  Mayer bond orders larger than 0.1
B(  0-C ,  1-O ) :   0.9017 B(  0-C ,  9-H ) :   0.9365 B(  0-C , 10-H ) :   0.9353
B(  0-C , 11-H ) :   0.9389 B(  1-O ,  2-C ) :   0.8867 B(  2-C ,  3-C ) :   0.9501
B(  2-C , 12-H ) :   0.9260 B(  2-C , 13-H ) :   0.9301 B(  3-C ,  4-C ) :   0.9338
B(  3-C , 14-H ) :   0.9227 B(  3-C , 15-H ) :   0.9076 B(  4-C ,  5-O ) :   0.9894
B(  4-C ,  6-C ) :   0.9439 B(  4-C , 16-H ) :   0.9217 B(  5-O , 17-H ) :   0.8106
B(  6-C ,  7-O ) :   0.9302 B(  6-C , 18-H ) :   0.9237 B(  6-C , 19-H ) :   0.9195
B(  7-O ,  8-C ) :   0.9229 B(  8-C , 20-H ) :   0.9372 B(  8-C , 21-H ) :   0.9396
B(  8-C , 22-H ) :   0.9380

MP2 TOTAL ENERGY:     -461.807758209 Eh
FINAL SINGLE POINT ENERGY      -461.807758209477

DIPOLE MOMENT
-------------
                                X             Y             Z
Electronic contribution:      1.78486      -0.18332       1.51453
Nuclear contribution   :     -2.35738       0.68696      -1.82338
                        -----------------------------------------
Total Dipole Moment    :     -0.57252       0.50364      -0.30885
                        -----------------------------------------
Magnitude (a.u.)       :      0.82269
Magnitude (Debye)      :      2.09112

                             ****ORCA TERMINATED NORMALLY****
TOTAL RUN TIME: 0 days 0 hours 15 minutes 32 seconds 345 msec
