                         Program Version 3.0.3 - RELEASE   -
|  1> ! RI-MP2 RIJK def2-TZVP def2-TZVP/C def2-TZVP/JK TIGHTSCF
|  2> % maxcore 2000
|  3> % mp2 density relaxed end
|  4> *xyz 0 1
|  5>  O       -0.1032678408     1.4196783751     0.1099729029
|  6>  C        0.0089956561     0.0019739211     0.0468327845
|  7>  C        0.1854509839    -0.5671697087     1.4707879217
|  8>  C       -1.3445158067    -0.8372607839     1.5412079875
|  9>  C       -1.4081505718    -0.6599837477    -0.0041806379
| 10>  O       -2.4349098617     0.1092124766    -0.5675751206
| 11>  H       -0.2222080853     1.7368154614    -0.7918084528
| 12>  H        0.7397072612    -0.2969548135    -0.7145227975
| 13>  H        0.7832916193    -1.4817367382     1.4736547433
| 14>  H        0.6041934612     0.1340737183     2.1946660535
| 15>  H       -1.6784376085    -1.7927441389     1.9511933952
| 16>  H       -1.8802979821    -0.0312404344     2.0500083023
| 17>  H       -1.3986542152    -1.6182108837    -0.5314903027
| 18>  H       -2.3288343795     0.9930269265    -0.1920616094
| 19> *
| 20>
| 21>                          ****END OF INPUT****

CARTESIAN COORDINATES (ANGSTROEM)
---------------------------------
  O     -0.103268    1.419678    0.109973
  C      0.008996    0.001974    0.046833
  C      0.185451   -0.567170    1.470788
  C     -1.344516   -0.837261    1.541208
  C     -1.408151   -0.659984   -0.004181
  O     -2.434910    0.109212   -0.567575
  H     -0.222208    1.736815   -0.791808
  H      0.739707   -0.296955   -0.714523
  H      0.783292   -1.481737    1.473655
  H      0.604193    0.134074    2.194666
  H     -1.678438   -1.792744    1.951193
  H     -1.880298   -0.031240    2.050008
  H     -1.398654   -1.618211   -0.531490
  H     -2.328834    0.993027   -0.192062

 Total Charge           Charge          ....    0
 Multiplicity           Mult            ....    1
 Number of Electrons    NEL             ....   48
 Basis Dimension        Dim             ....  234

ORBITAL ENERGIES
----------------

  NO   OCC          E(Eh)            E(eV)
   0   2.0000     -20.569321      -559.7197
   1   2.0000     -20.555831      -559.3526
   2   2.0000     -11.282466      -307.0115
   3   2.0000     -11.278187      -306.8951
   4   2.0000     -11.225222      -305.4538
   5   2.0000     -11.222105      -305.3690
   6   2.0000      -1.384825       -37.6830
   7   2.0000      -1.354223       -36.8503
   8   2.0000      -1.110809       -30.2266
   9   2.0000      -0.897327       -24.4175
  10   2.0000      -0.890173       -24.2228
  11   2.0000      -0.772884       -21.0312
  12   2.0000      -0.712534       -19.3890
  13   2.0000      -0.702394       -19.1131
  14   2.0000      -0.635041       -17.2803
  15   2.0000      -0.598918       -16.2974
  16   2.0000      -0.585855       -15.9419
  17   2.0000      -0.568662       -15.4741
  18   2.0000      -0.552478       -15.0337
  19   2.0000      -0.512573       -13.9478
  20   2.0000      -0.489638       -13.3237
  21   2.0000      -0.462394       -12.5824
  22   2.0000      -0.432112       -11.7584
  23   2.0000      -0.406090       -11.0503
  24   0.0000       0.132259         3.5990
  25   0.0000       0.153997         4.1905
  26   0.0000       0.165237         4.4963
  27   0.0000       0.177981         4.8431
  28   0.0000       0.206696         5.6245

MULLIKEN ATOMIC CHARGES
-----------------------
   0 O :   -0.489891
   1 C :    0.021015
   2 C :   -0.211001
   3 C :   -0.228639
   4 C :    0.066236
   5 O :   -0.477053
   6 H :    0.326461
   7 H :    0.100395
   8 H :    0.122289
   9 H :    0.120889
  10 H :    0.118602
  11 H :    0.113838
  12 H :    0.098319
  13 H :    0.318540
Sum of atomic charges:   -0.0000000

LOEWDIN ATOMIC CHARGES
----------------------
   0 O :   -0.024991
   1 C :   -0.312179
   2 C :   -0.226717
   3 C :   -0.230958
   4 C :   -0.329023
   5 O :   -0.016512
   6 H :    0.177411
   7 H :    0.119438
   8 H :    0.135721
   9 H :    0.133033
  10 H :    0.124343
  11 H :    0.136505
  12 H :    0.139649
  13 H :    0.174280

  Mayer bond orders larger than 0.1
B(  0-O ,  1-C ) :   1.0315 B(  0-O ,  6-H ) :   0.8388 B(  1-C ,  2-C ) :   0.9118
B(  1-C ,  4-C ) :   0.8951 B(  1-C ,  7-H ) :   0.9578 B(  2-C ,  3-C ) :   0.9347
B(  2-C ,  8-H ) :   0.9249 B(  2-C ,  9-H ) :   0.9180 B(  3-C ,  4-C ) :   0.9179
B(  3-C , 10-H ) :   0.9301 B(  3-C , 11-H ) :   0.9125 B(  4-C ,  5-O ) :   0.9670
B(  4-C , 12-H ) :   0.9259 B(  5-O , 13-H ) :   0.8267

MP2 TOTAL ENERGY:     -307.065646420 Eh
FINAL SINGLE POINT ENERGY      -307.065646420245

DIPOLE MOMENT
-------------
                                X             Y             Z
Electronic contribution:     -1.03584       1.87603      -2.20416
Nuclear contribution   :      1.47851      -1.95884       2.11602
                        -----------------------------------------
Total Dipole Moment    :      0.44268      -0.08281      -0.08814
                        -----------------------------------------
Magnitude (a.u.)       :      0.45890
Magnitude (Debye)      :      1.16643

                             ****ORCA TERMINATED NORMALLY****
TOTAL RUN TIME: 0 days 0 hours 5 minutes 5 seconds 859 msec
