                         Program Version 3.0.3 - RELEASE   -
|  1> ! RI-MP2 RIJK def2-TZVP def2-TZVP/C def2-TZVP/JK TIGHTSCF
|  2> % maxcore 2000
|  3> % mp2 density relaxed end
|  4> *xyz 0 1
|  5>  O        0.0026859332     0.0147861846    -0.0378038132
|  6>  C       -0.0310425564     1.2149560863    -0.0018521199
|  7>  C       -1.2649829082     2.1281422273     0.0215153665
|  8>  C       -1.4094209793     2.6902478230     1.4706934865
|  9>  C       -0.2600710307     3.6536120398     1.1091563922
| 10>  O        1.0055969177     2.9843361466     1.2165147848
| 11>  C        1.1516080536     2.2080581149     0.0104921218
| 12>  C        0.7098205178     3.1843454770    -1.0894420829
| 13>  C       -0.6231488728     3.5014814263    -0.4049972458
| 14>  H       -2.1316892035     1.7065835717    -0.4862535118
| 15>  H       -2.3611533460     3.2151324254     1.5964072296
| 16>  H       -1.2452958288     2.0107385738     2.3101740340
| 17>  H       -0.1815263468     4.6252437600     1.5988855281
| 18>  H        2.1447900905     1.7659177836    -0.0206522108
| 19>  H        1.3780548433     4.0446877363    -1.1768384486
| 20>  H        0.5917840495     2.7039391899    -2.0657730642
| 21>  H       -1.2832483330     4.2477546036    -0.8407572662
| 22> *
| 23>
| 24>                          ****END OF INPUT****

CARTESIAN COORDINATES (ANGSTROEM)
---------------------------------
  O      0.002686    0.014786   -0.037804
  C     -0.031043    1.214956   -0.001852
  C     -1.264983    2.128142    0.021515
  C     -1.409421    2.690248    1.470693
  C     -0.260071    3.653612    1.109156
  O      1.005597    2.984336    1.216515
  C      1.151608    2.208058    0.010492
  C      0.709821    3.184345   -1.089442
  C     -0.623149    3.501481   -0.404997
  H     -2.131689    1.706584   -0.486254
  H     -2.361153    3.215132    1.596407
  H     -1.245296    2.010739    2.310174
  H     -0.181526    4.625244    1.598886
  H      2.144790    1.765918   -0.020652
  H      1.378055    4.044688   -1.176838
  H      0.591784    2.703939   -2.065773
  H     -1.283248    4.247755   -0.840757

 Total Charge           Charge          ....    0
 Multiplicity           Mult            ....    1
 Number of Electrons    NEL             ....   66
 Basis Dimension        Dim             ....  327

ORBITAL ENERGIES
----------------

  NO   OCC          E(Eh)            E(eV)
   0   2.0000     -20.571161      -559.7697
   1   2.0000     -20.554782      -559.3241
   2   2.0000     -11.331636      -308.3495
   3   2.0000     -11.296210      -307.3855
   4   2.0000     -11.295052      -307.3540
   5   2.0000     -11.253441      -306.2217
   6   2.0000     -11.251354      -306.1649
   7   2.0000     -11.243733      -305.9575
   8   2.0000     -11.242593      -305.9265
   9   2.0000      -1.408554       -38.3287
  10   2.0000      -1.387375       -37.7524
  11   2.0000      -1.158348       -31.5203
  12   2.0000      -1.063863       -28.9492
  13   2.0000      -0.968371       -26.3507
  14   2.0000      -0.890759       -24.2388
  15   2.0000      -0.836225       -22.7548
  16   2.0000      -0.807141       -21.9634
  17   2.0000      -0.726548       -19.7704
  18   2.0000      -0.714493       -19.4423
  19   2.0000      -0.671099       -18.2615
  20   2.0000      -0.649998       -17.6873
  21   2.0000      -0.624106       -16.9828
  22   2.0000      -0.601552       -16.3691
  23   2.0000      -0.590174       -16.0594
  24   2.0000      -0.561987       -15.2924
  25   2.0000      -0.539720       -14.6865
  26   2.0000      -0.535092       -14.5606
  27   2.0000      -0.518257       -14.1025
  28   2.0000      -0.497795       -13.5457
  29   2.0000      -0.468410       -12.7461
  30   2.0000      -0.444562       -12.0972
  31   2.0000      -0.433336       -11.7917
  32   2.0000      -0.384936       -10.4746
  33   0.0000       0.127967         3.4822
  34   0.0000       0.135366         3.6835
  35   0.0000       0.163785         4.4568
  36   0.0000       0.170139         4.6297
  37   0.0000       0.178869         4.8673

MULLIKEN ATOMIC CHARGES
-----------------------
   0 O :   -0.246401
   1 C :    0.047055
   2 C :   -0.026473
   3 C :   -0.244376
   4 C :    0.026060
   5 O :   -0.317296
   6 C :    0.138906
   7 C :   -0.312421
   8 C :   -0.122411
   9 H :    0.137742
  10 H :    0.122748
  11 H :    0.129730
  12 H :    0.118500
  13 H :    0.141354
  14 H :    0.130844
  15 H :    0.135163
  16 H :    0.141277
Sum of atomic charges:    0.0000000

LOEWDIN ATOMIC CHARGES
----------------------
   0 O :    0.167634
   1 C :   -0.273845
   2 C :   -0.154229
   3 C :   -0.192471
   4 C :   -0.245054
   5 O :    0.195641
   6 C :   -0.251287
   7 C :   -0.209773
   8 C :   -0.169103
   9 H :    0.144884
  10 H :    0.141800
  11 H :    0.134449
  12 H :    0.130387
  13 H :    0.144349
  14 H :    0.143376
  15 H :    0.147504
  16 H :    0.145737

  Mayer bond orders larger than 0.1
B(  0-O ,  1-C ) :   2.0630 B(  1-C ,  2-C ) :   0.9121 B(  1-C ,  6-C ) :   0.8716
B(  2-C ,  3-C ) :   0.9027 B(  2-C ,  6-C ) :  -0.1197 B(  2-C ,  8-C ) :   0.8703
B(  2-C ,  9-H ) :   0.9061 B(  3-C ,  4-C ) :   0.9260 B(  3-C , 10-H ) :   0.9121
B(  3-C , 11-H ) :   0.9075 B(  4-C ,  5-O ) :   0.9513 B(  4-C ,  8-C ) :   0.8997
B(  4-C , 12-H ) :   0.9239 B(  5-O ,  6-C ) :   0.8892 B(  6-C ,  7-C ) :   0.9168
B(  6-C , 13-H ) :   0.9023 B(  7-C ,  8-C ) :   0.9477 B(  7-C , 14-H ) :   0.9068
B(  7-C , 15-H ) :   0.9211 B(  8-C , 16-H ) :   0.9021

MP2 TOTAL ENERGY:     -421.133633719 Eh
FINAL SINGLE POINT ENERGY      -421.133633719433

DIPOLE MOMENT
-------------
                                X             Y             Z
Electronic contribution:      1.93312      -3.76973       0.71085
Nuclear contribution   :     -2.41341       4.91410      -1.13790
                        -----------------------------------------
Total Dipole Moment    :     -0.48029       1.14437      -0.42705
                        -----------------------------------------
Magnitude (a.u.)       :      1.31250
Magnitude (Debye)      :      3.33610

                             ****ORCA TERMINATED NORMALLY****
TOTAL RUN TIME: 0 days 0 hours 20 minutes 7 seconds 933 msec
