                         Program Version 3.0.3 - RELEASE   -
|  1> ! RI-MP2 RIJK def2-TZVP def2-TZVP/C def2-TZVP/JK TIGHTSCF
|  2> % maxcore 2000
|  3> % mp2 density relaxed end
|  4> *xyz 0 1
|  5>  C        0.0840713249     1.5482483678    -0.2239900902
|  6>  C        0.0140192625     0.0532262143     0.0027177614
|  7>  C        1.2522674826    -0.8053168574    -0.0622082043
|  8>  C        0.5312507959    -0.6149805349     1.2584457006
|  9>  C        1.1482724919     0.1583813546     2.4053508446
| 10>  C        1.9857411841    -0.7557249817     3.3412148289
| 11>  N        3.1459879115    -1.4214028153     2.7424976255
| 12>  C        2.4308665357     0.0173771864     4.5119797643
| 13>  N        2.7660083958     0.6605403483     5.4112890771
| 14>  H        1.0224976904     1.9765899743     0.1391485160
| 15>  H        0.0149239348     1.7771458272    -1.2928495085
| 16>  H       -0.7369196029     2.0693156908     0.2807671374
| 17>  H       -0.8847162729    -0.4040480499    -0.4032536075
| 18>  H        1.2038876911    -1.7695385698    -0.5570844651
| 19>  H        2.2000598105    -0.2902339063    -0.1898125698
| 20>  H       -0.0605194036    -1.4664723540     1.5905143022
| 21>  H        1.7948242214     0.9626041099     2.0383385243
| 22>  H        0.3617114721     0.6362077689     3.0029252940
| 23>  H        1.3241836732    -1.5470989719     3.7193558827
| 24>  H        2.8332099228    -1.9471548603     1.9322242045
| 25>  H        3.8029185683    -0.7246922007     2.4014860816
| 26> *
| 27>
| 28>                          ****END OF INPUT****

CARTESIAN COORDINATES (ANGSTROEM)
---------------------------------
  C      0.084071    1.548248   -0.223990
  C      0.014019    0.053226    0.002718
  C      1.252267   -0.805317   -0.062208
  C      0.531251   -0.614981    1.258446
  C      1.148272    0.158381    2.405351
  C      1.985741   -0.755725    3.341215
  N      3.145988   -1.421403    2.742498
  C      2.430867    0.017377    4.511980
  N      2.766008    0.660540    5.411289
  H      1.022498    1.976590    0.139149
  H      0.014924    1.777146   -1.292850
  H     -0.736920    2.069316    0.280767
  H     -0.884716   -0.404048   -0.403254
  H      1.203888   -1.769539   -0.557084
  H      2.200060   -0.290234   -0.189813
  H     -0.060519   -1.466472    1.590514
  H      1.794824    0.962604    2.038339
  H      0.361711    0.636208    3.002925
  H      1.324184   -1.547099    3.719356
  H      2.833210   -1.947155    1.932224
  H      3.802919   -0.724692    2.401486

 Total Charge           Charge          ....    0
 Multiplicity           Mult            ....    1
 Number of Electrons    NEL             ....   68
 Basis Dimension        Dim             ....  351

ORBITAL ENERGIES
----------------

  NO   OCC          E(Eh)            E(eV)
   0   2.0000     -15.567119      -423.6028
   1   2.0000     -15.566487      -423.5857
   2   2.0000     -11.312827      -307.8377
   3   2.0000     -11.267716      -306.6101
   4   2.0000     -11.251600      -306.1716
   5   2.0000     -11.249324      -306.1097
   6   2.0000     -11.246676      -306.0376
   7   2.0000     -11.239030      -305.8295
   8   2.0000     -11.229694      -305.5755
   9   2.0000      -1.233691       -33.5704
  10   2.0000      -1.199173       -32.6312
  11   2.0000      -1.164522       -31.6883
  12   2.0000      -1.036956       -28.2170
  13   2.0000      -0.976266       -26.5655
  14   2.0000      -0.915339       -24.9077
  15   2.0000      -0.819740       -22.3063
  16   2.0000      -0.773694       -21.0533
  17   2.0000      -0.727853       -19.8059
  18   2.0000      -0.689211       -18.7544
  19   2.0000      -0.651655       -17.7324
  20   2.0000      -0.625818       -17.0294
  21   2.0000      -0.614022       -16.7084
  22   2.0000      -0.605409       -16.4740
  23   2.0000      -0.576874       -15.6975
  24   2.0000      -0.559413       -15.2224
  25   2.0000      -0.550612       -14.9829
  26   2.0000      -0.545127       -14.8336
  27   2.0000      -0.520847       -14.1730
  28   2.0000      -0.497250       -13.5309
  29   2.0000      -0.463714       -12.6183
  30   2.0000      -0.460759       -12.5379
  31   2.0000      -0.434307       -11.8181
  32   2.0000      -0.421618       -11.4728
  33   2.0000      -0.401677       -10.9302
  34   0.0000       0.116992         3.1835
  35   0.0000       0.132528         3.6063
  36   0.0000       0.139663         3.8004
  37   0.0000       0.150932         4.1071
  38   0.0000       0.176908         4.8139

MULLIKEN ATOMIC CHARGES
-----------------------
   0 C :   -0.396706
   1 C :   -0.062716
   2 C :   -0.326373
   3 C :   -0.122192
   4 C :   -0.256942
   5 C :    0.129249
   6 N :   -0.513115
   7 C :   -0.183085
   8 N :   -0.051521
   9 H :    0.121488
  10 H :    0.140799
  11 H :    0.135248
  12 H :    0.122902
  13 H :    0.141320
  14 H :    0.126649
  15 H :    0.125464
  16 H :    0.128376
  17 H :    0.136224
  18 H :    0.130180
  19 H :    0.243085
  20 H :    0.231665
Sum of atomic charges:    0.0000000

LOEWDIN ATOMIC CHARGES
----------------------
   0 C :   -0.293079
   1 C :   -0.232073
   2 C :   -0.222652
   3 C :   -0.218248
   4 C :   -0.221252
   5 C :   -0.315660
   6 N :   -0.123998
   7 C :   -0.168667
   8 N :    0.063166
   9 H :    0.123735
  10 H :    0.128104
  11 H :    0.126964
  12 H :    0.149457
  13 H :    0.130962
  14 H :    0.133561
  15 H :    0.151012
  16 H :    0.145607
  17 H :    0.152556
  18 H :    0.170605
  19 H :    0.159512
  20 H :    0.160391

  Mayer bond orders larger than 0.1
B(  0-C ,  1-C ) :   0.9180 B(  0-C ,  9-H ) :   0.9356 B(  0-C , 10-H ) :   0.9383
B(  0-C , 11-H ) :   0.9384 B(  1-C ,  2-C ) :   0.8895 B(  1-C ,  3-C ) :   0.8693
B(  1-C , 12-H ) :   0.9296 B(  2-C ,  3-C ) :   0.8966 B(  2-C , 13-H ) :   0.9271
B(  2-C , 14-H ) :   0.9263 B(  3-C ,  4-C ) :   0.8746 B(  3-C , 15-H ) :   0.9238
B(  4-C ,  5-C ) :   0.9225 B(  4-C , 16-H ) :   0.9314 B(  4-C , 17-H ) :   0.9189
B(  5-C ,  6-N ) :   0.9372 B(  5-C ,  7-C ) :   0.9371 B(  5-C , 18-H ) :   0.9016
B(  6-N , 19-H ) :   0.8946 B(  6-N , 20-H ) :   0.8859 B(  7-C ,  8-N ) :   2.8822

MP2 TOTAL ENERGY:     -382.591141073 Eh
FINAL SINGLE POINT ENERGY      -382.591141073226

DIPOLE MOMENT
-------------
                                X             Y             Z
Electronic contribution:      3.88882      -1.15977      10.07086
Nuclear contribution   :     -4.69563       0.78167     -11.84168
                        -----------------------------------------
Total Dipole Moment    :     -0.80681      -0.37810      -1.77083
                        -----------------------------------------
Magnitude (a.u.)       :      1.98235
Magnitude (Debye)      :      5.03874

                             ****ORCA TERMINATED NORMALLY****
TOTAL RUN TIME: 0 days 0 hours 20 minutes 13 seconds 681 msec
