                         Program Version 3.0.3 - RELEASE   -
|  1> ! RI-MP2 RIJK def2-TZVP def2-TZVP/C def2-TZVP/JK TIGHTSCF
|  2> % maxcore 2000
|  3> % mp2 density relaxed end
|  4> *xyz 0 1
|  5>  C       -0.0265670212     1.4941050453     0.0109977564
|  6>  C       -0.0034388939    -0.0136475615    -0.0323896660
|  7>  C        1.0067535653    -0.7195175041    -0.9344423735
|  8>  C        0.4873280758    -2.1434947814    -1.0600016637
|  9>  C        0.0814260627    -2.7901934466     0.2379266473
| 10>  O        0.2505243452    -2.0397473403     1.4144505080
| 11>  C       -0.3724848547    -0.7974966459     1.2034235587
| 12>  C       -1.2896135562    -0.8478257158    -0.0031408981
| 13>  C       -0.9853200772    -2.1797187395    -0.6461077518
| 14>  H        0.9337623797     1.8965531584     0.3539691770
| 15>  H       -0.2311851132     1.9163531673    -0.9800401483
| 16>  H       -0.8003494382     1.8614633461     0.6932570485
| 17>  H        1.0454002399    -0.2306031505    -1.9160585529
| 18>  H        2.0172492990    -0.6881305791    -0.5083569687
| 19>  H        0.8551196124    -2.7805184819    -1.8570566678
| 20>  H        0.2033084521    -3.8540472285     0.4019916255
| 21>  H       -0.6133166282    -0.2904753956     2.1311581976
| 22>  H       -2.2829958858    -0.4191748809    -0.0178866800
| 23>  H       -1.7459623134    -2.7557035056    -1.1547686081
| 24> *
| 25>
| 26>                          ****END OF INPUT****

CARTESIAN COORDINATES (ANGSTROEM)
---------------------------------
  C     -0.026567    1.494105    0.010998
  C     -0.003439   -0.013648   -0.032390
  C      1.006754   -0.719518   -0.934442
  C      0.487328   -2.143495   -1.060002
  C      0.081426   -2.790193    0.237927
  O      0.250524   -2.039747    1.414451
  C     -0.372485   -0.797497    1.203424
  C     -1.289614   -0.847826   -0.003141
  C     -0.985320   -2.179719   -0.646108
  H      0.933762    1.896553    0.353969
  H     -0.231185    1.916353   -0.980040
  H     -0.800349    1.861463    0.693257
  H      1.045400   -0.230603   -1.916059
  H      2.017249   -0.688131   -0.508357
  H      0.855120   -2.780518   -1.857057
  H      0.203308   -3.854047    0.401992
  H     -0.613317   -0.290475    2.131158
  H     -2.282996   -0.419175   -0.017887
  H     -1.745962   -2.755704   -1.154769

 Total Charge           Charge          ....    0
 Multiplicity           Mult            ....    1
 Number of Electrons    NEL             ....   66
 Basis Dimension        Dim             ....  339

ORBITAL ENERGIES
----------------

  NO   OCC          E(Eh)            E(eV)
   0   2.0000     -20.559497      -559.4524
   1   2.0000     -11.277192      -306.8680
   2   2.0000     -11.275398      -306.8192
   3   2.0000     -11.234474      -305.7056
   4   2.0000     -11.230095      -305.5864
   5   2.0000     -11.228574      -305.5450
   6   2.0000     -11.227803      -305.5240
   7   2.0000     -11.225056      -305.4493
   8   2.0000     -11.221244      -305.3456
   9   2.0000      -1.396136       -37.9908
  10   2.0000      -1.177930       -32.0531
  11   2.0000      -1.102849       -30.0100
  12   2.0000      -0.992449       -27.0059
  13   2.0000      -0.948259       -25.8034
  14   2.0000      -0.838847       -22.8262
  15   2.0000      -0.823896       -22.4193
  16   2.0000      -0.754324       -20.5262
  17   2.0000      -0.731105       -19.8944
  18   2.0000      -0.702912       -19.1272
  19   2.0000      -0.626952       -17.0602
  20   2.0000      -0.623583       -16.9686
  21   2.0000      -0.600398       -16.3377
  22   2.0000      -0.585878       -15.9425
  23   2.0000      -0.569824       -15.5057
  24   2.0000      -0.552173       -15.0254
  25   2.0000      -0.537686       -14.6312
  26   2.0000      -0.534145       -14.5348
  27   2.0000      -0.506575       -13.7846
  28   2.0000      -0.472595       -12.8600
  29   2.0000      -0.424007       -11.5378
  30   2.0000      -0.415562       -11.3080
  31   2.0000      -0.371009       -10.0957
  32   2.0000      -0.352217        -9.5843
  33   0.0000       0.138311         3.7636
  34   0.0000       0.160027         4.3546
  35   0.0000       0.172809         4.7024
  36   0.0000       0.188797         5.1374
  37   0.0000       0.191592         5.2135

MULLIKEN ATOMIC CHARGES
-----------------------
   0 C :   -0.433290
   1 C :    0.080689
   2 C :   -0.153652
   3 C :   -0.165657
   4 C :    0.050912
   5 O :   -0.304995
   6 C :   -0.012053
   7 C :   -0.166653
   8 C :   -0.171824
   9 H :    0.137987
  10 H :    0.132564
  11 H :    0.130843
  12 H :    0.113603
  13 H :    0.114800
  14 H :    0.125568
  15 H :    0.127722
  16 H :    0.125302
  17 H :    0.133222
  18 H :    0.134912
Sum of atomic charges:    0.0000000

LOEWDIN ATOMIC CHARGES
----------------------
   0 C :   -0.267458
   1 C :   -0.224820
   2 C :   -0.179745
   3 C :   -0.175788
   4 C :   -0.244346
   5 O :    0.224590
   6 C :   -0.226494
   7 C :   -0.141040
   8 C :   -0.157213
   9 H :    0.129273
  10 H :    0.127387
  11 H :    0.129589
  12 H :    0.144619
  13 H :    0.146702
  14 H :    0.144839
  15 H :    0.139023
  16 H :    0.141132
  17 H :    0.145799
  18 H :    0.143950

  Mayer bond orders larger than 0.1
B(  0-C ,  1-C ) :   0.8729 B(  0-C ,  9-H ) :   0.9403 B(  0-C , 10-H ) :   0.9411
B(  0-C , 11-H ) :   0.9355 B(  1-C ,  2-C ) :   0.9496 B(  1-C ,  6-C ) :   0.8518
B(  1-C ,  7-C ) :   0.8268 B(  2-C ,  3-C ) :   0.9527 B(  2-C , 12-H ) :   0.9179
B(  2-C , 13-H ) :   0.9116 B(  3-C ,  4-C ) :   0.8595 B(  3-C ,  8-C ) :   0.8599
B(  3-C , 14-H ) :   0.9223 B(  4-C ,  5-O ) :   0.9658 B(  4-C ,  8-C ) :   0.8870
B(  4-C , 15-H ) :   0.9429 B(  5-O ,  6-C ) :   0.9719 B(  6-C ,  7-C ) :   0.8961
B(  6-C , 16-H ) :   0.9456 B(  7-C ,  8-C ) :   0.9515 B(  7-C , 17-H ) :   0.9197
B(  8-C , 18-H ) :   0.9252

MP2 TOTAL ENERGY:     -385.206039270 Eh
FINAL SINGLE POINT ENERGY      -385.206039269804

DIPOLE MOMENT
-------------
                                X             Y             Z
Electronic contribution:     -0.40942      -5.04548       2.54620
Nuclear contribution   :      0.18069       5.26899      -3.04524
                        -----------------------------------------
Total Dipole Moment    :     -0.22872       0.22351      -0.49904
                        -----------------------------------------
Magnitude (a.u.)       :      0.59272
Magnitude (Debye)      :      1.50656

                             ****ORCA TERMINATED NORMALLY****
TOTAL RUN TIME: 0 days 0 hours 18 minutes 31 seconds 487 msec
