                         Program Version 3.0.3 - RELEASE   -
|  1> ! RI-MP2 RIJK def2-TZVP def2-TZVP/C def2-TZVP/JK TIGHTSCF
|  2> % maxcore 2000
|  3> % mp2 density relaxed end
|  4> *xyz 0 1
|  5>  C        0.1737758791     1.5383658688     0.3557694654
|  6>  O        0.8010439936     0.3107668016     0.0658152159
|  7>  C        0.7485769855    -0.6026777682     1.1271068058
|  8>  C       -0.5940693515    -1.3207098317     1.4455904289
|  9>  C        0.2108167362    -2.6402767746     1.6016728261
| 10>  C        1.4058447203    -1.9833357490     0.8403833675
| 11>  C        1.4915498063    -2.3534806945    -0.6199480529
| 12>  C        2.7643660726    -2.1263530238    -1.3898577720
| 13>  C        2.3354923768    -3.5318853171    -1.0434787171
| 14>  H        0.6377411348     2.0374523142     1.2218035530
| 15>  H        0.2872531328     2.1788045872    -0.5224197800
| 16>  H       -0.8992769019     1.4151106910     0.5668491685
| 17>  H        1.1694156346    -0.1484856240     2.0393674417
| 18>  H       -1.1752226043    -0.9708244563     2.3019155268
| 19>  H       -1.2388599520    -1.3379449274     0.5620474604
| 20>  H        0.4514999818    -2.8604497001     2.6448878163
| 21>  H       -0.2141510677    -3.5375816919     1.1466271354
| 22>  H        2.3888135247    -2.1227246220     1.3021113258
| 23>  H        0.5732340133    -2.2039002135    -1.1806605526
| 24>  H        2.6917460213    -1.8018622613    -2.4218185779
| 25>  H        3.6100889646    -1.7079025803    -0.8541517677
| 26>  H        2.8940276645    -4.0588195196    -0.2762077270
| 27>  H        1.9689450745    -4.1710152974    -1.8393678606
| 28> *
| 29>
| 30>                          ****END OF INPUT****

CARTESIAN COORDINATES (ANGSTROEM)
---------------------------------
  C      0.173776    1.538366    0.355769
  O      0.801044    0.310767    0.065815
  C      0.748577   -0.602678    1.127107
  C     -0.594069   -1.320710    1.445590
  C      0.210817   -2.640277    1.601673
  C      1.405845   -1.983336    0.840383
  C      1.491550   -2.353481   -0.619948
  C      2.764366   -2.126353   -1.389858
  C      2.335492   -3.531885   -1.043479
  H      0.637741    2.037452    1.221804
  H      0.287253    2.178805   -0.522420
  H     -0.899277    1.415111    0.566849
  H      1.169416   -0.148486    2.039367
  H     -1.175223   -0.970824    2.301916
  H     -1.238860   -1.337945    0.562047
  H      0.451500   -2.860450    2.644888
  H     -0.214151   -3.537582    1.146627
  H      2.388814   -2.122725    1.302111
  H      0.573234   -2.203900   -1.180661
  H      2.691746   -1.801862   -2.421819
  H      3.610089   -1.707903   -0.854152
  H      2.894028   -4.058820   -0.276208
  H      1.968945   -4.171015   -1.839368

 Total Charge           Charge          ....    0
 Multiplicity           Mult            ....    1
 Number of Electrons    NEL             ....   70
 Basis Dimension        Dim             ....  363

ORBITAL ENERGIES
----------------

  NO   OCC          E(Eh)            E(eV)
   0   2.0000     -20.550215      -559.1998
   1   2.0000     -11.272692      -306.7455
   2   2.0000     -11.267862      -306.6141
   3   2.0000     -11.223581      -305.4092
   4   2.0000     -11.220383      -305.3221
   5   2.0000     -11.217865      -305.2536
   6   2.0000     -11.216599      -305.2192
   7   2.0000     -11.214820      -305.1708
   8   2.0000     -11.212873      -305.1178
   9   2.0000      -1.373901       -37.3857
  10   2.0000      -1.146502       -31.1979
  11   2.0000      -1.101408       -29.9708
  12   2.0000      -0.942113       -25.6362
  13   2.0000      -0.913441       -24.8560
  14   2.0000      -0.858126       -23.3508
  15   2.0000      -0.811426       -22.0800
  16   2.0000      -0.803062       -21.8524
  17   2.0000      -0.732068       -19.9206
  18   2.0000      -0.682855       -18.5814
  19   2.0000      -0.668452       -18.1895
  20   2.0000      -0.632649       -17.2153
  21   2.0000      -0.620415       -16.8823
  22   2.0000      -0.613783       -16.7019
  23   2.0000      -0.589796       -16.0492
  24   2.0000      -0.566942       -15.4273
  25   2.0000      -0.515506       -14.0276
  26   2.0000      -0.512990       -13.9592
  27   2.0000      -0.504883       -13.7386
  28   2.0000      -0.482707       -13.1351
  29   2.0000      -0.475156       -12.9297
  30   2.0000      -0.455941       -12.4068
  31   2.0000      -0.449354       -12.2276
  32   2.0000      -0.408303       -11.1105
  33   2.0000      -0.392331       -10.6759
  34   2.0000      -0.385047       -10.4777
  35   0.0000       0.140544         3.8244
  36   0.0000       0.150026         4.0824
  37   0.0000       0.157031         4.2730
  38   0.0000       0.169254         4.6056
  39   0.0000       0.183843         5.0026

MULLIKEN ATOMIC CHARGES
-----------------------
   0 C :   -0.225820
   1 O :   -0.282859
   2 C :    0.024696
   3 C :   -0.261253
   4 C :   -0.228873
   5 C :   -0.006645
   6 C :   -0.128811
   7 C :   -0.254135
   8 C :   -0.254429
   9 H :    0.108800
  10 H :    0.139877
  11 H :    0.114426
  12 H :    0.070224
  13 H :    0.119029
  14 H :    0.118558
  15 H :    0.118562
  16 H :    0.116855
  17 H :    0.102481
  18 H :    0.115317
  19 H :    0.124700
  20 H :    0.122293
  21 H :    0.121082
  22 H :    0.125926
Sum of atomic charges:   -0.0000000

LOEWDIN ATOMIC CHARGES
----------------------
   0 C :   -0.356292
   1 O :    0.165962
   2 C :   -0.294130
   3 C :   -0.231746
   4 C :   -0.214609
   5 C :   -0.192323
   6 C :   -0.210318
   7 C :   -0.225044
   8 C :   -0.231239
   9 H :    0.101435
  10 H :    0.113106
  11 H :    0.102331
  12 H :    0.132604
  13 H :    0.121644
  14 H :    0.137688
  15 H :    0.132046
  16 H :    0.129126
  17 H :    0.145730
  18 H :    0.151628
  19 H :    0.130344
  20 H :    0.132079
  21 H :    0.131100
  22 H :    0.128878

  Mayer bond orders larger than 0.1
B(  0-C ,  1-O ) :   0.9141 B(  0-C ,  9-H ) :   0.9341 B(  0-C , 10-H ) :   0.9412
B(  0-C , 11-H ) :   0.9353 B(  1-O ,  2-C ) :   1.0318 B(  2-C ,  3-C ) :   0.9320
B(  2-C ,  5-C ) :   0.9070 B(  2-C , 12-H ) :   0.9409 B(  3-C ,  4-C ) :   0.9542
B(  3-C , 13-H ) :   0.9254 B(  3-C , 14-H ) :   0.9167 B(  4-C ,  5-C ) :   0.8912
B(  4-C , 15-H ) :   0.9273 B(  4-C , 16-H ) :   0.9219 B(  5-C ,  6-C ) :   0.9315
B(  5-C , 17-H ) :   0.9126 B(  6-C ,  7-C ) :   0.8936 B(  6-C ,  8-C ) :   0.8763
B(  6-C , 18-H ) :   0.9126 B(  7-C ,  8-C ) :   0.9126 B(  7-C , 19-H ) :   0.9295
B(  7-C , 20-H ) :   0.9300 B(  8-C , 21-H ) :   0.9248 B(  8-C , 22-H ) :   0.9304

MP2 TOTAL ENERGY:     -387.572758045 Eh
FINAL SINGLE POINT ENERGY      -387.572758044726

DIPOLE MOMENT
-------------
                                X             Y             Z
Electronic contribution:      0.80907       0.45387      -0.54664
Nuclear contribution   :     -1.05465      -0.29027       0.89956
                        -----------------------------------------
Total Dipole Moment    :     -0.24557       0.16360       0.35293
                        -----------------------------------------
Magnitude (a.u.)       :      0.46003
Magnitude (Debye)      :      1.16930

                             ****ORCA TERMINATED NORMALLY****
TOTAL RUN TIME: 0 days 0 hours 19 minutes 9 seconds 869 msec
