                         Program Version 3.0.3 - RELEASE   -
|  1> ! RI-MP2 RIJK def2-TZVP def2-TZVP/C def2-TZVP/JK TIGHTSCF
|  2> % maxcore 2000
|  3> % mp2 density relaxed end
|  4> *xyz 0 1
|  5>  C       -0.4419232937     1.3411631794     0.2519491874
|  6>  C        0.1530809298     0.0282057674    -0.2539098261
|  7>  O        0.8800889229     0.1923689858    -1.4665511334
|  8>  C        1.0449955357    -0.6059125583     0.7974193273
|  9>  O        0.4112954780    -1.1798186825     1.9440986355
| 10>  C        1.1492973355    -2.0478939907     1.0679696613
| 11>  C        0.3708512570    -3.1296272923     0.3502125665
| 12>  C       -0.0621353184    -4.2224136606     1.3117747847
| 13>  O        0.1366868219    -5.3971737136     1.1430269939
| 14>  H        0.3520621130     2.0558211022     0.5043248926
| 15>  H       -1.0783430749     1.7897787320    -0.5152549278
| 16>  H       -1.0366909991     1.1708694664     1.1539338634
| 17>  H       -0.6625003902    -0.6581604731    -0.5001359957
| 18>  H        1.4934142000     0.9262306899    -1.3485427363
| 19>  H        1.9251567044    -0.0007647850     1.0377254108
| 20>  H        2.0909169261    -2.3934721925     1.4992596455
| 21>  H       -0.5382056774    -2.7065096206    -0.0923293236
| 22>  H        0.9710458060    -3.5773642857    -0.4472055163
| 23>  H       -0.5976068167    -3.8485643181     2.2124652803
| 24> *
| 25>
| 26>                          ****END OF INPUT****

CARTESIAN COORDINATES (ANGSTROEM)
---------------------------------
  C     -0.441923    1.341163    0.251949
  C      0.153081    0.028206   -0.253910
  O      0.880089    0.192369   -1.466551
  C      1.044996   -0.605913    0.797419
  O      0.411295   -1.179819    1.944099
  C      1.149297   -2.047894    1.067970
  C      0.370851   -3.129627    0.350213
  C     -0.062135   -4.222414    1.311775
  O      0.136687   -5.397174    1.143027
  H      0.352062    2.055821    0.504325
  H     -1.078343    1.789779   -0.515255
  H     -1.036691    1.170869    1.153934
  H     -0.662500   -0.658160   -0.500136
  H      1.493414    0.926231   -1.348543
  H      1.925157   -0.000765    1.037725
  H      2.090917   -2.393472    1.499260
  H     -0.538206   -2.706510   -0.092329
  H      0.971046   -3.577364   -0.447206
  H     -0.597607   -3.848564    2.212465

 Total Charge           Charge          ....    0
 Multiplicity           Mult            ....    1
 Number of Electrons    NEL             ....   70
 Basis Dimension        Dim             ....  339

ORBITAL ENERGIES
----------------

  NO   OCC          E(Eh)            E(eV)
   0   2.0000     -20.585006      -560.1465
   1   2.0000     -20.573434      -559.8316
   2   2.0000     -20.561152      -559.4974
   3   2.0000     -11.335661      -308.4590
   4   2.0000     -11.308713      -307.7257
   5   2.0000     -11.302378      -307.5533
   6   2.0000     -11.301451      -307.5281
   7   2.0000     -11.253155      -306.2139
   8   2.0000     -11.233203      -305.6710
   9   2.0000      -1.429656       -38.9029
  10   2.0000      -1.399732       -38.0886
  11   2.0000      -1.378807       -37.5193
  12   2.0000      -1.060123       -28.8474
  13   2.0000      -1.047765       -28.5111
  14   2.0000      -0.942253       -25.6400
  15   2.0000      -0.877459       -23.8769
  16   2.0000      -0.824280       -22.4298
  17   2.0000      -0.794024       -21.6065
  18   2.0000      -0.722392       -19.6573
  19   2.0000      -0.700662       -19.0660
  20   2.0000      -0.666337       -18.1320
  21   2.0000      -0.644631       -17.5413
  22   2.0000      -0.641689       -17.4612
  23   2.0000      -0.630924       -17.1683
  24   2.0000      -0.599683       -16.3182
  25   2.0000      -0.575331       -15.6555
  26   2.0000      -0.565209       -15.3801
  27   2.0000      -0.545294       -14.8382
  28   2.0000      -0.536619       -14.6021
  29   2.0000      -0.520033       -14.1508
  30   2.0000      -0.499862       -13.6019
  31   2.0000      -0.484450       -13.1826
  32   2.0000      -0.457390       -12.4462
  33   2.0000      -0.448733       -12.2106
  34   2.0000      -0.415428       -11.3044
  35   0.0000       0.122563         3.3351
  36   0.0000       0.127314         3.4644
  37   0.0000       0.147546         4.0149
  38   0.0000       0.158604         4.3158
  39   0.0000       0.167651         4.5620

MULLIKEN ATOMIC CHARGES
-----------------------
   0 C :   -0.412517
   1 C :    0.113601
   2 O :   -0.471787
   3 C :    0.011365
   4 O :   -0.341376
   5 C :    0.010660
   6 C :   -0.168673
   7 C :    0.093143
   8 O :   -0.260959
   9 H :    0.117273
  10 H :    0.153103
  11 H :    0.148987
  12 H :    0.087582
  13 H :    0.315564
  14 H :    0.117693
  15 H :    0.130511
  16 H :    0.129409
  17 H :    0.130796
  18 H :    0.095627
Sum of atomic charges:   -0.0000000

LOEWDIN ATOMIC CHARGES
----------------------
   0 C :   -0.296024
   1 C :   -0.363046
   2 O :   -0.013266
   3 C :   -0.258282
   4 O :    0.162958
   5 C :   -0.257651
   6 C :   -0.241060
   7 C :   -0.287219
   8 O :    0.134581
   9 H :    0.122872
  10 H :    0.128444
  11 H :    0.134842
  12 H :    0.146208
  13 H :    0.175669
  14 H :    0.139947
  15 H :    0.143867
  16 H :    0.155841
  17 H :    0.155076
  18 H :    0.116243

  Mayer bond orders larger than 0.1
B(  0-C ,  1-C ) :   0.9505 B(  0-C ,  9-H ) :   0.9189 B(  0-C , 10-H ) :   0.9414
B(  0-C , 11-H ) :   0.9293 B(  1-C ,  2-O ) :   0.9049 B(  1-C ,  3-C ) :   0.8969
B(  1-C , 12-H ) :   0.9258 B(  2-O , 13-H ) :   0.8408 B(  3-C ,  4-O ) :   0.8980
B(  3-C ,  5-C ) :   0.9800 B(  3-C , 14-H ) :   0.8923 B(  4-O ,  5-C ) :   0.8628
B(  5-C ,  6-C ) :   0.8929 B(  5-C , 15-H ) :   0.9046 B(  6-C ,  7-C ) :   0.8833
B(  6-C , 16-H ) :   0.9203 B(  6-C , 17-H ) :   0.9036 B(  7-C ,  8-O ) :   1.9880
B(  7-C , 18-H ) :   0.9315

MP2 TOTAL ENERGY:     -459.409983663 Eh
FINAL SINGLE POINT ENERGY      -459.409983663435

DIPOLE MOMENT
-------------
                                X             Y             Z
Electronic contribution:      1.30940      -7.17534       1.78647
Nuclear contribution   :     -1.03428       8.55163      -1.88910
                        -----------------------------------------
Total Dipole Moment    :      0.27512       1.37628      -0.10263
                        -----------------------------------------
Magnitude (a.u.)       :      1.40726
Magnitude (Debye)      :      3.57697

                             ****ORCA TERMINATED NORMALLY****
TOTAL RUN TIME: 0 days 0 hours 17 minutes 46 seconds 404 msec
