                         Program Version 3.0.3 - RELEASE   -
|  1> ! RI-MP2 RIJK def2-TZVP def2-TZVP/C def2-TZVP/JK TIGHTSCF
|  2> % maxcore 2000
|  3> % mp2 density relaxed end
|  4> *xyz 0 1
|  5>  C       -0.0033086709     1.4676980715     0.0843943831
|  6>  O        1.3239945636     2.0387971293     0.0257116355
|  7>  C        2.1654062693     1.4415727461    -0.8355552273
|  8>  C        3.3148643311     1.8786466875    -1.4477039418
|  9>  C        3.7845950719     0.7266567290    -2.1318658076
| 10>  N        3.0086840820    -0.3347566557    -1.9640062669
| 11>  N        2.0064718708     0.1243416752    -1.1601612580
| 12>  C        0.9958171290    -0.6565214159    -0.6125344562
| 13>  C        0.0120567930    -0.0381317932     0.0419608790
| 14>  H       -0.4301982389     1.8429087903     1.0169222127
| 15>  H       -0.5954123634     1.8817562720    -0.7478558117
| 16>  H        3.7442063942     2.8648330383    -1.4072266637
| 17>  H        4.6653854798     0.6448058239    -2.7524150766
| 18>  H        1.1135223858    -1.7235832091    -0.7417411510
| 19>  H       -0.7839252772    -0.5915769893     0.5217948705
| 20> *
| 21>
| 22>                          ****END OF INPUT****

CARTESIAN COORDINATES (ANGSTROEM)
---------------------------------
  C     -0.003309    1.467698    0.084394
  O      1.323995    2.038797    0.025712
  C      2.165406    1.441573   -0.835555
  C      3.314864    1.878647   -1.447704
  C      3.784595    0.726657   -2.131866
  N      3.008684   -0.334757   -1.964006
  N      2.006472    0.124342   -1.160161
  C      0.995817   -0.656521   -0.612534
  C      0.012057   -0.038132    0.041961
  H     -0.430198    1.842909    1.016922
  H     -0.595412    1.881756   -0.747856
  H      3.744206    2.864833   -1.407227
  H      4.665385    0.644806   -2.752415
  H      1.113522   -1.723583   -0.741741
  H     -0.783925   -0.591577    0.521795

 Total Charge           Charge          ....    0
 Multiplicity           Mult            ....    1
 Number of Electrons    NEL             ....   64
 Basis Dimension        Dim             ....  315

ORBITAL ENERGIES
----------------

  NO   OCC          E(Eh)            E(eV)
   0   2.0000     -20.607704      -560.7641
   1   2.0000     -15.642048      -425.6418
   2   2.0000     -15.583227      -424.0412
   3   2.0000     -11.341408      -308.6154
   4   2.0000     -11.312844      -307.8381
   5   2.0000     -11.293258      -307.3052
   6   2.0000     -11.262255      -306.4615
   7   2.0000     -11.244942      -305.9904
   8   2.0000     -11.217954      -305.2560
   9   2.0000      -1.447861       -39.3983
  10   2.0000      -1.369507       -37.2662
  11   2.0000      -1.160054       -31.5667
  12   2.0000      -1.075660       -29.2702
  13   2.0000      -1.032780       -28.1034
  14   2.0000      -0.944231       -25.6938
  15   2.0000      -0.859259       -23.3816
  16   2.0000      -0.823813       -22.4171
  17   2.0000      -0.743049       -20.2194
  18   2.0000      -0.714155       -19.4331
  19   2.0000      -0.689368       -18.7586
  20   2.0000      -0.669937       -18.2299
  21   2.0000      -0.635895       -17.3036
  22   2.0000      -0.615940       -16.7606
  23   2.0000      -0.607868       -16.5409
  24   2.0000      -0.581805       -15.8317
  25   2.0000      -0.572367       -15.5749
  26   2.0000      -0.537558       -14.6277
  27   2.0000      -0.504689       -13.7333
  28   2.0000      -0.454391       -12.3646
  29   2.0000      -0.436635       -11.8815
  30   2.0000      -0.332954        -9.0601
  31   2.0000      -0.321995        -8.7619
  32   0.0000       0.113705         3.0941
  33   0.0000       0.142300         3.8722
  34   0.0000       0.164929         4.4879
  35   0.0000       0.181973         4.9517
  36   0.0000       0.186766         5.0822

MULLIKEN ATOMIC CHARGES
-----------------------
   0 C :   -0.011236
   1 O :   -0.270510
   2 C :    0.182164
   3 C :   -0.238382
   4 C :   -0.077313
   5 N :   -0.284495
   6 N :    0.141819
   7 C :   -0.100932
   8 C :   -0.196055
   9 H :    0.141037
  10 H :    0.117540
  11 H :    0.148000
  12 H :    0.138087
  13 H :    0.160340
  14 H :    0.149936
Sum of atomic charges:    0.0000000

LOEWDIN ATOMIC CHARGES
----------------------
   0 C :   -0.252739
   1 O :    0.252115
   2 C :   -0.319217
   3 C :   -0.181092
   4 C :   -0.267779
   5 N :    0.045808
   6 N :    0.222866
   7 C :   -0.173759
   8 C :   -0.181019
   9 H :    0.138767
  10 H :    0.133732
  11 H :    0.144415
  12 H :    0.134644
  13 H :    0.153122
  14 H :    0.150135

  Mayer bond orders larger than 0.1
B(  0-C ,  1-O ) :   0.8541 B(  0-C ,  8-C ) :   0.9379 B(  0-C ,  9-H ) :   0.9339
B(  0-C , 10-H ) :   0.9153 B(  1-O ,  2-C ) :   1.0953 B(  2-C ,  3-C ) :   1.4385
B(  2-C ,  6-N ) :   1.1445 B(  3-C ,  4-C ) :   1.2522 B(  3-C , 11-H ) :   0.9218
B(  4-C ,  5-N ) :   1.5249 B(  4-C , 12-H ) :   0.9339 B(  5-N ,  6-N ) :   0.9268
B(  6-N ,  7-C ) :   0.9857 B(  7-C ,  8-C ) :   1.7348 B(  7-C , 13-H ) :   0.9304
B(  8-C , 14-H ) :   0.9145

MP2 TOTAL ENERGY:     -416.107614921 Eh
FINAL SINGLE POINT ENERGY      -416.107614921246

DIPOLE MOMENT
-------------
                                X             Y             Z
Electronic contribution:      2.12243      -0.17944      -0.61335
Nuclear contribution   :     -3.02092       0.35996       1.05167
                        -----------------------------------------
Total Dipole Moment    :     -0.89849       0.18052       0.43832
                        -----------------------------------------
Magnitude (a.u.)       :      1.01587
Magnitude (Debye)      :      2.58215

                             ****ORCA TERMINATED NORMALLY****
TOTAL RUN TIME: 0 days 0 hours 16 minutes 31 seconds 764 msec
