                         Program Version 3.0.3 - RELEASE   -
|  1> ! RI-MP2 RIJK def2-TZVP def2-TZVP/C def2-TZVP/JK TIGHTSCF
|  2> % maxcore 2000
|  3> % mp2 density relaxed end
|  4> *xyz 0 1
|  5>  C        0.1416621174     1.4440064627     0.2165561487
|  6>  C       -0.1371791072    -0.0226937040    -0.1364657795
|  7>  C        0.5855786310    -0.4654267495    -1.3729582845
|  8>  C        0.3532188781    -0.0171211892    -2.8196552679
|  9>  C        1.3450915618    -1.1531571347    -3.1996507221
| 10>  O        1.2696392254    -1.8337920850    -4.4026920337
| 11>  C        2.6623158590    -0.6639260532    -2.5678005547
| 12>  N        2.0427053749    -0.8531095077    -1.2134937875
| 13>  C        1.0527965630    -1.8073469079    -1.7957765563
| 14>  H        1.2120998141     1.6006401107     0.3791037975
| 15>  H       -0.1797667979     2.1151065722    -0.5872146061
| 16>  H       -0.3895091872     1.7369904342     1.1269631571
| 17>  H        0.1729017493    -0.6686957445     0.6923752881
| 18>  H       -1.2147161520    -0.1781420886    -0.2760780584
| 19>  H       -0.6644923341    -0.2596720872    -3.1380311849
| 20>  H        0.6113121591     1.0073436005    -3.1136086153
| 21>  H        1.2659179767    -1.1924605685    -5.1218509335
| 22>  H        3.4781053196    -1.3826398117    -2.6805657019
| 23>  H        3.0143730466     0.3511834545    -2.7903760881
| 24>  H        0.8854377824    -2.8163592431    -1.4422871773
| 25> *
| 26>
| 27>                          ****END OF INPUT****

CARTESIAN COORDINATES (ANGSTROEM)
---------------------------------
  C      0.141662    1.444006    0.216556
  C     -0.137179   -0.022694   -0.136466
  C      0.585579   -0.465427   -1.372958
  C      0.353219   -0.017121   -2.819655
  C      1.345092   -1.153157   -3.199651
  O      1.269639   -1.833792   -4.402692
  C      2.662316   -0.663926   -2.567801
  N      2.042705   -0.853110   -1.213494
  C      1.052797   -1.807347   -1.795777
  H      1.212100    1.600640    0.379104
  H     -0.179767    2.115107   -0.587215
  H     -0.389509    1.736990    1.126963
  H      0.172902   -0.668696    0.692375
  H     -1.214716   -0.178142   -0.276078
  H     -0.664492   -0.259672   -3.138031
  H      0.611312    1.007344   -3.113609
  H      1.265918   -1.192461   -5.121851
  H      3.478105   -1.382640   -2.680566
  H      3.014373    0.351183   -2.790376
  H      0.885438   -2.816359   -1.442287

 Total Charge           Charge          ....    0
 Multiplicity           Mult            ....    1
 Number of Electrons    NEL             ....   68
 Basis Dimension        Dim             ....  345

ORBITAL ENERGIES
----------------

  NO   OCC          E(Eh)            E(eV)
   0   2.0000     -20.572955      -559.8186
   1   2.0000     -15.559207      -423.3876
   2   2.0000     -11.301239      -307.5224
   3   2.0000     -11.266237      -306.5699
   4   2.0000     -11.256334      -306.3004
   5   2.0000     -11.250077      -306.1302
   6   2.0000     -11.233276      -305.6730
   7   2.0000     -11.225582      -305.4636
   8   2.0000     -11.213274      -305.1287
   9   2.0000      -1.387274       -37.7496
  10   2.0000      -1.308541       -35.6072
  11   2.0000      -1.053396       -28.6644
  12   2.0000      -1.019757       -27.7490
  13   2.0000      -0.969086       -26.3702
  14   2.0000      -0.882167       -24.0050
  15   2.0000      -0.854780       -23.2597
  16   2.0000      -0.754338       -20.5266
  17   2.0000      -0.736044       -20.0288
  18   2.0000      -0.705380       -19.1944
  19   2.0000      -0.660963       -17.9857
  20   2.0000      -0.632038       -17.1986
  21   2.0000      -0.611413       -16.6374
  22   2.0000      -0.606564       -16.5054
  23   2.0000      -0.596658       -16.2359
  24   2.0000      -0.547213       -14.8904
  25   2.0000      -0.533346       -14.5131
  26   2.0000      -0.521834       -14.1998
  27   2.0000      -0.501190       -13.6381
  28   2.0000      -0.492748       -13.4083
  29   2.0000      -0.475876       -12.9492
  30   2.0000      -0.434057       -11.8113
  31   2.0000      -0.424984       -11.5644
  32   2.0000      -0.412004       -11.2112
  33   2.0000      -0.358164        -9.7461
  34   0.0000       0.129118         3.5135
  35   0.0000       0.142903         3.8886
  36   0.0000       0.166238         4.5236
  37   0.0000       0.176424         4.8007
  38   0.0000       0.183026         4.9804

MULLIKEN ATOMIC CHARGES
-----------------------
   0 C :   -0.421037
   1 C :   -0.200198
   2 C :    0.052623
   3 C :   -0.220655
   4 C :    0.196993
   5 O :   -0.455569
   6 C :   -0.113444
   7 N :   -0.255456
   8 C :   -0.150334
   9 H :    0.142829
  10 H :    0.122514
  11 H :    0.134398
  12 H :    0.122098
  13 H :    0.108899
  14 H :    0.123562
  15 H :    0.116494
  16 H :    0.326032
  17 H :    0.116578
  18 H :    0.102864
  19 H :    0.150809
Sum of atomic charges:    0.0000000

LOEWDIN ATOMIC CHARGES
----------------------
   0 C :   -0.310021
   1 C :   -0.255176
   2 C :   -0.241199
   3 C :   -0.174568
   4 C :   -0.337137
   5 O :    0.025417
   6 C :   -0.221137
   7 N :    0.139578
   8 C :   -0.127664
   9 H :    0.126402
  10 H :    0.119668
  11 H :    0.120921
  12 H :    0.149121
  13 H :    0.141769
  14 H :    0.145742
  15 H :    0.125780
  16 H :    0.185430
  17 H :    0.135068
  18 H :    0.118168
  19 H :    0.133837

  Mayer bond orders larger than 0.1
B(  0-C ,  1-C ) :   0.9271 B(  0-C ,  9-H ) :   0.9385 B(  0-C , 10-H ) :   0.9373
B(  0-C , 11-H ) :   0.9400 B(  1-C ,  2-C ) :   0.9056 B(  1-C , 12-H ) :   0.9290
B(  1-C , 13-H ) :   0.9303 B(  2-C ,  3-C ) :   0.9242 B(  2-C ,  7-N ) :   0.8315
B(  2-C ,  8-C ) :   0.8414 B(  3-C ,  4-C ) :   0.9320 B(  3-C , 14-H ) :   0.9145
B(  3-C , 15-H ) :   0.9034 B(  4-C ,  5-O ) :   1.0228 B(  4-C ,  6-C ) :   0.9518
B(  4-C ,  8-C ) :   0.8997 B(  5-O , 16-H ) :   0.8321 B(  6-C ,  7-N ) :   0.9216
B(  6-C , 17-H ) :   0.9210 B(  6-C , 18-H ) :   0.9137 B(  7-N ,  8-C ) :   0.9166
B(  8-C , 19-H ) :   0.8892

MP2 TOTAL ENERGY:     -402.398955629 Eh
FINAL SINGLE POINT ENERGY      -402.398955628698

DIPOLE MOMENT
-------------
                                X             Y             Z
Electronic contribution:      2.57222      -5.77715      -4.79253
Nuclear contribution   :     -2.96527       6.31156       4.24405
                        -----------------------------------------
Total Dipole Moment    :     -0.39305       0.53442      -0.54848
                        -----------------------------------------
Magnitude (a.u.)       :      0.86077
Magnitude (Debye)      :      2.18789

                             ****ORCA TERMINATED NORMALLY****
TOTAL RUN TIME: 0 days 0 hours 19 minutes 14 seconds 358 msec
