                         Program Version 3.0.3 - RELEASE   -
|  1> ! RI-MP2 RIJK def2-TZVP def2-TZVP/C def2-TZVP/JK TIGHTSCF
|  2> % maxcore 2000
|  3> % mp2 density relaxed end
|  4> *xyz 0 1
|  5>  O       -0.0328260565     1.4379124863    -0.1154070790
|  6>  C        0.0126232629     0.0410775963     0.0199869309
|  7>  C        0.2668982701    -0.5656946181     1.4401212257
|  8>  C       -1.1160369685    -1.2703831158     1.3691707879
|  9>  N       -2.2374022779    -0.4845403141     1.8820777277
| 10>  C       -2.4888292388     0.1876659498     0.6952352103
| 11>  O       -3.2685612000     1.0494948246     0.4051907660
| 12>  C       -1.3900525893    -0.6252653795    -0.0320430646
| 13>  H        0.8673302899     1.7775904763    -0.0850925107
| 14>  H        0.6800594051    -0.4119124203    -0.7255034539
| 15>  H        1.1202514604    -1.2471232704     1.4808529641
| 16>  H        0.3522432512     0.1726022940     2.2406998458
| 17>  H       -1.1728958928    -2.3414102445     1.5631968480
| 18>  H       -2.4408065395    -0.1909089214     2.8284035166
| 19>  H       -1.6763596062    -1.1696709633    -0.9292180348
| 20> *
| 21>
| 22>                          ****END OF INPUT****

CARTESIAN COORDINATES (ANGSTROEM)
---------------------------------
  O     -0.032826    1.437912   -0.115407
  C      0.012623    0.041078    0.019987
  C      0.266898   -0.565695    1.440121
  C     -1.116037   -1.270383    1.369171
  N     -2.237402   -0.484540    1.882078
  C     -2.488829    0.187666    0.695235
  O     -3.268561    1.049495    0.405191
  C     -1.390053   -0.625265   -0.032043
  H      0.867330    1.777590   -0.085093
  H      0.680059   -0.411912   -0.725503
  H      1.120251   -1.247123    1.480853
  H      0.352243    0.172602    2.240700
  H     -1.172896   -2.341410    1.563197
  H     -2.440807   -0.190909    2.828404
  H     -1.676360   -1.169671   -0.929218

 Total Charge           Charge          ....    0
 Multiplicity           Mult            ....    1
 Number of Electrons    NEL             ....   60
 Basis Dimension        Dim             ....  290

ORBITAL ENERGIES
----------------

  NO   OCC          E(Eh)            E(eV)
   0   2.0000     -20.568545      -559.6986
   1   2.0000     -20.521628      -558.4219
   2   2.0000     -15.581234      -423.9869
   3   2.0000     -11.348137      -308.7985
   4   2.0000     -11.304230      -307.6037
   5   2.0000     -11.285683      -307.0991
   6   2.0000     -11.249674      -306.1192
   7   2.0000     -11.239438      -305.8407
   8   2.0000      -1.387389       -37.7528
   9   2.0000      -1.375724       -37.4353
  10   2.0000      -1.272646       -34.6304
  11   2.0000      -1.094564       -29.7846
  12   2.0000      -0.957033       -26.0422
  13   2.0000      -0.891528       -24.2597
  14   2.0000      -0.822330       -22.3767
  15   2.0000      -0.747911       -20.3517
  16   2.0000      -0.722621       -19.6635
  17   2.0000      -0.692714       -18.8497
  18   2.0000      -0.667307       -18.1583
  19   2.0000      -0.640159       -17.4196
  20   2.0000      -0.607050       -16.5187
  21   2.0000      -0.585799       -15.9404
  22   2.0000      -0.560272       -15.2458
  23   2.0000      -0.538926       -14.6649
  24   2.0000      -0.520823       -14.1723
  25   2.0000      -0.488535       -13.2937
  26   2.0000      -0.470732       -12.8093
  27   2.0000      -0.436161       -11.8685
  28   2.0000      -0.413305       -11.2466
  29   2.0000      -0.387275       -10.5383
  30   0.0000       0.123624         3.3640
  31   0.0000       0.137142         3.7318
  32   0.0000       0.152489         4.1494
  33   0.0000       0.169357         4.6084
  34   0.0000       0.185852         5.0573

MULLIKEN ATOMIC CHARGES
-----------------------
   0 O :   -0.431702
   1 C :   -0.026747
   2 C :   -0.207692
   3 C :   -0.006245
   4 N :   -0.332454
   5 C :    0.191902
   6 O :   -0.294345
   7 C :   -0.041870
   8 H :    0.316173
   9 H :    0.092104
  10 H :    0.120305
  11 H :    0.108922
  12 H :    0.131256
  13 H :    0.232417
  14 H :    0.147975
Sum of atomic charges:   -0.0000000

LOEWDIN ATOMIC CHARGES
----------------------
   0 O :   -0.000413
   1 C :   -0.312702
   2 C :   -0.212761
   3 C :   -0.212327
   4 N :    0.135267
   5 C :   -0.414112
   6 O :    0.121273
   7 C :   -0.125231
   8 H :    0.178388
   9 H :    0.131624
  10 H :    0.132102
  11 H :    0.134047
  12 H :    0.131003
  13 H :    0.170020
  14 H :    0.143823

  Mayer bond orders larger than 0.1
B(  0-O ,  1-C ) :   1.1446 B(  0-O ,  7-C ) :  -0.1075 B(  0-O ,  8-H ) :   0.8423
B(  1-C ,  2-C ) :   0.9183 B(  1-C ,  7-C ) :   0.8448 B(  1-C ,  9-H ) :   0.9502
B(  2-C ,  3-C ) :   0.9467 B(  2-C , 10-H ) :   0.9099 B(  2-C , 11-H ) :   0.8987
B(  3-C ,  4-N ) :   0.9264 B(  3-C ,  7-C ) :   0.8498 B(  3-C , 12-H ) :   0.9218
B(  4-N ,  5-C ) :   1.1393 B(  4-N , 13-H ) :   0.8537 B(  5-C ,  6-O ) :   2.0408
B(  5-C ,  7-C ) :   0.8523 B(  7-C , 14-H ) :   0.9062

MP2 TOTAL ENERGY:     -399.146751668 Eh
FINAL SINGLE POINT ENERGY      -399.146751667806

DIPOLE MOMENT
-------------
                                X             Y             Z
Electronic contribution:     -4.52799       2.26800      -0.74357
Nuclear contribution   :      6.16046      -3.32666       1.36127
                        -----------------------------------------
Total Dipole Moment    :      1.63247      -1.05866       0.61770
                        -----------------------------------------
Magnitude (a.u.)       :      2.04139
Magnitude (Debye)      :      5.18880

                             ****ORCA TERMINATED NORMALLY****
TOTAL RUN TIME: 0 days 0 hours 12 minutes 2 seconds 722 msec
