                         Program Version 3.0.3 - RELEASE   -
|  1> ! RI-MP2 RIJK def2-TZVP def2-TZVP/C def2-TZVP/JK TIGHTSCF
|  2> % maxcore 2000
|  3> % mp2 density relaxed end
|  4> *xyz 0 1
|  5>  C        0.0050399010     1.7369277866    -0.0562373276
|  6>  C        0.0462945889     0.2087693705    -0.0469348554
|  7>  O        0.7391636726    -0.1931305126     1.1271813421
|  8>  C       -1.3811599427    -0.4009312659    -0.0504407735
|  9>  C       -2.1872244950    -0.0261346986     1.1747839776
| 10>  O       -3.3095387798     0.4121650664     1.1400667572
| 11>  C        0.7951525385    -0.3129671872    -1.2723852978
| 12>  C        2.2523865633    -0.4611892126    -1.2766633661
| 13>  O        1.3931985390    -1.6018964070    -1.0905036476
| 14>  H        1.0200068799     2.1415764425    -0.0423288698
| 15>  H       -0.5117461701     2.1074427984    -0.9466270326
| 16>  H       -0.5248003617     2.1112457416     0.8240862547
| 17>  H        1.0185989995    -1.1067116541     0.9672595849
| 18>  H       -1.9427989539    -0.1067137369    -0.9422137191
| 19>  H       -1.2770963468    -1.4956026258    -0.0591499594
| 20>  H       -1.6602726402    -0.1933093846     2.1375879806
| 21>  H        0.2807530269    -0.1869092667    -2.2253470365
| 22>  H        2.7930307187    -0.4448752050    -2.2204419452
| 23>  H        2.8168535119    -0.1669086191    -0.3958847667
| 24> *
| 25>
| 26>                          ****END OF INPUT****

CARTESIAN COORDINATES (ANGSTROEM)
---------------------------------
  C      0.005040    1.736928   -0.056237
  C      0.046295    0.208769   -0.046935
  O      0.739164   -0.193131    1.127181
  C     -1.381160   -0.400931   -0.050441
  C     -2.187224   -0.026135    1.174784
  O     -3.309539    0.412165    1.140067
  C      0.795153   -0.312967   -1.272385
  C      2.252387   -0.461189   -1.276663
  O      1.393199   -1.601896   -1.090504
  H      1.020007    2.141576   -0.042329
  H     -0.511746    2.107443   -0.946627
  H     -0.524800    2.111246    0.824086
  H      1.018599   -1.106712    0.967260
  H     -1.942799   -0.106714   -0.942214
  H     -1.277096   -1.495603   -0.059150
  H     -1.660273   -0.193309    2.137588
  H      0.280753   -0.186909   -2.225347
  H      2.793031   -0.444875   -2.220442
  H      2.816854   -0.166909   -0.395885

 Total Charge           Charge          ....    0
 Multiplicity           Mult            ....    1
 Number of Electrons    NEL             ....   70
 Basis Dimension        Dim             ....  339

ORBITAL ENERGIES
----------------

  NO   OCC          E(Eh)            E(eV)
   0   2.0000     -20.590866      -560.3059
   1   2.0000     -20.570059      -559.7397
   2   2.0000     -20.555405      -559.3410
   3   2.0000     -11.329581      -308.2936
   4   2.0000     -11.315957      -307.9228
   5   2.0000     -11.305990      -307.6516
   6   2.0000     -11.300521      -307.5028
   7   2.0000     -11.245479      -306.0050
   8   2.0000     -11.233432      -305.6772
   9   2.0000      -1.436255       -39.0825
  10   2.0000      -1.393859       -37.9288
  11   2.0000      -1.377709       -37.4894
  12   2.0000      -1.088835       -29.6287
  13   2.0000      -0.993186       -27.0260
  14   2.0000      -0.948125       -25.7998
  15   2.0000      -0.903118       -24.5751
  16   2.0000      -0.808346       -21.9962
  17   2.0000      -0.787703       -21.4345
  18   2.0000      -0.739579       -20.1250
  19   2.0000      -0.704341       -19.1661
  20   2.0000      -0.675559       -18.3829
  21   2.0000      -0.647891       -17.6300
  22   2.0000      -0.625812       -17.0292
  23   2.0000      -0.618747       -16.8370
  24   2.0000      -0.604366       -16.4456
  25   2.0000      -0.568383       -15.4665
  26   2.0000      -0.556312       -15.1380
  27   2.0000      -0.544077       -14.8051
  28   2.0000      -0.542222       -14.7546
  29   2.0000      -0.514574       -14.0023
  30   2.0000      -0.505511       -13.7556
  31   2.0000      -0.491595       -13.3770
  32   2.0000      -0.463781       -12.6201
  33   2.0000      -0.450187       -12.2502
  34   2.0000      -0.411897       -11.2083
  35   0.0000       0.128501         3.4967
  36   0.0000       0.139427         3.7940
  37   0.0000       0.154277         4.1981
  38   0.0000       0.157179         4.2770
  39   0.0000       0.167379         4.5546

MULLIKEN ATOMIC CHARGES
-----------------------
   0 C :   -0.416295
   1 C :    0.181844
   2 O :   -0.479034
   3 C :   -0.178760
   4 C :    0.068007
   5 O :   -0.266165
   6 C :   -0.013627
   7 C :   -0.073968
   8 O :   -0.350571
   9 H :    0.140407
  10 H :    0.135326
  11 H :    0.151705
  12 H :    0.330998
  13 H :    0.120118
  14 H :    0.141682
  15 H :    0.103788
  16 H :    0.135018
  17 H :    0.127556
  18 H :    0.141969
Sum of atomic charges:   -0.0000000

LOEWDIN ATOMIC CHARGES
----------------------
   0 C :   -0.253835
   1 C :   -0.400050
   2 O :    0.021433
   3 C :   -0.224818
   4 C :   -0.292828
   5 O :    0.128320
   6 C :   -0.262254
   7 C :   -0.252092
   8 O :    0.133217
   9 H :    0.131481
  10 H :    0.133119
  11 H :    0.134751
  12 H :    0.182217
  13 H :    0.149987
  14 H :    0.159304
  15 H :    0.116691
  16 H :    0.145349
  17 H :    0.122914
  18 H :    0.127094

  Mayer bond orders larger than 0.1
B(  0-C ,  1-C ) :   0.9162 B(  0-C ,  9-H ) :   0.9357 B(  0-C , 10-H ) :   0.9342
B(  0-C , 11-H ) :   0.9250 B(  1-C ,  2-O ) :   0.9163 B(  1-C ,  3-C ) :   0.9234
B(  1-C ,  6-C ) :   0.9057 B(  2-O , 12-H ) :   0.8125 B(  3-C ,  4-C ) :   0.8785
B(  3-C , 13-H ) :   0.8974 B(  3-C , 14-H ) :   0.9025 B(  4-C ,  5-O ) :   1.9948
B(  4-C , 15-H ) :   0.9413 B(  6-C ,  7-C ) :   0.9880 B(  6-C ,  8-O ) :   0.9041
B(  6-C , 16-H ) :   0.9047 B(  7-C ,  8-O ) :   0.8676 B(  7-C , 17-H ) :   0.9229
B(  7-C , 18-H ) :   0.9064

MP2 TOTAL ENERGY:     -459.417719076 Eh
FINAL SINGLE POINT ENERGY      -459.417719076310

DIPOLE MOMENT
-------------
                                X             Y             Z
Electronic contribution:     -2.43479      -3.17095       1.76680
Nuclear contribution   :      3.49632       3.23503      -2.52866
                        -----------------------------------------
Total Dipole Moment    :      1.06153       0.06408      -0.76187
                        -----------------------------------------
Magnitude (a.u.)       :      1.30820
Magnitude (Debye)      :      3.32517

                             ****ORCA TERMINATED NORMALLY****
TOTAL RUN TIME: 0 days 0 hours 20 minutes 5 seconds 600 msec
