                         Program Version 3.0.3 - RELEASE   -
|  1> ! RI-MP2 RIJK def2-TZVP def2-TZVP/C def2-TZVP/JK TIGHTSCF
|  2> % maxcore 2000
|  3> % mp2 density relaxed end
|  4> *xyz 0 1
|  5>  O       -0.2148422334    -0.0854115514     0.0069166569
|  6>  C       -0.0962209111     1.1039832379     0.0997248534
|  7>  O       -1.1400010950     2.0226173932    -0.0825866567
|  8>  C       -0.6963035959     3.3218137826     0.1588621141
|  9>  C        0.6099814384     3.2496982555     0.4330103830
| 10>  C        1.9881608341     3.6736314171     0.9135330550
| 11>  C        2.3339990738     2.1313158366     0.8993227299
| 12>  N        0.9774340968     1.9166321824     0.3602299803
| 13>  H       -1.4309967129     4.1037914590     0.0955370376
| 14>  H        2.5672191255     4.2709174408     0.2069038736
| 15>  H        2.0205007514     4.1446491608     1.8971154442
| 16>  H        3.1318182173     1.8243758040     0.2203748473
| 17>  H        2.4872216009     1.6839689314     1.8840581016
| 18> *
| 19>
| 20>                          ****END OF INPUT****

CARTESIAN COORDINATES (ANGSTROEM)
---------------------------------
  O     -0.214842   -0.085412    0.006917
  C     -0.096221    1.103983    0.099725
  O     -1.140001    2.022617   -0.082587
  C     -0.696304    3.321814    0.158862
  C      0.609981    3.249698    0.433010
  C      1.988161    3.673631    0.913533
  C      2.333999    2.131316    0.899323
  N      0.977434    1.916632    0.360230
  H     -1.430997    4.103791    0.095537
  H      2.567219    4.270917    0.206904
  H      2.020501    4.144649    1.897115
  H      3.131818    1.824376    0.220375
  H      2.487222    1.683969    1.884058

 Total Charge           Charge          ....    0
 Multiplicity           Mult            ....    1
 Number of Electrons    NEL             ....   58
 Basis Dimension        Dim             ....  278

ORBITAL ENERGIES
----------------

  NO   OCC          E(Eh)            E(eV)
   0   2.0000     -20.615204      -560.9682
   1   2.0000     -20.526158      -558.5452
   2   2.0000     -15.608141      -424.7191
   3   2.0000     -11.407373      -310.4104
   4   2.0000     -11.312873      -307.8389
   5   2.0000     -11.296735      -307.3998
   6   2.0000     -11.290300      -307.2247
   7   2.0000     -11.284259      -307.0603
   8   2.0000      -1.475696       -40.1557
   9   2.0000      -1.368624       -37.2421
  10   2.0000      -1.307047       -35.5665
  11   2.0000      -1.064544       -28.9677
  12   2.0000      -1.023946       -27.8630
  13   2.0000      -0.916857       -24.9489
  14   2.0000      -0.834037       -22.6953
  15   2.0000      -0.794323       -21.6146
  16   2.0000      -0.708973       -19.2921
  17   2.0000      -0.708516       -19.2797
  18   2.0000      -0.643484       -17.5101
  19   2.0000      -0.634469       -17.2648
  20   2.0000      -0.615845       -16.7580
  21   2.0000      -0.592072       -16.1111
  22   2.0000      -0.571415       -15.5490
  23   2.0000      -0.562715       -15.3122
  24   2.0000      -0.525503       -14.2997
  25   2.0000      -0.512848       -13.9553
  26   2.0000      -0.471995       -12.8436
  27   2.0000      -0.450103       -12.2479
  28   2.0000      -0.322652        -8.7798
  29   0.0000       0.123414         3.3583
  30   0.0000       0.143176         3.8960
  31   0.0000       0.147306         4.0084
  32   0.0000       0.175895         4.7864
  33   0.0000       0.181372         4.9354

MULLIKEN ATOMIC CHARGES
-----------------------
   0 O :   -0.328401
   1 C :    0.295767
   2 O :   -0.207651
   3 C :   -0.033634
   4 C :   -0.046390
   5 C :   -0.185840
   6 C :   -0.139144
   7 N :   -0.092307
   8 H :    0.163539
   9 H :    0.146723
  10 H :    0.146549
  11 H :    0.140813
  12 H :    0.139978
Sum of atomic charges:   -0.0000000

LOEWDIN ATOMIC CHARGES
----------------------
   0 O :    0.094191
   1 C :   -0.518791
   2 O :    0.286419
   3 C :   -0.232307
   4 C :   -0.211815
   5 C :   -0.184540
   6 C :   -0.177205
   7 N :    0.259776
   8 H :    0.135273
   9 H :    0.142124
  10 H :    0.141583
  11 H :    0.131646
  12 H :    0.133647

  Mayer bond orders larger than 0.1
B(  0-O ,  1-C ) :   2.0065 B(  1-C ,  2-O ) :   1.0293 B(  1-C ,  7-N ) :   1.0838
B(  2-O ,  3-C ) :   0.9801 B(  3-C ,  4-C ) :   1.6551 B(  3-C ,  8-H ) :   0.9267
B(  4-C ,  5-C ) :   0.9250 B(  4-C ,  7-N ) :   1.0290 B(  5-C ,  6-C ) :   0.9535
B(  5-C ,  9-H ) :   0.9146 B(  5-C , 10-H ) :   0.9114 B(  6-C ,  7-N ) :   0.8624
B(  6-C , 11-H ) :   0.9175 B(  6-C , 12-H ) :   0.9187

MP2 TOTAL ENERGY:     -397.949140175 Eh
FINAL SINGLE POINT ENERGY      -397.949140175425

DIPOLE MOMENT
-------------
                                X             Y             Z
Electronic contribution:     -4.73471      -3.29560      -1.82962
Nuclear contribution   :      6.06692       5.04092       2.41150
                        -----------------------------------------
Total Dipole Moment    :      1.33221       1.74532       0.58188
                        -----------------------------------------
Magnitude (a.u.)       :      2.27146
Magnitude (Debye)      :      5.77359

                             ****ORCA TERMINATED NORMALLY****
TOTAL RUN TIME: 0 days 0 hours 10 minutes 4 seconds 920 msec
