                         Program Version 3.0.3 - RELEASE   -
|  1> ! RI-MP2 RIJK def2-TZVP def2-TZVP/C def2-TZVP/JK TIGHTSCF
|  2> % maxcore 2000
|  3> % mp2 density relaxed end
|  4> *xyz 0 1
|  5>  O        0.0010690778    -0.0403559894     0.0039863242
|  6>  C       -0.0105285084     1.1639949218     0.0111978822
|  7>  C       -1.2695651090     2.0301325414     0.0314196835
|  8>  C       -0.8128863918     3.4960263658     0.0320861111
|  9>  O       -0.0479721871     3.7637181707     1.1899092157
| 10>  C        1.1422482976     2.9670866061     1.2413560206
| 11>  C        1.2208849339     2.0601673538    -0.0021305788
| 12>  C        1.1082057994     2.9780993276    -1.2349332052
| 13>  O       -0.0798753119     3.7743439470    -1.1436891749
| 14>  H       -1.8851900070     1.8097746218    -0.8466994915
| 15>  H       -1.8621061997     1.8017117786     0.9232394874
| 16>  H       -1.6457659395     4.2001559214     0.0466507104
| 17>  H        2.0114670682     3.6371259598     1.2653624362
| 18>  H        1.1398722970     2.3785211704     2.1672031887
| 19>  H        2.1375994828     1.4683682276    -0.0173887872
| 20>  H        1.9766099228     3.6483090977    -1.2769793005
| 21>  H        1.0801533348     2.3977904379    -2.1655568218
| 22> *
| 23>
| 24>                          ****END OF INPUT****

CARTESIAN COORDINATES (ANGSTROEM)
---------------------------------
  O      0.001069   -0.040356    0.003986
  C     -0.010529    1.163995    0.011198
  C     -1.269565    2.030133    0.031420
  C     -0.812886    3.496026    0.032086
  O     -0.047972    3.763718    1.189909
  C      1.142248    2.967087    1.241356
  C      1.220885    2.060167   -0.002131
  C      1.108206    2.978099   -1.234933
  O     -0.079875    3.774344   -1.143689
  H     -1.885190    1.809775   -0.846699
  H     -1.862106    1.801712    0.923239
  H     -1.645766    4.200156    0.046651
  H      2.011467    3.637126    1.265362
  H      1.139872    2.378521    2.167203
  H      2.137599    1.468368   -0.017389
  H      1.976610    3.648309   -1.276979
  H      1.080153    2.397790   -2.165557

 Total Charge           Charge          ....    0
 Multiplicity           Mult            ....    1
 Number of Electrons    NEL             ....   68
 Basis Dimension        Dim             ....  327

ORBITAL ENERGIES
----------------

  NO   OCC          E(Eh)            E(eV)
   0   2.0000     -20.574524      -559.8613
   1   2.0000     -20.574503      -559.8607
   2   2.0000     -20.557855      -559.4077
   3   2.0000     -11.349682      -308.8405
   4   2.0000     -11.341867      -308.6279
   5   2.0000     -11.302179      -307.5479
   6   2.0000     -11.302158      -307.5474
   7   2.0000     -11.260781      -306.4214
   8   2.0000     -11.246948      -306.0450
   9   2.0000      -1.439488       -39.1705
  10   2.0000      -1.400574       -38.1116
  11   2.0000      -1.356427       -36.9103
  12   2.0000      -1.103540       -30.0288
  13   2.0000      -1.059743       -28.8371
  14   2.0000      -0.934921       -25.4405
  15   2.0000      -0.899098       -24.4657
  16   2.0000      -0.833684       -22.6857
  17   2.0000      -0.733339       -19.9552
  18   2.0000      -0.712347       -19.3840
  19   2.0000      -0.705585       -19.1999
  20   2.0000      -0.702585       -19.1183
  21   2.0000      -0.630650       -17.1609
  22   2.0000      -0.628272       -17.0962
  23   2.0000      -0.610885       -16.6230
  24   2.0000      -0.593902       -16.1609
  25   2.0000      -0.584443       -15.9035
  26   2.0000      -0.580368       -15.7926
  27   2.0000      -0.573693       -15.6110
  28   2.0000      -0.540428       -14.7058
  29   2.0000      -0.513941       -13.9851
  30   2.0000      -0.476290       -12.9605
  31   2.0000      -0.439902       -11.9703
  32   2.0000      -0.436375       -11.8744
  33   2.0000      -0.409604       -11.1459
  34   0.0000       0.126494         3.4421
  35   0.0000       0.129844         3.5332
  36   0.0000       0.156223         4.2511
  37   0.0000       0.177330         4.8254
  38   0.0000       0.178144         4.8475

MULLIKEN ATOMIC CHARGES
-----------------------
   0 O :   -0.255578
   1 C :    0.055404
   2 C :   -0.244043
   3 C :    0.185163
   4 O :   -0.309283
   5 C :   -0.091162
   6 C :    0.028085
   7 C :   -0.091119
   8 O :   -0.309271
   9 H :    0.146510
  10 H :    0.146472
  11 H :    0.128278
  12 H :    0.114349
  13 H :    0.122587
  14 H :    0.136621
  15 H :    0.114378
  16 H :    0.122609
Sum of atomic charges:   -0.0000000

LOEWDIN ATOMIC CHARGES
----------------------
   0 O :    0.161700
   1 C :   -0.305296
   2 C :   -0.204624
   3 C :   -0.395294
   4 O :    0.170179
   5 C :   -0.258729
   6 C :   -0.229530
   7 C :   -0.258670
   8 O :    0.170186
   9 H :    0.159018
  10 H :    0.158982
  11 H :    0.143179
  12 H :    0.131419
  13 H :    0.130715
  14 H :    0.164602
  15 H :    0.131444
  16 H :    0.130720

  Mayer bond orders larger than 0.1
B(  0-O ,  1-C ) :   2.0485 B(  1-C ,  2-C ) :   0.9599 B(  1-C ,  6-C ) :   0.8555
B(  2-C ,  3-C ) :   0.9313 B(  2-C ,  6-C ) :  -0.1278 B(  2-C ,  9-H ) :   0.9044
B(  2-C , 10-H ) :   0.9044 B(  3-C ,  4-O ) :   0.9680 B(  3-C ,  8-O ) :   0.9680
B(  3-C , 11-H ) :   0.9182 B(  4-O ,  5-C ) :   0.9225 B(  5-C ,  6-C ) :   0.9061
B(  5-C , 12-H ) :   0.9139 B(  5-C , 13-H ) :   0.9252 B(  6-C ,  7-C ) :   0.9062
B(  6-C , 14-H ) :   0.8982 B(  7-C ,  8-O ) :   0.9225 B(  7-C , 15-H ) :   0.9138
B(  7-C , 16-H ) :   0.9252

MP2 TOTAL ENERGY:     -458.255429562 Eh
FINAL SINGLE POINT ENERGY      -458.255429562125

DIPOLE MOMENT
-------------
                                X             Y             Z
Electronic contribution:     -1.38917      -1.10307       0.01525
Nuclear contribution   :      1.73685       1.39674      -0.01828
                        -----------------------------------------
Total Dipole Moment    :      0.34768       0.29368      -0.00303
                        -----------------------------------------
Magnitude (a.u.)       :      0.45512
Magnitude (Debye)      :      1.15683

                             ****ORCA TERMINATED NORMALLY****
TOTAL RUN TIME: 0 days 0 hours 17 minutes 57 seconds 183 msec
