                         Program Version 3.0.3 - RELEASE   -
|  1> ! RI-MP2 RIJK def2-TZVP def2-TZVP/C def2-TZVP/JK TIGHTSCF
|  2> % maxcore 2000
|  3> % mp2 density relaxed end
|  4> *xyz 0 1
|  5>  C        0.1413266712     1.5743974417     0.0085785762
|  6>  C        0.0212449517     0.0520153241    -0.0019637827
|  7>  C        0.5151889207    -0.5533723213    -1.3231451952
|  8>  C        0.7006607015    -2.0609425500    -1.2411375968
|  9>  O        2.0055615343    -2.4945806324    -0.8604016055
| 10>  C        0.9327403745    -2.6895485362     0.0718256255
| 11>  C        1.0134824294    -1.8388544092     1.3183578285
| 12>  O        1.3044511596    -2.3150281805     2.3983925046
| 13>  N        0.7779770445    -0.5040159672     1.1245972208
| 14>  H        1.1873896542     1.8794346927    -0.0953897430
| 15>  H       -0.4307044732     2.0073118950    -0.8171148337
| 16>  H       -0.2494408752     1.9957094779     0.9410100513
| 17>  H       -1.0436128427    -0.2088242199     0.1126692416
| 18>  H       -0.2003514839    -0.3036512033    -2.1126936883
| 19>  H        1.4786927288    -0.1091995976    -1.5966195330
| 20>  H        0.2461848056    -2.6635852372    -2.0265052322
| 21>  H        0.6704841294    -3.7271979562     0.2636680761
| 22>  H        0.7830959196     0.0300073795     1.9835794760
| 23> *
| 24>
| 25>                          ****END OF INPUT****

CARTESIAN COORDINATES (ANGSTROEM)
---------------------------------
  C      0.141327    1.574397    0.008579
  C      0.021245    0.052015   -0.001964
  C      0.515189   -0.553372   -1.323145
  C      0.700661   -2.060943   -1.241138
  O      2.005562   -2.494581   -0.860402
  C      0.932740   -2.689549    0.071826
  C      1.013482   -1.838854    1.318358
  O      1.304451   -2.315028    2.398393
  N      0.777977   -0.504016    1.124597
  H      1.187390    1.879435   -0.095390
  H     -0.430704    2.007312   -0.817115
  H     -0.249441    1.995709    0.941010
  H     -1.043613   -0.208824    0.112669
  H     -0.200351   -0.303651   -2.112694
  H      1.478693   -0.109200   -1.596620
  H      0.246185   -2.663585   -2.026505
  H      0.670484   -3.727198    0.263668
  H      0.783096    0.030007    1.983579

 Total Charge           Charge          ....    0
 Multiplicity           Mult            ....    1
 Number of Electrons    NEL             ....   68
 Basis Dimension        Dim             ....  333

ORBITAL ENERGIES
----------------

  NO   OCC          E(Eh)            E(eV)
   0   2.0000     -20.585801      -560.1681
   1   2.0000     -20.525385      -558.5241
   2   2.0000     -15.585168      -424.0940
   3   2.0000     -11.354888      -308.9822
   4   2.0000     -11.306948      -307.6777
   5   2.0000     -11.302386      -307.5535
   6   2.0000     -11.292810      -307.2930
   7   2.0000     -11.249014      -306.1012
   8   2.0000     -11.239724      -305.8484
   9   2.0000      -1.433202       -38.9994
  10   2.0000      -1.384693       -37.6794
  11   2.0000      -1.243469       -33.8365
  12   2.0000      -1.075084       -29.2545
  13   2.0000      -1.007142       -27.4057
  14   2.0000      -0.954447       -25.9718
  15   2.0000      -0.873055       -23.7570
  16   2.0000      -0.844799       -22.9882
  17   2.0000      -0.762266       -20.7423
  18   2.0000      -0.722947       -19.6724
  19   2.0000      -0.697417       -18.9777
  20   2.0000      -0.669929       -18.2297
  21   2.0000      -0.646168       -17.5831
  22   2.0000      -0.607948       -16.5431
  23   2.0000      -0.591620       -16.0988
  24   2.0000      -0.584575       -15.9071
  25   2.0000      -0.569497       -15.4968
  26   2.0000      -0.557768       -15.1776
  27   2.0000      -0.532351       -14.4860
  28   2.0000      -0.521086       -14.1795
  29   2.0000      -0.509247       -13.8573
  30   2.0000      -0.468509       -12.7488
  31   2.0000      -0.452075       -12.3016
  32   2.0000      -0.421788       -11.4774
  33   2.0000      -0.396156       -10.7799
  34   0.0000       0.119775         3.2593
  35   0.0000       0.139900         3.8069
  36   0.0000       0.152264         4.1433
  37   0.0000       0.166392         4.5278
  38   0.0000       0.174773         4.7558

MULLIKEN ATOMIC CHARGES
-----------------------
   0 C :   -0.425838
   1 C :    0.063372
   2 C :   -0.217608
   3 C :    0.028423
   4 O :   -0.313734
   5 C :    0.027981
   6 C :    0.190751
   7 O :   -0.334880
   8 N :   -0.295907
   9 H :    0.144609
  10 H :    0.135657
  11 H :    0.140746
  12 H :    0.100395
  13 H :    0.123935
  14 H :    0.126575
  15 H :    0.130504
  16 H :    0.142123
  17 H :    0.232895
Sum of atomic charges:   -0.0000000

LOEWDIN ATOMIC CHARGES
----------------------
   0 C :   -0.290750
   1 C :   -0.298353
   2 C :   -0.220607
   3 C :   -0.256899
   4 O :    0.182935
   5 C :   -0.215657
   6 C :   -0.440348
   7 O :    0.099408
   8 N :    0.131204
   9 H :    0.129053
  10 H :    0.130355
  11 H :    0.125199
  12 H :    0.145181
  13 H :    0.147172
  14 H :    0.154374
  15 H :    0.138189
  16 H :    0.146802
  17 H :    0.192742

  Mayer bond orders larger than 0.1
B(  0-C ,  1-C ) :   0.8918 B(  0-C ,  9-H ) :   0.9384 B(  0-C , 10-H ) :   0.9346
B(  0-C , 11-H ) :   0.9387 B(  1-C ,  2-C ) :   0.9470 B(  1-C ,  8-N ) :   0.8422
B(  1-C , 12-H ) :   0.9321 B(  2-C ,  3-C ) :   0.8962 B(  2-C , 13-H ) :   0.9221
B(  2-C , 14-H ) :   0.9062 B(  3-C ,  4-O ) :   0.9313 B(  3-C ,  5-C ) :   0.9240
B(  3-C , 15-H ) :   0.9233 B(  4-O ,  5-C ) :   0.8363 B(  5-C ,  6-C ) :   0.9358
B(  5-C , 16-H ) :   0.9240 B(  6-C ,  7-O ) :   1.9678 B(  6-C ,  8-N ) :   1.1805
B(  8-N , 17-H ) :   0.8593

MP2 TOTAL ENERGY:     -438.388619107 Eh
FINAL SINGLE POINT ENERGY      -438.388619106821

DIPOLE MOMENT
-------------
                                X             Y             Z
Electronic contribution:      3.50401      -7.86694       3.63192
Nuclear contribution   :     -4.74122       8.98864      -4.64274
                        -----------------------------------------
Total Dipole Moment    :     -1.23722       1.12170      -1.01082
                        -----------------------------------------
Magnitude (a.u.)       :      1.95209
Magnitude (Debye)      :      4.96182

                             ****ORCA TERMINATED NORMALLY****
TOTAL RUN TIME: 0 days 0 hours 16 minutes 23 seconds 657 msec
