                         Program Version 3.0.3 - RELEASE   -
|  1> ! RI-MP2 RIJK def2-TZVP def2-TZVP/C def2-TZVP/JK TIGHTSCF
|  2> % maxcore 2000
|  3> % mp2 density relaxed end
|  4> *xyz 0 1
|  5>  C       -0.6772868116     1.3815220823    -0.0227494223
|  6>  C        0.0414198061     0.0258502245    -0.0504687750
|  7>  C        1.2037277366    -0.0487561644    -1.0208745927
|  8>  C        2.2137496121    -0.7716247993    -0.5424655374
|  9>  C        1.9152981901    -1.3072858335     0.8370592291
| 10>  C        0.6833874791    -0.4716737490     1.2861077205
| 11>  C        1.1241328779     0.6656708565     2.2083712062
| 12>  O        1.6805965002     0.0772953331     3.3789493709
| 13>  H        0.0018509239     2.2043915495     0.2213853657
| 14>  H       -1.1102165989     1.5975023875    -1.0053716451
| 15>  H       -1.4960023475     1.3886901250     0.7044234380
| 16>  H       -0.7076997432    -0.7203659618    -0.3594388691
| 17>  H        1.1643047402     0.4107112587    -2.0034546897
| 18>  H        3.1324307751    -0.9957323326    -1.0740216445
| 19>  H        1.6791289187    -2.3798056259     0.7923096285
| 20>  H        2.7459243656    -1.2066641401     1.5423599329
| 21>  H       -0.0234585810    -1.0841183209     1.8545528926
| 22>  H        1.8644325611     1.2995300508     1.6944481856
| 23>  H        0.2646463571     1.3004638874     2.4675499956
| 24>  H        2.0170649885     0.7839887320     3.9370345003
| 25> *
| 26>
| 27>                          ****END OF INPUT****

CARTESIAN COORDINATES (ANGSTROEM)
---------------------------------
  C     -0.677287    1.381522   -0.022749
  C      0.041420    0.025850   -0.050469
  C      1.203728   -0.048756   -1.020875
  C      2.213750   -0.771625   -0.542466
  C      1.915298   -1.307286    0.837059
  C      0.683387   -0.471674    1.286108
  C      1.124133    0.665671    2.208371
  O      1.680597    0.077295    3.378949
  H      0.001851    2.204392    0.221385
  H     -1.110217    1.597502   -1.005372
  H     -1.496002    1.388690    0.704423
  H     -0.707700   -0.720366   -0.359439
  H      1.164305    0.410711   -2.003455
  H      3.132431   -0.995732   -1.074022
  H      1.679129   -2.379806    0.792310
  H      2.745924   -1.206664    1.542360
  H     -0.023459   -1.084118    1.854553
  H      1.864433    1.299530    1.694448
  H      0.264646    1.300464    2.467550
  H      2.017065    0.783989    3.937035

 Total Charge           Charge          ....    0
 Multiplicity           Mult            ....    1
 Number of Electrons    NEL             ....   62
 Basis Dimension        Dim             ....  320

ORBITAL ENERGIES
----------------

  NO   OCC          E(Eh)            E(eV)
   0   2.0000     -20.551553      -559.2362
   1   2.0000     -11.268857      -306.6412
   2   2.0000     -11.229002      -305.5567
   3   2.0000     -11.221844      -305.3619
   4   2.0000     -11.217973      -305.2566
   5   2.0000     -11.215406      -305.1867
   6   2.0000     -11.215280      -305.1833
   7   2.0000     -11.213467      -305.1339
   8   2.0000      -1.355540       -36.8861
   9   2.0000      -1.136014       -30.9125
  10   2.0000      -1.008412       -27.4403
  11   2.0000      -0.992146       -26.9977
  12   2.0000      -0.899653       -24.4808
  13   2.0000      -0.866614       -23.5818
  14   2.0000      -0.746824       -20.3221
  15   2.0000      -0.726548       -19.7704
  16   2.0000      -0.691937       -18.8286
  17   2.0000      -0.663565       -18.0565
  18   2.0000      -0.635791       -17.3008
  19   2.0000      -0.608549       -16.5595
  20   2.0000      -0.569420       -15.4947
  21   2.0000      -0.562378       -15.3031
  22   2.0000      -0.537394       -14.6232
  23   2.0000      -0.518885       -14.1196
  24   2.0000      -0.513130       -13.9630
  25   2.0000      -0.480296       -13.0695
  26   2.0000      -0.472200       -12.8492
  27   2.0000      -0.459383       -12.5004
  28   2.0000      -0.451857       -12.2957
  29   2.0000      -0.435218       -11.8429
  30   2.0000      -0.338605        -9.2139
  31   0.0000       0.134037         3.6473
  32   0.0000       0.146040         3.9740
  33   0.0000       0.158026         4.3001
  34   0.0000       0.169149         4.6028
  35   0.0000       0.179461         4.8834

MULLIKEN ATOMIC CHARGES
-----------------------
   0 C :   -0.426984
   1 C :    0.011565
   2 C :   -0.227629
   3 C :   -0.181415
   4 C :   -0.195571
   5 C :    0.017027
   6 C :   -0.161749
   7 O :   -0.468714
   8 H :    0.129761
   9 H :    0.135305
  10 H :    0.137965
  11 H :    0.095479
  12 H :    0.121215
  13 H :    0.122830
  14 H :    0.114894
  15 H :    0.142411
  16 H :    0.096623
  17 H :    0.115671
  18 H :    0.106249
  19 H :    0.315068
Sum of atomic charges:   -0.0000000

LOEWDIN ATOMIC CHARGES
----------------------
   0 C :   -0.296975
   1 C :   -0.233467
   2 C :   -0.149002
   3 C :   -0.161661
   4 C :   -0.218493
   5 C :   -0.209019
   6 C :   -0.328790
   7 O :   -0.047614
   8 H :    0.122833
   9 H :    0.124442
  10 H :    0.123202
  11 H :    0.157718
  12 H :    0.136636
  13 H :    0.134683
  14 H :    0.141426
  15 H :    0.143206
  16 H :    0.150428
  17 H :    0.121508
  18 H :    0.117921
  19 H :    0.171016

  Mayer bond orders larger than 0.1
B(  0-C ,  1-C ) :   0.8924 B(  0-C ,  8-H ) :   0.9325 B(  0-C ,  9-H ) :   0.9360
B(  0-C , 10-H ) :   0.9444 B(  1-C ,  2-C ) :   0.9162 B(  1-C ,  5-C ) :   0.9013
B(  1-C , 11-H ) :   0.9144 B(  2-C ,  3-C ) :   1.7808 B(  2-C , 12-H ) :   0.9258
B(  3-C ,  4-C ) :   0.9397 B(  3-C , 13-H ) :   0.9314 B(  4-C ,  5-C ) :   0.9216
B(  4-C , 14-H ) :   0.9115 B(  4-C , 15-H ) :   0.9272 B(  5-C ,  6-C ) :   0.9010
B(  5-C , 16-H ) :   0.9183 B(  6-C ,  7-O ) :   1.0044 B(  6-C , 17-H ) :   0.9301
B(  6-C , 18-H ) :   0.9267 B(  7-O , 19-H ) :   0.8487

MP2 TOTAL ENERGY:     -348.407977452 Eh
FINAL SINGLE POINT ENERGY      -348.407977451652

DIPOLE MOMENT
-------------
                                X             Y             Z
Electronic contribution:      2.49106      -2.15481       1.25969
Nuclear contribution   :     -2.55111       2.68684      -1.29498
                        -----------------------------------------
Total Dipole Moment    :     -0.06005       0.53203      -0.03529
                        -----------------------------------------
Magnitude (a.u.)       :      0.53657
Magnitude (Debye)      :      1.36385

                             ****ORCA TERMINATED NORMALLY****
TOTAL RUN TIME: 0 days 0 hours 13 minutes 48 seconds 345 msec
