                         Program Version 3.0.3 - RELEASE   -
|  1> ! RI-MP2 RIJK def2-TZVP def2-TZVP/C def2-TZVP/JK TIGHTSCF
|  2> % maxcore 2000
|  3> % mp2 density relaxed end
|  4> *xyz 0 1
|  5>  C       -0.1147575505     1.5150752169    -0.0688169598
|  6>  C        1.4326325474     1.7192893687     0.0441674872
|  7>  C        2.1487704925     2.1227958011     1.3833261132
|  8>  O        2.2635641575     0.9044940222     2.2125093464
|  9>  C        1.5667618496    -0.0328576379     1.5234017974
| 10>  C        1.3924726432     0.2303071020     0.2102448324
| 11>  N        0.0433419274    -0.0518656902    -0.0592143967
| 12>  N       -0.4310143498    -0.7412851218     1.0919735963
| 13>  N        0.4910684639    -0.7648191622     1.9955142347
| 14>  H       -0.6905039786     1.8151969638     0.8065392469
| 15>  H       -0.5796790290     1.8486669772    -0.9948713681
| 16>  H        1.8921942382     2.1803425597    -0.8300549466
| 17>  H        3.1618387988     2.4749559160     1.1739436577
| 18>  H        1.6223315494     2.8791800846     1.9757571492
| 19> *
| 20>
| 21>                          ****END OF INPUT****

CARTESIAN COORDINATES (ANGSTROEM)
---------------------------------
  C     -0.114758    1.515075   -0.068817
  C      1.432633    1.719289    0.044167
  C      2.148770    2.122796    1.383326
  O      2.263564    0.904494    2.212509
  C      1.566762   -0.032858    1.523402
  C      1.392473    0.230307    0.210245
  N      0.043342   -0.051866   -0.059214
  N     -0.431014   -0.741285    1.091974
  N      0.491068   -0.764819    1.995514
  H     -0.690504    1.815197    0.806539
  H     -0.579679    1.848667   -0.994871
  H      1.892194    2.180343   -0.830055
  H      3.161839    2.474956    1.173944
  H      1.622332    2.879180    1.975757

 Total Charge           Charge          ....    0
 Multiplicity           Mult            ....    1
 Number of Electrons    NEL             ....   64
 Basis Dimension        Dim             ....  309

ORBITAL ENERGIES
----------------

  NO   OCC          E(Eh)            E(eV)
   0   2.0000     -20.607991      -560.7720
   1   2.0000     -15.667073      -426.3227
   2   2.0000     -15.634707      -425.4420
   3   2.0000     -15.627497      -425.2458
   4   2.0000     -11.329238      -308.2842
   5   2.0000     -11.324019      -308.1422
   6   2.0000     -11.320827      -308.0554
   7   2.0000     -11.290595      -307.2327
   8   2.0000     -11.270528      -306.6866
   9   2.0000      -1.457780       -39.6682
  10   2.0000      -1.406428       -38.2708
  11   2.0000      -1.247333       -33.9417
  12   2.0000      -1.092794       -29.7364
  13   2.0000      -1.039730       -28.2925
  14   2.0000      -0.969398       -26.3787
  15   2.0000      -0.882298       -24.0086
  16   2.0000      -0.820228       -22.3195
  17   2.0000      -0.795938       -21.6586
  18   2.0000      -0.717208       -19.5162
  19   2.0000      -0.692960       -18.8564
  20   2.0000      -0.657087       -17.8802
  21   2.0000      -0.642495       -17.4832
  22   2.0000      -0.610861       -16.6224
  23   2.0000      -0.602249       -16.3880
  24   2.0000      -0.570886       -15.5346
  25   2.0000      -0.543360       -14.7856
  26   2.0000      -0.535901       -14.5826
  27   2.0000      -0.495568       -13.4851
  28   2.0000      -0.488312       -13.2876
  29   2.0000      -0.443805       -12.0766
  30   2.0000      -0.429054       -11.6752
  31   2.0000      -0.334550        -9.1036
  32   0.0000       0.066710         1.8153
  33   0.0000       0.121757         3.3132
  34   0.0000       0.132936         3.6174
  35   0.0000       0.152677         4.1545
  36   0.0000       0.164155         4.4669

MULLIKEN ATOMIC CHARGES
-----------------------
   0 C :   -0.173905
   1 C :   -0.157538
   2 C :   -0.036749
   3 O :   -0.268557
   4 C :    0.085432
   5 C :    0.079021
   6 N :   -0.032263
   7 N :   -0.117971
   8 N :   -0.094198
   9 H :    0.161547
  10 H :    0.154075
  11 H :    0.143824
  12 H :    0.135831
  13 H :    0.121451
Sum of atomic charges:    0.0000000

LOEWDIN ATOMIC CHARGES
----------------------
   0 C :   -0.134482
   1 C :   -0.187109
   2 C :   -0.194698
   3 O :    0.224425
   4 C :   -0.362181
   5 C :   -0.219896
   6 N :    0.127187
   7 N :   -0.012773
   8 N :    0.067233
   9 H :    0.143216
  10 H :    0.136343
  11 H :    0.150934
  12 H :    0.133733
  13 H :    0.128067

  Mayer bond orders larger than 0.1
B(  0-C ,  1-C ) :   0.9396 B(  0-C ,  6-N ) :   0.7888 B(  0-C ,  9-H ) :   0.9020
B(  0-C , 10-H ) :   0.9114 B(  1-C ,  2-C ) :   0.9434 B(  1-C ,  5-C ) :   0.9109
B(  1-C , 11-H ) :   0.8956 B(  2-C ,  3-O ) :   0.8717 B(  2-C , 12-H ) :   0.9220
B(  2-C , 13-H ) :   0.9093 B(  3-O ,  4-C ) :   1.1187 B(  4-C ,  5-C ) :   1.4681
B(  4-C ,  8-N ) :   1.2235 B(  5-C ,  6-N ) :   1.0414 B(  5-C ,  7-N ) :   0.1093
B(  6-N ,  7-N ) :   0.9148 B(  7-N ,  8-N ) :   1.3514

MP2 TOTAL ENERGY:     -432.017870854 Eh
FINAL SINGLE POINT ENERGY      -432.017870853774

DIPOLE MOMENT
-------------
                                X             Y             Z
Electronic contribution:     -0.04151      -5.79873       1.59845
Nuclear contribution   :      0.49202       7.80086      -2.44274
                        -----------------------------------------
Total Dipole Moment    :      0.45051       2.00214      -0.84429
                        -----------------------------------------
Magnitude (a.u.)       :      2.21908
Magnitude (Debye)      :      5.64046

                             ****ORCA TERMINATED NORMALLY****
TOTAL RUN TIME: 0 days 0 hours 18 minutes 25 seconds 599 msec
