                         Program Version 3.0.3 - RELEASE   -
|  1> ! RI-MP2 RIJK def2-TZVP def2-TZVP/C def2-TZVP/JK TIGHTSCF
|  2> % maxcore 2000
|  3> % mp2 density relaxed end
|  4> *xyz 0 1
|  5>  C       -0.0516463409     0.7092095195    -2.1416242900
|  6>  C        0.0820325703    -0.3627238781    -1.0833735332
|  7>  C        1.3408424841    -0.6096119280    -0.3070434329
|  8>  C        2.6120110954     0.1867017852    -0.4995152685
|  9>  C        0.1380423803     0.0089033113     0.3924034769
| 10>  C       -0.0155279922     1.3805414840     1.0761817172
| 11>  C       -0.8528464287     0.6975310628     2.2087343272
| 12>  C       -0.6607393902    -0.6471548749     1.4749213317
| 13>  O       -1.0102718902    -1.7771848523     1.6822278433
| 14>  H        0.5122516949     1.6120017929    -1.8937088671
| 15>  H        0.3108158773     0.3463741713    -3.1097508901
| 16>  H       -1.0997978312     1.0002354628    -2.2687631586
| 17>  H       -0.5145713919    -1.2526672576    -1.2723596700
| 18>  H        1.5040308494    -1.6485605172    -0.0282294662
| 19>  H        2.4156649074     1.2396365960    -0.7171742621
| 20>  H        3.2347623493     0.1472319829     0.4005856309
| 21>  H        3.2024836002    -0.2194147300    -1.3282045933
| 22>  H        0.9185947917     1.8308159976     1.4205948250
| 23>  H       -0.5684239413     2.1252189462     0.4984726255
| 24>  H       -0.4104825970     0.7240424433     3.2084756034
| 25>  H       -1.8966122367     1.0151066423     2.2838617208
| 26> *
| 27>
| 28>                          ****END OF INPUT****

CARTESIAN COORDINATES (ANGSTROEM)
---------------------------------
  C     -0.051646    0.709210   -2.141624
  C      0.082033   -0.362724   -1.083374
  C      1.340842   -0.609612   -0.307043
  C      2.612011    0.186702   -0.499515
  C      0.138042    0.008903    0.392403
  C     -0.015528    1.380541    1.076182
  C     -0.852846    0.697531    2.208734
  C     -0.660739   -0.647155    1.474921
  O     -1.010272   -1.777185    1.682228
  H      0.512252    1.612002   -1.893709
  H      0.310816    0.346374   -3.109751
  H     -1.099798    1.000235   -2.268763
  H     -0.514571   -1.252667   -1.272360
  H      1.504031   -1.648561   -0.028229
  H      2.415665    1.239637   -0.717174
  H      3.234762    0.147232    0.400586
  H      3.202484   -0.219415   -1.328205
  H      0.918595    1.830816    1.420595
  H     -0.568424    2.125219    0.498473
  H     -0.410483    0.724042    3.208476
  H     -1.896612    1.015107    2.283862

 Total Charge           Charge          ....    0
 Multiplicity           Mult            ....    1
 Number of Electrons    NEL             ....   68
 Basis Dimension        Dim             ....  351

ORBITAL ENERGIES
----------------

  NO   OCC          E(Eh)            E(eV)
   0   2.0000     -20.539807      -558.9166
   1   2.0000     -11.321349      -308.0696
   2   2.0000     -11.245386      -306.0025
   3   2.0000     -11.244651      -305.9825
   4   2.0000     -11.238639      -305.8189
   5   2.0000     -11.238070      -305.8034
   6   2.0000     -11.236897      -305.7715
   7   2.0000     -11.227769      -305.5231
   8   2.0000     -11.227756      -305.5228
   9   2.0000      -1.382171       -37.6108
  10   2.0000      -1.180000       -32.1094
  11   2.0000      -1.090560       -29.6756
  12   2.0000      -0.992253       -27.0006
  13   2.0000      -0.951072       -25.8800
  14   2.0000      -0.874943       -23.8084
  15   2.0000      -0.838021       -22.8037
  16   2.0000      -0.762872       -20.7588
  17   2.0000      -0.704756       -19.1774
  18   2.0000      -0.667692       -18.1688
  19   2.0000      -0.642983       -17.4965
  20   2.0000      -0.642192       -17.4749
  21   2.0000      -0.599166       -16.3041
  22   2.0000      -0.577620       -15.7178
  23   2.0000      -0.573593       -15.6083
  24   2.0000      -0.552061       -15.0223
  25   2.0000      -0.550457       -14.9787
  26   2.0000      -0.533824       -14.5261
  27   2.0000      -0.510445       -13.8899
  28   2.0000      -0.507256       -13.8031
  29   2.0000      -0.496715       -13.5163
  30   2.0000      -0.489084       -13.3086
  31   2.0000      -0.426808       -11.6140
  32   2.0000      -0.394365       -10.7312
  33   2.0000      -0.376431       -10.2432
  34   0.0000       0.122191         3.3250
  35   0.0000       0.132957         3.6179
  36   0.0000       0.154231         4.1968
  37   0.0000       0.162250         4.4150
  38   0.0000       0.166616         4.5339

MULLIKEN ATOMIC CHARGES
-----------------------
   0 C :   -0.419652
   1 C :   -0.090297
   2 C :   -0.089927
   3 C :   -0.419908
   4 C :    0.003963
   5 C :   -0.248548
   6 C :   -0.193126
   7 C :    0.109125
   8 O :   -0.271891
   9 H :    0.129675
  10 H :    0.141455
  11 H :    0.141346
  12 H :    0.139046
  13 H :    0.139071
  14 H :    0.129748
  15 H :    0.141388
  16 H :    0.141446
  17 H :    0.126184
  18 H :    0.126219
  19 H :    0.132378
  20 H :    0.132304
Sum of atomic charges:   -0.0000000

LOEWDIN ATOMIC CHARGES
----------------------
   0 C :   -0.286287
   1 C :   -0.181738
   2 C :   -0.181849
   3 C :   -0.286293
   4 C :   -0.161707
   5 C :   -0.191160
   6 C :   -0.197504
   7 C :   -0.294076
   8 O :    0.146928
   9 H :    0.125551
  10 H :    0.129686
  11 H :    0.128872
  12 H :    0.158670
  13 H :    0.158689
  14 H :    0.125531
  15 H :    0.128878
  16 H :    0.129688
  17 H :    0.132654
  18 H :    0.132592
  19 H :    0.141389
  20 H :    0.141487

  Mayer bond orders larger than 0.1
B(  0-C ,  1-C ) :   0.8926 B(  0-C ,  9-H ) :   0.9389 B(  0-C , 10-H ) :   0.9356
B(  0-C , 11-H ) :   0.9386 B(  1-C ,  2-C ) :   0.9667 B(  1-C ,  4-C ) :   0.7885
B(  1-C , 12-H ) :   0.9210 B(  2-C ,  3-C ) :   0.8924 B(  2-C ,  4-C ) :   0.7886
B(  2-C , 13-H ) :   0.9209 B(  3-C , 14-H ) :   0.9389 B(  3-C , 15-H ) :   0.9385
B(  3-C , 16-H ) :   0.9357 B(  4-C ,  5-C ) :   0.9119 B(  4-C ,  6-C ) :  -0.1338
B(  4-C ,  7-C ) :   0.8684 B(  5-C ,  6-C ) :   0.9582 B(  5-C , 17-H ) :   0.9159
B(  5-C , 18-H ) :   0.9160 B(  6-C ,  7-C ) :   0.9225 B(  6-C , 19-H ) :   0.9006
B(  6-C , 20-H ) :   0.9005 B(  7-C ,  8-O ) :   2.0476

MP2 TOTAL ENERGY:     -386.410514164 Eh
FINAL SINGLE POINT ENERGY      -386.410514164326

DIPOLE MOMENT
-------------
                                X             Y             Z
Electronic contribution:     -4.56540      -5.92109       5.52055
Nuclear contribution   :      5.06812       6.92725      -6.01612
                        -----------------------------------------
Total Dipole Moment    :      0.50273       1.00615      -0.49557
                        -----------------------------------------
Magnitude (a.u.)       :      1.22909
Magnitude (Debye)      :      3.12411

                             ****ORCA TERMINATED NORMALLY****
TOTAL RUN TIME: 0 days 0 hours 19 minutes 53 seconds 329 msec
