                         Program Version 3.0.3 - RELEASE   -
|  1> ! RI-MP2 RIJK def2-TZVP def2-TZVP/C def2-TZVP/JK TIGHTSCF
|  2> % maxcore 2000
|  3> % mp2 density relaxed end
|  4> *xyz 0 1
|  5>  C        0.0521814642     1.5207730131    -0.0534040266
|  6>  C       -0.0287651754     0.0185508293    -0.0253618159
|  7>  O        0.6781689549    -0.6206312293    -1.1040399199
|  8>  C        0.3586136076    -1.9796607661    -0.7636873613
|  9>  C        1.0103739327    -2.0920976429     0.6406988043
| 10>  C        0.6577308102    -0.6924915236     1.1826360145
| 11>  O        0.8702758779    -0.2317184516     2.2704985763
| 12>  C       -1.1556136534    -1.9018156730    -0.5567364834
| 13>  C       -1.3924588719    -0.6764563761    -0.0889670718
| 14>  H        1.0939549894     1.8414528222    -0.1346795257
| 15>  H       -0.5091853410     1.9302176928    -0.8969969567
| 16>  H       -0.3539018499     1.9247438830     0.8779894210
| 17>  H        0.7319095378    -2.6619248613    -1.5258210544
| 18>  H        0.6274607292    -2.8919024274     1.2768602062
| 19>  H        2.0978813489    -2.1865218956     0.5687364909
| 20>  H       -1.8474357488    -2.7234369913    -0.6831156686
| 21>  H       -2.3173363725    -0.2507642022     0.2749431311
| 22> *
| 23>
| 24>                          ****END OF INPUT****

CARTESIAN COORDINATES (ANGSTROEM)
---------------------------------
  C      0.052181    1.520773   -0.053404
  C     -0.028765    0.018551   -0.025362
  O      0.678169   -0.620631   -1.104040
  C      0.358614   -1.979661   -0.763687
  C      1.010374   -2.092098    0.640699
  C      0.657731   -0.692492    1.182636
  O      0.870276   -0.231718    2.270499
  C     -1.155614   -1.901816   -0.556736
  C     -1.392459   -0.676456   -0.088967
  H      1.093955    1.841453   -0.134680
  H     -0.509185    1.930218   -0.896997
  H     -0.353902    1.924744    0.877989
  H      0.731910   -2.661925   -1.525821
  H      0.627461   -2.891902    1.276860
  H      2.097881   -2.186522    0.568736
  H     -1.847436   -2.723437   -0.683116
  H     -2.317336   -0.250764    0.274943

 Total Charge           Charge          ....    0
 Multiplicity           Mult            ....    1
 Number of Electrons    NEL             ....   66
 Basis Dimension        Dim             ....  327

ORBITAL ENERGIES
----------------

  NO   OCC          E(Eh)            E(eV)
   0   2.0000     -20.571143      -559.7692
   1   2.0000     -20.553563      -559.2909
   2   2.0000     -11.335587      -308.4570
   3   2.0000     -11.306217      -307.6578
   4   2.0000     -11.306004      -307.6520
   5   2.0000     -11.251523      -306.1695
   6   2.0000     -11.248905      -306.0983
   7   2.0000     -11.246449      -306.0314
   8   2.0000     -11.226258      -305.4820
   9   2.0000      -1.418129       -38.5892
  10   2.0000      -1.390989       -37.8507
  11   2.0000      -1.105813       -30.0907
  12   2.0000      -1.056037       -28.7362
  13   2.0000      -1.016207       -27.6524
  14   2.0000      -0.922787       -25.1103
  15   2.0000      -0.820731       -22.3332
  16   2.0000      -0.782548       -21.2942
  17   2.0000      -0.734613       -19.9898
  18   2.0000      -0.709333       -19.3019
  19   2.0000      -0.682361       -18.5680
  20   2.0000      -0.625589       -17.0231
  21   2.0000      -0.621370       -16.9083
  22   2.0000      -0.608590       -16.5606
  23   2.0000      -0.581836       -15.8326
  24   2.0000      -0.563897       -15.3444
  25   2.0000      -0.548376       -14.9221
  26   2.0000      -0.532259       -14.4835
  27   2.0000      -0.527845       -14.3634
  28   2.0000      -0.512444       -13.9443
  29   2.0000      -0.487692       -13.2708
  30   2.0000      -0.469134       -12.7658
  31   2.0000      -0.407094       -11.0776
  32   2.0000      -0.361318        -9.8320
  33   0.0000       0.110297         3.0013
  34   0.0000       0.144116         3.9216
  35   0.0000       0.151421         4.1204
  36   0.0000       0.163421         4.4469
  37   0.0000       0.174223         4.7409

MULLIKEN ATOMIC CHARGES
-----------------------
   0 C :   -0.434269
   1 C :    0.266683
   2 O :   -0.292983
   3 C :    0.093799
   4 C :   -0.219926
   5 C :    0.105787
   6 O :   -0.261486
   7 C :   -0.205664
   8 C :   -0.209416
   9 H :    0.146258
  10 H :    0.147763
  11 H :    0.147477
  12 H :    0.145621
  13 H :    0.137599
  14 H :    0.141276
  15 H :    0.143403
  16 H :    0.148080
Sum of atomic charges:   -0.0000000

LOEWDIN ATOMIC CHARGES
----------------------
   0 C :   -0.256786
   1 C :   -0.320293
   2 O :    0.224143
   3 C :   -0.260324
   4 C :   -0.201446
   5 C :   -0.262279
   6 O :    0.163783
   7 C :   -0.118810
   8 C :   -0.101181
   9 H :    0.137322
  10 H :    0.132760
  11 H :    0.140090
  12 H :    0.140044
  13 H :    0.146773
  14 H :    0.152590
  15 H :    0.139657
  16 H :    0.143958

  Mayer bond orders larger than 0.1
B(  0-C ,  1-C ) :   0.8395 B(  0-C ,  9-H ) :   0.9417 B(  0-C , 10-H ) :   0.9521
B(  0-C , 11-H ) :   0.9324 B(  1-C ,  2-O ) :   0.9730 B(  1-C ,  5-C ) :   0.8365
B(  1-C ,  8-C ) :   0.9023 B(  2-O ,  3-C ) :   0.9056 B(  3-C ,  4-C ) :   0.9223
B(  3-C ,  7-C ) :   0.9327 B(  3-C , 12-H ) :   0.9070 B(  4-C ,  5-C ) :   0.9406
B(  4-C , 13-H ) :   0.9041 B(  4-C , 14-H ) :   0.8957 B(  5-C ,  6-O ) :   2.0444
B(  7-C ,  8-C ) :   1.7798 B(  7-C , 15-H ) :   0.9236 B(  8-C , 16-H ) :   0.9170

MP2 TOTAL ENERGY:     -421.137054084 Eh
FINAL SINGLE POINT ENERGY      -421.137054084123

DIPOLE MOMENT
-------------
                                X             Y             Z
Electronic contribution:      0.99919      -1.26350       1.11845
Nuclear contribution   :     -1.53581       0.64503      -1.57217
                        -----------------------------------------
Total Dipole Moment    :     -0.53662      -0.61847      -0.45372
                        -----------------------------------------
Magnitude (a.u.)       :      0.93612
Magnitude (Debye)      :      2.37942

                             ****ORCA TERMINATED NORMALLY****
TOTAL RUN TIME: 0 days 0 hours 19 minutes 29 seconds 307 msec
