                         Program Version 3.0.3 - RELEASE   -
|  1> ! RI-MP2 RIJK def2-TZVP def2-TZVP/C def2-TZVP/JK TIGHTSCF
|  2> % maxcore 2000
|  3> % mp2 density relaxed end
|  4> *xyz 0 1
|  5>  C       -0.0416140971     1.4556297755    -0.0325873530
|  6>  N       -0.0354524030     0.0071873903    -0.0142571022
|  7>  C       -1.1475940731    -0.8432169691     0.0146109755
|  8>  C       -2.5184416651    -0.2615623464     0.0291598196
|  9>  C       -0.7992933694    -2.1562860943     0.0263757161
| 10>  C        0.6506061811    -2.2448470897     0.0043300050
| 11>  O        1.4029974483    -3.1896097381     0.0050400879
| 12>  C        1.1349110849    -0.7487753605    -0.0227506095
| 13>  O        2.2575446647    -0.3178791708    -0.0458624487
| 14>  H        1.0029941149     1.7719327649    -0.0528582708
| 15>  H       -0.5481676266     1.8477053497    -0.9207599703
| 16>  H       -0.5205018706     1.8703534490     0.8606317288
| 17>  H       -2.6909334952     0.3612389095    -0.8561043282
| 18>  H       -3.2669134057    -1.0545860945     0.0492855747
| 19>  H       -2.6638807482     0.3802134528     0.9057316402
| 20>  H       -1.4839265401    -2.9892963481     0.0481862050
| 21> *
| 22>
| 23>                          ****END OF INPUT****

CARTESIAN COORDINATES (ANGSTROEM)
---------------------------------
  C     -0.041614    1.455630   -0.032587
  N     -0.035452    0.007187   -0.014257
  C     -1.147594   -0.843217    0.014611
  C     -2.518442   -0.261562    0.029160
  C     -0.799293   -2.156286    0.026376
  C      0.650606   -2.244847    0.004330
  O      1.402997   -3.189610    0.005040
  C      1.134911   -0.748775   -0.022751
  O      2.257545   -0.317879   -0.045862
  H      1.002994    1.771933   -0.052858
  H     -0.548168    1.847705   -0.920760
  H     -0.520502    1.870353    0.860632
  H     -2.690933    0.361239   -0.856104
  H     -3.266913   -1.054586    0.049286
  H     -2.663881    0.380213    0.905732
  H     -1.483927   -2.989296    0.048186

 Total Charge           Charge          ....    0
 Multiplicity           Mult            ....    1
 Number of Electrons    NEL             ....   66
 Basis Dimension        Dim             ....  321

ORBITAL ENERGIES
----------------

  NO   OCC          E(Eh)            E(eV)
   0   2.0000     -20.559515      -559.4528
   1   2.0000     -20.555950      -559.3558
   2   2.0000     -15.621366      -425.0790
   3   2.0000     -11.370753      -309.4139
   4   2.0000     -11.342807      -308.6535
   5   2.0000     -11.338542      -308.5374
   6   2.0000     -11.287644      -307.1524
   7   2.0000     -11.271084      -306.7018
   8   2.0000     -11.234692      -305.7115
   9   2.0000      -1.423170       -38.7264
  10   2.0000      -1.387490       -37.7555
  11   2.0000      -1.309450       -35.6319
  12   2.0000      -1.105886       -30.0927
  13   2.0000      -1.047144       -28.4942
  14   2.0000      -0.959843       -26.1187
  15   2.0000      -0.895768       -24.3751
  16   2.0000      -0.803521       -21.8649
  17   2.0000      -0.757781       -20.6203
  18   2.0000      -0.698193       -18.9988
  19   2.0000      -0.676127       -18.3983
  20   2.0000      -0.659429       -17.9440
  21   2.0000      -0.644978       -17.5507
  22   2.0000      -0.617120       -16.7927
  23   2.0000      -0.607643       -16.5348
  24   2.0000      -0.603752       -16.4289
  25   2.0000      -0.585126       -15.9221
  26   2.0000      -0.584221       -15.8975
  27   2.0000      -0.566855       -15.4249
  28   2.0000      -0.525188       -14.2911
  29   2.0000      -0.500282       -13.6134
  30   2.0000      -0.473552       -12.8860
  31   2.0000      -0.404456       -11.0058
  32   2.0000      -0.345302        -9.3962
  33   0.0000       0.051231         1.3941
  34   0.0000       0.107802         2.9334
  35   0.0000       0.151167         4.1135
  36   0.0000       0.171297         4.6612
  37   0.0000       0.178115         4.8468

MULLIKEN ATOMIC CHARGES
-----------------------
   0 C :   -0.339870
   1 N :   -0.063405
   2 C :    0.119141
   3 C :   -0.417033
   4 C :   -0.262991
   5 C :    0.201470
   6 O :   -0.258151
   7 C :    0.196934
   8 O :   -0.283680
   9 H :    0.185497
  10 H :    0.144947
  11 H :    0.144890
  12 H :    0.159048
  13 H :    0.162107
  14 H :    0.159166
  15 H :    0.151930
Sum of atomic charges:   -0.0000000

LOEWDIN ATOMIC CHARGES
----------------------
   0 C :   -0.278226
   1 N :    0.209983
   2 C :   -0.177628
   3 C :   -0.252414
   4 C :   -0.146827
   5 C :   -0.300905
   6 O :    0.176833
   7 C :   -0.343129
   8 O :    0.155976
   9 H :    0.140303
  10 H :    0.121265
  11 H :    0.121274
  12 H :    0.141567
  13 H :    0.141735
  14 H :    0.141629
  15 H :    0.148564

  Mayer bond orders larger than 0.1
B(  0-C ,  1-N ) :   0.8575 B(  0-C ,  9-H ) :   0.9193 B(  0-C , 10-H ) :   0.9310
B(  0-C , 11-H ) :   0.9309 B(  1-N ,  2-C ) :   1.0583 B(  1-N ,  7-C ) :   1.0125
B(  2-C ,  3-C ) :   0.8742 B(  2-C ,  4-C ) :   1.5362 B(  3-C , 12-H ) :   0.9255
B(  3-C , 13-H ) :   0.9432 B(  3-C , 14-H ) :   0.9254 B(  4-C ,  5-C ) :   1.0489
B(  4-C , 15-H ) :   0.9170 B(  5-C ,  6-O ) :   1.9489 B(  5-C ,  7-C ) :   0.8396
B(  7-C ,  8-O ) :   1.9817

MP2 TOTAL ENERGY:     -437.210797512 Eh
FINAL SINGLE POINT ENERGY      -437.210797512298

DIPOLE MOMENT
-------------
                                X             Y             Z
Electronic contribution:      8.08691      -6.51843      -0.04517
Nuclear contribution   :    -10.28682       7.88125       0.06238
                        -----------------------------------------
Total Dipole Moment    :     -2.19991       1.36282       0.01721
                        -----------------------------------------
Magnitude (a.u.)       :      2.58789
Magnitude (Debye)      :      6.57790

                             ****ORCA TERMINATED NORMALLY****
TOTAL RUN TIME: 0 days 0 hours 15 minutes 36 seconds 597 msec
