                         Program Version 3.0.3 - RELEASE   -
|  1> ! RI-MP2 RIJK def2-TZVP def2-TZVP/C def2-TZVP/JK TIGHTSCF
|  2> % maxcore 2000
|  3> % mp2 density relaxed end
|  4> *xyz 0 1
|  5>  C        0.1566286904     1.4496719734    -0.1011375734
|  6>  N        0.3981366464     0.0136314538    -0.1175214078
|  7>  C        0.5853010717    -0.5940120688     0.9553046024
|  8>  O        0.6474151658    -0.1272168662     2.2741575830
|  9>  C        0.9405719210    -1.4564650615     2.7821260623
| 10>  C       -0.3253780346    -2.2609651793     3.0772683235
| 11>  O       -0.4082284977    -2.7090477041     1.7020073755
| 12>  C        0.8360541645    -2.0430327740     1.3492063352
| 13>  C        1.7855650929    -2.9003290136     0.5664007965
| 14>  H        0.8817935715     1.9393870647    -0.7596741681
| 15>  H       -0.8372793313     1.6472089686    -0.5174273772
| 16>  H        0.2179550276     1.9030870312     0.8947789511
| 17>  H        1.8005438137    -1.4656166091     3.4489619226
| 18>  H       -0.1804069031    -3.1067913406     3.7601419075
| 19>  H       -1.1924460968    -1.6696691658     3.3884122660
| 20>  H        1.3510553584    -3.1172521609    -0.4143532404
| 21>  H        2.7355136186    -2.3819806773     0.4081608198
| 22>  H        1.9700470010    -3.8462047903     1.0823426116
| 23> *
| 24>
| 25>                          ****END OF INPUT****

CARTESIAN COORDINATES (ANGSTROEM)
---------------------------------
  C      0.156629    1.449672   -0.101138
  N      0.398137    0.013631   -0.117521
  C      0.585301   -0.594012    0.955305
  O      0.647415   -0.127217    2.274158
  C      0.940572   -1.456465    2.782126
  C     -0.325378   -2.260965    3.077268
  O     -0.408228   -2.709048    1.702007
  C      0.836054   -2.043033    1.349206
  C      1.785565   -2.900329    0.566401
  H      0.881794    1.939387   -0.759674
  H     -0.837279    1.647209   -0.517427
  H      0.217955    1.903087    0.894779
  H      1.800544   -1.465617    3.448962
  H     -0.180407   -3.106791    3.760142
  H     -1.192446   -1.669669    3.388412
  H      1.351055   -3.117252   -0.414353
  H      2.735514   -2.381981    0.408161
  H      1.970047   -3.846205    1.082343

 Total Charge           Charge          ....    0
 Multiplicity           Mult            ....    1
 Number of Electrons    NEL             ....   68
 Basis Dimension        Dim             ....  333

ORBITAL ENERGIES
----------------

  NO   OCC          E(Eh)            E(eV)
   0   2.0000     -20.593347      -560.3735
   1   2.0000     -20.568376      -559.6940
   2   2.0000     -15.548476      -423.0955
   3   2.0000     -11.332063      -308.3611
   4   2.0000     -11.313734      -307.8623
   5   2.0000     -11.308173      -307.7110
   6   2.0000     -11.295324      -307.3614
   7   2.0000     -11.244436      -305.9767
   8   2.0000     -11.233510      -305.6794
   9   2.0000      -1.448896       -39.4265
  10   2.0000      -1.376474       -37.4558
  11   2.0000      -1.220879       -33.2218
  12   2.0000      -1.048391       -28.5282
  13   2.0000      -1.002361       -27.2756
  14   2.0000      -0.951031       -25.8789
  15   2.0000      -0.905778       -24.6475
  16   2.0000      -0.826612       -22.4932
  17   2.0000      -0.710524       -19.3343
  18   2.0000      -0.708927       -19.2909
  19   2.0000      -0.691227       -18.8093
  20   2.0000      -0.666986       -18.1496
  21   2.0000      -0.626904       -17.0589
  22   2.0000      -0.605276       -16.4704
  23   2.0000      -0.588771       -16.0213
  24   2.0000      -0.586663       -15.9639
  25   2.0000      -0.564653       -15.3650
  26   2.0000      -0.561953       -15.2915
  27   2.0000      -0.544845       -14.8260
  28   2.0000      -0.523710       -14.2509
  29   2.0000      -0.483912       -13.1679
  30   2.0000      -0.456590       -12.4244
  31   2.0000      -0.443112       -12.0577
  32   2.0000      -0.407417       -11.0864
  33   2.0000      -0.388416       -10.5693
  34   0.0000       0.139634         3.7996
  35   0.0000       0.155278         4.2253
  36   0.0000       0.160682         4.3724
  37   0.0000       0.162055         4.4097
  38   0.0000       0.179195         4.8761

MULLIKEN ATOMIC CHARGES
-----------------------
   0 C :   -0.273502
   1 N :   -0.245852
   2 C :    0.117242
   3 O :   -0.288748
   4 C :    0.000082
   5 C :   -0.024448
   6 O :   -0.330267
   7 C :    0.239467
   8 C :   -0.391796
   9 H :    0.138283
  10 H :    0.141425
  11 H :    0.131475
  12 H :    0.130517
  13 H :    0.108240
  14 H :    0.114530
  15 H :    0.157257
  16 H :    0.138052
  17 H :    0.138042
Sum of atomic charges:   -0.0000000

LOEWDIN ATOMIC CHARGES
----------------------
   0 C :   -0.322174
   1 N :    0.091245
   2 C :   -0.315304
   3 O :    0.221399
   4 C :   -0.208331
   5 C :   -0.246871
   6 O :    0.164073
   7 C :   -0.274125
   8 C :   -0.259024
   9 H :    0.119600
  10 H :    0.121551
  11 H :    0.111313
  12 H :    0.132566
  13 H :    0.124385
  14 H :    0.126618
  15 H :    0.144285
  16 H :    0.136794
  17 H :    0.131998

  Mayer bond orders larger than 0.1
B(  0-C ,  1-N ) :   0.8446 B(  0-C ,  9-H ) :   0.9350 B(  0-C , 10-H ) :   0.9326
B(  0-C , 11-H ) :   0.9305 B(  1-N ,  2-C ) :   2.0029 B(  2-C ,  3-O ) :   1.0178
B(  2-C ,  7-C ) :   0.8767 B(  3-O ,  4-C ) :   0.9274 B(  4-C ,  5-C ) :   0.9737
B(  4-C ,  7-C ) :   0.9541 B(  4-C , 12-H ) :   0.9136 B(  5-C ,  6-O ) :   0.9419
B(  5-C , 13-H ) :   0.9148 B(  5-C , 14-H ) :   0.8977 B(  6-O ,  7-C ) :   0.9149
B(  7-C ,  8-C ) :   0.9097 B(  8-C , 15-H ) :   0.9310 B(  8-C , 16-H ) :   0.9285
B(  8-C , 17-H ) :   0.9300

MP2 TOTAL ENERGY:     -438.325055816 Eh
FINAL SINGLE POINT ENERGY      -438.325055815607

DIPOLE MOMENT
-------------
                                X             Y             Z
Electronic contribution:     -1.48750      -0.55407       1.94209
Nuclear contribution   :      2.06796       0.42832      -1.15169
                        -----------------------------------------
Total Dipole Moment    :      0.58046      -0.12575       0.79040
                        -----------------------------------------
Magnitude (a.u.)       :      0.98867
Magnitude (Debye)      :      2.51300

                             ****ORCA TERMINATED NORMALLY****
TOTAL RUN TIME: 0 days 0 hours 16 minutes 3 seconds 638 msec
