                         Program Version 3.0.3 - RELEASE   -
|  1> ! RI-MP2 RIJK def2-TZVP def2-TZVP/C def2-TZVP/JK TIGHTSCF
|  2> % maxcore 2000
|  3> % mp2 density relaxed end
|  4> *xyz 0 1
|  5>  C       -0.0059415225     1.5445029932    -0.1796113781
|  6>  C       -0.0331442663     0.0258041880     0.0355250886
|  7>  C       -1.4228807721    -0.5434994172     0.1136269943
|  8>  C       -2.4470350902    -0.1131715164     1.1869485119
|  9>  C       -3.4113685322    -1.2758044396     0.8646568375
| 10>  N       -2.6332167060    -2.5065423333     1.1911417355
| 11>  C       -1.7697621754    -2.1186072412     0.0728870675
| 12>  C       -2.9587791827    -1.4926825650    -0.6599043380
| 13>  O       -2.2304141112    -0.3531360483    -1.1009016499
| 14>  H        1.0214055863     1.9033629049    -0.2913184769
| 15>  H       -0.5619133494     1.8132767121    -1.0820530073
| 16>  H       -0.4564868215     2.0769218596     0.6640648858
| 17>  H        0.4996568115    -0.4719002690    -0.7836098609
| 18>  H        0.4964748235    -0.2380395777     0.9602737647
| 19>  H       -2.0857740041    -0.1572668623     2.2192747185
| 20>  H       -2.8411300553     0.8821662121     0.9722163433
| 21>  H       -4.4475670303    -1.2309929447     1.1962723600
| 22>  H       -2.1923605834    -2.4832647662     2.1109831283
| 23>  H       -1.0416549709    -2.8169120213    -0.3389373146
| 24>  H       -3.6212496578    -1.9589472376    -1.3850400301
| 25> *
| 26>
| 27>                          ****END OF INPUT****

CARTESIAN COORDINATES (ANGSTROEM)
---------------------------------
  C     -0.005942    1.544503   -0.179611
  C     -0.033144    0.025804    0.035525
  C     -1.422881   -0.543499    0.113627
  C     -2.447035   -0.113172    1.186949
  C     -3.411369   -1.275804    0.864657
  N     -2.633217   -2.506542    1.191142
  C     -1.769762   -2.118607    0.072887
  C     -2.958779   -1.492683   -0.659904
  O     -2.230414   -0.353136   -1.100902
  H      1.021406    1.903363   -0.291318
  H     -0.561913    1.813277   -1.082053
  H     -0.456487    2.076922    0.664065
  H      0.499657   -0.471900   -0.783610
  H      0.496475   -0.238040    0.960274
  H     -2.085774   -0.157267    2.219275
  H     -2.841130    0.882166    0.972216
  H     -4.447567   -1.230993    1.196272
  H     -2.192361   -2.483265    2.110983
  H     -1.041655   -2.816912   -0.338937
  H     -3.621250   -1.958947   -1.385040

 Total Charge           Charge          ....    0
 Multiplicity           Mult            ....    1
 Number of Electrons    NEL             ....   68
 Basis Dimension        Dim             ....  345

ORBITAL ENERGIES
----------------

  NO   OCC          E(Eh)            E(eV)
   0   2.0000     -20.548307      -559.1479
   1   2.0000     -15.551710      -423.1835
   2   2.0000     -11.291496      -307.2572
   3   2.0000     -11.285434      -307.0923
   4   2.0000     -11.265772      -306.5572
   5   2.0000     -11.261903      -306.4519
   6   2.0000     -11.228910      -305.5542
   7   2.0000     -11.226887      -305.4991
   8   2.0000     -11.215436      -305.1875
   9   2.0000      -1.399739       -38.0888
  10   2.0000      -1.241436       -33.7812
  11   2.0000      -1.062222       -28.9045
  12   2.0000      -1.004590       -27.3363
  13   2.0000      -0.949216       -25.8295
  14   2.0000      -0.928667       -25.2703
  15   2.0000      -0.847359       -23.0578
  16   2.0000      -0.775267       -21.0961
  17   2.0000      -0.726563       -19.7708
  18   2.0000      -0.683904       -18.6100
  19   2.0000      -0.682263       -18.5653
  20   2.0000      -0.634974       -17.2785
  21   2.0000      -0.625222       -17.0132
  22   2.0000      -0.598904       -16.2970
  23   2.0000      -0.559050       -15.2125
  24   2.0000      -0.537545       -14.6274
  25   2.0000      -0.530905       -14.4467
  26   2.0000      -0.508866       -13.8469
  27   2.0000      -0.500857       -13.6290
  28   2.0000      -0.494646       -13.4600
  29   2.0000      -0.470353       -12.7990
  30   2.0000      -0.463739       -12.6190
  31   2.0000      -0.443286       -12.0624
  32   2.0000      -0.401730       -10.9316
  33   2.0000      -0.373352       -10.1594
  34   0.0000       0.133988         3.6460
  35   0.0000       0.152767         4.1570
  36   0.0000       0.162761         4.4290
  37   0.0000       0.171334         4.6622
  38   0.0000       0.191040         5.1985

MULLIKEN ATOMIC CHARGES
-----------------------
   0 C :   -0.418734
   1 C :   -0.198343
   2 C :    0.191594
   3 C :   -0.320216
   4 C :   -0.005494
   5 N :   -0.316912
   6 C :   -0.079009
   7 C :   -0.015716
   8 O :   -0.321124
   9 H :    0.135349
  10 H :    0.151989
  11 H :    0.125860
  12 H :    0.117798
  13 H :    0.108690
  14 H :    0.121252
  15 H :    0.128840
  16 H :    0.135738
  17 H :    0.198611
  18 H :    0.127386
  19 H :    0.132441
Sum of atomic charges:    0.0000000

LOEWDIN ATOMIC CHARGES
----------------------
   0 C :   -0.308544
   1 C :   -0.258877
   2 C :   -0.268922
   3 C :   -0.205868
   4 C :   -0.221817
   5 N :    0.027158
   6 C :   -0.205312
   7 C :   -0.227446
   8 O :    0.181941
   9 H :    0.121472
  10 H :    0.128972
  11 H :    0.120915
  12 H :    0.145732
  13 H :    0.145262
  14 H :    0.135804
  15 H :    0.143316
  16 H :    0.128095
  17 H :    0.155657
  18 H :    0.132025
  19 H :    0.130437

  Mayer bond orders larger than 0.1
B(  0-C ,  1-C ) :   0.9330 B(  0-C ,  9-H ) :   0.9393 B(  0-C , 10-H ) :   0.9365
B(  0-C , 11-H ) :   0.9361 B(  1-C ,  2-C ) :   0.8789 B(  1-C , 12-H ) :   0.9363
B(  1-C , 13-H ) :   0.9258 B(  2-C ,  3-C ) :   0.9272 B(  2-C ,  6-C ) :   0.7884
B(  2-C ,  8-O ) :   0.8764 B(  3-C ,  4-C ) :   0.9271 B(  3-C , 14-H ) :   0.9328
B(  3-C , 15-H ) :   0.9189 B(  4-C ,  5-N ) :   0.9664 B(  4-C ,  7-C ) :   0.8420
B(  4-C , 16-H ) :   0.9157 B(  5-N ,  6-C ) :   1.0082 B(  5-N , 17-H ) :   0.8743
B(  6-C ,  7-C ) :   0.9312 B(  6-C , 18-H ) :   0.9241 B(  7-C ,  8-O ) :   1.0000
B(  7-C , 19-H ) :   0.9041

MP2 TOTAL ENERGY:     -402.416287522 Eh
FINAL SINGLE POINT ENERGY      -402.416287522229

DIPOLE MOMENT
-------------
                                X             Y             Z
Electronic contribution:     -4.52322      -4.86240      -1.68593
Nuclear contribution   :      4.88164       4.99804       2.27068
                        -----------------------------------------
Total Dipole Moment    :      0.35842       0.13564       0.58475
                        -----------------------------------------
Magnitude (a.u.)       :      0.69914
Magnitude (Debye)      :      1.77707

                             ****ORCA TERMINATED NORMALLY****
TOTAL RUN TIME: 0 days 0 hours 20 minutes 20 seconds 233 msec
