                         Program Version 3.0.3 - RELEASE   -
|  1> ! RI-MP2 RIJK def2-TZVP def2-TZVP/C def2-TZVP/JK TIGHTSCF
|  2> % maxcore 2000
|  3> % mp2 density relaxed end
|  4> *xyz 0 1
|  5>  N        0.1147334314    -1.1868315277     0.2084716691
|  6>  C        0.0629405624    -0.0370352975     0.1057230183
|  7>  C       -0.0095825684     1.4214329384    -0.0176047425
|  8>  C       -0.8497312204     2.0215036409     1.1426066486
|  9>  C       -0.7229047122     3.5379811736     1.2107126287
| 10>  O        0.2030187728     4.0475865971     2.1744085243
| 11>  C        0.5322048974     4.1683846118     0.7773384062
| 12>  C        1.6163979055     3.2949364651     0.2588184048
| 13>  C        1.3802479470     2.0365792817    -0.1057574144
| 14>  H       -0.5290384907     1.6235653836    -0.9664325650
| 15>  H       -1.8951847754     1.7253516468     1.0227553842
| 16>  H       -0.4955614334     1.6062914453     2.0898779522
| 17>  H       -1.6481785917     4.1079805800     1.1419495038
| 18>  H        0.5168515012     5.1944278682     0.4116475783
| 19>  H        2.6138750143     3.7150909653     0.1714014900
| 20>  H        2.1719028501     1.4076332975    -0.4995642466
| 21> *
| 22>
| 23>                          ****END OF INPUT****

CARTESIAN COORDINATES (ANGSTROEM)
---------------------------------
  N      0.114733   -1.186832    0.208472
  C      0.062941   -0.037035    0.105723
  C     -0.009583    1.421433   -0.017605
  C     -0.849731    2.021504    1.142607
  C     -0.722905    3.537981    1.210713
  O      0.203019    4.047587    2.174409
  C      0.532205    4.168385    0.777338
  C      1.616398    3.294936    0.258818
  C      1.380248    2.036579   -0.105757
  H     -0.529038    1.623565   -0.966433
  H     -1.895185    1.725352    1.022755
  H     -0.495561    1.606291    2.089878
  H     -1.648179    4.107981    1.141950
  H      0.516852    5.194428    0.411648
  H      2.613875    3.715091    0.171401
  H      2.171903    1.407633   -0.499564

 Total Charge           Charge          ....    0
 Multiplicity           Mult            ....    1
 Number of Electrons    NEL             ....   64
 Basis Dimension        Dim             ....  321

ORBITAL ENERGIES
----------------

  NO   OCC          E(Eh)            E(eV)
   0   2.0000     -20.582148      -560.0687
   1   2.0000     -15.575647      -423.8349
   2   2.0000     -11.307174      -307.6838
   3   2.0000     -11.305954      -307.6507
   4   2.0000     -11.303163      -307.5747
   5   2.0000     -11.278139      -306.8938
   6   2.0000     -11.268532      -306.6323
   7   2.0000     -11.262975      -306.4811
   8   2.0000     -11.257235      -306.3250
   9   2.0000      -1.425987       -38.8031
  10   2.0000      -1.226794       -33.3828
  11   2.0000      -1.144149       -31.1339
  12   2.0000      -1.055859       -28.7314
  13   2.0000      -0.990057       -26.9408
  14   2.0000      -0.903915       -24.5968
  15   2.0000      -0.856561       -23.3082
  16   2.0000      -0.751617       -20.4525
  17   2.0000      -0.733727       -19.9657
  18   2.0000      -0.710213       -19.3259
  19   2.0000      -0.662689       -18.0327
  20   2.0000      -0.648268       -17.6403
  21   2.0000      -0.613590       -16.6966
  22   2.0000      -0.589709       -16.0468
  23   2.0000      -0.569670       -15.5015
  24   2.0000      -0.554799       -15.0969
  25   2.0000      -0.537495       -14.6260
  26   2.0000      -0.517535       -14.0828
  27   2.0000      -0.475981       -12.9521
  28   2.0000      -0.467905       -12.7323
  29   2.0000      -0.458080       -12.4650
  30   2.0000      -0.450034       -12.2460
  31   2.0000      -0.384254       -10.4561
  32   0.0000       0.103454         2.8151
  33   0.0000       0.129192         3.5155
  34   0.0000       0.152658         4.1540
  35   0.0000       0.159773         4.3477
  36   0.0000       0.163627         4.4525

MULLIKEN ATOMIC CHARGES
-----------------------
   0 N :   -0.048676
   1 C :   -0.223719
   2 C :    0.134537
   3 C :   -0.258140
   4 C :    0.031755
   5 O :   -0.317542
   6 C :    0.049238
   7 C :   -0.156422
   8 C :   -0.205905
   9 H :    0.144322
  10 H :    0.145142
  11 H :    0.152530
  12 H :    0.130485
  13 H :    0.123890
  14 H :    0.144803
  15 H :    0.153702
Sum of atomic charges:   -0.0000000

LOEWDIN ATOMIC CHARGES
----------------------
   0 N :    0.065843
   1 C :   -0.168175
   2 C :   -0.214690
   3 C :   -0.191067
   4 C :   -0.251667
   5 O :    0.169734
   6 C :   -0.246479
   7 C :   -0.139210
   8 C :   -0.107863
   9 H :    0.186758
  10 H :    0.148712
  11 H :    0.160799
  12 H :    0.138665
  13 H :    0.142902
  14 H :    0.151200
  15 H :    0.154537

  Mayer bond orders larger than 0.1
B(  0-N ,  1-C ) :   2.8832 B(  1-C ,  2-C ) :   0.9094 B(  2-C ,  3-C ) :   0.9470
B(  2-C ,  8-C ) :   0.8831 B(  2-C ,  9-H ) :   0.8902 B(  3-C ,  4-C ) :   0.8911
B(  3-C , 10-H ) :   0.9277 B(  3-C , 11-H ) :   0.9128 B(  4-C ,  5-O ) :   0.9101
B(  4-C ,  6-C ) :   0.9766 B(  4-C , 12-H ) :   0.9202 B(  5-O ,  6-C ) :   0.9024
B(  6-C ,  7-C ) :   0.9311 B(  6-C , 13-H ) :   0.9305 B(  7-C ,  8-C ) :   1.7686
B(  7-C , 14-H ) :   0.9252 B(  8-C , 15-H ) :   0.9182

MP2 TOTAL ENERGY:     -400.051867494 Eh
FINAL SINGLE POINT ENERGY      -400.051867494259

DIPOLE MOMENT
-------------
                                X             Y             Z
Electronic contribution:      0.67639      -2.45986       0.48809
Nuclear contribution   :     -0.92398       3.81530      -1.24124
                        -----------------------------------------
Total Dipole Moment    :     -0.24759       1.35545      -0.75315
                        -----------------------------------------
Magnitude (a.u.)       :      1.57028
Magnitude (Debye)      :      3.99133

                             ****ORCA TERMINATED NORMALLY****
TOTAL RUN TIME: 0 days 0 hours 16 minutes 18 seconds 88 msec
