                         Program Version 3.0.3 - RELEASE   -
|  1> ! RI-MP2 RIJK def2-TZVP def2-TZVP/C def2-TZVP/JK TIGHTSCF
|  2> % maxcore 2000
|  3> % mp2 density relaxed end
|  4> *xyz 0 1
|  5>  N        0.0637243951     1.1254197671    -0.5214815787
|  6>  C        0.0005684335    -0.0445402353    -0.0770757348
|  7>  O        1.0035231783    -0.8441807334     0.4943292589
|  8>  C        0.0397805887    -1.9263824470     0.6737518451
|  9>  C       -0.6838507021    -1.9961172240     2.0408147847
| 10>  C       -1.8713150524    -1.1743392177     1.4039574456
| 11>  C       -1.0717848116    -1.1019205495     0.0647934458
| 12>  C       -1.2359877567    -2.1518220563    -1.0791453095
| 13>  C       -0.0445143648    -2.9797438905    -0.4579248330
| 14>  H        1.0066055457     1.5088634568    -0.4311795391
| 15>  H       -0.9426731207    -3.0026194986     2.3775517854
| 16>  H       -0.1433453775    -1.4865277418     2.8403026186
| 17>  H       -2.8025922881    -1.7385660459     1.3174041496
| 18>  H       -2.0917030352    -0.2120494020     1.8688844590
| 19>  H       -2.1967729419    -2.6706505350    -1.0503373487
| 20>  H       -1.0789730556    -1.7702111110    -2.0893179501
| 21>  H        0.8573393657    -3.0260844220    -1.0707224339
| 22>  H       -0.3004927506    -3.9906058638    -0.1322553850
| 23> *
| 24>
| 25>                          ****END OF INPUT****

CARTESIAN COORDINATES (ANGSTROEM)
---------------------------------
  N      0.063724    1.125420   -0.521482
  C      0.000568   -0.044540   -0.077076
  O      1.003523   -0.844181    0.494329
  C      0.039781   -1.926382    0.673752
  C     -0.683851   -1.996117    2.040815
  C     -1.871315   -1.174339    1.403957
  C     -1.071785   -1.101921    0.064793
  C     -1.235988   -2.151822   -1.079145
  C     -0.044514   -2.979744   -0.457925
  H      1.006606    1.508863   -0.431180
  H     -0.942673   -3.002619    2.377552
  H     -0.143345   -1.486528    2.840303
  H     -2.802592   -1.738566    1.317404
  H     -2.091703   -0.212049    1.868884
  H     -2.196773   -2.670651   -1.050337
  H     -1.078973   -1.770211   -2.089318
  H      0.857339   -3.026084   -1.070722
  H     -0.300493   -3.990606   -0.132255

 Total Charge           Charge          ....    0
 Multiplicity           Mult            ....    1
 Number of Electrons    NEL             ....   66
 Basis Dimension        Dim             ....  333

ORBITAL ENERGIES
----------------

  NO   OCC          E(Eh)            E(eV)
   0   2.0000     -20.587622      -560.2177
   1   2.0000     -15.536913      -422.7809
   2   2.0000     -11.339629      -308.5670
   3   2.0000     -11.289675      -307.2077
   4   2.0000     -11.248515      -306.0877
   5   2.0000     -11.248514      -306.0876
   6   2.0000     -11.245245      -305.9987
   7   2.0000     -11.245227      -305.9982
   8   2.0000     -11.239167      -305.8333
   9   2.0000      -1.427418       -38.8420
  10   2.0000      -1.196084       -32.5471
  11   2.0000      -1.167347       -31.7651
  12   2.0000      -1.041457       -28.3395
  13   2.0000      -0.951426       -25.8896
  14   2.0000      -0.888445       -24.1758
  15   2.0000      -0.846294       -23.0288
  16   2.0000      -0.792183       -21.5564
  17   2.0000      -0.706594       -19.2274
  18   2.0000      -0.682450       -18.5704
  19   2.0000      -0.680007       -18.5039
  20   2.0000      -0.639480       -17.4011
  21   2.0000      -0.612055       -16.6549
  22   2.0000      -0.601553       -16.3691
  23   2.0000      -0.565161       -15.3788
  24   2.0000      -0.558508       -15.1978
  25   2.0000      -0.541709       -14.7407
  26   2.0000      -0.524687       -14.2775
  27   2.0000      -0.473539       -12.8857
  28   2.0000      -0.465913       -12.6781
  29   2.0000      -0.461557       -12.5596
  30   2.0000      -0.429839       -11.6965
  31   2.0000      -0.392522       -10.6811
  32   2.0000      -0.382015       -10.3951
  33   0.0000       0.133108         3.6221
  34   0.0000       0.141815         3.8590
  35   0.0000       0.158682         4.3179
  36   0.0000       0.161670         4.3993
  37   0.0000       0.180729         4.9179

MULLIKEN ATOMIC CHARGES
-----------------------
   0 N :   -0.355298
   1 C :   -0.024297
   2 O :   -0.278560
   3 C :    0.231895
   4 C :   -0.265955
   5 C :   -0.291566
   6 C :    0.256823
   7 C :   -0.291565
   8 C :   -0.265956
   9 H :    0.230225
  10 H :    0.123617
  11 H :    0.135515
  12 H :    0.127483
  13 H :    0.140512
  14 H :    0.127482
  15 H :    0.140511
  16 H :    0.135515
  17 H :    0.123618
Sum of atomic charges:   -0.0000000

LOEWDIN ATOMIC CHARGES
----------------------
   0 N :   -0.046067
   1 C :   -0.342186
   2 O :    0.235492
   3 C :   -0.231191
   4 C :   -0.188285
   5 C :   -0.180620
   6 C :   -0.143485
   7 C :   -0.180620
   8 C :   -0.188285
   9 H :    0.173078
  10 H :    0.133850
  11 H :    0.140260
  12 H :    0.135287
  13 H :    0.136687
  14 H :    0.135287
  15 H :    0.136687
  16 H :    0.140261
  17 H :    0.133849

  Mayer bond orders larger than 0.1
B(  0-N ,  1-C ) :   2.0914 B(  0-N ,  9-H ) :   0.8431 B(  1-C ,  2-O ) :   1.0555
B(  1-C ,  6-C ) :   0.8956 B(  2-O ,  3-C ) :   0.8830 B(  3-C ,  4-C ) :   0.9374
B(  3-C ,  6-C ) :   0.8525 B(  3-C ,  8-C ) :   0.9374 B(  4-C ,  5-C ) :   0.9757
B(  4-C , 10-H ) :   0.9123 B(  4-C , 11-H ) :   0.9080 B(  5-C ,  6-C ) :   0.8903
B(  5-C , 12-H ) :   0.9159 B(  5-C , 13-H ) :   0.9139 B(  6-C ,  7-C ) :   0.8903
B(  7-C ,  8-C ) :   0.9757 B(  7-C , 14-H ) :   0.9159 B(  7-C , 15-H ) :   0.9139
B(  8-C , 16-H ) :   0.9080 B(  8-C , 17-H ) :   0.9123

MP2 TOTAL ENERGY:     -401.192501709 Eh
FINAL SINGLE POINT ENERGY      -401.192501708810

DIPOLE MOMENT
-------------
                                X             Y             Z
Electronic contribution:      3.54481       3.98035      -0.65989
Nuclear contribution   :     -3.81607      -5.01188       0.99655
                        -----------------------------------------
Total Dipole Moment    :     -0.27126      -1.03153       0.33666
                        -----------------------------------------
Magnitude (a.u.)       :      1.11847
Magnitude (Debye)      :      2.84293

                             ****ORCA TERMINATED NORMALLY****
TOTAL RUN TIME: 0 days 0 hours 18 minutes 31 seconds 468 msec
