                         Program Version 3.0.3 - RELEASE   -
|  1> ! RI-MP2 RIJK def2-TZVP def2-TZVP/C def2-TZVP/JK TIGHTSCF
|  2> % maxcore 2000
|  3> % mp2 density relaxed end
|  4> *xyz 0 1
|  5>  N        0.2860912339     1.4220310951     0.5327132159
|  6>  C        0.1193210382     0.0606260007     0.2277811581
|  7>  C       -1.0267607201    -0.5696258164    -0.2056298868
|  8>  C       -2.3972767019    -0.0376262137    -0.4464846891
|  9>  C       -3.3355068979    -0.8806870804    -1.2768440210
| 10>  O       -3.1434722393    -2.0197819409    -1.6306879585
| 11>  N       -0.6448307495    -1.8883141478    -0.4031746401
| 12>  C        0.6753307312    -1.9744780017    -0.1209116145
| 13>  N        1.1699626287    -0.8177819288     0.2777390742
| 14>  H        1.2370495450     1.5791891150     0.8458268262
| 15>  H       -0.3493453611     1.7465922940     1.2523749469
| 16>  H       -2.9592644101     0.1432798455     0.4898865857
| 17>  H       -2.3428833420     0.9566953363    -0.9142236254
| 18>  H       -4.2883269022    -0.3675733247    -1.5310625045
| 19>  H       -1.2564494759    -2.5832790954    -0.8026649700
| 20>  H        1.2300209929    -2.8953337368    -0.2177882270
| 21> *
| 22>
| 23>                          ****END OF INPUT****

CARTESIAN COORDINATES (ANGSTROEM)
---------------------------------
  N      0.286091    1.422031    0.532713
  C      0.119321    0.060626    0.227781
  C     -1.026761   -0.569626   -0.205630
  C     -2.397277   -0.037626   -0.446485
  C     -3.335507   -0.880687   -1.276844
  O     -3.143472   -2.019782   -1.630688
  N     -0.644831   -1.888314   -0.403175
  C      0.675331   -1.974478   -0.120912
  N      1.169963   -0.817782    0.277739
  H      1.237050    1.579189    0.845827
  H     -0.349345    1.746592    1.252375
  H     -2.959264    0.143280    0.489887
  H     -2.342883    0.956695   -0.914224
  H     -4.288327   -0.367573   -1.531063
  H     -1.256449   -2.583279   -0.802665
  H      1.230021   -2.895334   -0.217788

 Total Charge           Charge          ....    0
 Multiplicity           Mult            ....    1
 Number of Electrons    NEL             ....   66
 Basis Dimension        Dim             ....  321

ORBITAL ENERGIES
----------------

  NO   OCC          E(Eh)            E(eV)
   0   2.0000     -20.576367      -559.9114
   1   2.0000     -15.605968      -424.6600
   2   2.0000     -15.554339      -423.2551
   3   2.0000     -15.536355      -422.7657
   4   2.0000     -11.355637      -309.0026
   5   2.0000     -11.290735      -307.2365
   6   2.0000     -11.274395      -306.7919
   7   2.0000     -11.266986      -306.5903
   8   2.0000     -11.250642      -306.1455
   9   2.0000      -1.416864       -38.5548
  10   2.0000      -1.336670       -36.3726
  11   2.0000      -1.206891       -32.8412
  12   2.0000      -1.144116       -31.1330
  13   2.0000      -1.065540       -28.9948
  14   2.0000      -0.962547       -26.1922
  15   2.0000      -0.834602       -22.7107
  16   2.0000      -0.822898       -22.3922
  17   2.0000      -0.771552       -20.9950
  18   2.0000      -0.721998       -19.6466
  19   2.0000      -0.691697       -18.8220
  20   2.0000      -0.665080       -18.0977
  21   2.0000      -0.646496       -17.5920
  22   2.0000      -0.638265       -17.3681
  23   2.0000      -0.604068       -16.4375
  24   2.0000      -0.590512       -16.0687
  25   2.0000      -0.572865       -15.5885
  26   2.0000      -0.564821       -15.3696
  27   2.0000      -0.525286       -14.2938
  28   2.0000      -0.470159       -12.7937
  29   2.0000      -0.447317       -12.1721
  30   2.0000      -0.433975       -11.8091
  31   2.0000      -0.379216       -10.3190
  32   2.0000      -0.287646        -7.8272
  33   0.0000       0.118047         3.2122
  34   0.0000       0.125310         3.4099
  35   0.0000       0.149955         4.0805
  36   0.0000       0.163364         4.4454
  37   0.0000       0.169581         4.6145

MULLIKEN ATOMIC CHARGES
-----------------------
   0 N :   -0.550635
   1 C :    0.144020
   2 C :    0.006387
   3 C :   -0.217683
   4 C :    0.128062
   5 O :   -0.310285
   6 N :   -0.260205
   7 C :    0.036888
   8 N :   -0.314350
   9 H :    0.252637
  10 H :    0.244935
  11 H :    0.146759
  12 H :    0.170853
  13 H :    0.107187
  14 H :    0.268915
  15 H :    0.146516
Sum of atomic charges:    0.0000000

LOEWDIN ATOMIC CHARGES
----------------------
   0 N :   -0.105195
   1 C :   -0.348359
   2 C :   -0.228599
   3 C :   -0.242464
   4 C :   -0.276889
   5 O :    0.119345
   6 N :    0.200079
   7 C :   -0.323930
   8 N :    0.088634
   9 H :    0.172049
  10 H :    0.163444
  11 H :    0.166557
  12 H :    0.170671
  13 H :    0.119279
  14 H :    0.195958
  15 H :    0.129420

  Mayer bond orders larger than 0.1
B(  0-N ,  1-C ) :   0.9847 B(  0-N ,  9-H ) :   0.8803 B(  0-N , 10-H ) :   0.8765
B(  1-C ,  2-C ) :   1.4974 B(  1-C ,  8-N ) :   1.3405 B(  2-C ,  3-C ) :   0.8751
B(  2-C ,  6-N ) :   1.1038 B(  3-C ,  4-C ) :   0.8963 B(  3-C , 11-H ) :   0.8799
B(  3-C , 12-H ) :   0.9172 B(  4-C ,  5-O ) :   1.9126 B(  4-C , 13-H ) :   0.9445
B(  6-N ,  7-C ) :   1.2065 B(  6-N , 14-H ) :   0.8398 B(  7-C ,  8-N ) :   1.5037
B(  7-C , 15-H ) :   0.9288

MP2 TOTAL ENERGY:     -433.391142043 Eh
FINAL SINGLE POINT ENERGY      -433.391142043185

DIPOLE MOMENT
-------------
                                X             Y             Z
Electronic contribution:      0.76831      -3.20861      -1.09257
Nuclear contribution   :     -1.93665       3.51306       1.43040
                        -----------------------------------------
Total Dipole Moment    :     -1.16833       0.30445       0.33783
                        -----------------------------------------
Magnitude (a.u.)       :      1.25372
Magnitude (Debye)      :      3.18671

                             ****ORCA TERMINATED NORMALLY****
TOTAL RUN TIME: 0 days 0 hours 14 minutes 31 seconds 855 msec
