                         Program Version 3.0.3 - RELEASE   -
|  1> ! RI-MP2 RIJK def2-TZVP def2-TZVP/C def2-TZVP/JK TIGHTSCF
|  2> % maxcore 2000
|  3> % mp2 density relaxed end
|  4> *xyz 0 1
|  5>  O        0.1338576125     1.3917193432     0.1705026949
|  6>  C       -0.0005845086     0.0067155058     0.0413853167
|  7>  C       -1.4190626760    -0.6384100969     0.0528875615
|  8>  C       -2.4856392601     0.1536832064    -0.7421250815
|  9>  C       -2.0661491173    -0.5645327903    -2.0641971670
| 10>  C       -1.2089888422     0.2433272866    -3.0275471464
| 11>  O        0.0526908542     0.4373615457    -2.3737175670
| 12>  C        0.2524945852    -0.5764081276    -1.3841409186
| 13>  C       -1.0417029002    -1.4182637522    -1.2610064763
| 14>  H        0.0992998102     1.7313694384    -0.7359899725
| 15>  H        0.6383591673    -0.4824659843     0.7851995360
| 16>  H       -1.7384605305    -1.1160471976     0.9789757151
| 17>  H       -3.5054898999    -0.0951874283    -0.4417843703
| 18>  H       -2.3735489471     1.2417392882    -0.7190696485
| 19>  H       -2.8694194823    -1.1025006964    -2.5701015592
| 20>  H       -1.0573787480    -0.3004950723    -3.9717400492
| 21>  H       -1.6212516032     1.2309735490    -3.2604746289
| 22>  H        1.2084436144    -1.0742381902    -1.5645484273
| 23>  H       -0.9982429386    -2.4994970171    -1.3740075816
| 24> *
| 25>
| 26>                          ****END OF INPUT****

CARTESIAN COORDINATES (ANGSTROEM)
---------------------------------
  O      0.133858    1.391719    0.170503
  C     -0.000585    0.006716    0.041385
  C     -1.419063   -0.638410    0.052888
  C     -2.485639    0.153683   -0.742125
  C     -2.066149   -0.564533   -2.064197
  C     -1.208989    0.243327   -3.027547
  O      0.052691    0.437362   -2.373718
  C      0.252495   -0.576408   -1.384141
  C     -1.041703   -1.418264   -1.261006
  H      0.099300    1.731369   -0.735990
  H      0.638359   -0.482466    0.785200
  H     -1.738461   -1.116047    0.978976
  H     -3.505490   -0.095187   -0.441784
  H     -2.373549    1.241739   -0.719070
  H     -2.869419   -1.102501   -2.570102
  H     -1.057379   -0.300495   -3.971740
  H     -1.621252    1.230974   -3.260475
  H      1.208444   -1.074238   -1.564548
  H     -0.998243   -2.499497   -1.374008

 Total Charge           Charge          ....    0
 Multiplicity           Mult            ....    1
 Number of Electrons    NEL             ....   68
 Basis Dimension        Dim             ....  339

ORBITAL ENERGIES
----------------

  NO   OCC          E(Eh)            E(eV)
   0   2.0000     -20.562327      -559.5294
   1   2.0000     -20.544699      -559.0497
   2   2.0000     -11.279841      -306.9401
   3   2.0000     -11.279777      -306.9383
   4   2.0000     -11.274983      -306.8079
   5   2.0000     -11.237593      -305.7904
   6   2.0000     -11.235069      -305.7218
   7   2.0000     -11.228534      -305.5439
   8   2.0000     -11.225832      -305.4704
   9   2.0000      -1.390686       -37.8425
  10   2.0000      -1.350115       -36.7385
  11   2.0000      -1.158576       -31.5265
  12   2.0000      -1.039918       -28.2976
  13   2.0000      -0.941063       -25.6076
  14   2.0000      -0.904166       -24.6036
  15   2.0000      -0.848272       -23.0827
  16   2.0000      -0.776157       -21.1203
  17   2.0000      -0.731682       -19.9101
  18   2.0000      -0.719815       -19.5872
  19   2.0000      -0.685837       -18.6626
  20   2.0000      -0.630759       -17.1638
  21   2.0000      -0.625964       -17.0333
  22   2.0000      -0.619728       -16.8636
  23   2.0000      -0.598840       -16.2953
  24   2.0000      -0.571325       -15.5465
  25   2.0000      -0.567770       -15.4498
  26   2.0000      -0.507058       -13.7978
  27   2.0000      -0.493282       -13.4229
  28   2.0000      -0.483645       -13.1607
  29   2.0000      -0.471160       -12.8209
  30   2.0000      -0.449873       -12.2417
  31   2.0000      -0.420935       -11.4542
  32   2.0000      -0.405765       -11.0414
  33   2.0000      -0.395384       -10.7589
  34   0.0000       0.135279         3.6811
  35   0.0000       0.153213         4.1691
  36   0.0000       0.164349         4.4722
  37   0.0000       0.171766         4.6740
  38   0.0000       0.187397         5.0993

MULLIKEN ATOMIC CHARGES
-----------------------
   0 O :   -0.472675
   1 C :   -0.026580
   2 C :    0.053509
   3 C :   -0.354989
   4 C :   -0.074652
   5 C :   -0.068437
   6 O :   -0.366874
   7 C :    0.070198
   8 C :   -0.161467
   9 H :    0.335586
  10 H :    0.093564
  11 H :    0.125421
  12 H :    0.124570
  13 H :    0.128263
  14 H :    0.123125
  15 H :    0.105855
  16 H :    0.117926
  17 H :    0.112116
  18 H :    0.135540
Sum of atomic charges:   -0.0000000

LOEWDIN ATOMIC CHARGES
----------------------
   0 O :   -0.008876
   1 C :   -0.304101
   2 C :   -0.164525
   3 C :   -0.193205
   4 C :   -0.206200
   5 C :   -0.282954
   6 O :    0.152830
   7 C :   -0.241834
   8 C :   -0.135317
   9 H :    0.179624
  10 H :    0.141819
  11 H :    0.131708
  12 H :    0.135465
  13 H :    0.132278
  14 H :    0.146202
  15 H :    0.124458
  16 H :    0.128478
  17 H :    0.130566
  18 H :    0.133583

  Mayer bond orders larger than 0.1
B(  0-O ,  1-C ) :   1.0415 B(  0-O ,  2-C ) :  -0.1286 B(  0-O ,  9-H ) :   0.8114
B(  1-C ,  2-C ) :   0.8164 B(  1-C ,  7-C ) :   0.9290 B(  1-C , 10-H ) :   0.9489
B(  2-C ,  3-C ) :   0.8664 B(  2-C ,  8-C ) :   0.8731 B(  2-C , 11-H ) :   0.9112
B(  3-C ,  4-C ) :   0.9158 B(  3-C , 12-H ) :   0.9184 B(  3-C , 13-H ) :   0.9227
B(  4-C ,  5-C ) :   0.9419 B(  4-C ,  8-C ) :   0.8899 B(  4-C , 14-H ) :   0.9005
B(  5-C ,  6-O ) :   0.9130 B(  5-C , 15-H ) :   0.9338 B(  5-C , 16-H ) :   0.9224
B(  6-O ,  7-C ) :   0.8870 B(  7-C ,  8-C ) :   0.9648 B(  7-C , 17-H ) :   0.9364
B(  8-C , 18-H ) :   0.8943

MP2 TOTAL ENERGY:     -422.302822148 Eh
FINAL SINGLE POINT ENERGY      -422.302822147634

DIPOLE MOMENT
-------------
                                X             Y             Z
Electronic contribution:      3.00826       0.98952       0.50021
Nuclear contribution   :     -3.62240      -1.78102      -0.99948
                        -----------------------------------------
Total Dipole Moment    :     -0.61415      -0.79150      -0.49927
                        -----------------------------------------
Magnitude (a.u.)       :      1.11934
Magnitude (Debye)      :      2.84514

                             ****ORCA TERMINATED NORMALLY****
TOTAL RUN TIME: 0 days 0 hours 18 minutes 18 seconds 365 msec
