                         Program Version 3.0.3 - RELEASE   -
|  1> ! RI-MP2 RIJK def2-TZVP def2-TZVP/C def2-TZVP/JK TIGHTSCF
|  2> % maxcore 2000
|  3> % mp2 density relaxed end
|  4> *xyz 0 1
|  5>  O       -0.0257522847     1.4367855230     0.2432314941
|  6>  C        0.0417059787     0.0447498068    -0.0134295337
|  7>  C       -1.3166628255    -0.5536669953    -0.1906576119
|  8>  O       -2.0956296220    -0.7640550653     0.9996623214
|  9>  C       -1.8951494266    -1.8792635643     0.1308327329
| 10>  C       -2.9246636489    -1.7736639427    -1.0229378735
| 11>  C       -4.2117198904    -0.9715311465    -0.7222598943
| 12>  O       -3.5602995375     0.2821081901    -1.0595024220
| 13>  C       -2.3324076625    -0.3878109817    -1.3681199412
| 14>  H       -0.5977814043     1.5584723899     1.0093499924
| 15>  H        0.6239391534    -0.0658473046    -0.9346589178
| 16>  H        0.5680474272    -0.4989700402     0.7863502648
| 17>  H       -1.4452455859    -2.7672960852     0.5613784326
| 18>  H       -2.9567786995    -2.5976718902    -1.7324924382
| 19>  H       -5.0413159112    -1.1775145091    -1.4079684966
| 20>  H       -4.5628222206    -0.9863984137     0.3131768040
| 21>  H       -1.9020414299    -0.1142784510    -2.3347180531
| 22> *
| 23>
| 24>                          ****END OF INPUT****

CARTESIAN COORDINATES (ANGSTROEM)
---------------------------------
  O     -0.025752    1.436786    0.243231
  C      0.041706    0.044750   -0.013430
  C     -1.316663   -0.553667   -0.190658
  O     -2.095630   -0.764055    0.999662
  C     -1.895149   -1.879264    0.130833
  C     -2.924664   -1.773664   -1.022938
  C     -4.211720   -0.971531   -0.722260
  O     -3.560300    0.282108   -1.059502
  C     -2.332408   -0.387811   -1.368120
  H     -0.597781    1.558472    1.009350
  H      0.623939   -0.065847   -0.934659
  H      0.568047   -0.498970    0.786350
  H     -1.445246   -2.767296    0.561378
  H     -2.956779   -2.597672   -1.732492
  H     -5.041316   -1.177515   -1.407968
  H     -4.562822   -0.986398    0.313177
  H     -1.902041   -0.114278   -2.334718

 Total Charge           Charge          ....    0
 Multiplicity           Mult            ....    1
 Number of Electrons    NEL             ....   68
 Basis Dimension        Dim             ....  327

ORBITAL ENERGIES
----------------

  NO   OCC          E(Eh)            E(eV)
   0   2.0000     -20.582183      -560.0697
   1   2.0000     -20.561872      -559.5170
   2   2.0000     -20.552661      -559.2663
   3   2.0000     -11.304680      -307.6160
   4   2.0000     -11.298811      -307.4563
   5   2.0000     -11.296688      -307.3985
   6   2.0000     -11.291619      -307.2606
   7   2.0000     -11.283751      -307.0465
   8   2.0000     -11.249892      -306.1251
   9   2.0000      -1.441406       -39.2226
  10   2.0000      -1.376094       -37.4454
  11   2.0000      -1.365464       -37.1562
  12   2.0000      -1.078434       -29.3457
  13   2.0000      -1.001876       -27.2624
  14   2.0000      -0.941700       -25.6250
  15   2.0000      -0.876121       -23.8405
  16   2.0000      -0.820453       -22.3257
  17   2.0000      -0.743505       -20.2318
  18   2.0000      -0.740116       -20.1396
  19   2.0000      -0.687128       -18.6977
  20   2.0000      -0.675306       -18.3760
  21   2.0000      -0.652145       -17.7458
  22   2.0000      -0.624557       -16.9950
  23   2.0000      -0.606331       -16.4991
  24   2.0000      -0.586988       -15.9728
  25   2.0000      -0.574453       -15.6317
  26   2.0000      -0.528017       -14.3681
  27   2.0000      -0.520524       -14.1642
  28   2.0000      -0.507694       -13.8151
  29   2.0000      -0.480539       -13.0761
  30   2.0000      -0.467629       -12.7248
  31   2.0000      -0.438084       -11.9209
  32   2.0000      -0.406597       -11.0641
  33   2.0000      -0.402600       -10.9553
  34   0.0000       0.143970         3.9176
  35   0.0000       0.144731         3.9383
  36   0.0000       0.159546         4.3415
  37   0.0000       0.169036         4.5997
  38   0.0000       0.182654         4.9703

MULLIKEN ATOMIC CHARGES
-----------------------
   0 O :   -0.465187
   1 C :   -0.005650
   2 C :    0.038769
   3 O :   -0.324019
   4 C :   -0.055122
   5 C :   -0.113134
   6 C :   -0.027206
   7 O :   -0.331998
   8 C :    0.126360
   9 H :    0.328462
  10 H :    0.110802
  11 H :    0.113345
  12 H :    0.142734
  13 H :    0.133465
  14 H :    0.104878
  15 H :    0.108143
  16 H :    0.115360
Sum of atomic charges:   -0.0000000

LOEWDIN ATOMIC CHARGES
----------------------
   0 O :   -0.036697
   1 C :   -0.318091
   2 C :   -0.265517
   3 O :    0.203808
   4 C :   -0.203103
   5 C :   -0.179369
   6 C :   -0.240798
   7 O :    0.144077
   8 C :   -0.205450
   9 H :    0.182508
  10 H :    0.138070
  11 H :    0.129641
  12 H :    0.131778
  13 H :    0.141578
  14 H :    0.119067
  15 H :    0.123061
  16 H :    0.135435

  Mayer bond orders larger than 0.1
B(  0-O ,  1-C ) :   0.9264 B(  0-O ,  9-H ) :   0.8384 B(  1-C ,  2-C ) :   0.9343
B(  1-C , 10-H ) :   0.9233 B(  1-C , 11-H ) :   0.9246 B(  2-C ,  3-O ) :   0.8408
B(  2-C ,  4-C ) :   0.8682 B(  2-C ,  8-C ) :   0.8140 B(  3-O ,  4-C ) :   0.9377
B(  4-C ,  5-C ) :   0.8953 B(  4-C , 12-H ) :   0.9120 B(  5-C ,  6-C ) :   0.9730
B(  5-C ,  8-C ) :   0.9690 B(  5-C , 13-H ) :   0.9122 B(  6-C ,  7-O ) :   0.9375
B(  6-C , 14-H ) :   0.9174 B(  6-C , 15-H ) :   0.9005 B(  7-O ,  8-C ) :   0.9591
B(  8-C , 16-H ) :   0.9329

MP2 TOTAL ENERGY:     -458.144474969 Eh
FINAL SINGLE POINT ENERGY      -458.144474968986

DIPOLE MOMENT
-------------
                                X             Y             Z
Electronic contribution:     -0.60972       1.47969       0.99519
Nuclear contribution   :      0.75964      -2.82193      -1.20119
                        -----------------------------------------
Total Dipole Moment    :      0.14992      -1.34225      -0.20600
                        -----------------------------------------
Magnitude (a.u.)       :      1.36621
Magnitude (Debye)      :      3.47264

                             ****ORCA TERMINATED NORMALLY****
TOTAL RUN TIME: 0 days 0 hours 15 minutes 47 seconds 202 msec
