                         Program Version 3.0.3 - RELEASE   -
|  1> ! RI-MP2 RIJK def2-TZVP def2-TZVP/C def2-TZVP/JK TIGHTSCF
|  2> % maxcore 2000
|  3> % mp2 density relaxed end
|  4> *xyz 0 1
|  5>  C        0.0260694817     1.4961747445     0.0273642269
|  6>  O       -0.0547535864     0.0725856368     0.0591629029
|  7>  C        0.6376191804    -0.5334515042     1.1202953508
|  8>  C        0.7196846207    -2.0805331681     0.8912860050
|  9>  N        2.1828621414    -1.9479158220     0.9214839787
| 10>  C        2.1860129452    -0.5635945131     0.9481428251
| 11>  N        3.0309528162     0.3692115980     0.8380052808
| 12>  C        0.1704084083    -0.1241060606     2.4403845108
| 13>  C       -0.2197769522     0.2061959037     3.5280997616
| 14>  H        1.0659390505     1.8304090837    -0.0425304715
| 15>  H       -0.5277632591     1.8074769303    -0.8606171529
| 16>  H       -0.4376854241     1.9375053802     0.9181312313
| 17>  H        0.3066561482    -2.7084003022     1.6834864743
| 18>  H        0.2984176451    -2.3487816783    -0.0816621299
| 19>  H        2.8597065254    -2.5515709628     0.4784103956
| 20>  H        3.9709659516     0.0146153885     0.6502025822
| 21>  H       -0.5558473828     0.5046536755     4.4905892283
| 22> *
| 23>
| 24>                          ****END OF INPUT****

CARTESIAN COORDINATES (ANGSTROEM)
---------------------------------
  C      0.026069    1.496175    0.027364
  O     -0.054754    0.072586    0.059163
  C      0.637619   -0.533452    1.120295
  C      0.719685   -2.080533    0.891286
  N      2.182862   -1.947916    0.921484
  C      2.186013   -0.563595    0.948143
  N      3.030953    0.369212    0.838005
  C      0.170408   -0.124106    2.440385
  C     -0.219777    0.206196    3.528100
  H      1.065939    1.830409   -0.042530
  H     -0.527763    1.807477   -0.860617
  H     -0.437685    1.937505    0.918131
  H      0.306656   -2.708400    1.683486
  H      0.298418   -2.348782   -0.081662
  H      2.859707   -2.551571    0.478410
  H      3.970966    0.014615    0.650203
  H     -0.555847    0.504654    4.490589

 Total Charge           Charge          ....    0
 Multiplicity           Mult            ....    1
 Number of Electrons    NEL             ....   66
 Basis Dimension        Dim             ....  327

ORBITAL ENERGIES
----------------

  NO   OCC          E(Eh)            E(eV)
   0   2.0000     -20.570661      -559.7562
   1   2.0000     -15.585238      -424.0959
   2   2.0000     -15.530958      -422.6188
   3   2.0000     -11.329677      -308.2962
   4   2.0000     -11.322172      -308.0920
   5   2.0000     -11.280370      -306.9545
   6   2.0000     -11.263140      -306.4856
   7   2.0000     -11.241143      -305.8870
   8   2.0000     -11.235649      -305.7375
   9   2.0000      -1.394461       -37.9452
  10   2.0000      -1.293561       -35.1996
  11   2.0000      -1.173146       -31.9229
  12   2.0000      -1.061417       -28.8826
  13   2.0000      -0.994319       -27.0568
  14   2.0000      -0.912841       -24.8397
  15   2.0000      -0.895605       -24.3707
  16   2.0000      -0.814442       -22.1621
  17   2.0000      -0.725913       -19.7531
  18   2.0000      -0.709559       -19.3081
  19   2.0000      -0.693431       -18.8692
  20   2.0000      -0.661975       -18.0133
  21   2.0000      -0.633387       -17.2353
  22   2.0000      -0.613609       -16.6971
  23   2.0000      -0.606641       -16.5075
  24   2.0000      -0.549025       -14.9397
  25   2.0000      -0.523891       -14.2558
  26   2.0000      -0.514368       -13.9967
  27   2.0000      -0.484718       -13.1898
  28   2.0000      -0.463545       -12.6137
  29   2.0000      -0.420724       -11.4485
  30   2.0000      -0.403088       -10.9686
  31   2.0000      -0.385965       -10.5026
  32   2.0000      -0.370866       -10.0918
  33   0.0000       0.128947         3.5088
  34   0.0000       0.147267         4.0073
  35   0.0000       0.157421         4.2836
  36   0.0000       0.161361         4.3908
  37   0.0000       0.175080         4.7642

MULLIKEN ATOMIC CHARGES
-----------------------
   0 C :   -0.237641
   1 O :   -0.310773
   2 C :    0.325057
   3 C :   -0.127103
   4 N :   -0.337850
   5 C :    0.027716
   6 N :   -0.397719
   7 C :   -0.090333
   8 C :   -0.165159
   9 H :    0.155607
  10 H :    0.134751
  11 H :    0.126542
  12 H :    0.129274
  13 H :    0.132608
  14 H :    0.233123
  15 H :    0.208555
  16 H :    0.193346
Sum of atomic charges:    0.0000000

LOEWDIN ATOMIC CHARGES
----------------------
   0 C :   -0.326387
   1 O :    0.192901
   2 C :   -0.299680
   3 C :   -0.182103
   4 N :    0.095493
   5 C :   -0.331869
   6 N :   -0.073351
   7 C :   -0.059306
   8 C :   -0.071636
   9 H :    0.114206
  10 H :    0.112730
  11 H :    0.109598
  12 H :    0.127422
  13 H :    0.131114
  14 H :    0.168207
  15 H :    0.163533
  16 H :    0.129128

  Mayer bond orders larger than 0.1
B(  0-C ,  1-O ) :   0.8768 B(  0-C ,  9-H ) :   0.9256 B(  0-C , 10-H ) :   0.9360
B(  0-C , 11-H ) :   0.9349 B(  1-O ,  2-C ) :   1.0165 B(  2-C ,  3-C ) :   0.8292
B(  2-C ,  4-N ) :  -0.1002 B(  2-C ,  5-C ) :   0.8233 B(  2-C ,  7-C ) :   1.0886
B(  3-C ,  4-N ) :   0.9399 B(  3-C , 12-H ) :   0.9198 B(  3-C , 13-H ) :   0.9260
B(  4-N ,  5-C ) :   1.1587 B(  4-N , 14-H ) :   0.8651 B(  5-C ,  6-N ) :   2.0425
B(  6-N , 15-H ) :   0.8499 B(  7-C ,  8-C ) :   2.6168 B(  8-C , 16-H ) :   0.8915

MP2 TOTAL ENERGY:     -417.226356397 Eh
FINAL SINGLE POINT ENERGY      -417.226356396622

DIPOLE MOMENT
-------------
                                X             Y             Z
Electronic contribution:      0.88583      -1.92457       1.64970
Nuclear contribution   :     -0.79226       1.10087      -1.72133
                        -----------------------------------------
Total Dipole Moment    :      0.09357      -0.82369      -0.07163
                        -----------------------------------------
Magnitude (a.u.)       :      0.83208
Magnitude (Debye)      :      2.11498

                             ****ORCA TERMINATED NORMALLY****
TOTAL RUN TIME: 0 days 0 hours 16 minutes 40 seconds 453 msec
