                         Program Version 3.0.3 - RELEASE   -
|  1> ! RI-MP2 RIJK def2-TZVP def2-TZVP/C def2-TZVP/JK TIGHTSCF
|  2> % maxcore 2000
|  3> % mp2 density relaxed end
|  4> *xyz 0 1
|  5>  C        0.0399383590     1.5270807373    -0.1130533749
|  6>  C       -0.0269237213     0.0145672972     0.0762859887
|  7>  C        0.7950663494    -0.4783801939     1.2456486167
|  8>  O        1.4469226771     0.2389454931     1.9698158910
|  9>  C        0.7773428791    -2.0074261183     1.5026716231
| 10>  C        1.5996130115    -2.4922904641     2.6707161581
| 11>  O        0.1274117798    -2.7284802452     0.7818266694
| 12>  H        1.0682681471     1.8561804571    -0.2847722122
| 13>  H       -0.5682516228     1.8344027785    -0.9678203558
| 14>  H       -0.3235221902     2.0504169990     0.7753564157
| 15>  H       -1.0562496458    -0.3369842778     0.2248998807
| 16>  H        0.3108121059    -0.5277633492    -0.8164635763
| 17>  H        1.2636112884    -2.0071357363     3.5926636838
| 18>  H        1.5144197262    -3.5756269777     2.7566718478
| 19>  H        2.6461672766    -2.1993833596     2.5396071244
| 20> *
| 21>
| 22>                          ****END OF INPUT****

CARTESIAN COORDINATES (ANGSTROEM)
---------------------------------
  C      0.039938    1.527081   -0.113053
  C     -0.026924    0.014567    0.076286
  C      0.795066   -0.478380    1.245649
  O      1.446923    0.238945    1.969816
  C      0.777343   -2.007426    1.502672
  C      1.599613   -2.492290    2.670716
  O      0.127412   -2.728480    0.781827
  H      1.068268    1.856180   -0.284772
  H     -0.568252    1.834403   -0.967820
  H     -0.323522    2.050417    0.775356
  H     -1.056250   -0.336984    0.224900
  H      0.310812   -0.527763   -0.816464
  H      1.263611   -2.007136    3.592664
  H      1.514420   -3.575627    2.756672
  H      2.646167   -2.199383    2.539607

 Total Charge           Charge          ....    0
 Multiplicity           Mult            ....    1
 Number of Electrons    NEL             ....   54
 Basis Dimension        Dim             ....  265

ORBITAL ENERGIES
----------------

  NO   OCC          E(Eh)            E(eV)
   0   2.0000     -20.576246      -559.9081
   1   2.0000     -20.575698      -559.8932
   2   2.0000     -11.350911      -308.8740
   3   2.0000     -11.347837      -308.7903
   4   2.0000     -11.245398      -306.0028
   5   2.0000     -11.241411      -305.8943
   6   2.0000     -11.224047      -305.4219
   7   2.0000      -1.424533       -38.7635
   8   2.0000      -1.406210       -38.2649
   9   2.0000      -1.063481       -28.9388
  10   2.0000      -1.026856       -27.9422
  11   2.0000      -0.927736       -25.2450
  12   2.0000      -0.834284       -22.7020
  13   2.0000      -0.726148       -19.7595
  14   2.0000      -0.699158       -19.0251
  15   2.0000      -0.663323       -18.0499
  16   2.0000      -0.643990       -17.5239
  17   2.0000      -0.621132       -16.9019
  18   2.0000      -0.606337       -16.4993
  19   2.0000      -0.574631       -15.6365
  20   2.0000      -0.541042       -14.7225
  21   2.0000      -0.539386       -14.6774
  22   2.0000      -0.522714       -14.2238
  23   2.0000      -0.510972       -13.9042
  24   2.0000      -0.504229       -13.7208
  25   2.0000      -0.496021       -13.4974
  26   2.0000      -0.405134       -11.0242
  27   0.0000       0.068819         1.8727
  28   0.0000       0.128099         3.4858
  29   0.0000       0.152240         4.1427
  30   0.0000       0.181869         4.9489
  31   0.0000       0.196428         5.3451

MULLIKEN ATOMIC CHARGES
-----------------------
   0 C :   -0.359597
   1 C :   -0.209191
   2 C :    0.157253
   3 O :   -0.278524
   4 C :    0.185001
   5 C :   -0.373482
   6 O :   -0.270573
   7 H :    0.132139
   8 H :    0.137278
   9 H :    0.132136
  10 H :    0.142982
  11 H :    0.142971
  12 H :    0.153164
  13 H :    0.155263
  14 H :    0.153180
Sum of atomic charges:    0.0000000

LOEWDIN ATOMIC CHARGES
----------------------
   0 C :   -0.309284
   1 C :   -0.267581
   2 C :   -0.295313
   3 O :    0.176785
   4 C :   -0.316657
   5 C :   -0.276015
   6 O :    0.171610
   7 H :    0.126633
   8 H :    0.123205
   9 H :    0.126632
  10 H :    0.158654
  11 H :    0.158655
  12 H :    0.144426
  13 H :    0.133830
  14 H :    0.144421

  Mayer bond orders larger than 0.1
B(  0-C ,  1-C ) :   0.9294 B(  0-C ,  7-H ) :   0.9344 B(  0-C ,  8-H ) :   0.9413
B(  0-C ,  9-H ) :   0.9344 B(  1-C ,  2-C ) :   0.9361 B(  1-C , 10-H ) :   0.9038
B(  1-C , 11-H ) :   0.9037 B(  2-C ,  3-O ) :   1.9318 B(  2-C ,  4-C ) :   0.8610
B(  4-C ,  5-C ) :   0.9462 B(  4-C ,  6-O ) :   1.9602 B(  5-C , 12-H ) :   0.9072
B(  5-C , 13-H ) :   0.9371 B(  5-C , 14-H ) :   0.9072

MP2 TOTAL ENERGY:     -345.119833522 Eh
FINAL SINGLE POINT ENERGY      -345.119833521857

DIPOLE MOMENT
-------------
                                X             Y             Z
Electronic contribution:      0.56692      -3.50136       1.38624
Nuclear contribution   :     -0.56483       3.56152      -1.39460
                        -----------------------------------------
Total Dipole Moment    :      0.00210       0.06016      -0.00836
                        -----------------------------------------
Magnitude (a.u.)       :      0.06078
Magnitude (Debye)      :      0.15449

                             ****ORCA TERMINATED NORMALLY****
TOTAL RUN TIME: 0 days 0 hours 6 minutes 59 seconds 801 msec
