                         Program Version 3.0.3 - RELEASE   -
|  1> ! RI-MP2 RIJK def2-TZVP def2-TZVP/C def2-TZVP/JK TIGHTSCF
|  2> % maxcore 2000
|  3> % mp2 density relaxed end
|  4> *xyz 0 1
|  5>  C       -0.1151807853     1.4241896875     0.0610164118
|  6>  O       -0.0328412111     0.0032213492     0.0417038551
|  7>  C        0.7314155495    -0.5393409811     1.0497974179
|  8>  C        0.7025397281    -2.0774024281     0.9506343321
|  9>  N        2.0232895373    -2.4646958457     0.4394971122
| 10>  C        2.7040121090    -1.3930882556     0.4319538438
| 11>  O        2.1477182973    -0.2289340101     0.8536237470
| 12>  C        4.0747139721    -1.3051989171     0.0115206297
| 13>  N        5.1777797066    -1.2243976980    -0.3211532364
| 14>  H        0.8625628046     1.8810006996    -0.1248182009
| 15>  H       -0.8074878378     1.7081299828    -0.7327700204
| 16>  H       -0.5022341122     1.7820060553     1.0253661704
| 17>  H        0.4723137956    -0.1171040063     2.0284716307
| 18>  H        0.5329826126    -2.5573813400     1.9194762088
| 19>  H       -0.0850879864    -2.3956820224     0.2632855782
| 20> *
| 21>
| 22>                          ****END OF INPUT****

CARTESIAN COORDINATES (ANGSTROEM)
---------------------------------
  C     -0.115181    1.424190    0.061016
  O     -0.032841    0.003221    0.041704
  C      0.731416   -0.539341    1.049797
  C      0.702540   -2.077402    0.950634
  N      2.023290   -2.464696    0.439497
  C      2.704012   -1.393088    0.431954
  O      2.147718   -0.228934    0.853624
  C      4.074714   -1.305199    0.011521
  N      5.177780   -1.224398   -0.321153
  H      0.862563    1.881001   -0.124818
  H     -0.807488    1.708130   -0.732770
  H     -0.502234    1.782006    1.025366
  H      0.472314   -0.117104    2.028472
  H      0.532983   -2.557381    1.919476
  H     -0.085088   -2.395682    0.263286

 Total Charge           Charge          ....    0
 Multiplicity           Mult            ....    1
 Number of Electrons    NEL             ....   66
 Basis Dimension        Dim             ....  315

ORBITAL ENERGIES
----------------

  NO   OCC          E(Eh)            E(eV)
   0   2.0000     -20.626907      -561.2867
   1   2.0000     -20.595875      -560.4423
   2   2.0000     -15.603544      -424.5940
   3   2.0000     -15.593765      -424.3279
   4   2.0000     -11.391623      -309.9818
   5   2.0000     -11.374761      -309.5230
   6   2.0000     -11.298163      -307.4386
   7   2.0000     -11.295136      -307.3563
   8   2.0000     -11.287746      -307.1552
   9   2.0000      -1.487288       -40.4712
  10   2.0000      -1.408805       -38.3355
  11   2.0000      -1.258880       -34.2559
  12   2.0000      -1.238281       -33.6953
  13   2.0000      -1.066389       -29.0179
  14   2.0000      -0.963964       -26.2308
  15   2.0000      -0.899908       -24.4877
  16   2.0000      -0.873703       -23.7747
  17   2.0000      -0.765874       -20.8405
  18   2.0000      -0.737007       -20.0550
  19   2.0000      -0.705817       -19.2062
  20   2.0000      -0.657519       -17.8920
  21   2.0000      -0.635369       -17.2893
  22   2.0000      -0.629486       -17.1292
  23   2.0000      -0.602575       -16.3969
  24   2.0000      -0.591489       -16.0952
  25   2.0000      -0.581056       -15.8113
  26   2.0000      -0.551162       -14.9979
  27   2.0000      -0.524642       -14.2762
  28   2.0000      -0.501868       -13.6565
  29   2.0000      -0.497485       -13.5373
  30   2.0000      -0.475553       -12.9404
  31   2.0000      -0.471990       -12.8435
  32   2.0000      -0.414079       -11.2676
  33   0.0000       0.084146         2.2897
  34   0.0000       0.132053         3.5933
  35   0.0000       0.150708         4.1010
  36   0.0000       0.162081         4.4105
  37   0.0000       0.170815         4.6481

MULLIKEN ATOMIC CHARGES
-----------------------
   0 C :   -0.231143
   1 O :   -0.285078
   2 C :    0.157177
   3 C :   -0.102919
   4 N :   -0.237803
   5 C :    0.333350
   6 O :   -0.266907
   7 C :   -0.135202
   8 N :   -0.036682
   9 H :    0.147871
  10 H :    0.150713
  11 H :    0.118150
  12 H :    0.104284
  13 H :    0.134211
  14 H :    0.149975
Sum of atomic charges:    0.0000000

LOEWDIN ATOMIC CHARGES
----------------------
   0 C :   -0.330939
   1 O :    0.180679
   2 C :   -0.363492
   3 C :   -0.242402
   4 N :    0.131952
   5 C :   -0.379799
   6 O :    0.258511
   7 C :   -0.119853
   8 N :    0.107735
   9 H :    0.111087
  10 H :    0.117873
  11 H :    0.106480
  12 H :    0.131490
  13 H :    0.141881
  14 H :    0.148799

  Mayer bond orders larger than 0.1
B(  0-C ,  1-O ) :   0.8719 B(  0-C ,  9-H ) :   0.9355 B(  0-C , 10-H ) :   0.9369
B(  0-C , 11-H ) :   0.9324 B(  1-O ,  2-C ) :   1.0624 B(  2-C ,  3-C ) :   0.9300
B(  2-C ,  6-O ) :   0.8660 B(  2-C , 12-H ) :   0.9280 B(  3-C ,  4-N ) :   0.9201
B(  3-C , 13-H ) :   0.9178 B(  3-C , 14-H ) :   0.9159 B(  4-N ,  5-C ) :   1.7866
B(  5-C ,  6-O ) :   1.0978 B(  5-C ,  7-C ) :   0.9026 B(  7-C ,  8-N ) :   2.8183

MP2 TOTAL ENERGY:     -453.218945721 Eh
FINAL SINGLE POINT ENERGY      -453.218945721174

DIPOLE MOMENT
-------------
                                X             Y             Z
Electronic contribution:      8.16953      -4.07530      -1.05772
Nuclear contribution   :     -9.93476       4.83138       1.85267
                        -----------------------------------------
Total Dipole Moment    :     -1.76523       0.75608       0.79495
                        -----------------------------------------
Magnitude (a.u.)       :      2.07837
Magnitude (Debye)      :      5.28280

                             ****ORCA TERMINATED NORMALLY****
TOTAL RUN TIME: 0 days 0 hours 24 minutes 10 seconds 208 msec
