                         Program Version 3.0.3 - RELEASE   -
|  1> ! RI-MP2 RIJK def2-TZVP def2-TZVP/C def2-TZVP/JK TIGHTSCF
|  2> % maxcore 2000
|  3> % mp2 density relaxed end
|  4> *xyz 0 1
|  5>  O       -0.0312574906     0.8912752526     1.5109230539
|  6>  C       -0.0138292362     1.4153658040     0.4134413204
|  7>  C       -1.3046200643     1.5818155494    -0.3806371559
|  8>  C       -1.4215099849     2.9133521819    -1.1291894781
|  9>  N       -0.7830934919     2.8342692552    -2.4427254778
| 10>  C        0.0762923439     3.9428176605    -2.8404116583
| 11>  C        0.6536420719     2.6005734105    -2.5087700357
| 12>  C        1.5498074374     2.4000858285    -1.3448199018
| 13>  C        1.2804318677     1.8960255990    -0.1326849373
| 14>  H       -1.3807732741     0.7646631905    -1.1096044244
| 15>  H       -2.1215678346     1.4542772021     0.3335420066
| 16>  H       -2.4772038405     3.1489075745    -1.3005595501
| 17>  H       -1.0103992912     3.7258392267    -0.5097526124
| 18>  H        0.0030436558     4.2684778470    -3.8745055237
| 19>  H        0.2359952008     4.7400562422    -2.1158597446
| 20>  H        0.9463397542     1.9838265103    -3.3608616963
| 21>  H        2.5896580763     2.6493090698    -1.5579516550
| 22>  H        2.0921867903     1.7822768355     0.5806301804
| 23> *
| 24>
| 25>                          ****END OF INPUT****

CARTESIAN COORDINATES (ANGSTROEM)
---------------------------------
  O     -0.031257    0.891275    1.510923
  C     -0.013829    1.415366    0.413441
  C     -1.304620    1.581816   -0.380637
  C     -1.421510    2.913352   -1.129189
  N     -0.783093    2.834269   -2.442725
  C      0.076292    3.942818   -2.840412
  C      0.653642    2.600573   -2.508770
  C      1.549807    2.400086   -1.344820
  C      1.280432    1.896026   -0.132685
  H     -1.380773    0.764663   -1.109604
  H     -2.121568    1.454277    0.333542
  H     -2.477204    3.148908   -1.300560
  H     -1.010399    3.725839   -0.509753
  H      0.003044    4.268478   -3.874506
  H      0.235995    4.740056   -2.115860
  H      0.946340    1.983827   -3.360862
  H      2.589658    2.649309   -1.557952
  H      2.092187    1.782277    0.580630

 Total Charge           Charge          ....    0
 Multiplicity           Mult            ....    1
 Number of Electrons    NEL             ....   66
 Basis Dimension        Dim             ....  333

ORBITAL ENERGIES
----------------

  NO   OCC          E(Eh)            E(eV)
   0   2.0000     -20.541962      -558.9752
   1   2.0000     -15.574920      -423.8151
   2   2.0000     -11.330676      -308.3234
   3   2.0000     -11.281813      -306.9937
   4   2.0000     -11.271793      -306.7211
   5   2.0000     -11.271138      -306.7033
   6   2.0000     -11.268597      -306.6341
   7   2.0000     -11.245114      -305.9951
   8   2.0000     -11.237696      -305.7932
   9   2.0000      -1.383916       -37.6583
  10   2.0000      -1.294532       -35.2260
  11   2.0000      -1.088780       -29.6272
  12   2.0000      -1.070743       -29.1364
  13   2.0000      -0.938365       -25.5342
  14   2.0000      -0.911699       -24.8086
  15   2.0000      -0.849498       -23.1160
  16   2.0000      -0.785035       -21.3619
  17   2.0000      -0.732551       -19.9337
  18   2.0000      -0.690065       -18.7776
  19   2.0000      -0.677397       -18.4329
  20   2.0000      -0.656541       -17.8654
  21   2.0000      -0.612725       -16.6731
  22   2.0000      -0.600546       -16.3417
  23   2.0000      -0.588574       -16.0159
  24   2.0000      -0.574881       -15.6433
  25   2.0000      -0.545008       -14.8304
  26   2.0000      -0.529949       -14.4206
  27   2.0000      -0.504900       -13.7390
  28   2.0000      -0.476106       -12.9555
  29   2.0000      -0.464903       -12.6506
  30   2.0000      -0.415863       -11.3162
  31   2.0000      -0.410293       -11.1646
  32   2.0000      -0.362849        -9.8736
  33   0.0000       0.084597         2.3020
  34   0.0000       0.142154         3.8682
  35   0.0000       0.155417         4.2291
  36   0.0000       0.159208         4.3323
  37   0.0000       0.171145         4.6571

MULLIKEN ATOMIC CHARGES
-----------------------
   0 O :   -0.285972
   1 C :    0.196351
   2 C :   -0.213216
   3 C :   -0.147066
   4 N :   -0.215624
   5 C :   -0.188758
   6 C :   -0.017299
   7 C :   -0.115301
   8 C :   -0.228596
   9 H :    0.139068
  10 H :    0.144119
  11 H :    0.132925
  12 H :    0.123628
  13 H :    0.131657
  14 H :    0.130725
  15 H :    0.138730
  16 H :    0.137377
  17 H :    0.137249
Sum of atomic charges:    0.0000000

LOEWDIN ATOMIC CHARGES
----------------------
   0 O :    0.148520
   1 C :   -0.322594
   2 C :   -0.223990
   3 C :   -0.279042
   4 N :    0.116315
   5 C :   -0.230425
   6 C :   -0.251001
   7 C :   -0.123046
   8 C :   -0.138625
   9 H :    0.160149
  10 H :    0.152674
  11 H :    0.137661
  12 H :    0.130204
  13 H :    0.126025
  14 H :    0.126646
  15 H :    0.155618
  16 H :    0.157301
  17 H :    0.157609

  Mayer bond orders larger than 0.1
B(  0-O ,  1-C ) :   1.9487 B(  1-C ,  2-C ) :   0.9356 B(  1-C ,  8-C ) :   0.9954
B(  2-C ,  3-C ) :   0.8762 B(  2-C ,  9-H ) :   0.9011 B(  2-C , 10-H ) :   0.9223
B(  3-C ,  4-N ) :   0.8785 B(  3-C , 11-H ) :   0.9215 B(  3-C , 12-H ) :   0.9300
B(  4-N ,  5-C ) :   0.9014 B(  4-N ,  6-C ) :   0.9298 B(  5-C ,  6-C ) :   0.9086
B(  5-C , 13-H ) :   0.9207 B(  5-C , 14-H ) :   0.9201 B(  6-C ,  7-C ) :   0.9369
B(  6-C , 15-H ) :   0.9163 B(  7-C ,  8-C ) :   1.6968 B(  7-C , 16-H ) :   0.9158
B(  8-C , 17-H ) :   0.9229

MP2 TOTAL ENERGY:     -401.240254759 Eh
FINAL SINGLE POINT ENERGY      -401.240254759383

DIPOLE MOMENT
-------------
                                X             Y             Z
Electronic contribution:      1.17231      -3.00570       3.09604
Nuclear contribution   :     -0.86916       3.79731      -3.98257
                        -----------------------------------------
Total Dipole Moment    :      0.30315       0.79162      -0.88653
                        -----------------------------------------
Magnitude (a.u.)       :      1.22658
Magnitude (Debye)      :      3.11771

                             ****ORCA TERMINATED NORMALLY****
TOTAL RUN TIME: 0 days 0 hours 18 minutes 37 seconds 834 msec
