                         Program Version 3.0.3 - RELEASE   -
|  1> ! RI-MP2 RIJK def2-TZVP def2-TZVP/C def2-TZVP/JK TIGHTSCF
|  2> % maxcore 2000
|  3> % mp2 density relaxed end
|  4> *xyz 0 1
|  5>  C        0.0483166035     1.5335287372     0.0831982632
|  6>  C        0.1169613681     0.0159671832     0.0666348586
|  7>  O        0.9449113927    -0.4646942739    -1.0268326313
|  8>  C        1.8215778472    -1.3303635390    -0.3531428100
|  9>  C        2.3284832286    -0.4435123605     0.9010766410
| 10>  C        0.8142985328    -0.6529604749     1.2845672113
| 11>  C       -0.2485568400    -1.3279557910     2.1969916666
| 12>  O       -0.3661039522    -2.4123414068     1.1959176578
| 13>  C        1.0031266744    -2.0499360248     0.7884221585
| 14>  H        1.0243255043     1.9913384849     0.2632474079
| 15>  H       -0.3261555181     1.9001296137    -0.8770611755
| 16>  H       -0.6414785931     1.8696356970     0.8650347742
| 17>  H       -0.8870314602    -0.3978990889    -0.0697749359
| 18>  H        2.4963632501    -1.8253476456    -1.0520922777
| 19>  H        3.0358244074    -0.9442212917     1.5600162214
| 20>  H        2.6787734245     0.5540268830     0.6322875623
| 21>  H        0.1331122612    -1.7195843726     3.1461093370
| 22>  H       -1.2017983313    -0.8133810690     2.3462624564
| 23>  H        1.6929484500    -2.6529669805     1.3897572041
| 24> *
| 25>
| 26>                          ****END OF INPUT****

CARTESIAN COORDINATES (ANGSTROEM)
---------------------------------
  C      0.048317    1.533529    0.083198
  C      0.116961    0.015967    0.066635
  O      0.944911   -0.464694   -1.026833
  C      1.821578   -1.330364   -0.353143
  C      2.328483   -0.443512    0.901077
  C      0.814299   -0.652960    1.284567
  C     -0.248557   -1.327956    2.196992
  O     -0.366104   -2.412341    1.195918
  C      1.003127   -2.049936    0.788422
  H      1.024326    1.991338    0.263247
  H     -0.326156    1.900130   -0.877061
  H     -0.641479    1.869636    0.865035
  H     -0.887031   -0.397899   -0.069775
  H      2.496363   -1.825348   -1.052092
  H      3.035824   -0.944221    1.560016
  H      2.678773    0.554027    0.632288
  H      0.133112   -1.719584    3.146109
  H     -1.201798   -0.813381    2.346262
  H      1.692948   -2.652967    1.389757

 Total Charge           Charge          ....    0
 Multiplicity           Mult            ....    1
 Number of Electrons    NEL             ....   68
 Basis Dimension        Dim             ....  339

ORBITAL ENERGIES
----------------

  NO   OCC          E(Eh)            E(eV)
   0   2.0000     -20.559434      -559.4506
   1   2.0000     -20.556630      -559.3743
   2   2.0000     -11.310570      -307.7763
   3   2.0000     -11.302975      -307.5696
   4   2.0000     -11.284127      -307.0567
   5   2.0000     -11.280683      -306.9630
   6   2.0000     -11.256170      -306.2959
   7   2.0000     -11.243721      -305.9572
   8   2.0000     -11.218689      -305.2761
   9   2.0000      -1.403487       -38.1908
  10   2.0000      -1.364325       -37.1252
  11   2.0000      -1.124001       -30.5856
  12   2.0000      -1.036626       -28.2080
  13   2.0000      -0.951314       -25.8866
  14   2.0000      -0.896633       -24.3986
  15   2.0000      -0.873645       -23.7731
  16   2.0000      -0.804306       -21.8863
  17   2.0000      -0.751896       -20.4601
  18   2.0000      -0.698603       -19.0099
  19   2.0000      -0.663072       -18.0431
  20   2.0000      -0.630183       -17.1481
  21   2.0000      -0.616758       -16.7828
  22   2.0000      -0.612866       -16.6769
  23   2.0000      -0.581634       -15.8271
  24   2.0000      -0.566212       -15.4074
  25   2.0000      -0.543857       -14.7991
  26   2.0000      -0.535312       -14.5666
  27   2.0000      -0.519678       -14.1412
  28   2.0000      -0.503149       -13.6914
  29   2.0000      -0.479704       -13.0534
  30   2.0000      -0.453579       -12.3425
  31   2.0000      -0.442307       -12.0358
  32   2.0000      -0.402752       -10.9594
  33   2.0000      -0.376198       -10.2369
  34   0.0000       0.132357         3.6016
  35   0.0000       0.148761         4.0480
  36   0.0000       0.162908         4.4329
  37   0.0000       0.168674         4.5899
  38   0.0000       0.192352         5.2342

MULLIKEN ATOMIC CHARGES
-----------------------
   0 C :   -0.392611
   1 C :    0.019141
   2 O :   -0.315388
   3 C :    0.053764
   4 C :   -0.257685
   5 C :    0.007617
   6 C :   -0.054762
   7 O :   -0.325872
   8 C :    0.019595
   9 H :    0.121470
  10 H :    0.147555
  11 H :    0.124888
  12 H :    0.119197
  13 H :    0.135653
  14 H :    0.136127
  15 H :    0.128724
  16 H :    0.109572
  17 H :    0.122621
  18 H :    0.100394
Sum of atomic charges:    0.0000000

LOEWDIN ATOMIC CHARGES
----------------------
   0 C :   -0.288096
   1 C :   -0.262433
   2 O :    0.188830
   3 C :   -0.246704
   4 C :   -0.168308
   5 C :   -0.208708
   6 C :   -0.217838
   7 O :    0.104170
   8 C :   -0.225570
   9 H :    0.122601
  10 H :    0.130658
  11 H :    0.128182
  12 H :    0.150450
  13 H :    0.129258
  14 H :    0.136697
  15 H :    0.129426
  16 H :    0.125453
  17 H :    0.123442
  18 H :    0.148488

  Mayer bond orders larger than 0.1
B(  0-C ,  1-C ) :   0.9132 B(  0-C ,  9-H ) :   0.9346 B(  0-C , 10-H ) :   0.9389
B(  0-C , 11-H ) :   0.9329 B(  1-C ,  2-O ) :   0.8670 B(  1-C ,  5-C ) :   0.8786
B(  1-C , 12-H ) :   0.9153 B(  2-O ,  3-C ) :   0.9776 B(  3-C ,  4-C ) :   0.8663
B(  3-C ,  8-C ) :   0.8623 B(  3-C , 13-H ) :   0.9153 B(  4-C ,  5-C ) :   0.9055
B(  4-C , 14-H ) :   0.9179 B(  4-C , 15-H ) :   0.9137 B(  5-C ,  6-C ) :   0.9114
B(  5-C ,  8-C ) :   0.8873 B(  6-C ,  7-O ) :   0.9015 B(  6-C , 16-H ) :   0.9113
B(  6-C , 17-H ) :   0.9085 B(  7-O ,  8-C ) :   0.9275 B(  8-C , 18-H ) :   0.9603

MP2 TOTAL ENERGY:     -422.205730699 Eh
FINAL SINGLE POINT ENERGY      -422.205730698768

DIPOLE MOMENT
-------------
                                X             Y             Z
Electronic contribution:     -0.43150      -4.99847      -1.71081
Nuclear contribution   :      0.95329       5.44520       2.42909
                        -----------------------------------------
Total Dipole Moment    :      0.52179       0.44672       0.71828
                        -----------------------------------------
Magnitude (a.u.)       :      0.99386
Magnitude (Debye)      :      2.52619

                             ****ORCA TERMINATED NORMALLY****
TOTAL RUN TIME: 0 days 0 hours 19 minutes 32 seconds 723 msec
