                         Program Version 3.0.3 - RELEASE   -
|  1> ! RI-MP2 RIJK def2-TZVP def2-TZVP/C def2-TZVP/JK TIGHTSCF
|  2> % maxcore 2000
|  3> % mp2 density relaxed end
|  4> *xyz 0 1
|  5>  C        0.1772864695     1.4461516280     0.5548077692
|  6>  C        0.0370796146    -0.0745693598     0.4612096135
|  7>  O        0.4337209464    -0.7026517483     1.6800833735
|  8>  C       -1.3399810612    -0.6034278023     0.0443206760
|  9>  C       -2.5682350450    -0.0367614363     0.6707139369
| 10>  N       -2.2705847214     0.2093692896    -0.7520747927
| 11>  C       -1.3010707408    -2.0583492949    -0.3450179036
| 12>  C       -2.4047827191    -2.6950799513    -1.0958295180
| 13>  N       -1.1161519349    -2.4237637258    -1.7638260145
| 14>  H        1.1751856326     1.6787616405     0.9343567134
| 15>  H        0.0722330762     1.9311134155    -0.4212592004
| 16>  H       -0.5503061105     1.8897226581     1.2442143715
| 17>  H        0.7649700156    -0.4392711892    -0.2734592582
| 18>  H       -0.2379564338    -0.4979315388     2.3407562650
| 19>  H       -3.4185820411    -0.6868246454     0.8541024692
| 20>  H       -2.4780077130     0.7961654267     1.3637233970
| 21>  H       -1.9150531574     1.1535367811    -0.8698676687
| 22>  H       -0.7142509091    -2.6656870192     0.3386594879
| 23>  H       -2.6270736458    -3.7463199539    -0.9352680294
| 24>  H       -3.2524154248    -2.0744231361    -1.3703847667
| 25>  H       -1.2391575369    -1.5779263783    -2.3199705408
| 26> *
| 27>
| 28>                          ****END OF INPUT****

CARTESIAN COORDINATES (ANGSTROEM)
---------------------------------
  C      0.177286    1.446152    0.554808
  C      0.037080   -0.074569    0.461210
  O      0.433721   -0.702652    1.680083
  C     -1.339981   -0.603428    0.044321
  C     -2.568235   -0.036761    0.670714
  N     -2.270585    0.209369   -0.752075
  C     -1.301071   -2.058349   -0.345018
  C     -2.404783   -2.695080   -1.095830
  N     -1.116152   -2.423764   -1.763826
  H      1.175186    1.678762    0.934357
  H      0.072233    1.931113   -0.421259
  H     -0.550306    1.889723    1.244214
  H      0.764970   -0.439271   -0.273459
  H     -0.237956   -0.497932    2.340756
  H     -3.418582   -0.686825    0.854102
  H     -2.478008    0.796165    1.363723
  H     -1.915053    1.153537   -0.869868
  H     -0.714251   -2.665687    0.338659
  H     -2.627074   -3.746320   -0.935268
  H     -3.252415   -2.074423   -1.370385
  H     -1.239158   -1.577926   -2.319971

 Total Charge           Charge          ....    0
 Multiplicity           Mult            ....    1
 Number of Electrons    NEL             ....   70
 Basis Dimension        Dim             ....  351

ORBITAL ENERGIES
----------------

  NO   OCC          E(Eh)            E(eV)
   0   2.0000     -20.563850      -559.5708
   1   2.0000     -15.572244      -423.7423
   2   2.0000     -15.547491      -423.0687
   3   2.0000     -11.295869      -307.3762
   4   2.0000     -11.277745      -306.8830
   5   2.0000     -11.268176      -306.6227
   6   2.0000     -11.253301      -306.2179
   7   2.0000     -11.244436      -305.9766
   8   2.0000     -11.233378      -305.6758
   9   2.0000      -1.371539       -37.3215
  10   2.0000      -1.285926       -34.9918
  11   2.0000      -1.240128       -33.7456
  12   2.0000      -1.033116       -28.1125
  13   2.0000      -0.955119       -25.9901
  14   2.0000      -0.893510       -24.3137
  15   2.0000      -0.877618       -23.8812
  16   2.0000      -0.832382       -22.6503
  17   2.0000      -0.773083       -21.0367
  18   2.0000      -0.734103       -19.9760
  19   2.0000      -0.684627       -18.6296
  20   2.0000      -0.644778       -17.5453
  21   2.0000      -0.639401       -17.3990
  22   2.0000      -0.623450       -16.9649
  23   2.0000      -0.592246       -16.1158
  24   2.0000      -0.562548       -15.3077
  25   2.0000      -0.558994       -15.2110
  26   2.0000      -0.547410       -14.8958
  27   2.0000      -0.518282       -14.1032
  28   2.0000      -0.493165       -13.4197
  29   2.0000      -0.480966       -13.0877
  30   2.0000      -0.470492       -12.8027
  31   2.0000      -0.467868       -12.7313
  32   2.0000      -0.440304       -11.9813
  33   2.0000      -0.406915       -11.0727
  34   2.0000      -0.376028       -10.2322
  35   0.0000       0.125815         3.4236
  36   0.0000       0.137544         3.7428
  37   0.0000       0.169317         4.6074
  38   0.0000       0.176272         4.7966
  39   0.0000       0.185483         5.0473

MULLIKEN ATOMIC CHARGES
-----------------------
   0 C :   -0.426416
   1 C :    0.116431
   2 O :   -0.453057
   3 C :    0.017278
   4 C :   -0.222212
   5 N :   -0.370086
   6 C :   -0.049370
   7 C :   -0.186020
   8 N :   -0.370976
   9 H :    0.159201
  10 H :    0.133850
  11 H :    0.121620
  12 H :    0.109954
  13 H :    0.312514
  14 H :    0.137712
  15 H :    0.128749
  16 H :    0.222778
  17 H :    0.128080
  18 H :    0.119495
  19 H :    0.145884
  20 H :    0.224591
Sum of atomic charges:    0.0000000

LOEWDIN ATOMIC CHARGES
----------------------
   0 C :   -0.304540
   1 C :   -0.330036
   2 O :   -0.012263
   3 C :   -0.297552
   4 C :   -0.240233
   5 N :    0.015764
   6 C :   -0.244840
   7 C :   -0.263785
   8 N :   -0.017548
   9 H :    0.134000
  10 H :    0.124272
  11 H :    0.121120
  12 H :    0.156587
  13 H :    0.174418
  14 H :    0.129750
  15 H :    0.120490
  16 H :    0.164728
  17 H :    0.151743
  18 H :    0.122726
  19 H :    0.127607
  20 H :    0.167593

  Mayer bond orders larger than 0.1
B(  0-C ,  1-C ) :   0.8851 B(  0-C ,  9-H ) :   0.9377 B(  0-C , 10-H ) :   0.9340
B(  0-C , 11-H ) :   0.9224 B(  1-C ,  2-O ) :   0.8849 B(  1-C ,  3-C ) :   0.9533
B(  1-C , 12-H ) :   0.9218 B(  2-O , 13-H ) :   0.8387 B(  3-C ,  4-C ) :   0.8771
B(  3-C ,  5-N ) :   0.8596 B(  3-C ,  6-C ) :   0.9028 B(  4-C ,  5-N ) :   0.9085
B(  4-C , 14-H ) :   0.9132 B(  4-C , 15-H ) :   0.9210 B(  5-N , 16-H ) :   0.8715
B(  6-C ,  7-C ) :   0.9288 B(  6-C ,  8-N ) :   0.9043 B(  6-C , 17-H ) :   0.9261
B(  7-C ,  8-N ) :   0.9332 B(  7-C , 18-H ) :   0.9211 B(  7-C , 19-H ) :   0.9096
B(  8-N , 20-H ) :   0.8739

MP2 TOTAL ENERGY:     -419.650458690 Eh
FINAL SINGLE POINT ENERGY      -419.650458690228

DIPOLE MOMENT
-------------
                                X             Y             Z
Electronic contribution:      0.34705      -3.19404      -0.52212
Nuclear contribution   :     -0.87175       4.34971       1.19242
                        -----------------------------------------
Total Dipole Moment    :     -0.52470       1.15566       0.67030
                        -----------------------------------------
Magnitude (a.u.)       :      1.43533
Magnitude (Debye)      :      3.64832

                             ****ORCA TERMINATED NORMALLY****
TOTAL RUN TIME: 0 days 0 hours 18 minutes 51 seconds 511 msec
