                         Program Version 3.0.3 - RELEASE   -
|  1> ! RI-MP2 RIJK def2-TZVP def2-TZVP/C def2-TZVP/JK TIGHTSCF
|  2> % maxcore 2000
|  3> % mp2 density relaxed end
|  4> *xyz 0 1
|  5>  C       -0.5231494713     1.0344179198    -0.4511112783
|  6>  C       -0.0476698637    -0.3886105905    -0.1255605360
|  7>  C        0.7961203159    -0.9437382962    -1.2842976528
|  8>  C        0.7654540749    -0.4933181597     1.1801763122
|  9>  C        0.0601406060    -0.2224078465     2.5420670028
| 10>  C       -1.2574941678    -1.0160939205     2.6800613974
| 11>  C        1.0285420917    -0.6277446144     3.6808789373
| 12>  C       -0.2276297927     1.2123781133     2.7144596429
| 13>  N       -0.4441249024     2.3345389897     2.8911477794
| 14>  H        0.3274685774     1.7212689374    -0.5310255645
| 15>  H       -1.0513152931     1.0469441716    -1.4102464669
| 16>  H       -1.1975247838     1.4388492261     0.3064127520
| 17>  H       -0.9323105949    -1.0321616439    -0.0313485654
| 18>  H        1.7036169737    -0.3457062085    -1.4299638378
| 19>  H        1.1044848911    -1.9784467392    -1.1003012728
| 20>  H        0.2326984722    -0.9225379178    -2.2224637746
| 21>  H        1.1591628140    -1.5155105286     1.2509113365
| 22>  H        1.6404730798     0.1657271365     1.1109211240
| 23>  H       -1.0612969718    -2.0806827453     2.5175670320
| 24>  H       -1.6776110995    -0.8926554918     3.6818548652
| 25>  H       -2.0078253160    -0.6888937972     1.9575322861
| 26>  H        1.9822531798    -0.1006082379     3.5916506105
| 27>  H        0.6004719229    -0.3973552438     4.6600088126
| 28>  H        1.2216881875    -1.7036828328     3.6312732683
| 29> *
| 30>
| 31>                          ****END OF INPUT****

CARTESIAN COORDINATES (ANGSTROEM)
---------------------------------
  C     -0.523149    1.034418   -0.451111
  C     -0.047670   -0.388611   -0.125561
  C      0.796120   -0.943738   -1.284298
  C      0.765454   -0.493318    1.180176
  C      0.060141   -0.222408    2.542067
  C     -1.257494   -1.016094    2.680061
  C      1.028542   -0.627745    3.680879
  C     -0.227630    1.212378    2.714460
  N     -0.444125    2.334539    2.891148
  H      0.327469    1.721269   -0.531026
  H     -1.051315    1.046944   -1.410246
  H     -1.197525    1.438849    0.306413
  H     -0.932311   -1.032162   -0.031349
  H      1.703617   -0.345706   -1.429964
  H      1.104485   -1.978447   -1.100301
  H      0.232698   -0.922538   -2.222464
  H      1.159163   -1.515511    1.250911
  H      1.640473    0.165727    1.110921
  H     -1.061297   -2.080683    2.517567
  H     -1.677611   -0.892655    3.681855
  H     -2.007825   -0.688894    1.957532
  H      1.982253   -0.100608    3.591651
  H      0.600472   -0.397355    4.660009
  H      1.221688   -1.703683    3.631273

 Total Charge           Charge          ....    0
 Multiplicity           Mult            ....    1
 Number of Electrons    NEL             ....   70
 Basis Dimension        Dim             ....  369

ORBITAL ENERGIES
----------------

  NO   OCC          E(Eh)            E(eV)
   0   2.0000     -15.560187      -423.4142
   1   2.0000     -11.289353      -307.1989
   2   2.0000     -11.262938      -306.4801
   3   2.0000     -11.241690      -305.9019
   4   2.0000     -11.239436      -305.8406
   5   2.0000     -11.239247      -305.8355
   6   2.0000     -11.237381      -305.7847
   7   2.0000     -11.219318      -305.2932
   8   2.0000     -11.211748      -305.0872
   9   2.0000      -1.214211       -33.0404
  10   2.0000      -1.132301       -30.8115
  11   2.0000      -1.072712       -29.1900
  12   2.0000      -0.957967       -26.0676
  13   2.0000      -0.940178       -25.5835
  14   2.0000      -0.932157       -25.3653
  15   2.0000      -0.857269       -23.3275
  16   2.0000      -0.779858       -21.2210
  17   2.0000      -0.687835       -18.7169
  18   2.0000      -0.640727       -17.4351
  19   2.0000      -0.622227       -16.9317
  20   2.0000      -0.615649       -16.7527
  21   2.0000      -0.579861       -15.7788
  22   2.0000      -0.574239       -15.6258
  23   2.0000      -0.569247       -15.4900
  24   2.0000      -0.561839       -15.2884
  25   2.0000      -0.541880       -14.7453
  26   2.0000      -0.534106       -14.5338
  27   2.0000      -0.522487       -14.2176
  28   2.0000      -0.515159       -14.0182
  29   2.0000      -0.508979       -13.8500
  30   2.0000      -0.484854       -13.1936
  31   2.0000      -0.471894       -12.8409
  32   2.0000      -0.467253       -12.7146
  33   2.0000      -0.444968       -12.1082
  34   2.0000      -0.432854       -11.7786
  35   0.0000       0.119095         3.2407
  36   0.0000       0.146224         3.9789
  37   0.0000       0.155165         4.2223
  38   0.0000       0.165736         4.5099
  39   0.0000       0.181816         4.9475

MULLIKEN ATOMIC CHARGES
-----------------------
   0 C :   -0.409011
   1 C :   -0.050574
   2 C :   -0.392495
   3 C :   -0.287904
   4 C :    0.259043
   5 C :   -0.432564
   6 C :   -0.398000
   7 C :   -0.268122
   8 N :   -0.048207
   9 H :    0.126114
  10 H :    0.131259
  11 H :    0.150654
  12 H :    0.093789
  13 H :    0.125548
  14 H :    0.127431
  15 H :    0.135543
  16 H :    0.124354
  17 H :    0.132389
  18 H :    0.141883
  19 H :    0.149789
  20 H :    0.153935
  21 H :    0.146433
  22 H :    0.149765
  23 H :    0.138947
Sum of atomic charges:   -0.0000000

LOEWDIN ATOMIC CHARGES
----------------------
   0 C :   -0.289895
   1 C :   -0.305650
   2 C :   -0.293733
   3 C :   -0.192203
   4 C :   -0.308860
   5 C :   -0.246747
   6 C :   -0.246122
   7 C :   -0.161677
   8 N :    0.058077
   9 H :    0.127160
  10 H :    0.124095
  11 H :    0.127629
  12 H :    0.150239
  13 H :    0.124412
  14 H :    0.121081
  15 H :    0.124031
  16 H :    0.150073
  17 H :    0.150666
  18 H :    0.131170
  19 H :    0.132759
  20 H :    0.130689
  21 H :    0.132255
  22 H :    0.131838
  23 H :    0.128711

  Mayer bond orders larger than 0.1
B(  0-C ,  1-C ) :   0.9261 B(  0-C ,  9-H ) :   0.9296 B(  0-C , 10-H ) :   0.9365
B(  0-C , 11-H ) :   0.9318 B(  1-C ,  2-C ) :   0.9139 B(  1-C ,  3-C ) :   0.9265
B(  1-C , 12-H ) :   0.9278 B(  2-C , 13-H ) :   0.9335 B(  2-C , 14-H ) :   0.9389
B(  2-C , 15-H ) :   0.9417 B(  3-C ,  4-C ) :   0.8640 B(  3-C , 16-H ) :   0.9275
B(  3-C , 17-H ) :   0.9193 B(  4-C ,  5-C ) :   0.8729 B(  4-C ,  6-C ) :   0.8894
B(  4-C ,  7-C ) :   0.9039 B(  5-C , 18-H ) :   0.9328 B(  5-C , 19-H ) :   0.9284
B(  5-C , 20-H ) :   0.9332 B(  6-C , 21-H ) :   0.9305 B(  6-C , 22-H ) :   0.9321
B(  6-C , 23-H ) :   0.9319 B(  7-C ,  8-N ) :   2.8955

MP2 TOTAL ENERGY:     -367.787825296 Eh
FINAL SINGLE POINT ENERGY      -367.787825296207

DIPOLE MOMENT
-------------
                                X             Y             Z
Electronic contribution:     -1.32635       6.23085       5.84234
Nuclear contribution   :      1.58075      -7.72151      -6.12292
                        -----------------------------------------
Total Dipole Moment    :      0.25440      -1.49066      -0.28058
                        -----------------------------------------
Magnitude (a.u.)       :      1.53802
Magnitude (Debye)      :      3.90934

                             ****ORCA TERMINATED NORMALLY****
TOTAL RUN TIME: 0 days 0 hours 24 minutes 21 seconds 6 msec
