                         Program Version 3.0.3 - RELEASE   -
|  1> ! RI-MP2 RIJK def2-TZVP def2-TZVP/C def2-TZVP/JK TIGHTSCF
|  2> % maxcore 2000
|  3> % mp2 density relaxed end
|  4> *xyz 0 1
|  5>  N       -0.1338899770     1.2987928519     0.0109135618
|  6>  C       -0.0158011705     0.0363409658     0.0036372390
|  7>  N        1.1081454357    -0.7837255778    -0.0077826363
|  8>  C        0.7786874430    -2.1413660493    -0.0126726463
|  9>  O        1.5538981674    -3.0638490005    -0.0224117244
| 10>  C       -0.7159048170    -2.1719365587    -0.0032701728
| 11>  C       -1.1741403139    -0.9086646441     0.0062140341
| 12>  C       -2.5227182835    -0.4685543152     0.0171373186
| 13>  N       -3.6293517282    -0.1314684375     0.0259735747
| 14>  H        0.7692478595     1.7755189145     0.0075904982
| 15>  H        2.0613466383    -0.4579479920    -0.0121928025
| 16>  H       -1.2818166238    -3.0911706169    -0.0043977741
| 17> *
| 18>
| 19>                          ****END OF INPUT****

CARTESIAN COORDINATES (ANGSTROEM)
---------------------------------
  N     -0.133890    1.298793    0.010914
  C     -0.015801    0.036341    0.003637
  N      1.108145   -0.783726   -0.007783
  C      0.778687   -2.141366   -0.012673
  O      1.553898   -3.063849   -0.022412
  C     -0.715905   -2.171937   -0.003270
  C     -1.174140   -0.908665    0.006214
  C     -2.522718   -0.468554    0.017137
  N     -3.629352   -0.131468    0.025974
  H      0.769248    1.775519    0.007590
  H      2.061347   -0.457948   -0.012193
  H     -1.281817   -3.091171   -0.004398

 Total Charge           Charge          ....    0
 Multiplicity           Mult            ....    1
 Number of Electrons    NEL             ....   62
 Basis Dimension        Dim             ....  297

ORBITAL ENERGIES
----------------

  NO   OCC          E(Eh)            E(eV)
   0   2.0000     -20.578130      -559.9594
   1   2.0000     -15.639070      -425.5607
   2   2.0000     -15.602504      -424.5657
   3   2.0000     -15.587009      -424.1441
   4   2.0000     -11.405584      -310.3617
   5   2.0000     -11.375351      -309.5390
   6   2.0000     -11.335500      -308.4546
   7   2.0000     -11.315106      -307.8997
   8   2.0000     -11.301730      -307.5357
   9   2.0000      -1.439979       -39.1838
  10   2.0000      -1.341228       -36.4967
  11   2.0000      -1.244961       -33.8771
  12   2.0000      -1.221735       -33.2451
  13   2.0000      -1.144770       -31.1508
  14   2.0000      -0.971364       -26.4322
  15   2.0000      -0.892427       -24.2842
  16   2.0000      -0.849618       -23.1193
  17   2.0000      -0.762860       -20.7585
  18   2.0000      -0.738314       -20.0906
  19   2.0000      -0.685070       -18.6417
  20   2.0000      -0.664749       -18.0887
  21   2.0000      -0.661696       -18.0057
  22   2.0000      -0.632995       -17.2247
  23   2.0000      -0.584193       -15.8967
  24   2.0000      -0.555544       -15.1171
  25   2.0000      -0.525152       -14.2901
  26   2.0000      -0.507790       -13.8177
  27   2.0000      -0.486292       -13.2327
  28   2.0000      -0.465857       -12.6766
  29   2.0000      -0.429412       -11.6849
  30   2.0000      -0.412501       -11.2247
  31   0.0000       0.007828         0.2130
  32   0.0000       0.108554         2.9539
  33   0.0000       0.143708         3.9105
  34   0.0000       0.157514         4.2862
  35   0.0000       0.159365         4.3365

MULLIKEN ATOMIC CHARGES
-----------------------
   0 N :   -0.295327
   1 C :    0.026995
   2 N :   -0.289703
   3 C :    0.285591
   4 O :   -0.280346
   5 C :   -0.218019
   6 C :    0.255189
   7 C :   -0.112171
   8 N :   -0.027878
   9 H :    0.223724
  10 H :    0.253369
  11 H :    0.178576
Sum of atomic charges:    0.0000000

LOEWDIN ATOMIC CHARGES
----------------------
   0 N :    0.001523
   1 C :   -0.307879
   2 N :    0.170286
   3 C :   -0.397478
   4 O :    0.143938
   5 C :   -0.017438
   6 C :   -0.100201
   7 C :   -0.127739
   8 N :    0.107791
   9 H :    0.170476
  10 H :    0.196262
  11 H :    0.160459

  Mayer bond orders larger than 0.1
B(  0-N ,  1-C ) :   2.0829 B(  0-N ,  9-H ) :   0.8463 B(  1-C ,  2-N ) :   1.0937
B(  1-C ,  6-C ) :   0.9131 B(  2-N ,  3-C ) :   1.0512 B(  2-N , 10-H ) :   0.8578
B(  3-C ,  4-O ) :   1.9995 B(  3-C ,  5-C ) :   0.9876 B(  5-C ,  6-C ) :   1.6237
B(  5-C , 11-H ) :   0.9235 B(  6-C ,  7-C ) :   0.9033 B(  7-C ,  8-N ) :   2.8137

MP2 TOTAL ENERGY:     -430.998605762 Eh
FINAL SINGLE POINT ENERGY      -430.998605762117

DIPOLE MOMENT
-------------
                                X             Y             Z
Electronic contribution:     -1.36313      -0.90940       0.00407
Nuclear contribution   :      2.74465       0.95648      -0.01267
                        -----------------------------------------
Total Dipole Moment    :      1.38152       0.04708      -0.00861
                        -----------------------------------------
Magnitude (a.u.)       :      1.38235
Magnitude (Debye)      :      3.51364

                             ****ORCA TERMINATED NORMALLY****
TOTAL RUN TIME: 0 days 0 hours 11 minutes 52 seconds 925 msec
