                         Program Version 3.0.3 - RELEASE   -
|  1> ! RI-MP2 RIJK def2-TZVP def2-TZVP/C def2-TZVP/JK TIGHTSCF
|  2> % maxcore 2000
|  3> % mp2 density relaxed end
|  4> *xyz 0 1
|  5>  C       -0.5713448945     1.0394496266    -0.2757938102
|  6>  O       -0.2363892031    -0.3312826601    -0.3990603133
|  7>  C        0.9965825065    -0.5530975120    -1.0257834597
|  8>  C        1.2305522371    -2.0626299469    -1.0861210770
|  9>  C        0.5442508556    -2.4410163334    -2.3922501200
| 10>  C        0.5813259424    -3.7731435380    -2.9985299875
| 11>  O       -0.5991838535    -3.2921913480    -2.3458402103
| 12>  C        0.4120100554    -1.1383586243    -3.1854857691
| 13>  O        1.0060642236    -0.1231422815    -2.3769856530
| 14>  H        0.1727074166     1.5779954066     0.3310528450
| 15>  H       -0.6413649241     1.5268455309    -1.2550064782
| 16>  H       -1.5401491136     1.0871378052     0.2254805169
| 17>  H        1.7892747599     0.0200420058    -0.5250425904
| 18>  H        2.3043831084    -2.2650818178    -1.1357928840
| 19>  H        0.7987162762    -2.5870703091    -0.2335827893
| 20>  H        0.5079589941    -3.8803340590    -4.0807988149
| 21>  H        1.1003264994    -4.5861241001    -2.4907268953
| 22>  H        0.9449715089    -1.1548560812    -4.1409247780
| 23>  H       -0.6498926153    -0.9369581736    -3.3732060218
| 24> *
| 25>
| 26>                          ****END OF INPUT****

CARTESIAN COORDINATES (ANGSTROEM)
---------------------------------
  C     -0.571345    1.039450   -0.275794
  O     -0.236389   -0.331283   -0.399060
  C      0.996583   -0.553098   -1.025783
  C      1.230552   -2.062630   -1.086121
  C      0.544251   -2.441016   -2.392250
  C      0.581326   -3.773144   -2.998530
  O     -0.599184   -3.292191   -2.345840
  C      0.412010   -1.138359   -3.185486
  O      1.006064   -0.123142   -2.376986
  H      0.172707    1.577995    0.331053
  H     -0.641365    1.526846   -1.255006
  H     -1.540149    1.087138    0.225481
  H      1.789275    0.020042   -0.525043
  H      2.304383   -2.265082   -1.135793
  H      0.798716   -2.587070   -0.233583
  H      0.507959   -3.880334   -4.080799
  H      1.100326   -4.586124   -2.490727
  H      0.944972   -1.154856   -4.140925
  H     -0.649893   -0.936958   -3.373206

 Total Charge           Charge          ....    0
 Multiplicity           Mult            ....    1
 Number of Electrons    NEL             ....   70
 Basis Dimension        Dim             ....  339

ORBITAL ENERGIES
----------------

  NO   OCC          E(Eh)            E(eV)
   0   2.0000     -20.567826      -559.6790
   1   2.0000     -20.563328      -559.5566
   2   2.0000     -20.560793      -559.4876
   3   2.0000     -11.334666      -308.4319
   4   2.0000     -11.296838      -307.4026
   5   2.0000     -11.285750      -307.1009
   6   2.0000     -11.281226      -306.9778
   7   2.0000     -11.269109      -306.6480
   8   2.0000     -11.232927      -305.6635
   9   2.0000      -1.426596       -38.8197
  10   2.0000      -1.410352       -38.3776
  11   2.0000      -1.350329       -36.7443
  12   2.0000      -1.051050       -28.6005
  13   2.0000      -0.996635       -27.1198
  14   2.0000      -0.924584       -25.1592
  15   2.0000      -0.910629       -24.7795
  16   2.0000      -0.818561       -22.2742
  17   2.0000      -0.786440       -21.4001
  18   2.0000      -0.712908       -19.3992
  19   2.0000      -0.699141       -19.0246
  20   2.0000      -0.662972       -18.0404
  21   2.0000      -0.658268       -17.9124
  22   2.0000      -0.628723       -17.1084
  23   2.0000      -0.621128       -16.9018
  24   2.0000      -0.602578       -16.3970
  25   2.0000      -0.566924       -15.4268
  26   2.0000      -0.557216       -15.1626
  27   2.0000      -0.526278       -14.3208
  28   2.0000      -0.517501       -14.0819
  29   2.0000      -0.512707       -13.9515
  30   2.0000      -0.479048       -13.0355
  31   2.0000      -0.453507       -12.3405
  32   2.0000      -0.442541       -12.0422
  33   2.0000      -0.435241       -11.8435
  34   2.0000      -0.423798       -11.5321
  35   0.0000       0.143772         3.9122
  36   0.0000       0.158164         4.3039
  37   0.0000       0.166549         4.5320
  38   0.0000       0.179571         4.8864
  39   0.0000       0.188852         5.1389

MULLIKEN ATOMIC CHARGES
-----------------------
   0 C :   -0.237712
   1 O :   -0.303616
   2 C :    0.177890
   3 C :   -0.153428
   4 C :    0.086982
   5 C :   -0.071391
   6 O :   -0.328963
   7 C :   -0.041675
   8 O :   -0.325274
   9 H :    0.110581
  10 H :    0.136681
  11 H :    0.141906
  12 H :    0.087310
  13 H :    0.123236
  14 H :    0.133384
  15 H :    0.117068
  16 H :    0.117349
  17 H :    0.119419
  18 H :    0.110253
Sum of atomic charges:   -0.0000000

LOEWDIN ATOMIC CHARGES
----------------------
   0 C :   -0.348611
   1 O :    0.162321
   2 C :   -0.406644
   3 C :   -0.192871
   4 C :   -0.319462
   5 C :   -0.243365
   6 O :    0.167627
   7 C :   -0.252220
   8 O :    0.170366
   9 H :    0.102722
  10 H :    0.106823
  11 H :    0.113856
  12 H :    0.128760
  13 H :    0.148884
  14 H :    0.154939
  15 H :    0.121587
  16 H :    0.122038
  17 H :    0.129940
  18 H :    0.133311

  Mayer bond orders larger than 0.1
B(  0-C ,  1-O ) :   0.8947 B(  0-C ,  9-H ) :   0.9368 B(  0-C , 10-H ) :   0.9349
B(  0-C , 11-H ) :   0.9382 B(  1-O ,  2-C ) :   1.0373 B(  2-C ,  3-C ) :   0.9559
B(  2-C ,  8-O ) :   0.9463 B(  2-C , 12-H ) :   0.9256 B(  3-C ,  4-C ) :   0.9308
B(  3-C , 13-H ) :   0.9099 B(  3-C , 14-H ) :   0.9062 B(  4-C ,  5-C ) :   0.9569
B(  4-C ,  6-O ) :   0.8994 B(  4-C ,  7-C ) :   0.9169 B(  5-C ,  6-O ) :   0.8931
B(  5-C , 15-H ) :   0.9151 B(  5-C , 16-H ) :   0.9084 B(  7-C ,  8-O ) :   0.9275
B(  7-C , 17-H ) :   0.9220 B(  7-C , 18-H ) :   0.9282

MP2 TOTAL ENERGY:     -459.404528766 Eh
FINAL SINGLE POINT ENERGY      -459.404528765838

DIPOLE MOMENT
-------------
                                X             Y             Z
Electronic contribution:     -0.47241      -2.35282      -1.09507
Nuclear contribution   :      1.16840       2.36520       0.96775
                        -----------------------------------------
Total Dipole Moment    :      0.69599       0.01238      -0.12732
                        -----------------------------------------
Magnitude (a.u.)       :      0.70764
Magnitude (Debye)      :      1.79869

                             ****ORCA TERMINATED NORMALLY****
TOTAL RUN TIME: 0 days 0 hours 18 minutes 8 seconds 662 msec
