                         Program Version 3.0.3 - RELEASE   -
|  1> ! RI-MP2 RIJK def2-TZVP def2-TZVP/C def2-TZVP/JK TIGHTSCF
|  2> % maxcore 2000
|  3> % mp2 density relaxed end
|  4> *xyz 0 1
|  5>  C       -0.3997031901     1.3984800096    -0.1805218029
|  6>  C        0.2042705412     0.0436176241     0.1767204745
|  7>  N        0.7318853865    -0.5991349862    -1.0309986591
|  8>  C        1.0347003556    -1.9935505625    -1.1394113949
|  9>  C       -0.1072743393    -1.3653050785    -1.9482463993
| 10>  C       -1.0647984068    -2.2694184753    -1.1985266077
| 11>  O       -2.2157134829    -2.5655415005    -1.3544817291
| 12>  C        0.0708607517    -2.8966292818    -0.3376112199
| 13>  C        0.2003750172    -4.3981186306    -0.5911114617
| 14>  H        0.3386888366     2.0296823751    -0.6824103362
| 15>  H       -1.2569757395     1.2781860401    -0.8505518127
| 16>  H       -0.7462136467     1.9123088553     0.7209252427
| 17>  H        1.0553824900     0.1767114477     0.8544704496
| 18>  H       -0.5411321509    -0.5622369121     0.7105767390
| 19>  H        2.0044705007    -2.2968555069    -1.5204784046
| 20>  H       -0.1714237240    -1.0571013988    -2.9862441702
| 21>  H        0.0338836281    -2.6935850512     0.7367915305
| 22>  H        0.2749949691    -4.6162432530    -1.6617733840
| 23>  H        1.0915148591    -4.8016893776    -0.1002657873
| 24>  H       -0.6756209060    -4.9248115670    -0.2030004667
| 25> *
| 26>
| 27>                          ****END OF INPUT****

CARTESIAN COORDINATES (ANGSTROEM)
---------------------------------
  C     -0.399703    1.398480   -0.180522
  C      0.204271    0.043618    0.176720
  N      0.731885   -0.599135   -1.030999
  C      1.034700   -1.993551   -1.139411
  C     -0.107274   -1.365305   -1.948246
  C     -1.064798   -2.269418   -1.198527
  O     -2.215713   -2.565542   -1.354482
  C      0.070861   -2.896629   -0.337611
  C      0.200375   -4.398119   -0.591111
  H      0.338689    2.029682   -0.682410
  H     -1.256976    1.278186   -0.850552
  H     -0.746214    1.912309    0.720925
  H      1.055382    0.176711    0.854470
  H     -0.541132   -0.562237    0.710577
  H      2.004471   -2.296856   -1.520478
  H     -0.171424   -1.057101   -2.986244
  H      0.033884   -2.693585    0.736792
  H      0.274995   -4.616243   -1.661773
  H      1.091515   -4.801689   -0.100266
  H     -0.675621   -4.924812   -0.203000

 Total Charge           Charge          ....    0
 Multiplicity           Mult            ....    1
 Number of Electrons    NEL             ....   68
 Basis Dimension        Dim             ....  345

ORBITAL ENERGIES
----------------

  NO   OCC          E(Eh)            E(eV)
   0   2.0000     -20.553755      -559.2961
   1   2.0000     -15.582544      -424.0226
   2   2.0000     -11.335989      -308.4679
   3   2.0000     -11.284124      -307.0566
   4   2.0000     -11.274465      -306.7938
   5   2.0000     -11.263091      -306.4843
   6   2.0000     -11.254125      -306.2403
   7   2.0000     -11.232899      -305.6627
   8   2.0000     -11.219155      -305.2887
   9   2.0000      -1.397657       -38.0322
  10   2.0000      -1.310025       -35.6476
  11   2.0000      -1.094811       -29.7913
  12   2.0000      -1.035127       -28.1672
  13   2.0000      -0.949044       -25.8248
  14   2.0000      -0.886736       -24.1293
  15   2.0000      -0.871170       -23.7057
  16   2.0000      -0.781630       -21.2692
  17   2.0000      -0.722973       -19.6731
  18   2.0000      -0.694088       -18.8871
  19   2.0000      -0.671303       -18.2671
  20   2.0000      -0.654979       -17.8229
  21   2.0000      -0.627598       -17.0778
  22   2.0000      -0.585637       -15.9360
  23   2.0000      -0.571758       -15.5583
  24   2.0000      -0.564880       -15.3712
  25   2.0000      -0.543102       -14.7786
  26   2.0000      -0.539474       -14.6798
  27   2.0000      -0.518286       -14.1033
  28   2.0000      -0.512644       -13.9497
  29   2.0000      -0.503986       -13.7142
  30   2.0000      -0.465717       -12.6728
  31   2.0000      -0.436715       -11.8836
  32   2.0000      -0.415719       -11.3123
  33   2.0000      -0.372904       -10.1472
  34   0.0000       0.123071         3.3489
  35   0.0000       0.137970         3.7544
  36   0.0000       0.154306         4.1989
  37   0.0000       0.167689         4.5630
  38   0.0000       0.169525         4.6130

MULLIKEN ATOMIC CHARGES
-----------------------
   0 C :   -0.391286
   1 C :   -0.107070
   2 N :   -0.168153
   3 C :   -0.084527
   4 C :   -0.135742
   5 C :    0.131256
   6 O :   -0.257600
   7 C :   -0.016743
   8 C :   -0.442578
   9 H :    0.133036
  10 H :    0.136289
  11 H :    0.131187
  12 H :    0.120995
  13 H :    0.104275
  14 H :    0.146803
  15 H :    0.146994
  16 H :    0.124809
  17 H :    0.136385
  18 H :    0.140046
  19 H :    0.151624
Sum of atomic charges:   -0.0000000

LOEWDIN ATOMIC CHARGES
----------------------
   0 C :   -0.312610
   1 C :   -0.305415
   2 N :    0.158046
   3 C :   -0.184003
   4 C :   -0.172055
   5 C :   -0.297511
   6 O :    0.164005
   7 C :   -0.216815
   8 C :   -0.281997
   9 H :    0.124574
  10 H :    0.124606
  11 H :    0.124157
  12 H :    0.134021
  13 H :    0.126315
  14 H :    0.139078
  15 H :    0.137950
  16 H :    0.148153
  17 H :    0.130050
  18 H :    0.126553
  19 H :    0.132900

  Mayer bond orders larger than 0.1
B(  0-C ,  1-C ) :   0.9406 B(  0-C ,  9-H ) :   0.9367 B(  0-C , 10-H ) :   0.9335
B(  0-C , 11-H ) :   0.9370 B(  1-C ,  2-N ) :   0.8629 B(  1-C , 12-H ) :   0.9262
B(  1-C , 13-H ) :   0.9152 B(  2-N ,  3-C ) :   0.9422 B(  2-N ,  4-C ) :   0.8870
B(  3-C ,  4-C ) :   0.8463 B(  3-C ,  7-C ) :   0.8688 B(  3-C , 14-H ) :   0.9213
B(  4-C ,  5-C ) :   0.8645 B(  4-C , 15-H ) :   0.9196 B(  5-C ,  6-O ) :   2.0284
B(  5-C ,  7-C ) :   0.8655 B(  7-C ,  8-C ) :   0.8794 B(  7-C , 16-H ) :   0.9081
B(  8-C , 17-H ) :   0.9326 B(  8-C , 18-H ) :   0.9389 B(  8-C , 19-H ) :   0.9354

MP2 TOTAL ENERGY:     -402.423802411 Eh
FINAL SINGLE POINT ENERGY      -402.423802411181

DIPOLE MOMENT
-------------
                                X             Y             Z
Electronic contribution:     -2.47598      -2.14384      -3.48903
Nuclear contribution   :      3.31724       2.13572       3.87640
                        -----------------------------------------
Total Dipole Moment    :      0.84126      -0.00811       0.38737
                        -----------------------------------------
Magnitude (a.u.)       :      0.92619
Magnitude (Debye)      :      2.35420

                             ****ORCA TERMINATED NORMALLY****
TOTAL RUN TIME: 0 days 0 hours 20 minutes 17 seconds 743 msec
