                         Program Version 3.0.3 - RELEASE   -
|  1> ! RI-MP2 RIJK def2-TZVP def2-TZVP/C def2-TZVP/JK TIGHTSCF
|  2> % maxcore 2000
|  3> % mp2 density relaxed end
|  4> *xyz 0 1
|  5>  C        0.0597327285     1.4802385107     0.7351246344
|  6>  C        1.2124996910     0.8534208076     0.0389871353
|  7>  C        2.1716473781     0.0146404351     0.8706364954
|  8>  C        1.2362721736    -0.8641280852     1.7000805461
|  9>  C        1.7324251598    -1.9944913159     2.5545071172
| 10>  C        1.1833733316    -0.7475854772     3.2052516245
| 11>  C       -0.0438028570    -0.9766181980     0.8662087232
| 12>  N       -0.1243162257     0.2171384741     0.0029601159
| 13>  H        0.0429367805     1.4621311052     1.8218380792
| 14>  H       -0.4416223912     2.3338008153     0.2880092342
| 15>  H        1.5702884563     1.2730519799    -0.8970070911
| 16>  H        2.7940290644    -0.5951989885     0.2035222922
| 17>  H        2.8461194787     0.6165829587     1.4883969368
| 18>  H        1.1352868264    -2.9001047626     2.6001128339
| 19>  H        2.8025758598    -2.1688691369     2.6034855809
| 20>  H        1.8830294120    -0.0755425728     3.6926360388
| 21>  H        0.2146789342    -0.8106795328     3.6917944630
| 22>  H        0.0009404912    -1.8506764492     0.2045618185
| 23>  H       -0.9470675022    -1.0691052674     1.4790419017
| 24> *
| 25>
| 26>                          ****END OF INPUT****

CARTESIAN COORDINATES (ANGSTROEM)
---------------------------------
  C      0.059733    1.480239    0.735125
  C      1.212500    0.853421    0.038987
  C      2.171647    0.014640    0.870636
  C      1.236272   -0.864128    1.700081
  C      1.732425   -1.994491    2.554507
  C      1.183373   -0.747585    3.205252
  C     -0.043803   -0.976618    0.866209
  N     -0.124316    0.217138    0.002960
  H      0.042937    1.462131    1.821838
  H     -0.441622    2.333801    0.288009
  H      1.570288    1.273052   -0.897007
  H      2.794029   -0.595199    0.203522
  H      2.846119    0.616583    1.488397
  H      1.135287   -2.900105    2.600113
  H      2.802576   -2.168869    2.603486
  H      1.883029   -0.075543    3.692636
  H      0.214679   -0.810680    3.691794
  H      0.000940   -1.850676    0.204562
  H     -0.947068   -1.069105    1.479042

 Total Charge           Charge          ....    0
 Multiplicity           Mult            ....    1
 Number of Electrons    NEL             ....   60
 Basis Dimension        Dim             ....  314

ORBITAL ENERGIES
----------------

  NO   OCC          E(Eh)            E(eV)
   0   2.0000     -15.551724      -423.1839
   1   2.0000     -11.252560      -306.1977
   2   2.0000     -11.247075      -306.0485
   3   2.0000     -11.245204      -305.9976
   4   2.0000     -11.236919      -305.7721
   5   2.0000     -11.228296      -305.5375
   6   2.0000     -11.226634      -305.4922
   7   2.0000     -11.225933      -305.4732
   8   2.0000      -1.276198       -34.7271
   9   2.0000      -1.146963       -31.2105
  10   2.0000      -0.994054       -27.0496
  11   2.0000      -0.983987       -26.7756
  12   2.0000      -0.837020       -22.7765
  13   2.0000      -0.826039       -22.4777
  14   2.0000      -0.781380       -21.2624
  15   2.0000      -0.746919       -20.3247
  16   2.0000      -0.679525       -18.4908
  17   2.0000      -0.641890       -17.4667
  18   2.0000      -0.630933       -17.1686
  19   2.0000      -0.612067       -16.6552
  20   2.0000      -0.575421       -15.6580
  21   2.0000      -0.561383       -15.2760
  22   2.0000      -0.519100       -14.1254
  23   2.0000      -0.514713       -14.0061
  24   2.0000      -0.482471       -13.1287
  25   2.0000      -0.456958       -12.4344
  26   2.0000      -0.444640       -12.0993
  27   2.0000      -0.419343       -11.4109
  28   2.0000      -0.395316       -10.7571
  29   2.0000      -0.364777        -9.9261
  30   0.0000       0.140893         3.8339
  31   0.0000       0.159239         4.3331
  32   0.0000       0.164665         4.4808
  33   0.0000       0.172951         4.7062
  34   0.0000       0.192519         5.2387

MULLIKEN ATOMIC CHARGES
-----------------------
   0 C :   -0.190219
   1 C :   -0.057796
   2 C :   -0.218272
   3 C :    0.058776
   4 C :   -0.284647
   5 C :   -0.301538
   6 C :   -0.137800
   7 N :   -0.222284
   8 H :    0.130127
   9 H :    0.125977
  10 H :    0.120176
  11 H :    0.117765
  12 H :    0.116399
  13 H :    0.130488
  14 H :    0.130055
  15 H :    0.124833
  16 H :    0.128305
  17 H :    0.116351
  18 H :    0.113304
Sum of atomic charges:    0.0000000

LOEWDIN ATOMIC CHARGES
----------------------
   0 C :   -0.244983
   1 C :   -0.240947
   2 C :   -0.200078
   3 C :   -0.247687
   4 C :   -0.209507
   5 C :   -0.214801
   6 C :   -0.234466
   7 N :    0.106022
   8 H :    0.130389
   9 H :    0.125418
  10 H :    0.137384
  11 H :    0.144887
  12 H :    0.143524
  13 H :    0.135195
  14 H :    0.134730
  15 H :    0.131505
  16 H :    0.131442
  17 H :    0.137035
  18 H :    0.134939

  Mayer bond orders larger than 0.1
B(  0-C ,  1-C ) :   0.9323 B(  0-C ,  7-N ) :   0.8802 B(  0-C ,  8-H ) :   0.9152
B(  0-C ,  9-H ) :   0.9274 B(  1-C ,  2-C ) :   0.9552 B(  1-C ,  7-N ) :   0.8972
B(  1-C , 10-H ) :   0.9258 B(  2-C ,  3-C ) :   0.9239 B(  2-C , 11-H ) :   0.9222
B(  2-C , 12-H ) :   0.9060 B(  3-C ,  4-C ) :   0.8467 B(  3-C ,  5-C ) :   0.8655
B(  3-C ,  6-C ) :   0.9139 B(  4-C ,  5-C ) :   0.9374 B(  4-C , 13-H ) :   0.9270
B(  4-C , 14-H ) :   0.9246 B(  5-C , 15-H ) :   0.9230 B(  5-C , 16-H ) :   0.9240
B(  6-C ,  7-N ) :   0.9498 B(  6-C , 17-H ) :   0.9298 B(  6-C , 18-H ) :   0.9258

MP2 TOTAL ENERGY:     -327.303826778 Eh
FINAL SINGLE POINT ENERGY      -327.303826777632

DIPOLE MOMENT
-------------
                                X             Y             Z
Electronic contribution:     -1.18883       0.93403      -2.66983
Nuclear contribution   :      1.61560      -0.93788       3.14626
                        -----------------------------------------
Total Dipole Moment    :      0.42678      -0.00385       0.47644
                        -----------------------------------------
Magnitude (a.u.)       :      0.63964
Magnitude (Debye)      :      1.62584

                             ****ORCA TERMINATED NORMALLY****
TOTAL RUN TIME: 0 days 0 hours 14 minutes 21 seconds 887 msec
