                         Program Version 3.0.3 - RELEASE   -
|  1> ! RI-MP2 RIJK def2-TZVP def2-TZVP/C def2-TZVP/JK TIGHTSCF
|  2> % maxcore 2000
|  3> % mp2 density relaxed end
|  4> *xyz 0 1
|  5>  C       -0.1427084736     1.4990202667    -0.0211183173
|  6>  N        0.0617886877     0.0609310542     0.0177558444
|  7>  C        1.3534388598    -0.5626642985    -0.2972148207
|  8>  C        2.5846766230     0.2688447510    -0.1359621780
|  9>  C        2.7538203838     0.6438477739     1.1345899014
| 10>  C        1.7318270647     0.0170533359     2.0711909048
| 11>  C        2.4082180950    -1.1047028533     2.8895858807
| 12>  C        1.0883463962     1.0213719461     3.0450751898
| 13>  C        0.7501379649    -0.6484855731     1.0818331181
| 14>  H        0.7267466402     2.1059768778     0.2647897514
| 15>  H       -0.4282923411     1.7750479652    -1.0420640485
| 16>  H       -0.9777726442     1.7527840517     0.6392796304
| 17>  H        1.3186412277    -1.3603364570    -1.0345158459
| 18>  H        3.2147887576     0.5602308713    -0.9688608842
| 19>  H        3.5292561468     1.3103961763     1.5004392100
| 20>  H        3.1982538526    -0.6982127290     3.5298236690
| 21>  H        1.6763373030    -1.6050661192     3.5347698753
| 22>  H        2.8566395509    -1.8547486646     2.2318362225
| 23>  H        0.6155549710     1.8590482995     2.5301013610
| 24>  H        0.3270430955     0.5283282070     3.6587037110
| 25>  H        1.8446018235     1.4301916489     3.7247930925
| 26>  H        0.2342491052    -1.5394483908     1.4348942423
| 27> *
| 28>
| 29>                          ****END OF INPUT****

CARTESIAN COORDINATES (ANGSTROEM)
---------------------------------
  C     -0.142708    1.499020   -0.021118
  N      0.061789    0.060931    0.017756
  C      1.353439   -0.562664   -0.297215
  C      2.584677    0.268845   -0.135962
  C      2.753820    0.643848    1.134590
  C      1.731827    0.017053    2.071191
  C      2.408218   -1.104703    2.889586
  C      1.088346    1.021372    3.045075
  C      0.750138   -0.648486    1.081833
  H      0.726747    2.105977    0.264790
  H     -0.428292    1.775048   -1.042064
  H     -0.977773    1.752784    0.639280
  H      1.318641   -1.360336   -1.034516
  H      3.214789    0.560231   -0.968861
  H      3.529256    1.310396    1.500439
  H      3.198254   -0.698213    3.529824
  H      1.676337   -1.605066    3.534770
  H      2.856640   -1.854749    2.231836
  H      0.615555    1.859048    2.530101
  H      0.327043    0.528328    3.658704
  H      1.844602    1.430192    3.724793
  H      0.234249   -1.539448    1.434894

 Total Charge           Charge          ....    0
 Multiplicity           Mult            ....    1
 Number of Electrons    NEL             ....   68
 Basis Dimension        Dim             ....  357

ORBITAL ENERGIES
----------------

  NO   OCC          E(Eh)            E(eV)
   0   2.0000     -15.552213      -423.1972
   1   2.0000     -11.252966      -306.2088
   2   2.0000     -11.250827      -306.1506
   3   2.0000     -11.244232      -305.9711
   4   2.0000     -11.236840      -305.7700
   5   2.0000     -11.227738      -305.5223
   6   2.0000     -11.225559      -305.4630
   7   2.0000     -11.216895      -305.2272
   8   2.0000     -11.216814      -305.2250
   9   2.0000      -1.273303       -34.6483
  10   2.0000      -1.110198       -30.2100
  11   2.0000      -1.026548       -27.9338
  12   2.0000      -0.980481       -26.6803
  13   2.0000      -0.931729       -25.3536
  14   2.0000      -0.871170       -23.7058
  15   2.0000      -0.820476       -22.3263
  16   2.0000      -0.761285       -20.7156
  17   2.0000      -0.719583       -19.5808
  18   2.0000      -0.685744       -18.6600
  19   2.0000      -0.626432       -17.0461
  20   2.0000      -0.603516       -16.4225
  21   2.0000      -0.595801       -16.2126
  22   2.0000      -0.580497       -15.7961
  23   2.0000      -0.563405       -15.3310
  24   2.0000      -0.556007       -15.1297
  25   2.0000      -0.541946       -14.7471
  26   2.0000      -0.536852       -14.6085
  27   2.0000      -0.492821       -13.4103
  28   2.0000      -0.491954       -13.3867
  29   2.0000      -0.473481       -12.8841
  30   2.0000      -0.449149       -12.2220
  31   2.0000      -0.418868       -11.3980
  32   2.0000      -0.367473        -9.9995
  33   2.0000      -0.340787        -9.2733
  34   0.0000       0.134547         3.6612
  35   0.0000       0.140496         3.8231
  36   0.0000       0.166286         4.5249
  37   0.0000       0.173413         4.7188
  38   0.0000       0.176501         4.8028

MULLIKEN ATOMIC CHARGES
-----------------------
   0 C :   -0.306013
   1 N :   -0.205950
   2 C :   -0.030389
   3 C :   -0.181299
   4 C :   -0.239136
   5 C :    0.187481
   6 C :   -0.428516
   7 C :   -0.404290
   8 C :   -0.098730
   9 H :    0.121984
  10 H :    0.138025
  11 H :    0.138932
  12 H :    0.122991
  13 H :    0.128248
  14 H :    0.125401
  15 H :    0.131933
  16 H :    0.129839
  17 H :    0.143563
  18 H :    0.136715
  19 H :    0.135329
  20 H :    0.129823
  21 H :    0.124058
Sum of atomic charges:    0.0000000

LOEWDIN ATOMIC CHARGES
----------------------
   0 C :   -0.331592
   1 N :    0.124332
   2 C :   -0.211786
   3 C :   -0.143562
   4 C :   -0.112623
   5 C :   -0.285249
   6 C :   -0.258448
   7 C :   -0.263630
   8 C :   -0.183335
   9 H :    0.108049
  10 H :    0.118555
  11 H :    0.118225
  12 H :    0.137300
  13 H :    0.138354
  14 H :    0.140026
  15 H :    0.126048
  16 H :    0.125622
  17 H :    0.130251
  18 H :    0.125223
  19 H :    0.128274
  20 H :    0.126450
  21 H :    0.143516

  Mayer bond orders larger than 0.1
B(  0-C ,  1-N ) :   0.8778 B(  0-C ,  9-H ) :   0.9164 B(  0-C , 10-H ) :   0.9370
B(  0-C , 11-H ) :   0.9357 B(  1-N ,  2-C ) :   0.9065 B(  1-N ,  8-C ) :   0.9526
B(  2-C ,  3-C ) :   0.9433 B(  2-C ,  8-C ) :   0.8877 B(  2-C , 12-H ) :   0.9234
B(  3-C ,  4-C ) :   1.7499 B(  3-C , 13-H ) :   0.9323 B(  4-C ,  5-C ) :   0.8708
B(  4-C , 14-H ) :   0.9240 B(  5-C ,  6-C ) :   0.8745 B(  5-C ,  7-C ) :   0.9021
B(  5-C ,  8-C ) :   0.8849 B(  6-C , 15-H ) :   0.9353 B(  6-C , 16-H ) :   0.9303
B(  6-C , 17-H ) :   0.9370 B(  7-C , 18-H ) :   0.9334 B(  7-C , 19-H ) :   0.9364
B(  7-C , 20-H ) :   0.9320 B(  8-C , 21-H ) :   0.9296

MP2 TOTAL ENERGY:     -366.527588867 Eh
FINAL SINGLE POINT ENERGY      -366.527588866845

DIPOLE MOMENT
-------------
                                X             Y             Z
Electronic contribution:      0.15348      -1.93108      -4.85927
Nuclear contribution   :      0.21600       2.14133       5.12581
                        -----------------------------------------
Total Dipole Moment    :      0.36948       0.21025       0.26654
                        -----------------------------------------
Magnitude (a.u.)       :      0.50176
Magnitude (Debye)      :      1.27537

                             ****ORCA TERMINATED NORMALLY****
TOTAL RUN TIME: 0 days 0 hours 23 minutes 7 seconds 463 msec
