                         Program Version 3.0.3 - RELEASE   -
|  1> ! RI-MP2 RIJK def2-TZVP def2-TZVP/C def2-TZVP/JK TIGHTSCF
|  2> % maxcore 2000
|  3> % mp2 density relaxed end
|  4> *xyz 0 1
|  5>  C       -0.2109356939     1.5429221329    -0.1945441372
|  6>  C        0.0029144757     0.0504948676    -0.0597195263
|  7>  C        1.3490526160    -0.5772716333    -0.3374675133
|  8>  O        2.4270049152     0.2858798964    -0.5912489894
|  9>  C        3.2066946496     0.5397599328     0.5515658110
| 10>  O        2.4537786847     1.0952464259     1.5924045027
| 11>  C        1.5489290020     0.1363299745     2.1525821748
| 12>  C        0.6702256927     0.8612606357     3.1617680136
| 13>  C        0.7849038131    -0.6083297652     1.0661373887
| 14>  H        0.6593890964     2.1047617471     0.1445447198
| 15>  H       -0.3983553456     1.8055456812    -1.2414596127
| 16>  H       -1.0793734884     1.8668594141     0.3888325272
| 17>  H       -0.8392755592    -0.5467950677    -0.4024513791
| 18>  H        1.4032625918    -1.4928716497    -0.9217387524
| 19>  H        3.6958237475    -0.3898038536     0.8959422502
| 20>  H        3.9556287070     1.2780595264     0.2585663543
| 21>  H        2.1548930363    -0.6170203936     2.6869217825
| 22>  H        0.0573508531     1.6214854657     2.6723774941
| 23>  H        0.0060394174     0.1493983077     3.6612148867
| 24>  H        1.2903971866     1.3491705826     3.9190649050
| 25>  H        0.4008933622    -1.5656793975     1.4075541696
| 26> *
| 27>
| 28>                          ****END OF INPUT****

CARTESIAN COORDINATES (ANGSTROEM)
---------------------------------
  C     -0.210936    1.542922   -0.194544
  C      0.002914    0.050495   -0.059720
  C      1.349053   -0.577272   -0.337468
  O      2.427005    0.285880   -0.591249
  C      3.206695    0.539760    0.551566
  O      2.453779    1.095246    1.592405
  C      1.548929    0.136330    2.152582
  C      0.670226    0.861261    3.161768
  C      0.784904   -0.608330    1.066137
  H      0.659389    2.104762    0.144545
  H     -0.398355    1.805546   -1.241460
  H     -1.079373    1.866859    0.388833
  H     -0.839276   -0.546795   -0.402451
  H      1.403263   -1.492872   -0.921739
  H      3.695824   -0.389804    0.895942
  H      3.955629    1.278060    0.258566
  H      2.154893   -0.617020    2.686922
  H      0.057351    1.621485    2.672377
  H      0.006039    0.149398    3.661215
  H      1.290397    1.349171    3.919065
  H      0.400893   -1.565679    1.407554

 Total Charge           Charge          ....    0
 Multiplicity           Mult            ....    1
 Number of Electrons    NEL             ....   70
 Basis Dimension        Dim             ....  351

ORBITAL ENERGIES
----------------

  NO   OCC          E(Eh)            E(eV)
   0   2.0000     -20.561439      -559.5052
   1   2.0000     -20.560261      -559.4732
   2   2.0000     -11.326254      -308.2030
   3   2.0000     -11.289744      -307.2095
   4   2.0000     -11.281117      -306.9748
   5   2.0000     -11.234589      -305.7087
   6   2.0000     -11.232216      -305.6441
   7   2.0000     -11.216211      -305.2086
   8   2.0000     -11.209854      -305.0356
   9   2.0000      -1.424252       -38.7559
  10   2.0000      -1.347749       -36.6741
  11   2.0000      -1.147004       -31.2116
  12   2.0000      -1.026256       -27.9259
  13   2.0000      -0.962372       -26.1875
  14   2.0000      -0.917959       -24.9789
  15   2.0000      -0.871876       -23.7250
  16   2.0000      -0.781075       -21.2541
  17   2.0000      -0.752806       -20.4849
  18   2.0000      -0.706360       -19.2210
  19   2.0000      -0.683802       -18.6072
  20   2.0000      -0.662193       -18.0192
  21   2.0000      -0.633742       -17.2450
  22   2.0000      -0.628372       -17.0989
  23   2.0000      -0.569197       -15.4886
  24   2.0000      -0.560069       -15.2403
  25   2.0000      -0.552111       -15.0237
  26   2.0000      -0.542920       -14.7736
  27   2.0000      -0.535293       -14.5661
  28   2.0000      -0.518033       -14.0964
  29   2.0000      -0.506000       -13.7690
  30   2.0000      -0.491368       -13.3708
  31   2.0000      -0.459875       -12.5138
  32   2.0000      -0.436208       -11.8698
  33   2.0000      -0.397128       -10.8064
  34   2.0000      -0.383736       -10.4420
  35   0.0000       0.133865         3.6427
  36   0.0000       0.159008         4.3268
  37   0.0000       0.161817         4.4033
  38   0.0000       0.175812         4.7841
  39   0.0000       0.200278         5.4498

MULLIKEN ATOMIC CHARGES
-----------------------
   0 C :   -0.428551
   1 C :   -0.090154
   2 C :    0.043917
   3 O :   -0.317449
   4 C :    0.078091
   5 O :   -0.317394
   6 C :    0.095047
   7 C :   -0.382264
   8 C :   -0.161363
   9 H :    0.159240
  10 H :    0.133786
  11 H :    0.128484
  12 H :    0.117142
  13 H :    0.117866
  14 H :    0.084415
  15 H :    0.128943
  16 H :    0.082338
  17 H :    0.136942
  18 H :    0.124668
  19 H :    0.138938
  20 H :    0.127360
Sum of atomic charges:    0.0000000

LOEWDIN ATOMIC CHARGES
----------------------
   0 C :   -0.294928
   1 C :   -0.210616
   2 C :   -0.258375
   3 O :    0.189245
   4 C :   -0.390877
   5 O :    0.177773
   6 C :   -0.325026
   7 C :   -0.282086
   8 C :   -0.181961
   9 H :    0.131736
  10 H :    0.127370
  11 H :    0.123204
  12 H :    0.150345
  13 H :    0.133709
  14 H :    0.108244
  15 H :    0.123376
  16 H :    0.141845
  17 H :    0.128042
  18 H :    0.128233
  19 H :    0.127337
  20 H :    0.153412

  Mayer bond orders larger than 0.1
B(  0-C ,  1-C ) :   0.8937 B(  0-C ,  9-H ) :   0.9322 B(  0-C , 10-H ) :   0.9307
B(  0-C , 11-H ) :   0.9390 B(  1-C ,  2-C ) :   0.8671 B(  1-C ,  8-C ) :   0.8795
B(  1-C , 12-H ) :   0.9243 B(  2-C ,  3-O ) :   0.9451 B(  2-C ,  8-C ) :   0.8699
B(  2-C , 13-H ) :   0.9486 B(  3-O ,  4-C ) :   0.9662 B(  4-C ,  5-O ) :   0.9599
B(  4-C , 14-H ) :   0.9260 B(  4-C , 15-H ) :   0.9310 B(  5-O ,  6-C ) :   0.9061
B(  6-C ,  7-C ) :   0.9101 B(  6-C ,  8-C ) :   0.9295 B(  6-C , 16-H ) :   0.9370
B(  7-C , 17-H ) :   0.9382 B(  7-C , 18-H ) :   0.9323 B(  7-C , 19-H ) :   0.9361
B(  8-C , 20-H ) :   0.9165

MP2 TOTAL ENERGY:     -423.510629946 Eh
FINAL SINGLE POINT ENERGY      -423.510629946158

DIPOLE MOMENT
-------------
                                X             Y             Z
Electronic contribution:      4.72466      -1.34676      -2.98098
Nuclear contribution   :     -4.97742       0.74221       3.33847
                        -----------------------------------------
Total Dipole Moment    :     -0.25276      -0.60455       0.35749
                        -----------------------------------------
Magnitude (a.u.)       :      0.74644
Magnitude (Debye)      :      1.89729

                             ****ORCA TERMINATED NORMALLY****
TOTAL RUN TIME: 0 days 0 hours 19 minutes 49 seconds 333 msec
