                         Program Version 3.0.3 - RELEASE   -
|  1> ! RI-MP2 RIJK def2-TZVP def2-TZVP/C def2-TZVP/JK TIGHTSCF
|  2> % maxcore 2000
|  3> % mp2 density relaxed end
|  4> *xyz 0 1
|  5>  N        0.0207698404    -3.7724247177    -0.1485958798
|  6>  C        0.0220382106    -2.6115364289    -0.0931624461
|  7>  C        0.0202984414    -1.2487432964    -0.0310514857
|  8>  C        0.0202737356    -0.0408687150     0.0250321267
|  9>  C        0.0148458634     1.4028654124     0.0804315137
| 10>  C       -0.2239347871     2.1174367868     1.4763801782
| 11>  C        1.1203444932     2.8262980052     1.2906296181
| 12>  N        2.1335751377     1.7502986536     1.2042799777
| 13>  C        1.3742875832     2.1351227115    -0.0007889288
| 14>  H       -0.6829375735     1.7986336115    -0.6634503552
| 15>  H       -1.0900436977     2.7795887050     1.4407043109
| 16>  H       -0.2856007552     1.4579228518     2.3430305069
| 17>  H        1.3896547744     3.8256190281     1.6068605790
| 18>  H        3.0502369089     2.1907969620     1.1350712296
| 19>  H        1.8705965948     2.4643375902    -0.9045982052
| 20> *
| 21>
| 22>                          ****END OF INPUT****

CARTESIAN COORDINATES (ANGSTROEM)
---------------------------------
  N      0.020770   -3.772425   -0.148596
  C      0.022038   -2.611536   -0.093162
  C      0.020298   -1.248743   -0.031051
  C      0.020274   -0.040869    0.025032
  C      0.014846    1.402865    0.080432
  C     -0.223935    2.117437    1.476380
  C      1.120344    2.826298    1.290630
  N      2.133575    1.750299    1.204280
  C      1.374288    2.135123   -0.000789
  H     -0.682938    1.798634   -0.663450
  H     -1.090044    2.779589    1.440704
  H     -0.285601    1.457923    2.343031
  H      1.389655    3.825619    1.606861
  H      3.050237    2.190797    1.135071
  H      1.870597    2.464338   -0.904598

 Total Charge           Charge          ....    0
 Multiplicity           Mult            ....    1
 Number of Electrons    NEL             ....   62
 Basis Dimension        Dim             ....  315

ORBITAL ENERGIES
----------------

  NO   OCC          E(Eh)            E(eV)
   0   2.0000     -15.583802      -424.0568
   1   2.0000     -15.582289      -424.0156
   2   2.0000     -11.292686      -307.2896
   3   2.0000     -11.291202      -307.2492
   4   2.0000     -11.288001      -307.1621
   5   2.0000     -11.285924      -307.1056
   6   2.0000     -11.284646      -307.0708
   7   2.0000     -11.266770      -306.5844
   8   2.0000     -11.259716      -306.3925
   9   2.0000      -1.307750       -35.5857
  10   2.0000      -1.224567       -33.3222
  11   2.0000      -1.112480       -30.2721
  12   2.0000      -1.056607       -28.7517
  13   2.0000      -0.953555       -25.9476
  14   2.0000      -0.890225       -24.2243
  15   2.0000      -0.855189       -23.2709
  16   2.0000      -0.786353       -21.3978
  17   2.0000      -0.748905       -20.3787
  18   2.0000      -0.686658       -18.6849
  19   2.0000      -0.620753       -16.8916
  20   2.0000      -0.586789       -15.9673
  21   2.0000      -0.573603       -15.6085
  22   2.0000      -0.569553       -15.4983
  23   2.0000      -0.532930       -14.5018
  24   2.0000      -0.527335       -14.3495
  25   2.0000      -0.515676       -14.0323
  26   2.0000      -0.491938       -13.3863
  27   2.0000      -0.478760       -13.0277
  28   2.0000      -0.399452       -10.8696
  29   2.0000      -0.390970       -10.6388
  30   2.0000      -0.383011       -10.4223
  31   0.0000       0.098310         2.6751
  32   0.0000       0.103970         2.8292
  33   0.0000       0.125754         3.4219
  34   0.0000       0.144396         3.9292
  35   0.0000       0.158847         4.3224

MULLIKEN ATOMIC CHARGES
-----------------------
   0 N :   -0.041006
   1 C :   -0.227639
   2 C :    0.238238
   3 C :   -0.100601
   4 C :   -0.074383
   5 C :   -0.185035
   6 C :   -0.083762
   7 N :   -0.387249
   8 C :   -0.067072
   9 H :    0.144141
  10 H :    0.127914
  11 H :    0.135283
  12 H :    0.148640
  13 H :    0.222058
  14 H :    0.150473
Sum of atomic charges:   -0.0000000

LOEWDIN ATOMIC CHARGES
----------------------
   0 N :    0.092259
   1 C :   -0.179162
   2 C :   -0.052345
   3 C :    0.027054
   4 C :   -0.187570
   5 C :   -0.167769
   6 C :   -0.233128
   7 N :    0.013461
   8 C :   -0.204184
   9 H :    0.173701
  10 H :    0.137579
  11 H :    0.139826
  12 H :    0.131139
  13 H :    0.176204
  14 H :    0.132935

  Mayer bond orders larger than 0.1
B(  0-N ,  1-C ) :   2.7708 B(  0-N ,  3-C ) :   0.1121 B(  1-C ,  2-C ) :   0.9707
B(  2-C ,  3-C ) :   2.5204 B(  2-C ,  4-C ) :  -0.1120 B(  3-C ,  4-C ) :   1.0559
B(  4-C ,  5-C ) :   0.9386 B(  4-C ,  8-C ) :   0.8812 B(  4-C ,  9-H ) :   0.9131
B(  5-C ,  6-C ) :   0.9524 B(  5-C , 10-H ) :   0.9282 B(  5-C , 11-H ) :   0.9109
B(  6-C ,  7-N ) :   0.9156 B(  6-C ,  8-C ) :   0.8859 B(  6-C , 12-H ) :   0.9144
B(  7-N ,  8-C ) :   0.9656 B(  7-N , 13-H ) :   0.8666 B(  8-C , 14-H ) :   0.9131

MP2 TOTAL ENERGY:     -378.918332589 Eh
FINAL SINGLE POINT ENERGY      -378.918332589251

DIPOLE MOMENT
-------------
                                X             Y             Z
Electronic contribution:     -0.86017      -8.96891      -2.22027
Nuclear contribution   :      1.00919      11.63531       2.13697
                        -----------------------------------------
Total Dipole Moment    :      0.14902       2.66640      -0.08330
                        -----------------------------------------
Magnitude (a.u.)       :      2.67186
Magnitude (Debye)      :      6.79133

                             ****ORCA TERMINATED NORMALLY****
TOTAL RUN TIME: 0 days 0 hours 14 minutes 22 seconds 867 msec
