                         Program Version 3.0.3 - RELEASE   -
|  1> ! RI-MP2 RIJK def2-TZVP def2-TZVP/C def2-TZVP/JK TIGHTSCF
|  2> % maxcore 2000
|  3> % mp2 density relaxed end
|  4> *xyz 0 1
|  5>  C       -0.1159875416     1.5300688805     0.0371612024
|  6>  C        0.0894386630     0.0144433505     0.0164957469
|  7>  C        0.9533850261    -0.5213320738    -1.1469882791
|  8>  C        1.1925267279    -1.9969243009    -0.7212740984
|  9>  C        2.0198080889    -1.3244308130     0.4121155539
| 10>  C        2.4053485104    -0.2578840654    -0.6564200785
| 11>  C        0.9083655990    -0.6179570997     1.2267432730
| 12>  C        1.4208685713     0.3729444732     2.2414053237
| 13>  O        0.9381092027     0.5369013451     3.3346686006
| 14>  H        0.8280151329     2.0822887970    -0.0082211394
| 15>  H       -0.7189330710     1.8410653543    -0.8223954802
| 16>  H       -0.6416292871     1.8466831895     0.9435371352
| 17>  H       -0.8977489167    -0.4591402381    -0.0083876796
| 18>  H        0.6281657789    -0.2557289816    -2.1538532556
| 19>  H        0.3243811764    -2.6003103942    -0.4382971482
| 20>  H        1.8217094867    -2.5453073974    -1.4259650609
| 21>  H        2.7737741428    -1.8728377684     0.9783441204
| 22>  H        3.1560418838    -0.6337084706    -1.3549969875
| 23>  H        2.6793192078     0.7494128583    -0.3329680701
| 24>  H        0.2853077999    -1.3295352023     1.7754994651
| 25>  H        2.3098415881     0.9660943371     1.9254372064
| 26> *
| 27>
| 28>                          ****END OF INPUT****

CARTESIAN COORDINATES (ANGSTROEM)
---------------------------------
  C     -0.115988    1.530069    0.037161
  C      0.089439    0.014443    0.016496
  C      0.953385   -0.521332   -1.146988
  C      1.192527   -1.996924   -0.721274
  C      2.019808   -1.324431    0.412116
  C      2.405349   -0.257884   -0.656420
  C      0.908366   -0.617957    1.226743
  C      1.420869    0.372944    2.241405
  O      0.938109    0.536901    3.334669
  H      0.828015    2.082289   -0.008221
  H     -0.718933    1.841065   -0.822395
  H     -0.641629    1.846683    0.943537
  H     -0.897749   -0.459140   -0.008388
  H      0.628166   -0.255729   -2.153853
  H      0.324381   -2.600310   -0.438297
  H      1.821709   -2.545307   -1.425965
  H      2.773774   -1.872838    0.978344
  H      3.156042   -0.633708   -1.354997
  H      2.679319    0.749413   -0.332968
  H      0.285308   -1.329535    1.775499
  H      2.309842    0.966094    1.925437

 Total Charge           Charge          ....    0
 Multiplicity           Mult            ....    1
 Number of Electrons    NEL             ....   68
 Basis Dimension        Dim             ....  351

ORBITAL ENERGIES
----------------

  NO   OCC          E(Eh)            E(eV)
   0   2.0000     -20.550467      -559.2066
   1   2.0000     -11.324155      -308.1459
   2   2.0000     -11.246741      -306.0394
   3   2.0000     -11.244733      -305.9847
   4   2.0000     -11.240700      -305.8750
   5   2.0000     -11.239656      -305.8466
   6   2.0000     -11.233901      -305.6900
   7   2.0000     -11.232942      -305.6639
   8   2.0000     -11.222015      -305.3666
   9   2.0000      -1.388582       -37.7852
  10   2.0000      -1.199375       -32.6366
  11   2.0000      -1.037346       -28.2276
  12   2.0000      -0.992713       -27.0131
  13   2.0000      -0.914483       -24.8844
  14   2.0000      -0.891929       -24.2706
  15   2.0000      -0.829959       -22.5843
  16   2.0000      -0.754686       -20.5361
  17   2.0000      -0.741617       -20.1804
  18   2.0000      -0.695991       -18.9389
  19   2.0000      -0.662750       -18.0343
  20   2.0000      -0.637670       -17.3519
  21   2.0000      -0.626834       -17.0570
  22   2.0000      -0.587850       -15.9962
  23   2.0000      -0.570968       -15.5368
  24   2.0000      -0.545654       -14.8480
  25   2.0000      -0.524398       -14.2696
  26   2.0000      -0.523144       -14.2355
  27   2.0000      -0.510200       -13.8833
  28   2.0000      -0.480781       -13.0827
  29   2.0000      -0.464937       -12.6516
  30   2.0000      -0.449699       -12.2369
  31   2.0000      -0.443455       -12.0670
  32   2.0000      -0.440619       -11.9899
  33   2.0000      -0.406084       -11.0501
  34   0.0000       0.126167         3.4332
  35   0.0000       0.139084         3.7847
  36   0.0000       0.147105         4.0029
  37   0.0000       0.159904         4.3512
  38   0.0000       0.167366         4.5543

MULLIKEN ATOMIC CHARGES
-----------------------
   0 C :   -0.416185
   1 C :   -0.126682
   2 C :   -0.035700
   3 C :   -0.254714
   4 C :   -0.072304
   5 C :   -0.313574
   6 C :   -0.003982
   7 C :    0.016724
   8 O :   -0.259910
   9 H :    0.123134
  10 H :    0.137942
  11 H :    0.154307
  12 H :    0.110088
  13 H :    0.125745
  14 H :    0.116820
  15 H :    0.124311
  16 H :    0.131529
  17 H :    0.125085
  18 H :    0.120204
  19 H :    0.111950
  20 H :    0.085211
Sum of atomic charges:    0.0000000

LOEWDIN ATOMIC CHARGES
----------------------
   0 C :   -0.291762
   1 C :   -0.208231
   2 C :   -0.191443
   3 C :   -0.192401
   4 C :   -0.184266
   5 C :   -0.196845
   6 C :   -0.193030
   7 C :   -0.276629
   8 O :    0.130364
   9 H :    0.122950
  10 H :    0.126664
  11 H :    0.130394
  12 H :    0.153205
  13 H :    0.135342
  14 H :    0.128902
  15 H :    0.137848
  16 H :    0.135584
  17 H :    0.139441
  18 H :    0.122652
  19 H :    0.158513
  20 H :    0.112747

  Mayer bond orders larger than 0.1
B(  0-C ,  1-C ) :   0.9213 B(  0-C ,  9-H ) :   0.9302 B(  0-C , 10-H ) :   0.9355
B(  0-C , 11-H ) :   0.9395 B(  1-C ,  2-C ) :   0.8871 B(  1-C ,  6-C ) :   0.8894
B(  1-C , 12-H ) :   0.9230 B(  2-C ,  3-C ) :   0.9155 B(  2-C ,  5-C ) :   0.9032
B(  2-C , 13-H ) :   0.9158 B(  3-C ,  4-C ) :   0.9089 B(  3-C , 14-H ) :   0.9228
B(  3-C , 15-H ) :   0.9247 B(  4-C ,  5-C ) :   0.8973 B(  4-C ,  6-C ) :   0.8661
B(  4-C , 16-H ) :   0.9195 B(  5-C , 17-H ) :   0.9227 B(  5-C , 18-H ) :   0.9293
B(  6-C ,  7-C ) :   0.8216 B(  6-C , 19-H ) :   0.9035 B(  6-C , 20-H ) :  -0.1044
B(  7-C ,  8-O ) :   2.0061 B(  7-C , 20-H ) :   0.9621

MP2 TOTAL ENERGY:     -386.418844620 Eh
FINAL SINGLE POINT ENERGY      -386.418844620410

DIPOLE MOMENT
-------------
                                X             Y             Z
Electronic contribution:      0.60603      -0.69447       5.96094
Nuclear contribution   :     -0.39951       0.41022      -7.11111
                        -----------------------------------------
Total Dipole Moment    :      0.20652      -0.28425      -1.15017
                        -----------------------------------------
Magnitude (a.u.)       :      1.20264
Magnitude (Debye)      :      3.05687

                             ****ORCA TERMINATED NORMALLY****
TOTAL RUN TIME: 0 days 0 hours 22 minutes 0 seconds 275 msec
