                         Program Version 3.0.3 - RELEASE   -
|  1> ! RI-MP2 RIJK def2-TZVP def2-TZVP/C def2-TZVP/JK TIGHTSCF
|  2> % maxcore 2000
|  3> % mp2 density relaxed end
|  4> *xyz 0 1
|  5>  C       -0.0868062553     1.4969542388    -0.0787958763
|  6>  O        1.1912832701     0.8899696993     0.0783815523
|  7>  C        0.0376421125     0.0432615123     0.0883646021
|  8>  C       -0.2921685074    -0.6126833645     1.3940678696
|  9>  N       -0.3716465529     0.0469288827     2.4712400656
| 10>  C       -0.7172829532    -0.6500074902     3.7040357000
| 11>  C       -1.4107967176    -1.9924128178     3.4530579579
| 12>  C       -0.6290856039    -2.7457753146     2.3855973109
| 13>  O       -0.4688392367    -1.9496068026     1.2022888818
| 14>  H       -0.4280724514     2.0798949013     0.7730033366
| 15>  H       -0.2988546697     1.9009673444    -1.0680603364
| 16>  H       -0.0551594024    -0.6125401218    -0.7746554211
| 17>  H        0.1987418317    -0.7951203382     4.2934799071
| 18>  H       -1.3571303106     0.0111169404     4.2985780964
| 19>  H       -1.4699447485    -2.5923618170     4.3667852249
| 20>  H       -2.4345753331    -1.8237655082     3.1004254051
| 21>  H        0.3693511744    -3.0158489299     2.7538872005
| 22>  H       -1.1334532461    -3.6591256445     2.0614297128
| 23> *
| 24>
| 25>                          ****END OF INPUT****

CARTESIAN COORDINATES (ANGSTROEM)
---------------------------------
  C     -0.086806    1.496954   -0.078796
  O      1.191283    0.889970    0.078382
  C      0.037642    0.043262    0.088365
  C     -0.292169   -0.612683    1.394068
  N     -0.371647    0.046929    2.471240
  C     -0.717283   -0.650007    3.704036
  C     -1.410797   -1.992413    3.453058
  C     -0.629086   -2.745775    2.385597
  O     -0.468839   -1.949607    1.202289
  H     -0.428072    2.079895    0.773003
  H     -0.298855    1.900967   -1.068060
  H     -0.055159   -0.612540   -0.774655
  H      0.198742   -0.795120    4.293480
  H     -1.357130    0.011117    4.298578
  H     -1.469945   -2.592362    4.366785
  H     -2.434575   -1.823766    3.100425
  H      0.369351   -3.015849    2.753887
  H     -1.133453   -3.659126    2.061430

 Total Charge           Charge          ....    0
 Multiplicity           Mult            ....    1
 Number of Electrons    NEL             ....   68
 Basis Dimension        Dim             ....  333

ORBITAL ENERGIES
----------------

  NO   OCC          E(Eh)            E(eV)
   0   2.0000     -20.596779      -560.4669
   1   2.0000     -20.570796      -559.7598
   2   2.0000     -15.541345      -422.9015
   3   2.0000     -11.337464      -308.5081
   4   2.0000     -11.295931      -307.3779
   5   2.0000     -11.291016      -307.2442
   6   2.0000     -11.281784      -306.9929
   7   2.0000     -11.257853      -306.3418
   8   2.0000     -11.236810      -305.7692
   9   2.0000      -1.432730       -38.9866
  10   2.0000      -1.410683       -38.3866
  11   2.0000      -1.217162       -33.1207
  12   2.0000      -1.078899       -29.3583
  13   2.0000      -0.956085       -26.0164
  14   2.0000      -0.932146       -25.3650
  15   2.0000      -0.897435       -24.4205
  16   2.0000      -0.837550       -22.7909
  17   2.0000      -0.736500       -20.0412
  18   2.0000      -0.721344       -19.6288
  19   2.0000      -0.687853       -18.7174
  20   2.0000      -0.661042       -17.9879
  21   2.0000      -0.642332       -17.4788
  22   2.0000      -0.626321       -17.0431
  23   2.0000      -0.608644       -16.5620
  24   2.0000      -0.575662       -15.6645
  25   2.0000      -0.554922       -15.1002
  26   2.0000      -0.545444       -14.8423
  27   2.0000      -0.541679       -14.7398
  28   2.0000      -0.494765       -13.4632
  29   2.0000      -0.487852       -13.2751
  30   2.0000      -0.456663       -12.4264
  31   2.0000      -0.448544       -12.2055
  32   2.0000      -0.404482       -11.0065
  33   2.0000      -0.379396       -10.3239
  34   0.0000       0.128874         3.5068
  35   0.0000       0.152094         4.1387
  36   0.0000       0.172453         4.6927
  37   0.0000       0.176088         4.7916
  38   0.0000       0.180554         4.9131

MULLIKEN ATOMIC CHARGES
-----------------------
   0 C :   -0.072147
   1 O :   -0.325190
   2 C :    0.035754
   3 C :    0.171536
   4 N :   -0.248700
   5 C :   -0.133990
   6 C :   -0.256868
   7 C :   -0.055696
   8 O :   -0.266203
   9 H :    0.138938
  10 H :    0.117437
  11 H :    0.137935
  12 H :    0.123471
  13 H :    0.131188
  14 H :    0.131429
  15 H :    0.122391
  16 H :    0.111863
  17 H :    0.136852
Sum of atomic charges:    0.0000000

LOEWDIN ATOMIC CHARGES
----------------------
   0 C :   -0.255787
   1 O :    0.160982
   2 C :   -0.251689
   3 C :   -0.367680
   4 N :    0.108834
   5 C :   -0.293191
   6 C :   -0.275375
   7 C :   -0.278046
   8 O :    0.242698
   9 H :    0.126994
  10 H :    0.118131
  11 H :    0.143396
  12 H :    0.136876
  13 H :    0.135541
  14 H :    0.143649
  15 H :    0.142837
  16 H :    0.130381
  17 H :    0.131450

  Mayer bond orders larger than 0.1
B(  0-C ,  1-O ) :   0.9137 B(  0-C ,  2-C ) :   0.9458 B(  0-C ,  9-H ) :   0.9059
B(  0-C , 10-H ) :   0.9221 B(  1-O ,  2-C ) :   0.8832 B(  2-C ,  3-C ) :   0.9246
B(  2-C , 11-H ) :   0.9297 B(  3-C ,  4-N ) :   1.8805 B(  3-C ,  8-O ) :   1.0719
B(  4-N ,  5-C ) :   0.9233 B(  5-C ,  6-C ) :   0.9226 B(  5-C , 12-H ) :   0.9259
B(  5-C , 13-H ) :   0.9320 B(  6-C ,  7-C ) :   0.9289 B(  6-C , 14-H ) :   0.9193
B(  6-C , 15-H ) :   0.9284 B(  7-C ,  8-O ) :   0.8648 B(  7-C , 16-H ) :   0.9347
B(  7-C , 17-H ) :   0.9287

MP2 TOTAL ENERGY:     -438.347688651 Eh
FINAL SINGLE POINT ENERGY      -438.347688651224

DIPOLE MOMENT
-------------
                                X             Y             Z
Electronic contribution:      2.82409       1.96068      -4.38982
Nuclear contribution   :     -3.68944      -2.76491       4.83941
                        -----------------------------------------
Total Dipole Moment    :     -0.86536      -0.80422       0.44959
                        -----------------------------------------
Magnitude (a.u.)       :      1.26402
Magnitude (Debye)      :      3.21289

                             ****ORCA TERMINATED NORMALLY****
TOTAL RUN TIME: 0 days 0 hours 15 minutes 39 seconds 732 msec
