                         Program Version 3.0.3 - RELEASE   -
|  1> ! RI-MP2 RIJK def2-TZVP def2-TZVP/C def2-TZVP/JK TIGHTSCF
|  2> % maxcore 2000
|  3> % mp2 density relaxed end
|  4> *xyz 0 1
|  5>  C       -0.0878946438     1.5651457408    -0.0382523100
|  6>  C        0.0333344394     0.0405216611    -0.0216887399
|  7>  C        0.6767492018    -0.5155099232    -1.2989262351
|  8>  C        0.5931210753    -2.0478765901    -1.3411475151
|  9>  C        0.9259464950    -2.6719478805    -0.0120558005
| 10>  C        1.0296501744    -1.9883472843     1.1251658730
| 11>  C        0.8024796485    -0.4878722236     1.2230853660
| 12>  C        2.0802999530     0.1959323160     1.4462985009
| 13>  C        3.1377925898     0.7390829195     1.6301938087
| 14>  H        0.8945878849     2.0371592474    -0.1329302949
| 15>  H       -0.7064471872     1.8922316484    -0.8804580978
| 16>  H       -0.5493447011     1.9400420944     0.8819867360
| 17>  H       -0.9767659733    -0.3852247161     0.0581128811
| 18>  H        0.1919520406    -0.0862960683    -2.1826399240
| 19>  H        1.7276014087    -0.2012208943    -1.3288191222
| 20>  H       -0.4166120080    -2.3636101209    -1.6449981445
| 21>  H        1.2643059992    -2.4463025410    -2.1125566861
| 22>  H        1.0849991347    -3.7480763260    -0.0004075743
| 23>  H        1.3018967949    -2.4913545191     2.0487890939
| 24>  H        0.1743882970    -0.2944919002     2.1051258187
| 25>  H        4.0706246963     1.2180550299     1.7967297461
| 26> *
| 27>
| 28>                          ****END OF INPUT****

CARTESIAN COORDINATES (ANGSTROEM)
---------------------------------
  C     -0.087895    1.565146   -0.038252
  C      0.033334    0.040522   -0.021689
  C      0.676749   -0.515510   -1.298926
  C      0.593121   -2.047877   -1.341148
  C      0.925946   -2.671948   -0.012056
  C      1.029650   -1.988347    1.125166
  C      0.802480   -0.487872    1.223085
  C      2.080300    0.195932    1.446299
  C      3.137793    0.739083    1.630194
  H      0.894588    2.037159   -0.132930
  H     -0.706447    1.892232   -0.880458
  H     -0.549345    1.940042    0.881987
  H     -0.976766   -0.385225    0.058113
  H      0.191952   -0.086296   -2.182640
  H      1.727601   -0.201221   -1.328819
  H     -0.416612   -2.363610   -1.644998
  H      1.264306   -2.446303   -2.112557
  H      1.084999   -3.748076   -0.000408
  H      1.301897   -2.491355    2.048789
  H      0.174388   -0.294492    2.105126
  H      4.070625    1.218055    1.796730

 Total Charge           Charge          ....    0
 Multiplicity           Mult            ....    1
 Number of Electrons    NEL             ....   66
 Basis Dimension        Dim             ....  351

ORBITAL ENERGIES
----------------

  NO   OCC          E(Eh)            E(eV)
   0   2.0000     -11.256398      -306.3022
   1   2.0000     -11.233331      -305.6745
   2   2.0000     -11.228980      -305.5561
   3   2.0000     -11.228312      -305.5379
   4   2.0000     -11.226626      -305.4920
   5   2.0000     -11.225785      -305.4691
   6   2.0000     -11.218140      -305.2611
   7   2.0000     -11.215619      -305.1925
   8   2.0000     -11.210508      -305.0534
   9   2.0000      -1.140938       -31.0465
  10   2.0000      -1.049593       -28.5609
  11   2.0000      -1.033788       -28.1308
  12   2.0000      -0.988894       -26.9092
  13   2.0000      -0.926948       -25.2235
  14   2.0000      -0.856616       -23.3097
  15   2.0000      -0.799391       -21.7525
  16   2.0000      -0.736711       -20.0469
  17   2.0000      -0.695744       -18.9322
  18   2.0000      -0.668789       -18.1987
  19   2.0000      -0.625998       -17.0343
  20   2.0000      -0.614684       -16.7264
  21   2.0000      -0.590818       -16.0770
  22   2.0000      -0.579798       -15.7771
  23   2.0000      -0.551620       -15.0103
  24   2.0000      -0.538919       -14.6647
  25   2.0000      -0.520954       -14.1759
  26   2.0000      -0.508537       -13.8380
  27   2.0000      -0.466281       -12.6881
  28   2.0000      -0.454575       -12.3696
  29   2.0000      -0.449633       -12.2351
  30   2.0000      -0.384326       -10.4580
  31   2.0000      -0.379348       -10.3226
  32   2.0000      -0.350536        -9.5386
  33   0.0000       0.130014         3.5379
  34   0.0000       0.149904         4.0791
  35   0.0000       0.155855         4.2410
  36   0.0000       0.163176         4.4403
  37   0.0000       0.167316         4.5529

MULLIKEN ATOMIC CHARGES
-----------------------
   0 C :   -0.395443
   1 C :   -0.043087
   2 C :   -0.285984
   3 C :   -0.142161
   4 C :   -0.201152
   5 C :   -0.169559
   6 C :   -0.009743
   7 C :   -0.088196
   8 C :   -0.200345
   9 H :    0.141918
  10 H :    0.130584
  11 H :    0.130189
  12 H :    0.090684
  13 H :    0.122602
  14 H :    0.126099
  15 H :    0.115527
  16 H :    0.126040
  17 H :    0.120029
  18 H :    0.125081
  19 H :    0.121181
  20 H :    0.185735
Sum of atomic charges:    0.0000000

LOEWDIN ATOMIC CHARGES
----------------------
   0 C :   -0.287216
   1 C :   -0.240304
   2 C :   -0.230338
   3 C :   -0.252165
   4 C :   -0.163624
   5 C :   -0.131999
   6 C :   -0.209927
   7 C :   -0.081482
   8 C :   -0.104947
   9 H :    0.129960
  10 H :    0.123322
  11 H :    0.125117
  12 H :    0.158478
  13 H :    0.138447
  14 H :    0.147292
  15 H :    0.144847
  16 H :    0.143833
  17 H :    0.143003
  18 H :    0.145584
  19 H :    0.176324
  20 H :    0.125794

  Mayer bond orders larger than 0.1
B(  0-C ,  1-C ) :   0.9015 B(  0-C ,  9-H ) :   0.9283 B(  0-C , 10-H ) :   0.9401
B(  0-C , 11-H ) :   0.9420 B(  1-C ,  2-C ) :   0.9221 B(  1-C ,  6-C ) :   0.8866
B(  1-C , 12-H ) :   0.9275 B(  2-C ,  3-C ) :   0.9545 B(  2-C , 13-H ) :   0.9326
B(  2-C , 14-H ) :   0.9214 B(  3-C ,  4-C ) :   0.9367 B(  3-C , 15-H ) :   0.9102
B(  3-C , 16-H ) :   0.9259 B(  4-C ,  5-C ) :   1.8174 B(  4-C , 17-H ) :   0.9275
B(  5-C ,  6-C ) :   0.8817 B(  5-C , 18-H ) :   0.9248 B(  6-C ,  7-C ) :   1.1002
B(  6-C , 19-H ) :   0.9163 B(  7-C ,  8-C ) :   2.5822 B(  8-C , 20-H ) :   0.9020

MP2 TOTAL ENERGY:     -349.285276270 Eh
FINAL SINGLE POINT ENERGY      -349.285276270304

DIPOLE MOMENT
-------------
                                X             Y             Z
Electronic contribution:      3.32678      -1.73053       4.03528
Nuclear contribution   :     -3.53884       1.65833      -4.22637
                        -----------------------------------------
Total Dipole Moment    :     -0.21206      -0.07220      -0.19110
                        -----------------------------------------
Magnitude (a.u.)       :      0.29445
Magnitude (Debye)      :      0.74842

                             ****ORCA TERMINATED NORMALLY****
TOTAL RUN TIME: 0 days 0 hours 22 minutes 51 seconds 602 msec
