                         Program Version 3.0.3 - RELEASE   -
|  1> ! RI-MP2 RIJK def2-TZVP def2-TZVP/C def2-TZVP/JK TIGHTSCF
|  2> % maxcore 2000
|  3> % mp2 density relaxed end
|  4> *xyz 0 1
|  5>  C       -0.0483033751     1.6055437915    -0.0710568823
|  6>  C        0.0018190273     0.0783384812     0.0418535904
|  7>  C        0.7557704853    -0.6005717825    -1.1603572923
|  8>  C        1.5660401510    -1.8228070203    -0.6115866410
|  9>  C        1.5971789093    -1.4649566637     0.8331503210
| 10>  C        0.7722655413    -0.4636976522     1.2161926136
| 11>  C        0.9183615118    -0.3540317231     2.6382149502
| 12>  C        1.8308836448    -1.3075486795     2.9805811380
| 13>  O        2.2576749106    -2.0085729765     1.8814053980
| 14>  H        0.9623879320     2.0273580925    -0.0908613650
| 15>  H       -0.5640744423     1.9147169899    -0.9867035920
| 16>  H       -0.5809421855     2.0489059004     0.7767350092
| 17>  H       -1.0337131430    -0.2909544105     0.0758388295
| 18>  H        0.0721377691    -0.8866062077    -1.9638911306
| 19>  H        1.4585637116     0.1271387503    -1.5797160743
| 20>  H        1.0455001771    -2.7736117012    -0.7893156427
| 21>  H        2.5529580365    -1.9093302084    -1.0784359277
| 22>  H        0.4348065114     0.3282240220     3.3205001516
| 23>  H        2.2770524667    -1.6012981823     3.9164836863
| 24> *
| 25>
| 26>                          ****END OF INPUT****

CARTESIAN COORDINATES (ANGSTROEM)
---------------------------------
  C     -0.048303    1.605544   -0.071057
  C      0.001819    0.078338    0.041854
  C      0.755770   -0.600572   -1.160357
  C      1.566040   -1.822807   -0.611587
  C      1.597179   -1.464957    0.833150
  C      0.772266   -0.463698    1.216193
  C      0.918362   -0.354032    2.638215
  C      1.830884   -1.307549    2.980581
  O      2.257675   -2.008573    1.881405
  H      0.962388    2.027358   -0.090861
  H     -0.564074    1.914717   -0.986704
  H     -0.580942    2.048906    0.776735
  H     -1.033713   -0.290954    0.075839
  H      0.072138   -0.886606   -1.963891
  H      1.458564    0.127139   -1.579716
  H      1.045500   -2.773612   -0.789316
  H      2.552958   -1.909330   -1.078436
  H      0.434807    0.328224    3.320500
  H      2.277052   -1.601298    3.916484

 Total Charge           Charge          ....    0
 Multiplicity           Mult            ....    1
 Number of Electrons    NEL             ....   66
 Basis Dimension        Dim             ....  339

ORBITAL ENERGIES
----------------

  NO   OCC          E(Eh)            E(eV)
   0   2.0000     -20.614905      -560.9601
   1   2.0000     -11.281048      -306.9729
   2   2.0000     -11.269234      -306.6514
   3   2.0000     -11.237984      -305.8011
   4   2.0000     -11.236201      -305.7526
   5   2.0000     -11.228746      -305.5497
   6   2.0000     -11.226966      -305.5013
   7   2.0000     -11.214778      -305.1696
   8   2.0000     -11.210549      -305.0545
   9   2.0000      -1.449424       -39.4408
  10   2.0000      -1.138571       -30.9821
  11   2.0000      -1.055861       -28.7314
  12   2.0000      -1.010588       -27.4995
  13   2.0000      -0.954140       -25.9635
  14   2.0000      -0.885405       -24.0931
  15   2.0000      -0.815601       -22.1936
  16   2.0000      -0.778131       -21.1740
  17   2.0000      -0.728424       -19.8214
  18   2.0000      -0.695381       -18.9223
  19   2.0000      -0.648334       -17.6421
  20   2.0000      -0.613254       -16.6875
  21   2.0000      -0.610620       -16.6158
  22   2.0000      -0.583015       -15.8646
  23   2.0000      -0.573506       -15.6059
  24   2.0000      -0.561253       -15.2725
  25   2.0000      -0.531619       -14.4661
  26   2.0000      -0.514229       -13.9929
  27   2.0000      -0.500429       -13.6174
  28   2.0000      -0.483234       -13.1495
  29   2.0000      -0.473475       -12.8839
  30   2.0000      -0.461938       -12.5700
  31   2.0000      -0.382037       -10.3958
  32   2.0000      -0.297617        -8.0986
  33   0.0000       0.137461         3.7405
  34   0.0000       0.146852         3.9960
  35   0.0000       0.155204         4.2233
  36   0.0000       0.177396         4.8272
  37   0.0000       0.178646         4.8612

MULLIKEN ATOMIC CHARGES
-----------------------
   0 C :   -0.410762
   1 C :    0.031157
   2 C :   -0.272593
   3 C :   -0.179995
   4 C :    0.082556
   5 C :    0.012150
   6 C :   -0.324410
   7 C :    0.033169
   8 O :   -0.228476
   9 H :    0.127398
  10 H :    0.132063
  11 H :    0.129002
  12 H :    0.095396
  13 H :    0.126292
  14 H :    0.115833
  15 H :    0.120266
  16 H :    0.131245
  17 H :    0.135551
  18 H :    0.144158
Sum of atomic charges:    0.0000000

LOEWDIN ATOMIC CHARGES
----------------------
   0 C :   -0.292247
   1 C :   -0.226128
   2 C :   -0.195036
   3 C :   -0.212607
   4 C :   -0.234306
   5 C :   -0.138912
   6 C :   -0.166580
   7 C :   -0.234316
   8 O :    0.350123
   9 H :    0.124150
  10 H :    0.123162
  11 H :    0.123184
  12 H :    0.153591
  13 H :    0.130985
  14 H :    0.140273
  15 H :    0.141488
  16 H :    0.139991
  17 H :    0.142999
  18 H :    0.130188

  Mayer bond orders larger than 0.1
B(  0-C ,  1-C ) :   0.8987 B(  0-C ,  9-H ) :   0.9329 B(  0-C , 10-H ) :   0.9393
B(  0-C , 11-H ) :   0.9395 B(  1-C ,  2-C ) :   0.9306 B(  1-C ,  5-C ) :   0.8929
B(  1-C , 12-H ) :   0.9047 B(  2-C ,  3-C ) :   0.9378 B(  2-C , 13-H ) :   0.9353
B(  2-C , 14-H ) :   0.9243 B(  3-C ,  4-C ) :   0.9436 B(  3-C , 15-H ) :   0.9066
B(  3-C , 16-H ) :   0.9288 B(  4-C ,  5-C ) :   1.4776 B(  4-C ,  8-O ) :   1.0739
B(  5-C ,  6-C ) :   1.1518 B(  6-C ,  7-C ) :   1.5559 B(  6-C , 17-H ) :   0.9182
B(  7-C ,  8-O ) :   1.0198 B(  7-C , 18-H ) :   0.9391

MP2 TOTAL ENERGY:     -385.245732746 Eh
FINAL SINGLE POINT ENERGY      -385.245732745664

DIPOLE MOMENT
-------------
                                X             Y             Z
Electronic contribution:      3.63906      -5.39523       6.14201
Nuclear contribution   :     -3.87419       5.56799      -6.32993
                        -----------------------------------------
Total Dipole Moment    :     -0.23513       0.17277      -0.18792
                        -----------------------------------------
Magnitude (a.u.)       :      0.34706
Magnitude (Debye)      :      0.88215

                             ****ORCA TERMINATED NORMALLY****
TOTAL RUN TIME: 0 days 0 hours 17 minutes 54 seconds 466 msec
