                         Program Version 3.0.3 - RELEASE   -
|  1> ! RI-MP2 RIJK def2-TZVP def2-TZVP/C def2-TZVP/JK TIGHTSCF
|  2> % maxcore 2000
|  3> % mp2 density relaxed end
|  4> *xyz 0 1
|  5>  C        0.1326212311     1.4520750679     0.0797504072
|  6>  C       -0.0541044414    -0.0151004254    -0.0222338685
|  7>  C       -1.1135992877    -0.8358864303    -0.2680857532
|  8>  N       -0.7010225607    -2.1521447618    -0.2452268977
|  9>  C        0.5702212761    -2.0795888612     0.0091401399
| 10>  O        1.0394498764    -0.8114316331     0.1583082521
| 11>  C        1.4962257043    -3.1447887786     0.1447009873
| 12>  N        2.2563906259    -4.0097642021     0.2564138387
| 13>  H        0.8507367091     1.8131305656    -0.6640002084
| 14>  H       -0.8211546988     1.9566345350    -0.0866321758
| 15>  H        0.5079031284     1.7364444115     1.0684496983
| 16>  H       -2.1402895628    -0.5670168776    -0.4589054800
| 17> *
| 18>
| 19>                          ****END OF INPUT****

CARTESIAN COORDINATES (ANGSTROEM)
---------------------------------
  C      0.132621    1.452075    0.079750
  C     -0.054104   -0.015100   -0.022234
  C     -1.113599   -0.835886   -0.268086
  N     -0.701023   -2.152145   -0.245227
  C      0.570221   -2.079589    0.009140
  O      1.039450   -0.811432    0.158308
  C      1.496226   -3.144789    0.144701
  N      2.256391   -4.009764    0.256414
  H      0.850737    1.813131   -0.664000
  H     -0.821155    1.956635   -0.086632
  H      0.507903    1.736444    1.068450
  H     -2.140290   -0.567017   -0.458905

 Total Charge           Charge          ....    0
 Multiplicity           Mult            ....    1
 Number of Electrons    NEL             ....   56
 Basis Dimension        Dim             ....  272

ORBITAL ENERGIES
----------------

  NO   OCC          E(Eh)            E(eV)
   0   2.0000     -20.671358      -562.4962
   1   2.0000     -15.608604      -424.7317
   2   2.0000     -15.602318      -424.5607
   3   2.0000     -11.384034      -309.7753
   4   2.0000     -11.334298      -308.4219
   5   2.0000     -11.299958      -307.4875
   6   2.0000     -11.282303      -307.0071
   7   2.0000     -11.265060      -306.5379
   8   2.0000      -1.521889       -41.4127
   9   2.0000      -1.272587       -34.6289
  10   2.0000      -1.240106       -33.7450
  11   2.0000      -1.105478       -30.0816
  12   2.0000      -1.001935       -27.2640
  13   2.0000      -0.905081       -24.6285
  14   2.0000      -0.841279       -22.8924
  15   2.0000      -0.794922       -21.6309
  16   2.0000      -0.704005       -19.1569
  17   2.0000      -0.670949       -18.2574
  18   2.0000      -0.628652       -17.1065
  19   2.0000      -0.603577       -16.4242
  20   2.0000      -0.600703       -16.3460
  21   2.0000      -0.585383       -15.9291
  22   2.0000      -0.580666       -15.8007
  23   2.0000      -0.520407       -14.1610
  24   2.0000      -0.497473       -13.5369
  25   2.0000      -0.493858       -13.4386
  26   2.0000      -0.476925       -12.9778
  27   2.0000      -0.355098        -9.6627
  28   0.0000       0.069794         1.8992
  29   0.0000       0.123205         3.3526
  30   0.0000       0.161234         4.3874
  31   0.0000       0.163426         4.4470
  32   0.0000       0.164239         4.4692

MULLIKEN ATOMIC CHARGES
-----------------------
   0 C :   -0.402176
   1 C :    0.155280
   2 C :   -0.121700
   3 N :   -0.255155
   4 C :    0.411641
   5 O :   -0.196555
   6 C :   -0.187495
   7 N :   -0.035237
   8 H :    0.161354
   9 H :    0.154456
  10 H :    0.161356
  11 H :    0.154230
Sum of atomic charges:    0.0000000

LOEWDIN ATOMIC CHARGES
----------------------
   0 C :   -0.264776
   1 C :   -0.264258
   2 C :   -0.211381
   3 N :    0.156051
   4 C :   -0.342437
   5 O :    0.393768
   6 C :   -0.140746
   7 N :    0.103982
   8 H :    0.141248
   9 H :    0.143443
  10 H :    0.141241
  11 H :    0.143865

  Mayer bond orders larger than 0.1
B(  0-C ,  1-C ) :   0.8716 B(  0-C ,  8-H ) :   0.9258 B(  0-C ,  9-H ) :   0.9456
B(  0-C , 10-H ) :   0.9258 B(  1-C ,  2-C ) :   1.5496 B(  1-C ,  5-O ) :   1.0281
B(  2-C ,  3-N ) :   1.2365 B(  2-C , 11-H ) :   0.9300 B(  3-N ,  4-C ) :   1.5368
B(  4-C ,  5-O ) :   1.0584 B(  4-C ,  6-C ) :   0.9212 B(  6-C ,  7-N ) :   2.8225

MP2 TOTAL ENERGY:     -376.924705373 Eh
FINAL SINGLE POINT ENERGY      -376.924705373070

DIPOLE MOMENT
-------------
                                X             Y             Z
Electronic contribution:      2.49469      -7.78634       0.14671
Nuclear contribution   :     -3.19909       9.82551      -0.19518
                        -----------------------------------------
Total Dipole Moment    :     -0.70441       2.03917      -0.04847
                        -----------------------------------------
Magnitude (a.u.)       :      2.15795
Magnitude (Debye)      :      5.48508

                             ****ORCA TERMINATED NORMALLY****
TOTAL RUN TIME: 0 days 0 hours 8 minutes 37 seconds 150 msec
