                         Program Version 3.0.3 - RELEASE   -
|  1> ! RI-MP2 RIJK def2-TZVP def2-TZVP/C def2-TZVP/JK TIGHTSCF
|  2> % maxcore 2000
|  3> % mp2 density relaxed end
|  4> *xyz 0 1
|  5>  C       -0.1427431813     1.5259009964     0.0595766524
|  6>  C       -0.0095460468     0.0013767695    -0.0170496275
|  7>  C       -1.3126593747    -0.5724275146     0.3332414324
|  8>  N       -2.3551723625    -1.0020540273     0.5889738886
|  9>  C        0.7328917129    -0.6163294064    -1.2539319545
| 10>  C        2.0050345732    -0.2505812510    -0.4551714175
| 11>  N        1.1818759012    -0.5492982512     0.7889338547
| 12>  C        0.9943530455    -2.0220749561     0.5864550337
| 13>  C        0.6462430499    -2.1215634073    -0.9436956918
| 14>  H        0.7632183567     2.0397829424    -0.2607384938
| 15>  H       -0.9667446323     1.8581630854    -0.5778662756
| 16>  H       -0.3619893161     1.8244464673     1.0877155108
| 17>  H        0.5336304981    -0.2825286866    -2.2732553453
| 18>  H        2.8800700501    -0.8937455020    -0.5732249613
| 19>  H        2.3125563302     0.7921909797    -0.4897658756
| 20>  H        1.9217915942    -2.5323157255     0.8531159645
| 21>  H        0.1972596948    -2.3901543035     1.2334981690
| 22>  H       -0.3448766662    -2.5411228851    -1.1279774569
| 23>  H        1.3780347031    -2.6972405641    -1.5157973863
| 24> *
| 25>
| 26>                          ****END OF INPUT****

CARTESIAN COORDINATES (ANGSTROEM)
---------------------------------
  C     -0.142743    1.525901    0.059577
  C     -0.009546    0.001377   -0.017050
  C     -1.312659   -0.572428    0.333241
  N     -2.355172   -1.002054    0.588974
  C      0.732892   -0.616329   -1.253932
  C      2.005035   -0.250581   -0.455171
  N      1.181876   -0.549298    0.788934
  C      0.994353   -2.022075    0.586455
  C      0.646243   -2.121563   -0.943696
  H      0.763218    2.039783   -0.260738
  H     -0.966745    1.858163   -0.577866
  H     -0.361989    1.824446    1.087716
  H      0.533630   -0.282529   -2.273255
  H      2.880070   -0.893746   -0.573225
  H      2.312556    0.792191   -0.489766
  H      1.921792   -2.532316    0.853116
  H      0.197260   -2.390154    1.233498
  H     -0.344877   -2.541123   -1.127977
  H      1.378035   -2.697241   -1.515797

 Total Charge           Charge          ....    0
 Multiplicity           Mult            ....    1
 Number of Electrons    NEL             ....   66
 Basis Dimension        Dim             ....  339

ORBITAL ENERGIES
----------------

  NO   OCC          E(Eh)            E(eV)
   0   2.0000     -15.581128      -423.9840
   1   2.0000     -15.572396      -423.7464
   2   2.0000     -11.316409      -307.9352
   3   2.0000     -11.271046      -306.7007
   4   2.0000     -11.270947      -306.6981
   5   2.0000     -11.263262      -306.4889
   6   2.0000     -11.261111      -306.4304
   7   2.0000     -11.241471      -305.8960
   8   2.0000     -11.238586      -305.8175
   9   2.0000      -1.298987       -35.3472
  10   2.0000      -1.217039       -33.1173
  11   2.0000      -1.056663       -28.7533
  12   2.0000      -1.023622       -27.8542
  13   2.0000      -0.985703       -26.8224
  14   2.0000      -0.913699       -24.8630
  15   2.0000      -0.808980       -22.0135
  16   2.0000      -0.793053       -21.5801
  17   2.0000      -0.703957       -19.1557
  18   2.0000      -0.684894       -18.6369
  19   2.0000      -0.653008       -17.7693
  20   2.0000      -0.618366       -16.8266
  21   2.0000      -0.582429       -15.8487
  22   2.0000      -0.569372       -15.4934
  23   2.0000      -0.564376       -15.3574
  24   2.0000      -0.547166       -14.8892
  25   2.0000      -0.524253       -14.2656
  26   2.0000      -0.498125       -13.5547
  27   2.0000      -0.496397       -13.5076
  28   2.0000      -0.492049       -13.3893
  29   2.0000      -0.482961       -13.1420
  30   2.0000      -0.456914       -12.4333
  31   2.0000      -0.449222       -12.2239
  32   2.0000      -0.393708       -10.7133
  33   0.0000       0.131614         3.5814
  34   0.0000       0.144103         3.9212
  35   0.0000       0.151738         4.1290
  36   0.0000       0.165661         4.5079
  37   0.0000       0.174016         4.7352

MULLIKEN ATOMIC CHARGES
-----------------------
   0 C :   -0.404374
   1 C :    0.212053
   2 C :   -0.252759
   3 N :   -0.030048
   4 C :   -0.022128
   5 C :   -0.216808
   6 N :   -0.199498
   7 C :   -0.156262
   8 C :   -0.311632
   9 H :    0.130317
  10 H :    0.148590
  11 H :    0.157416
  12 H :    0.131361
  13 H :    0.129538
  14 H :    0.127661
  15 H :    0.135498
  16 H :    0.147014
  17 H :    0.145835
  18 H :    0.128225
Sum of atomic charges:   -0.0000000

LOEWDIN ATOMIC CHARGES
----------------------
   0 C :   -0.240927
   1 C :   -0.266252
   2 C :   -0.151221
   3 N :    0.074376
   4 C :   -0.174774
   5 C :   -0.218747
   6 N :    0.127800
   7 C :   -0.258085
   8 C :   -0.236208
   9 H :    0.128248
  10 H :    0.136806
  11 H :    0.139436
  12 H :    0.138730
  13 H :    0.130260
  14 H :    0.128758
  15 H :    0.130134
  16 H :    0.136170
  17 H :    0.140547
  18 H :    0.134950

  Mayer bond orders larger than 0.1
B(  0-C ,  1-C ) :   0.9092 B(  0-C ,  9-H ) :   0.9218 B(  0-C , 10-H ) :   0.9316
B(  0-C , 11-H ) :   0.9339 B(  1-C ,  2-C ) :   0.9142 B(  1-C ,  4-C ) :   0.8846
B(  1-C ,  6-N ) :   0.9094 B(  2-C ,  3-N ) :   2.8772 B(  4-C ,  5-C ) :   0.9303
B(  4-C ,  8-C ) :   0.9099 B(  4-C , 12-H ) :   0.9077 B(  5-C ,  6-N ) :   0.9113
B(  5-C , 13-H ) :   0.9263 B(  5-C , 14-H ) :   0.9229 B(  6-N ,  7-C ) :   0.8891
B(  7-C ,  8-C ) :   0.9230 B(  7-C , 15-H ) :   0.9343 B(  7-C , 16-H ) :   0.9269
B(  8-C , 17-H ) :   0.9223 B(  8-C , 18-H ) :   0.9266

MP2 TOTAL ENERGY:     -381.384443401 Eh
FINAL SINGLE POINT ENERGY      -381.384443401444

DIPOLE MOMENT
-------------
                                X             Y             Z
Electronic contribution:     -4.50339      -0.95555       2.10471
Nuclear contribution   :      5.72134       1.25661      -3.05170
                        -----------------------------------------
Total Dipole Moment    :      1.21796       0.30106      -0.94699
                        -----------------------------------------
Magnitude (a.u.)       :      1.57190
Magnitude (Debye)      :      3.99544

                             ****ORCA TERMINATED NORMALLY****
TOTAL RUN TIME: 0 days 0 hours 23 minutes 36 seconds 347 msec
