                         Program Version 3.0.3 - RELEASE   -
|  1> ! RI-MP2 RIJK def2-TZVP def2-TZVP/C def2-TZVP/JK TIGHTSCF
|  2> % maxcore 2000
|  3> % mp2 density relaxed end
|  4> *xyz 0 1
|  5>  O       -0.0667439868     1.5265196605    -0.1591370550
|  6>  C        0.0990147064     0.1568350780     0.1830691661
|  7>  C       -1.2348194652    -0.5590412943     0.0854145779
|  8>  O       -1.7780949343    -0.5407751704    -1.2752938279
|  9>  C       -2.0829661240    -1.9449075074    -1.2155158846
| 10>  C       -1.0529476819    -2.9330188854    -1.8234250774
| 11>  N        0.2929472627    -2.3690164146    -1.5998131787
| 12>  C       -0.3876510826    -3.0631771900    -0.4866436179
| 13>  C       -1.4104415435    -2.0983080242     0.1643693724
| 14>  H       -0.4028311855     1.5345262902    -1.0628374561
| 15>  H        0.8399571114    -0.3335284610    -0.4542519573
| 16>  H        0.4484362050     0.1319188991     1.2220618066
| 17>  H       -1.9479431855    -0.0525954704     0.7509347746
| 18>  H       -3.1335958383    -2.1750304362    -1.4096455199
| 19>  H       -1.2219794780    -3.6640115238    -2.6049948699
| 20>  H        0.9584063533    -3.0299795489    -1.9996750349
| 21>  H        0.0656762482    -3.9267343600    -0.0156100340
| 22>  H       -1.9400172711    -2.5072422213     1.0229861160
| 23> *
| 24>
| 25>                          ****END OF INPUT****

CARTESIAN COORDINATES (ANGSTROEM)
---------------------------------
  O     -0.066744    1.526520   -0.159137
  C      0.099015    0.156835    0.183069
  C     -1.234819   -0.559041    0.085415
  O     -1.778095   -0.540775   -1.275294
  C     -2.082966   -1.944908   -1.215516
  C     -1.052948   -2.933019   -1.823425
  N      0.292947   -2.369016   -1.599813
  C     -0.387651   -3.063177   -0.486644
  C     -1.410442   -2.098308    0.164369
  H     -0.402831    1.534526   -1.062837
  H      0.839957   -0.333528   -0.454252
  H      0.448436    0.131919    1.222062
  H     -1.947943   -0.052595    0.750935
  H     -3.133596   -2.175030   -1.409646
  H     -1.221979   -3.664012   -2.604995
  H      0.958406   -3.029980   -1.999675
  H      0.065676   -3.926734   -0.015610
  H     -1.940017   -2.507242    1.022986

 Total Charge           Charge          ....    0
 Multiplicity           Mult            ....    1
 Number of Electrons    NEL             ....   68
 Basis Dimension        Dim             ....  333

ORBITAL ENERGIES
----------------

  NO   OCC          E(Eh)            E(eV)
   0   2.0000     -20.548530      -559.1539
   1   2.0000     -20.540104      -558.9246
   2   2.0000     -15.573591      -423.7790
   3   2.0000     -11.292549      -307.2859
   4   2.0000     -11.281921      -306.9967
   5   2.0000     -11.278362      -306.8998
   6   2.0000     -11.272438      -306.7386
   7   2.0000     -11.259147      -306.3770
   8   2.0000     -11.245070      -305.9939
   9   2.0000      -1.385588       -37.7038
  10   2.0000      -1.342094       -36.5202
  11   2.0000      -1.282233       -34.8913
  12   2.0000      -1.050672       -28.5902
  13   2.0000      -0.997541       -27.1445
  14   2.0000      -0.896722       -24.4010
  15   2.0000      -0.853751       -23.2318
  16   2.0000      -0.814155       -22.1543
  17   2.0000      -0.748729       -20.3739
  18   2.0000      -0.718087       -19.5402
  19   2.0000      -0.686571       -18.6825
  20   2.0000      -0.660446       -17.9717
  21   2.0000      -0.631865       -17.1939
  22   2.0000      -0.620597       -16.8873
  23   2.0000      -0.577196       -15.7063
  24   2.0000      -0.566131       -15.4052
  25   2.0000      -0.552082       -15.0229
  26   2.0000      -0.530718       -14.4416
  27   2.0000      -0.508914       -13.8483
  28   2.0000      -0.484471       -13.1831
  29   2.0000      -0.469133       -12.7658
  30   2.0000      -0.447947       -12.1893
  31   2.0000      -0.418971       -11.4008
  32   2.0000      -0.402742       -10.9592
  33   2.0000      -0.368619       -10.0306
  34   0.0000       0.130642         3.5550
  35   0.0000       0.148800         4.0491
  36   0.0000       0.159758         4.3472
  37   0.0000       0.169995         4.6258
  38   0.0000       0.188667         5.1339

MULLIKEN ATOMIC CHARGES
-----------------------
   0 O :   -0.483393
   1 C :   -0.033654
   2 C :    0.020747
   3 O :   -0.353594
   4 C :    0.128072
   5 C :   -0.134467
   6 N :   -0.366680
   7 C :   -0.105840
   8 C :   -0.064258
   9 H :    0.327430
  10 H :    0.139842
  11 H :    0.099126
  12 H :    0.085095
  13 H :    0.106477
  14 H :    0.144205
  15 H :    0.217937
  16 H :    0.142521
  17 H :    0.130432
Sum of atomic charges:    0.0000000

LOEWDIN ATOMIC CHARGES
----------------------
   0 O :   -0.050035
   1 C :   -0.332113
   2 C :   -0.257868
   3 O :    0.148096
   4 C :   -0.223448
   5 C :   -0.212902
   6 N :    0.013538
   7 C :   -0.213488
   8 C :   -0.157267
   9 H :    0.179081
  10 H :    0.124687
  11 H :    0.130111
  12 H :    0.141976
  13 H :    0.132014
  14 H :    0.128754
  15 H :    0.175309
  16 H :    0.129430
  17 H :    0.144127

  Mayer bond orders larger than 0.1
B(  0-O ,  1-C ) :   0.9027 B(  0-O ,  9-H ) :   0.8379 B(  1-C ,  2-C ) :   0.9285
B(  1-C , 10-H ) :   0.9217 B(  1-C , 11-H ) :   0.9185 B(  2-C ,  3-O ) :   0.8951
B(  2-C ,  8-C ) :   0.9108 B(  2-C , 12-H ) :   0.9178 B(  3-O ,  4-C ) :   0.9557
B(  4-C ,  5-C ) :   0.8824 B(  4-C ,  8-C ) :   0.9860 B(  4-C , 13-H ) :   0.9382
B(  5-C ,  6-N ) :   0.9074 B(  5-C ,  7-C ) :   0.9089 B(  5-C , 14-H ) :   0.9144
B(  6-N ,  7-C ) :   0.9284 B(  6-N , 15-H ) :   0.8622 B(  7-C ,  8-C ) :   0.9150
B(  7-C , 16-H ) :   0.9162 B(  8-C , 17-H ) :   0.9245

MP2 TOTAL ENERGY:     -438.274697771 Eh
FINAL SINGLE POINT ENERGY      -438.274697770970

DIPOLE MOMENT
-------------
                                X             Y             Z
Electronic contribution:     -1.13812       0.92985      -1.49666
Nuclear contribution   :      1.01415      -2.68709       1.50815
                        -----------------------------------------
Total Dipole Moment    :     -0.12397      -1.75724       0.01150
                        -----------------------------------------
Magnitude (a.u.)       :      1.76165
Magnitude (Debye)      :      4.47776

                             ****ORCA TERMINATED NORMALLY****
TOTAL RUN TIME: 0 days 0 hours 28 minutes 1 seconds 182 msec
