                         Program Version 3.0.3 - RELEASE   -
|  1> ! RI-MP2 RIJK def2-TZVP def2-TZVP/C def2-TZVP/JK TIGHTSCF
|  2> % maxcore 2000
|  3> % mp2 density relaxed end
|  4> *xyz 0 1
|  5>  C        0.0640056502     1.4905727899     0.1249704874
|  6>  C        0.0825089655    -0.0431341404    -0.0499655315
|  7>  C       -1.2699683405    -0.5770474344     0.1418867118
|  8>  N       -2.3434486871    -0.9841905522     0.2788133842
|  9>  C        0.6789887932    -0.5436911888    -1.4011402013
| 10>  C        0.5981855959    -2.0873731428    -1.4930522559
| 11>  C       -0.0096979599     0.0768625189    -2.6304019701
| 12>  C        2.1690444712    -0.2225268216    -1.4491240419
| 13>  O        2.8404480644     0.1456844864    -0.5201996454
| 14>  H        1.0726604978     1.8887086181     0.0085426943
| 15>  H       -0.6009577743     1.9696301365    -0.5972322042
| 16>  H       -0.2928818067     1.7455420144     1.1257427001
| 17>  H        0.7153452595    -0.4598505463     0.7419677634
| 18>  H       -0.4448132231    -2.4078225043    -1.5590901483
| 19>  H        1.1210328886    -2.4505612754    -2.3836660714
| 20>  H        1.0499874318    -2.5614009098    -0.6162128739
| 21>  H        0.0910778202     1.1651724007    -2.6571626449
| 22>  H        0.4247602848    -0.3213014632    -3.5528533776
| 23>  H       -1.0757497369    -0.1686141741    -2.6307434926
| 24>  H        2.6251016756    -0.3987512218    -2.4509727723
| 25> *
| 26>
| 27>                          ****END OF INPUT****

CARTESIAN COORDINATES (ANGSTROEM)
---------------------------------
  C      0.064006    1.490573    0.124970
  C      0.082509   -0.043134   -0.049966
  C     -1.269968   -0.577047    0.141887
  N     -2.343449   -0.984191    0.278813
  C      0.678989   -0.543691   -1.401140
  C      0.598186   -2.087373   -1.493052
  C     -0.009698    0.076863   -2.630402
  C      2.169044   -0.222527   -1.449124
  O      2.840448    0.145684   -0.520200
  H      1.072660    1.888709    0.008543
  H     -0.600958    1.969630   -0.597232
  H     -0.292882    1.745542    1.125743
  H      0.715345   -0.459851    0.741968
  H     -0.444813   -2.407823   -1.559090
  H      1.121033   -2.450561   -2.383666
  H      1.049987   -2.561401   -0.616213
  H      0.091078    1.165172   -2.657163
  H      0.424760   -0.321301   -3.552853
  H     -1.075750   -0.168614   -2.630743
  H      2.625102   -0.398751   -2.450973

 Total Charge           Charge          ....    0
 Multiplicity           Mult            ....    1
 Number of Electrons    NEL             ....   68
 Basis Dimension        Dim             ....  345

ORBITAL ENERGIES
----------------

  NO   OCC          E(Eh)            E(eV)
   0   2.0000     -20.575495      -559.8877
   1   2.0000     -15.569969      -423.6804
   2   2.0000     -11.348852      -308.8180
   3   2.0000     -11.289654      -307.2071
   4   2.0000     -11.281654      -306.9894
   5   2.0000     -11.273276      -306.7614
   6   2.0000     -11.245989      -306.0189
   7   2.0000     -11.245744      -306.0123
   8   2.0000     -11.240954      -305.8819
   9   2.0000      -1.416491       -38.5447
  10   2.0000      -1.222748       -33.2727
  11   2.0000      -1.147260       -31.2185
  12   2.0000      -1.049248       -28.5515
  13   2.0000      -0.966097       -26.2888
  14   2.0000      -0.909457       -24.7476
  15   2.0000      -0.895241       -24.3607
  16   2.0000      -0.786131       -21.3917
  17   2.0000      -0.707109       -19.2414
  18   2.0000      -0.680047       -18.5050
  19   2.0000      -0.653191       -17.7742
  20   2.0000      -0.638968       -17.3872
  21   2.0000      -0.618103       -16.8194
  22   2.0000      -0.593760       -16.1570
  23   2.0000      -0.572670       -15.5831
  24   2.0000      -0.565875       -15.3982
  25   2.0000      -0.557526       -15.1710
  26   2.0000      -0.551200       -14.9989
  27   2.0000      -0.545197       -14.8356
  28   2.0000      -0.529907       -14.4195
  29   2.0000      -0.510010       -13.8781
  30   2.0000      -0.498071       -13.5532
  31   2.0000      -0.456089       -12.4108
  32   2.0000      -0.455036       -12.3822
  33   2.0000      -0.429168       -11.6783
  34   0.0000       0.114660         3.1201
  35   0.0000       0.121671         3.3108
  36   0.0000       0.145491         3.9590
  37   0.0000       0.156556         4.2601
  38   0.0000       0.174769         4.7557

MULLIKEN ATOMIC CHARGES
-----------------------
   0 C :   -0.446524
   1 C :    0.075167
   2 C :   -0.216417
   3 N :   -0.047860
   4 C :    0.108075
   5 C :   -0.424059
   6 C :   -0.475804
   7 C :    0.063703
   8 O :   -0.262520
   9 H :    0.166122
  10 H :    0.144763
  11 H :    0.153778
  12 H :    0.140688
  13 H :    0.169423
  14 H :    0.141070
  15 H :    0.150614
  16 H :    0.151986
  17 H :    0.144884
  18 H :    0.167486
  19 H :    0.095425
Sum of atomic charges:   -0.0000000

LOEWDIN ATOMIC CHARGES
----------------------
   0 C :   -0.261002
   1 C :   -0.222654
   2 C :   -0.173209
   3 N :    0.058454
   4 C :   -0.297361
   5 C :   -0.249778
   6 C :   -0.256627
   7 C :   -0.251902
   8 O :    0.145995
   9 H :    0.133089
  10 H :    0.128107
  11 H :    0.133712
  12 H :    0.185164
  13 H :    0.139545
  14 H :    0.131027
  15 H :    0.133981
  16 H :    0.130017
  17 H :    0.131807
  18 H :    0.139214
  19 H :    0.122422

  Mayer bond orders larger than 0.1
B(  0-C ,  1-C ) :   0.8773 B(  0-C ,  9-H ) :   0.9350 B(  0-C , 10-H ) :   0.9299
B(  0-C , 11-H ) :   0.9326 B(  1-C ,  2-C ) :   0.8970 B(  1-C ,  4-C ) :   0.8595
B(  1-C , 12-H ) :   0.9045 B(  2-C ,  3-N ) :   2.8843 B(  4-C ,  5-C ) :   0.8994
B(  4-C ,  6-C ) :   0.9126 B(  4-C ,  7-C ) :   0.8214 B(  5-C , 13-H ) :   0.9223
B(  5-C , 14-H ) :   0.9241 B(  5-C , 15-H ) :   0.9300 B(  6-C , 16-H ) :   0.9320
B(  6-C , 17-H ) :   0.9257 B(  6-C , 18-H ) :   0.9254 B(  7-C ,  8-O ) :   1.9796
B(  7-C , 19-H ) :   0.9500

MP2 TOTAL ENERGY:     -402.494738601 Eh
FINAL SINGLE POINT ENERGY      -402.494738601145

DIPOLE MOMENT
-------------
                                X             Y             Z
Electronic contribution:      0.02358      -0.91931       4.46821
Nuclear contribution   :      0.69727       1.12533      -5.39445
                        -----------------------------------------
Total Dipole Moment    :      0.72085       0.20601      -0.92624
                        -----------------------------------------
Magnitude (a.u.)       :      1.19163
Magnitude (Debye)      :      3.02888

                             ****ORCA TERMINATED NORMALLY****
TOTAL RUN TIME: 0 days 0 hours 22 minutes 30 seconds 393 msec
