                         Program Version 3.0.3 - RELEASE   -
|  1> ! RI-MP2 RIJK def2-TZVP def2-TZVP/C def2-TZVP/JK TIGHTSCF
|  2> % maxcore 2000
|  3> % mp2 density relaxed end
|  4> *xyz 0 1
|  5>  O       -0.0693196154     1.4496843984    -0.0305951162
|  6>  C        0.0359222688     0.0374285571     0.0223536257
|  7>  C       -1.3828333927    -0.5194505310    -0.0275279373
|  8>  C       -1.4047379071    -2.0567261558     0.0313404063
|  9>  O       -0.7852739546    -2.5733030902     1.2030194801
| 10>  C       -2.7712526209    -2.5689161565    -0.1165983491
| 11>  C       -3.9049678337    -2.9788339213    -0.2005683033
| 12>  C       -5.1841568472    -3.4460227168    -0.3000391706
| 13>  N       -6.2730002036    -3.8419482259    -0.3836736434
| 14>  H        0.8132466775     1.8214796089     0.0560690988
| 15>  H        0.6160988943    -0.3561471717    -0.8290500896
| 16>  H        0.5328707240    -0.3025314703     0.9413379589
| 17>  H       -1.9634883185    -0.1129217170     0.8090819191
| 18>  H       -1.8737388737    -0.1841249928    -0.9473038352
| 19>  H       -0.8021813921    -2.4533312855    -0.7962199798
| 20>  H       -1.3194287551    -2.3106070998     1.9620703255
| 21> *
| 22>
| 23>                          ****END OF INPUT****

CARTESIAN COORDINATES (ANGSTROEM)
---------------------------------
  O     -0.069320    1.449684   -0.030595
  C      0.035922    0.037429    0.022354
  C     -1.382833   -0.519451   -0.027528
  C     -1.404738   -2.056726    0.031340
  O     -0.785274   -2.573303    1.203019
  C     -2.771253   -2.568916   -0.116598
  C     -3.904968   -2.978834   -0.200568
  C     -5.184157   -3.446023   -0.300039
  N     -6.273000   -3.841948   -0.383674
  H      0.813247    1.821480    0.056069
  H      0.616099   -0.356147   -0.829050
  H      0.532871   -0.302531    0.941338
  H     -1.963488   -0.112922    0.809082
  H     -1.873739   -0.184125   -0.947304
  H     -0.802181   -2.453331   -0.796220
  H     -1.319429   -2.310607    1.962070

 Total Charge           Charge          ....    0
 Multiplicity           Mult            ....    1
 Number of Electrons    NEL             ....   66
 Basis Dimension        Dim             ....  321

ORBITAL ENERGIES
----------------

  NO   OCC          E(Eh)            E(eV)
   0   2.0000     -20.593535      -560.3786
   1   2.0000     -20.572318      -559.8012
   2   2.0000     -15.599062      -424.4721
   3   2.0000     -11.343461      -308.6713
   4   2.0000     -11.305731      -307.6446
   5   2.0000     -11.296967      -307.4061
   6   2.0000     -11.295156      -307.3568
   7   2.0000     -11.286907      -307.1324
   8   2.0000     -11.253666      -306.2278
   9   2.0000      -1.401868       -38.1468
  10   2.0000      -1.377179       -37.4750
  11   2.0000      -1.238777       -33.7088
  12   2.0000      -1.115279       -30.3483
  13   2.0000      -1.065995       -29.0072
  14   2.0000      -0.969141       -26.3717
  15   2.0000      -0.882559       -24.0156
  16   2.0000      -0.846503       -23.0345
  17   2.0000      -0.749843       -20.4043
  18   2.0000      -0.723427       -19.6855
  19   2.0000      -0.691223       -18.8091
  20   2.0000      -0.642347       -17.4791
  21   2.0000      -0.638445       -17.3730
  22   2.0000      -0.593082       -16.1386
  23   2.0000      -0.583383       -15.8746
  24   2.0000      -0.564511       -15.3611
  25   2.0000      -0.546872       -14.8811
  26   2.0000      -0.537573       -14.6281
  27   2.0000      -0.532797       -14.4981
  28   2.0000      -0.506914       -13.7938
  29   2.0000      -0.494360       -13.4522
  30   2.0000      -0.461767       -12.5653
  31   2.0000      -0.415634       -11.3100
  32   2.0000      -0.409078       -11.1316
  33   0.0000       0.082474         2.2442
  34   0.0000       0.093709         2.5500
  35   0.0000       0.119757         3.2587
  36   0.0000       0.128340         3.4923
  37   0.0000       0.145660         3.9636

MULLIKEN ATOMIC CHARGES
-----------------------
   0 O :   -0.462520
   1 C :   -0.088147
   2 C :   -0.131866
   3 C :   -0.065344
   4 O :   -0.449794
   5 C :   -0.125774
   6 C :    0.335544
   7 C :   -0.215363
   8 N :   -0.034553
   9 H :    0.321097
  10 H :    0.092967
  11 H :    0.114373
  12 H :    0.119942
  13 H :    0.132917
  14 H :    0.131467
  15 H :    0.325052
Sum of atomic charges:    0.0000000

LOEWDIN ATOMIC CHARGES
----------------------
   0 O :   -0.046378
   1 C :   -0.349185
   2 C :   -0.239835
   3 C :   -0.332890
   4 O :    0.003490
   5 C :    0.022479
   6 C :   -0.048847
   7 C :   -0.173820
   8 N :    0.103527
   9 H :    0.175089
  10 H :    0.117062
  11 H :    0.118946
  12 H :    0.145930
  13 H :    0.152331
  14 H :    0.168736
  15 H :    0.183364

  Mayer bond orders larger than 0.1
B(  0-O ,  1-C ) :   1.0364 B(  0-O ,  9-H ) :   0.8467 B(  1-C ,  2-C ) :   0.9265
B(  1-C , 10-H ) :   0.9314 B(  1-C , 11-H ) :   0.9323 B(  2-C ,  3-C ) :   0.9599
B(  2-C , 12-H ) :   0.8981 B(  2-C , 13-H ) :   0.9181 B(  3-C ,  4-O ) :   0.8883
B(  3-C ,  5-C ) :   1.0715 B(  3-C ,  6-C ) :  -0.1241 B(  3-C , 14-H ) :   0.8927
B(  4-O ,  5-C ) :   0.1082 B(  4-O , 15-H ) :   0.8357 B(  5-C ,  6-C ) :   2.5463
B(  5-C ,  8-N ) :   0.1115 B(  6-C ,  7-C ) :   0.9487 B(  7-C ,  8-N ) :   2.7578

MP2 TOTAL ENERGY:     -437.133483619 Eh
FINAL SINGLE POINT ENERGY      -437.133483619317

DIPOLE MOMENT
-------------
                                X             Y             Z
Electronic contribution:     -9.30926      -6.82574      -0.50557
Nuclear contribution   :     11.03404       7.60927       0.74206
                        -----------------------------------------
Total Dipole Moment    :      1.72478       0.78353       0.23649
                        -----------------------------------------
Magnitude (a.u.)       :      1.90911
Magnitude (Debye)      :      4.85257

                             ****ORCA TERMINATED NORMALLY****
TOTAL RUN TIME: 0 days 0 hours 13 minutes 19 seconds 906 msec
