                         Program Version 3.0.3 - RELEASE   -
|  1> ! RI-MP2 RIJK def2-TZVP def2-TZVP/C def2-TZVP/JK TIGHTSCF
|  2> % maxcore 2000
|  3> % mp2 density relaxed end
|  4> *xyz 0 1
|  5>  O       -0.0128817208     1.4301226604    -0.1163680260
|  6>  C        0.0107907753     0.0142372912    -0.0036706020
|  7>  C        0.5369142139    -0.5289254954     1.3876886690
|  8>  N       -0.4841284826    -1.4096809598     1.9879331668
|  9>  C       -1.4873003757    -1.3705844260     1.1914753266
| 10>  N       -2.7263681928    -1.9569730682     1.1944493083
| 11>  C       -3.5376497400    -1.3927949673     0.1124180410
| 12>  C       -2.5489383786    -0.5238021555    -0.6476989929
| 13>  C       -1.3814983436    -0.5394563228    -0.0054247860
| 14>  H        0.8987486566     1.7388462849    -0.0959554186
| 15>  H        0.6010314529    -0.4210712043    -0.8247603801
| 16>  H        1.4825752431    -1.0736978679     1.2777560143
| 17>  H        0.7296747112     0.3292814389     2.0455811389
| 18>  H       -3.1459575392    -2.3055180624     2.0398192945
| 19>  H       -3.9684126258    -2.1800509443    -0.5232257227
| 20>  H       -4.3798743370    -0.7960188297     0.4960497961
| 21>  H       -2.8213345067     0.0057502281    -1.5509007872
| 22> *
| 23>
| 24>                          ****END OF INPUT****

CARTESIAN COORDINATES (ANGSTROEM)
---------------------------------
  O     -0.012882    1.430123   -0.116368
  C      0.010791    0.014237   -0.003671
  C      0.536914   -0.528925    1.387689
  N     -0.484128   -1.409681    1.987933
  C     -1.487300   -1.370584    1.191475
  N     -2.726368   -1.956973    1.194449
  C     -3.537650   -1.392795    0.112418
  C     -2.548938   -0.523802   -0.647699
  C     -1.381498   -0.539456   -0.005425
  H      0.898749    1.738846   -0.095955
  H      0.601031   -0.421071   -0.824760
  H      1.482575   -1.073698    1.277756
  H      0.729675    0.329281    2.045581
  H     -3.145958   -2.305518    2.039819
  H     -3.968413   -2.180051   -0.523226
  H     -4.379874   -0.796019    0.496050
  H     -2.821335    0.005750   -1.550901

 Total Charge           Charge          ....    0
 Multiplicity           Mult            ....    1
 Number of Electrons    NEL             ....   66
 Basis Dimension        Dim             ....  327

ORBITAL ENERGIES
----------------

  NO   OCC          E(Eh)            E(eV)
   0   2.0000     -20.563532      -559.5622
   1   2.0000     -15.573935      -423.7883
   2   2.0000     -15.522363      -422.3850
   3   2.0000     -11.296141      -307.3836
   4   2.0000     -11.293786      -307.3195
   5   2.0000     -11.281201      -306.9771
   6   2.0000     -11.253698      -306.2287
   7   2.0000     -11.245858      -306.0154
   8   2.0000     -11.236866      -305.7707
   9   2.0000      -1.369108       -37.2553
  10   2.0000      -1.290155       -35.1069
  11   2.0000      -1.195662       -32.5356
  12   2.0000      -1.077088       -29.3090
  13   2.0000      -0.972210       -26.4552
  14   2.0000      -0.961775       -26.1712
  15   2.0000      -0.844065       -22.9682
  16   2.0000      -0.806400       -21.9432
  17   2.0000      -0.742361       -20.2007
  18   2.0000      -0.702623       -19.1194
  19   2.0000      -0.680410       -18.5149
  20   2.0000      -0.641038       -17.4435
  21   2.0000      -0.619673       -16.8622
  22   2.0000      -0.612133       -16.6570
  23   2.0000      -0.577572       -15.7165
  24   2.0000      -0.564372       -15.3574
  25   2.0000      -0.545638       -14.8476
  26   2.0000      -0.541892       -14.7456
  27   2.0000      -0.490377       -13.3438
  28   2.0000      -0.486255       -13.2317
  29   2.0000      -0.463365       -12.6088
  30   2.0000      -0.395743       -10.7687
  31   2.0000      -0.386501       -10.5172
  32   2.0000      -0.324902        -8.8410
  33   0.0000       0.109143         2.9699
  34   0.0000       0.139529         3.7968
  35   0.0000       0.145214         3.9515
  36   0.0000       0.166288         4.5249
  37   0.0000       0.177338         4.8256

MULLIKEN ATOMIC CHARGES
-----------------------
   0 O :   -0.453325
   1 C :   -0.037046
   2 C :   -0.055081
   3 N :   -0.227503
   4 C :    0.032950
   5 N :   -0.346354
   6 C :   -0.022949
   7 C :   -0.215748
   8 C :    0.062247
   9 H :    0.317679
  10 H :    0.100876
  11 H :    0.105494
  12 H :    0.099189
  13 H :    0.241135
  14 H :    0.126322
  15 H :    0.125310
  16 H :    0.146804
Sum of atomic charges:    0.0000000

LOEWDIN ATOMIC CHARGES
----------------------
   0 O :   -0.019135
   1 C :   -0.290155
   2 C :   -0.253855
   3 N :    0.072101
   4 C :   -0.327732
   5 N :    0.110998
   6 C :   -0.241522
   7 C :   -0.098003
   8 C :   -0.113647
   9 H :    0.175206
  10 H :    0.140068
  11 H :    0.123249
  12 H :    0.128253
  13 H :    0.181481
  14 H :    0.134781
  15 H :    0.135696
  16 H :    0.142215

  Mayer bond orders larger than 0.1
B(  0-O ,  1-C ) :   1.1360 B(  0-O ,  8-C ) :  -0.1429 B(  0-O ,  9-H ) :   0.8455
B(  1-C ,  2-C ) :   0.9389 B(  1-C ,  8-C ) :   0.8874 B(  1-C , 10-H ) :   0.9443
B(  2-C ,  3-N ) :   0.9320 B(  2-C , 11-H ) :   0.9191 B(  2-C , 12-H ) :   0.9107
B(  3-N ,  4-C ) :   1.8537 B(  4-C ,  5-N ) :   1.1622 B(  4-C ,  8-C ) :   0.9858
B(  5-N ,  6-C ) :   0.9037 B(  5-N , 13-H ) :   0.8679 B(  6-C ,  7-C ) :   0.9950
B(  6-C , 14-H ) :   0.9090 B(  6-C , 15-H ) :   0.9105 B(  7-C ,  8-C ) :   1.6687
B(  7-C , 16-H ) :   0.9119

MP2 TOTAL ENERGY:     -417.310532243 Eh
FINAL SINGLE POINT ENERGY      -417.310532242637

DIPOLE MOMENT
-------------
                                X             Y             Z
Electronic contribution:      0.05792      -0.40753       0.84553
Nuclear contribution   :     -0.45055       0.51448      -1.54600
                        -----------------------------------------
Total Dipole Moment    :     -0.39263       0.10695      -0.70047
                        -----------------------------------------
Magnitude (a.u.)       :      0.81009
Magnitude (Debye)      :      2.05910

                             ****ORCA TERMINATED NORMALLY****
TOTAL RUN TIME: 0 days 0 hours 17 minutes 21 seconds 854 msec
