                         Program Version 3.0.3 - RELEASE   -
|  1> ! RI-MP2 RIJK def2-TZVP def2-TZVP/C def2-TZVP/JK TIGHTSCF
|  2> % maxcore 2000
|  3> % mp2 density relaxed end
|  4> *xyz 0 1
|  5>  C       -0.0869668206     1.5550885454    -0.2599450256
|  6>  C        0.0154532656     0.0316276325    -0.2208571198
|  7>  C        0.8693577814    -0.5905108144    -1.3585019687
|  8>  C        1.3806991765    -1.9237355768    -0.8063846177
|  9>  C        2.6104407215    -1.9371035169     0.0849448603
| 10>  C        3.6140396429    -0.8105433311     0.1180923110
| 11>  O        4.5403127746    -0.8951539405    -0.9590671977
| 12>  C        1.2325459633    -1.8884131138     0.7054727613
| 13>  C        0.6136348163    -0.5429916846     1.0916009272
| 14>  H        0.9027293589     2.0184054434    -0.1668761777
| 15>  H       -0.5289274526     1.9031383156    -1.1997744917
| 16>  H       -0.7081758671     1.9340337253     0.5586597563
| 17>  H       -0.9950560159    -0.3866169932    -0.3191581972
| 18>  H        0.2769252224    -0.7415734442    -2.2657729568
| 19>  H        1.6876695238     0.0868892136    -1.6364140384
| 20>  H        1.1557212998    -2.8271711527    -1.3625667054
| 21>  H        3.0933562492    -2.9097830338     0.1510034941
| 22>  H        3.1180912199     0.1699019814     0.1297546650
| 23>  H        4.2169105931    -0.8703628910     1.0310363365
| 24>  H        4.0243868066    -0.9994795598    -1.7655323751
| 25>  H        0.9074788632    -2.7700482232     1.2470114398
| 26>  H        1.3503082686     0.1473967047     1.5191602862
| 27>  H       -0.1593468213    -0.6750591160     1.8546198940
| 28> *
| 29>
| 30>                          ****END OF INPUT****

CARTESIAN COORDINATES (ANGSTROEM)
---------------------------------
  C     -0.086967    1.555089   -0.259945
  C      0.015453    0.031628   -0.220857
  C      0.869358   -0.590511   -1.358502
  C      1.380699   -1.923736   -0.806385
  C      2.610441   -1.937104    0.084945
  C      3.614040   -0.810543    0.118092
  O      4.540313   -0.895154   -0.959067
  C      1.232546   -1.888413    0.705473
  C      0.613635   -0.542992    1.091601
  H      0.902729    2.018405   -0.166876
  H     -0.528927    1.903138   -1.199774
  H     -0.708176    1.934034    0.558660
  H     -0.995056   -0.386617   -0.319158
  H      0.276925   -0.741573   -2.265773
  H      1.687670    0.086889   -1.636414
  H      1.155721   -2.827171   -1.362567
  H      3.093356   -2.909783    0.151003
  H      3.118091    0.169902    0.129755
  H      4.216911   -0.870363    1.031036
  H      4.024387   -0.999480   -1.765532
  H      0.907479   -2.770048    1.247011
  H      1.350308    0.147397    1.519160
  H     -0.159347   -0.675059    1.854620

 Total Charge           Charge          ....    0
 Multiplicity           Mult            ....    1
 Number of Electrons    NEL             ....   70
 Basis Dimension        Dim             ....  363

ORBITAL ENERGIES
----------------

  NO   OCC          E(Eh)            E(eV)
   0   2.0000     -20.548842      -559.1624
   1   2.0000     -11.271481      -306.7126
   2   2.0000     -11.230249      -305.5906
   3   2.0000     -11.229463      -305.5692
   4   2.0000     -11.228348      -305.5389
   5   2.0000     -11.228306      -305.5377
   6   2.0000     -11.223819      -305.4157
   7   2.0000     -11.221761      -305.3596
   8   2.0000     -11.215064      -305.1774
   9   2.0000      -1.352725       -36.8095
  10   2.0000      -1.173380       -31.9293
  11   2.0000      -1.062040       -28.8996
  12   2.0000      -0.963479       -26.2176
  13   2.0000      -0.956245       -26.0207
  14   2.0000      -0.916005       -24.9258
  15   2.0000      -0.787735       -21.4354
  16   2.0000      -0.759384       -20.6639
  17   2.0000      -0.755540       -20.5593
  18   2.0000      -0.702696       -19.1213
  19   2.0000      -0.661493       -18.0001
  20   2.0000      -0.631718       -17.1899
  21   2.0000      -0.606044       -16.4913
  22   2.0000      -0.603300       -16.4166
  23   2.0000      -0.571242       -15.5443
  24   2.0000      -0.556478       -15.1425
  25   2.0000      -0.553972       -15.0743
  26   2.0000      -0.531348       -14.4587
  27   2.0000      -0.511657       -13.9229
  28   2.0000      -0.493171       -13.4199
  29   2.0000      -0.473888       -12.8951
  30   2.0000      -0.462763       -12.5924
  31   2.0000      -0.454734       -12.3739
  32   2.0000      -0.438075       -11.9206
  33   2.0000      -0.400602       -10.9009
  34   2.0000      -0.386806       -10.5255
  35   0.0000       0.129588         3.5263
  36   0.0000       0.150305         4.0900
  37   0.0000       0.150850         4.1048
  38   0.0000       0.165978         4.5165
  39   0.0000       0.186235         5.0677

MULLIKEN ATOMIC CHARGES
-----------------------
   0 C :   -0.426173
   1 C :    0.009531
   2 C :   -0.304755
   3 C :   -0.079509
   4 C :   -0.238701
   5 C :   -0.017436
   6 O :   -0.470625
   7 C :   -0.043452
   8 C :   -0.325702
   9 H :    0.123930
  10 H :    0.132665
  11 H :    0.133625
  12 H :    0.096016
  13 H :    0.126268
  14 H :    0.118368
  15 H :    0.129650
  16 H :    0.117117
  17 H :    0.102994
  18 H :    0.118364
  19 H :    0.315545
  20 H :    0.128975
  21 H :    0.129068
  22 H :    0.124238
Sum of atomic charges:    0.0000000

LOEWDIN ATOMIC CHARGES
----------------------
   0 C :   -0.300732
   1 C :   -0.261523
   2 C :   -0.216898
   3 C :   -0.182266
   4 C :   -0.207321
   5 C :   -0.326568
   6 O :   -0.050560
   7 C :   -0.172990
   8 C :   -0.213800
   9 H :    0.121781
  10 H :    0.123787
  11 H :    0.124129
  12 H :    0.152001
  13 H :    0.138557
  14 H :    0.135121
  15 H :    0.141456
  16 H :    0.154411
  17 H :    0.117274
  18 H :    0.132736
  19 H :    0.172862
  20 H :    0.142823
  21 H :    0.137211
  22 H :    0.138507

  Mayer bond orders larger than 0.1
B(  0-C ,  1-C ) :   0.8936 B(  0-C ,  9-H ) :   0.9360 B(  0-C , 10-H ) :   0.9402
B(  0-C , 11-H ) :   0.9402 B(  1-C ,  2-C ) :   0.9403 B(  1-C ,  8-C ) :   0.9375
B(  1-C , 12-H ) :   0.9296 B(  2-C ,  3-C ) :   0.8936 B(  2-C , 13-H ) :   0.9275
B(  2-C , 14-H ) :   0.9273 B(  3-C ,  4-C ) :   0.8876 B(  3-C ,  7-C ) :   0.8236
B(  3-C , 15-H ) :   0.9247 B(  4-C ,  5-C ) :   0.9488 B(  4-C ,  7-C ) :   0.8631
B(  4-C , 16-H ) :   0.9361 B(  5-C ,  6-O ) :   0.9147 B(  5-C , 17-H ) :   0.9258
B(  5-C , 18-H ) :   0.9288 B(  6-O , 19-H ) :   0.8458 B(  7-C ,  8-C ) :   0.8918
B(  7-C , 20-H ) :   0.9206 B(  8-C , 21-H ) :   0.9313 B(  8-C , 22-H ) :   0.9275

MP2 TOTAL ENERGY:     -387.616457766 Eh
FINAL SINGLE POINT ENERGY      -387.616457766115

DIPOLE MOMENT
-------------
                                X             Y             Z
Electronic contribution:      4.18774      -4.27135      -0.55473
Nuclear contribution   :     -5.04663       4.18876       0.53889
                        -----------------------------------------
Total Dipole Moment    :     -0.85889      -0.08259      -0.01584
                        -----------------------------------------
Magnitude (a.u.)       :      0.86300
Magnitude (Debye)      :      2.19357

                             ****ORCA TERMINATED NORMALLY****
TOTAL RUN TIME: 0 days 0 hours 33 minutes 18 seconds 236 msec
