                         Program Version 3.0.3 - RELEASE   -
|  1> ! RI-MP2 RIJK def2-TZVP def2-TZVP/C def2-TZVP/JK TIGHTSCF
|  2> % maxcore 2000
|  3> % mp2 density relaxed end
|  4> *xyz 0 1
|  5>  C       -0.0507271545     1.5279485441    -0.0248242203
|  6>  C        0.0813218238     0.0187670460    -0.0192044198
|  7>  O        1.1476459382    -0.5454308775    -0.0365763529
|  8>  N       -1.1287968117    -0.7057528757     0.0075950338
|  9>  C       -2.4157360915    -0.1794499552     0.0275974607
| 10>  N       -3.3277742208    -1.1032203531     0.0495104883
| 11>  C       -2.6289933270    -2.3009247791     0.0442098849
| 12>  C       -1.2805778952    -2.1044968414     0.0187161343
| 13>  C       -0.1632344033    -3.0903004601     0.0046702378
| 14>  H        0.9539509822     1.9480967548    -0.0426396382
| 15>  H       -0.6049414044     1.8727370520    -0.9028538259
| 16>  H       -0.5781171895     1.8825157598     0.8656505518
| 17>  H       -2.5974740138     0.8832134855     0.0242679857
| 18>  H       -3.1467980691    -3.2483261151     0.0593433389
| 19>  H        0.4653044175    -2.9870177832    -0.8841872660
| 20>  H        0.4971115478    -2.9759223488     0.8687820940
| 21>  H       -0.5882924787    -4.0974392930     0.0188024829
| 22> *
| 23>
| 24>                          ****END OF INPUT****

CARTESIAN COORDINATES (ANGSTROEM)
---------------------------------
  C     -0.050727    1.527949   -0.024824
  C      0.081322    0.018767   -0.019204
  O      1.147646   -0.545431   -0.036576
  N     -1.128797   -0.705753    0.007595
  C     -2.415736   -0.179450    0.027597
  N     -3.327774   -1.103220    0.049510
  C     -2.628993   -2.300925    0.044210
  C     -1.280578   -2.104497    0.018716
  C     -0.163234   -3.090300    0.004670
  H      0.953951    1.948097   -0.042640
  H     -0.604941    1.872737   -0.902854
  H     -0.578117    1.882516    0.865651
  H     -2.597474    0.883213    0.024268
  H     -3.146798   -3.248326    0.059343
  H      0.465304   -2.987018   -0.884187
  H      0.497112   -2.975922    0.868782
  H     -0.588292   -4.097439    0.018802

 Total Charge           Charge          ....    0
 Multiplicity           Mult            ....    1
 Number of Electrons    NEL             ....   66
 Basis Dimension        Dim             ....  327

ORBITAL ENERGIES
----------------

  NO   OCC          E(Eh)            E(eV)
   0   2.0000     -20.559632      -559.4560
   1   2.0000     -15.637466      -425.5171
   2   2.0000     -15.561277      -423.4439
   3   2.0000     -11.388850      -309.9064
   4   2.0000     -11.310374      -307.7709
   5   2.0000     -11.277325      -306.8716
   6   2.0000     -11.260578      -306.4159
   7   2.0000     -11.247241      -306.0530
   8   2.0000     -11.231007      -305.6112
   9   2.0000      -1.426856       -38.8267
  10   2.0000      -1.346480       -36.6396
  11   2.0000      -1.195214       -32.5234
  12   2.0000      -1.069874       -29.1128
  13   2.0000      -1.020066       -27.7574
  14   2.0000      -0.943818       -25.6826
  15   2.0000      -0.885127       -24.0855
  16   2.0000      -0.809787       -22.0354
  17   2.0000      -0.748935       -20.3796
  18   2.0000      -0.719470       -19.5778
  19   2.0000      -0.661730       -18.0066
  20   2.0000      -0.649682       -17.6787
  21   2.0000      -0.629364       -17.1259
  22   2.0000      -0.601665       -16.3721
  23   2.0000      -0.599737       -16.3197
  24   2.0000      -0.573234       -15.5985
  25   2.0000      -0.566591       -15.4177
  26   2.0000      -0.556290       -15.1374
  27   2.0000      -0.554233       -15.0815
  28   2.0000      -0.528770       -14.3886
  29   2.0000      -0.460921       -12.5423
  30   2.0000      -0.445007       -12.1092
  31   2.0000      -0.410762       -11.1774
  32   2.0000      -0.326009        -8.8712
  33   0.0000       0.100910         2.7459
  34   0.0000       0.122040         3.3209
  35   0.0000       0.153465         4.1760
  36   0.0000       0.179368         4.8809
  37   0.0000       0.182607         4.9690

MULLIKEN ATOMIC CHARGES
-----------------------
   0 C :   -0.443888
   1 C :    0.266430
   2 O :   -0.295770
   3 N :   -0.055142
   4 C :   -0.014414
   5 N :   -0.258728
   6 C :   -0.125687
   7 C :    0.039617
   8 C :   -0.341286
   9 H :    0.171192
  10 H :    0.162828
  11 H :    0.162691
  12 H :    0.159164
  13 H :    0.137987
  14 H :    0.148196
  15 H :    0.148121
  16 H :    0.138689
Sum of atomic charges:   -0.0000000

LOEWDIN ATOMIC CHARGES
----------------------
   0 C :   -0.269370
   1 C :   -0.382737
   2 O :    0.156303
   3 N :    0.276885
   4 C :   -0.280680
   5 N :    0.100380
   6 C :   -0.222621
   7 C :   -0.208729
   8 C :   -0.271855
   9 H :    0.141827
  10 H :    0.140160
  11 H :    0.140017
  12 H :    0.135910
  13 H :    0.136943
  14 H :    0.135788
  15 H :    0.135783
  16 H :    0.135994

  Mayer bond orders larger than 0.1
B(  0-C ,  1-C ) :   0.9157 B(  0-C ,  9-H ) :   0.9323 B(  0-C , 10-H ) :   0.9154
B(  0-C , 11-H ) :   0.9156 B(  1-C ,  2-O ) :   1.9671 B(  1-C ,  3-N ) :   0.9736
B(  3-N ,  4-C ) :   1.0865 B(  3-N ,  7-C ) :   1.0428 B(  4-C ,  5-N ) :   1.6582
B(  4-C , 12-H ) :   0.9173 B(  5-N ,  6-C ) :   1.2174 B(  6-C ,  7-C ) :   1.5601
B(  6-C , 13-H ) :   0.9405 B(  7-C ,  8-C ) :   0.8990 B(  8-C , 14-H ) :   0.9252
B(  8-C , 15-H ) :   0.9252 B(  8-C , 16-H ) :   0.9389

MP2 TOTAL ENERGY:     -417.364800298 Eh
FINAL SINGLE POINT ENERGY      -417.364800297880

DIPOLE MOMENT
-------------
                                X             Y             Z
Electronic contribution:     -2.03887      -0.06003       0.03426
Nuclear contribution   :      2.46041       0.61856      -0.04425
                        -----------------------------------------
Total Dipole Moment    :      0.42154       0.55853      -0.00999
                        -----------------------------------------
Magnitude (a.u.)       :      0.69983
Magnitude (Debye)      :      1.77881

                             ****ORCA TERMINATED NORMALLY****
TOTAL RUN TIME: 0 days 0 hours 16 minutes 58 seconds 318 msec
