                         Program Version 3.0.3 - RELEASE   -
|  1> ! RI-MP2 RIJK def2-TZVP def2-TZVP/C def2-TZVP/JK TIGHTSCF
|  2> % maxcore 2000
|  3> % mp2 density relaxed end
|  4> *xyz 0 1
|  5>  C        0.2756380005     1.4964373649    -0.0498052244
|  6>  C        0.1196232912     0.0015784139     0.0001706233
|  7>  C       -1.0049137758    -0.6935660177     0.7108267873
|  8>  C        0.4100705412    -0.9508150470     1.2040849376
|  9>  N        1.1116849237    -2.0869712743     0.6944474449
| 10>  C        1.2023362401    -1.9193926951    -0.5864383875
| 11>  N        0.6507759025    -0.7711885916    -1.0937478577
| 12>  C        1.9095284577    -2.8685674676    -1.4695366918
| 13>  O        2.0523113771    -2.6806720150    -2.6558413457
| 14>  H        1.3207200960     1.7832891495    -0.2081988762
| 15>  H       -0.3275080388     1.9342871947    -0.8541188879
| 16>  H       -0.0600912545     1.9430261608     0.8898522324
| 17>  H       -1.6161975750    -0.0838018560     1.3672359383
| 18>  H       -1.5304618324    -1.4951257790     0.2024866964
| 19>  H        0.6769560000    -0.6204215831     2.2021787724
| 20>  H        0.9817416886    -0.3709481670    -1.9570950979
| 21>  H        2.3187065079    -3.7503083502    -0.9408357934
| 22> *
| 23>
| 24>                          ****END OF INPUT****

CARTESIAN COORDINATES (ANGSTROEM)
---------------------------------
  C      0.275638    1.496437   -0.049805
  C      0.119623    0.001578    0.000171
  C     -1.004914   -0.693566    0.710827
  C      0.410071   -0.950815    1.204085
  N      1.111685   -2.086971    0.694447
  C      1.202336   -1.919393   -0.586438
  N      0.650776   -0.771189   -1.093748
  C      1.909528   -2.868567   -1.469537
  O      2.052311   -2.680672   -2.655841
  H      1.320720    1.783289   -0.208199
  H     -0.327508    1.934287   -0.854119
  H     -0.060091    1.943026    0.889852
  H     -1.616198   -0.083802    1.367236
  H     -1.530462   -1.495126    0.202487
  H      0.676956   -0.620422    2.202179
  H      0.981742   -0.370948   -1.957095
  H      2.318707   -3.750308   -0.940836

 Total Charge           Charge          ....    0
 Multiplicity           Mult            ....    1
 Number of Electrons    NEL             ....   66
 Basis Dimension        Dim             ....  327

ORBITAL ENERGIES
----------------

  NO   OCC          E(Eh)            E(eV)
   0   2.0000     -20.577548      -559.9436
   1   2.0000     -15.588069      -424.1729
   2   2.0000     -15.561886      -423.4605
   3   2.0000     -11.348652      -308.8125
   4   2.0000     -11.317714      -307.9706
   5   2.0000     -11.288236      -307.1685
   6   2.0000     -11.267514      -306.6047
   7   2.0000     -11.239148      -305.8328
   8   2.0000     -11.234365      -305.7026
   9   2.0000      -1.413983       -38.4764
  10   2.0000      -1.332569       -36.2611
  11   2.0000      -1.171621       -31.8814
  12   2.0000      -1.124528       -30.6000
  13   2.0000      -0.984789       -26.7975
  14   2.0000      -0.942569       -25.6486
  15   2.0000      -0.823727       -22.4148
  16   2.0000      -0.809375       -22.0242
  17   2.0000      -0.781943       -21.2778
  18   2.0000      -0.717992       -19.5376
  19   2.0000      -0.674244       -18.3471
  20   2.0000      -0.648806       -17.6549
  21   2.0000      -0.638344       -17.3702
  22   2.0000      -0.608030       -16.5453
  23   2.0000      -0.591129       -16.0854
  24   2.0000      -0.575122       -15.6499
  25   2.0000      -0.558134       -15.1876
  26   2.0000      -0.540870       -14.7178
  27   2.0000      -0.526091       -14.3157
  28   2.0000      -0.490743       -13.3538
  29   2.0000      -0.468222       -12.7410
  30   2.0000      -0.443244       -12.0613
  31   2.0000      -0.374172       -10.1817
  32   2.0000      -0.345073        -9.3899
  33   0.0000       0.074286         2.0214
  34   0.0000       0.128028         3.4838
  35   0.0000       0.167915         4.5692
  36   0.0000       0.176598         4.8055
  37   0.0000       0.180890         4.9223

MULLIKEN ATOMIC CHARGES
-----------------------
   0 C :   -0.418909
   1 C :    0.155358
   2 C :   -0.253465
   3 C :   -0.028429
   4 N :   -0.259352
   5 C :    0.159943
   6 N :   -0.345866
   7 C :    0.077915
   8 O :   -0.285553
   9 H :    0.140010
  10 H :    0.146579
  11 H :    0.135469
  12 H :    0.136014
  13 H :    0.143183
  14 H :    0.134028
  15 H :    0.252015
  16 H :    0.111061
Sum of atomic charges:   -0.0000000

LOEWDIN ATOMIC CHARGES
----------------------
   0 C :   -0.269885
   1 C :   -0.276963
   2 C :   -0.188391
   3 C :   -0.220401
   4 N :    0.127214
   5 C :   -0.353770
   6 N :    0.166593
   7 C :   -0.254312
   8 O :    0.130937
   9 H :    0.129761
  10 H :    0.131480
  11 H :    0.136347
  12 H :    0.141560
  13 H :    0.140841
  14 H :    0.139435
  15 H :    0.193076
  16 H :    0.126478

  Mayer bond orders larger than 0.1
B(  0-C ,  1-C ) :   0.8994 B(  0-C ,  9-H ) :   0.9358 B(  0-C , 10-H ) :   0.9378
B(  0-C , 11-H ) :   0.9312 B(  1-C ,  2-C ) :   0.8817 B(  1-C ,  3-C ) :   0.8327
B(  1-C ,  6-N ) :   0.9529 B(  2-C ,  3-C ) :   0.8284 B(  2-C , 12-H ) :   0.9290
B(  2-C , 13-H ) :   0.9125 B(  3-C ,  4-N ) :   1.0011 B(  3-C , 14-H ) :   0.9359
B(  4-N ,  5-C ) :   1.7118 B(  5-C ,  6-N ) :   1.1549 B(  5-C ,  7-C ) :   0.8511
B(  6-N , 15-H ) :   0.8585 B(  7-C ,  8-O ) :   1.9552 B(  7-C , 16-H ) :   0.9627

MP2 TOTAL ENERGY:     -417.306775968 Eh
FINAL SINGLE POINT ENERGY      -417.306775968452

DIPOLE MOMENT
-------------
                                X             Y             Z
Electronic contribution:      3.58386      -6.84729      -3.32597
Nuclear contribution   :     -4.02463       7.99173       3.62975
                        -----------------------------------------
Total Dipole Moment    :     -0.44077       1.14444       0.30378
                        -----------------------------------------
Magnitude (a.u.)       :      1.26345
Magnitude (Debye)      :      3.21144

                             ****ORCA TERMINATED NORMALLY****
TOTAL RUN TIME: 0 days 0 hours 16 minutes 47 seconds 910 msec
