                         Program Version 3.0.3 - RELEASE   -
|  1> ! RI-MP2 RIJK def2-TZVP def2-TZVP/C def2-TZVP/JK TIGHTSCF
|  2> % maxcore 2000
|  3> % mp2 density relaxed end
|  4> *xyz 0 1
|  5>  C        0.1495783048     1.6199353466    -0.0767729793
|  6>  C        0.1259193820     0.1261703560     0.0839340482
|  7>  O       -1.2064926095    -0.3607169932     0.4601846832
|  8>  C       -0.7059271032    -1.0309583085     1.5618568624
|  9>  N       -1.2994145675    -1.6637183812     2.4673599778
| 10>  C        0.7347801993    -0.7293650404     1.2428667628
| 11>  C        1.2961545296    -1.7386805590     0.1897050180
| 12>  C        0.7956065613    -0.8027862298    -0.9578467525
| 13>  O       -0.0909317421    -1.3009560109    -1.9214698623
| 14>  H        1.1678561824     1.9723200032    -0.2673509053
| 15>  H       -0.4800416768     1.9162888931    -0.9225374970
| 16>  H       -0.2287472954     2.1143124261     0.8224630779
| 17>  H       -2.3100855309    -1.6612292005     2.3172059210
| 18>  H        1.3887054106    -0.3602001242     2.0290697295
| 19>  H        2.3796814971    -1.8664440249     0.2233708464
| 20>  H        0.8158515294    -2.7183941786     0.2172341163
| 21>  H        1.6436421731    -0.2742655053    -1.4198249442
| 22>  H        0.4032977358    -1.8576214388    -2.5314956232
| 23> *
| 24>
| 25>                          ****END OF INPUT****

CARTESIAN COORDINATES (ANGSTROEM)
---------------------------------
  C      0.149578    1.619935   -0.076773
  C      0.125919    0.126170    0.083934
  O     -1.206493   -0.360717    0.460185
  C     -0.705927   -1.030958    1.561857
  N     -1.299415   -1.663718    2.467360
  C      0.734780   -0.729365    1.242867
  C      1.296155   -1.738681    0.189705
  C      0.795607   -0.802786   -0.957847
  O     -0.090932   -1.300956   -1.921470
  H      1.167856    1.972320   -0.267351
  H     -0.480042    1.916289   -0.922537
  H     -0.228747    2.114312    0.822463
  H     -2.310086   -1.661229    2.317206
  H      1.388705   -0.360200    2.029070
  H      2.379681   -1.866444    0.223371
  H      0.815852   -2.718394    0.217234
  H      1.643642   -0.274266   -1.419825
  H      0.403298   -1.857621   -2.531496

 Total Charge           Charge          ....    0
 Multiplicity           Mult            ....    1
 Number of Electrons    NEL             ....   68
 Basis Dimension        Dim             ....  333

ORBITAL ENERGIES
----------------

  NO   OCC          E(Eh)            E(eV)
   0   2.0000     -20.584581      -560.1349
   1   2.0000     -20.570633      -559.7554
   2   2.0000     -15.531472      -422.6328
   3   2.0000     -11.334456      -308.4262
   4   2.0000     -11.306924      -307.6771
   5   2.0000     -11.299033      -307.4623
   6   2.0000     -11.253181      -306.2146
   7   2.0000     -11.244162      -305.9692
   8   2.0000     -11.232375      -305.6485
   9   2.0000      -1.432337       -38.9759
  10   2.0000      -1.377511       -37.4840
  11   2.0000      -1.191908       -32.4335
  12   2.0000      -1.128142       -30.6983
  13   2.0000      -1.013051       -27.5665
  14   2.0000      -0.943483       -25.6735
  15   2.0000      -0.873875       -23.7793
  16   2.0000      -0.792247       -21.5581
  17   2.0000      -0.729463       -19.8497
  18   2.0000      -0.719995       -19.5921
  19   2.0000      -0.698147       -18.9975
  20   2.0000      -0.672934       -18.3115
  21   2.0000      -0.641026       -17.4432
  22   2.0000      -0.618858       -16.8400
  23   2.0000      -0.588146       -16.0043
  24   2.0000      -0.572737       -15.5850
  25   2.0000      -0.561295       -15.2736
  26   2.0000      -0.549388       -14.9496
  27   2.0000      -0.529605       -14.4113
  28   2.0000      -0.505190       -13.7469
  29   2.0000      -0.469785       -12.7835
  30   2.0000      -0.451105       -12.2752
  31   2.0000      -0.434368       -11.8197
  32   2.0000      -0.425754       -11.5853
  33   2.0000      -0.393144       -10.6980
  34   0.0000       0.121372         3.3027
  35   0.0000       0.140089         3.8120
  36   0.0000       0.153471         4.1762
  37   0.0000       0.173538         4.7222
  38   0.0000       0.186920         5.0863

MULLIKEN ATOMIC CHARGES
-----------------------
   0 C :   -0.394592
   1 C :    0.313166
   2 O :   -0.275955
   3 C :    0.056083
   4 N :   -0.360234
   5 C :   -0.084276
   6 C :   -0.195093
   7 C :   -0.082955
   8 O :   -0.426884
   9 H :    0.129099
  10 H :    0.152116
  11 H :    0.144122
  12 H :    0.229517
  13 H :    0.138240
  14 H :    0.129837
  15 H :    0.127960
  16 H :    0.079017
  17 H :    0.320832
Sum of atomic charges:   -0.0000000

LOEWDIN ATOMIC CHARGES
----------------------
   0 C :   -0.268887
   1 C :   -0.255473
   2 O :    0.262709
   3 C :   -0.382452
   4 N :   -0.055091
   5 C :   -0.125381
   6 C :   -0.189832
   7 C :   -0.300222
   8 O :    0.000420
   9 H :    0.131577
  10 H :    0.139238
  11 H :    0.134474
  12 H :    0.173274
  13 H :    0.146345
  14 H :    0.132265
  15 H :    0.141579
  16 H :    0.135657
  17 H :    0.179800

  Mayer bond orders larger than 0.1
B(  0-C ,  1-C ) :   0.9213 B(  0-C ,  9-H ) :   0.9290 B(  0-C , 10-H ) :   0.9322
B(  0-C , 11-H ) :   0.9326 B(  1-C ,  2-O ) :   0.8398 B(  1-C ,  5-C ) :   0.8481
B(  1-C ,  7-C ) :   0.8456 B(  1-C ,  8-O ) :  -0.1412 B(  2-O ,  3-C ) :   1.0623
B(  3-C ,  4-N ) :   2.1182 B(  3-C ,  5-C ) :   0.9303 B(  4-N , 12-H ) :   0.8461
B(  5-C ,  6-C ) :   0.9051 B(  5-C , 13-H ) :   0.9006 B(  6-C ,  7-C ) :   0.9225
B(  6-C , 14-H ) :   0.9146 B(  6-C , 15-H ) :   0.8984 B(  7-C ,  8-O ) :   1.2065
B(  7-C , 16-H ) :   0.9510 B(  8-O , 17-H ) :   0.8405

MP2 TOTAL ENERGY:     -438.348636328 Eh
FINAL SINGLE POINT ENERGY      -438.348636327591

DIPOLE MOMENT
-------------
                                X             Y             Z
Electronic contribution:     -3.62002      -2.57062       1.14569
Nuclear contribution   :      4.81575       2.95790      -1.98290
                        -----------------------------------------
Total Dipole Moment    :      1.19573       0.38728      -0.83721
                        -----------------------------------------
Magnitude (a.u.)       :      1.51019
Magnitude (Debye)      :      3.83860

                             ****ORCA TERMINATED NORMALLY****
TOTAL RUN TIME: 0 days 0 hours 18 minutes 11 seconds 991 msec
