                         Program Version 3.0.3 - RELEASE   -
|  1> ! RI-MP2 RIJK def2-TZVP def2-TZVP/C def2-TZVP/JK TIGHTSCF
|  2> % maxcore 2000
|  3> % mp2 density relaxed end
|  4> *xyz 0 1
|  5>  C       -0.0322532690    -1.1791158996     0.0021033184
|  6>  C       -0.0180241209     0.0256628294     0.0080434857
|  7>  C        0.0187671868     1.4341449795     0.0115676729
|  8>  C       -0.8740882591     2.4502249530     0.7777940677
|  9>  C        0.3071248662     3.4488762783     0.7726872978
| 10>  C        1.1612978160     2.4921859991     0.0258603550
| 11>  N        0.3246710676     3.4843407528    -0.7336937388
| 12>  C       -0.8187282512     2.4747330500    -0.7194123490
| 13>  H       -0.0485778826    -2.2405624131    -0.0024811331
| 14>  H       -1.6772147990     2.2297398339     1.4656140635
| 15>  H        0.5502203800     4.3129758607     1.3781638529
| 16>  H        2.2339940887     2.4120612212    -0.0992618960
| 17>  H       -1.5677968235     2.3639594248    -1.4927974771
| 18> *
| 19>
| 20>                          ****END OF INPUT****

CARTESIAN COORDINATES (ANGSTROEM)
---------------------------------
  C     -0.032253   -1.179116    0.002103
  C     -0.018024    0.025663    0.008043
  C      0.018767    1.434145    0.011568
  C     -0.874088    2.450225    0.777794
  C      0.307125    3.448876    0.772687
  C      1.161298    2.492186    0.025860
  N      0.324671    3.484341   -0.733694
  C     -0.818728    2.474733   -0.719412
  H     -0.048578   -2.240562   -0.002481
  H     -1.677215    2.229740    1.465614
  H      0.550220    4.312976    1.378164
  H      2.233994    2.412061   -0.099262
  H     -1.567797    2.363959   -1.492797

 Total Charge           Charge          ....    0
 Multiplicity           Mult            ....    1
 Number of Electrons    NEL             ....   54
 Basis Dimension        Dim             ....  278

ORBITAL ENERGIES
----------------

  NO   OCC          E(Eh)            E(eV)
   0   2.0000     -15.572187      -423.7407
   1   2.0000     -11.285500      -307.0941
   2   2.0000     -11.281685      -306.9903
   3   2.0000     -11.279634      -306.9344
   4   2.0000     -11.275793      -306.8299
   5   2.0000     -11.264012      -306.5094
   6   2.0000     -11.244566      -305.9802
   7   2.0000     -11.231876      -305.6349
   8   2.0000      -1.356860       -36.9220
   9   2.0000      -1.093705       -29.7612
  10   2.0000      -1.027548       -27.9610
  11   2.0000      -0.942556       -25.6483
  12   2.0000      -0.918991       -25.0070
  13   2.0000      -0.803029       -21.8515
  14   2.0000      -0.748842       -20.3770
  15   2.0000      -0.736426       -20.0392
  16   2.0000      -0.702605       -19.1188
  17   2.0000      -0.633650       -17.2425
  18   2.0000      -0.613293       -16.6886
  19   2.0000      -0.597514       -16.2592
  20   2.0000      -0.526151       -14.3173
  21   2.0000      -0.481240       -13.0952
  22   2.0000      -0.453519       -12.3409
  23   2.0000      -0.428219       -11.6524
  24   2.0000      -0.404539       -11.0081
  25   2.0000      -0.370901       -10.0927
  26   2.0000      -0.328697        -8.9443
  27   0.0000       0.143973         3.9177
  28   0.0000       0.151322         4.1177
  29   0.0000       0.156276         4.2525
  30   0.0000       0.165400         4.5008
  31   0.0000       0.168109         4.5745

MULLIKEN ATOMIC CHARGES
-----------------------
   0 C :   -0.118242
   1 C :   -0.009288
   2 C :   -0.214468
   3 C :   -0.069576
   4 C :   -0.144260
   5 C :   -0.002875
   6 N :   -0.187451
   7 C :   -0.065168
   8 H :    0.194334
   9 H :    0.161073
  10 H :    0.150761
  11 H :    0.151732
  12 H :    0.153428
Sum of atomic charges:    0.0000000

LOEWDIN ATOMIC CHARGES
----------------------
   0 C :   -0.079620
   1 C :   -0.084362
   2 C :   -0.144773
   3 C :   -0.096842
   4 C :   -0.159596
   5 C :   -0.127246
   6 N :    0.137486
   7 C :   -0.118689
   8 H :    0.127982
   9 H :    0.141031
  10 H :    0.132268
  11 H :    0.135468
  12 H :    0.136893

  Mayer bond orders larger than 0.1
B(  0-C ,  1-C ) :   2.6139 B(  0-C ,  2-C ) :  -0.1552 B(  0-C ,  8-H ) :   0.8635
B(  1-C ,  2-C ) :   1.2358 B(  2-C ,  3-C ) :   0.7655 B(  2-C ,  5-C ) :   0.8688
B(  2-C ,  7-C ) :   0.8718 B(  3-C ,  4-C ) :   0.8897 B(  3-C ,  7-C ) :   0.9066
B(  3-C ,  9-H ) :   0.9017 B(  4-C ,  5-C ) :   0.9806 B(  4-C ,  6-N ) :   0.9777
B(  4-C , 10-H ) :   0.8963 B(  5-C ,  6-N ) :   0.8608 B(  5-C , 11-H ) :   0.9115
B(  6-N ,  7-C ) :   0.9765 B(  7-C , 12-H ) :   0.9017

MP2 TOTAL ENERGY:     -323.555384572 Eh
FINAL SINGLE POINT ENERGY      -323.555384571824

DIPOLE MOMENT
-------------
                                X             Y             Z
Electronic contribution:      0.29766      -0.08845      -0.58157
Nuclear contribution   :     -0.51984      -0.20046       1.09802
                        -----------------------------------------
Total Dipole Moment    :     -0.22218      -0.28891       0.51645
                        -----------------------------------------
Magnitude (a.u.)       :      0.63210
Magnitude (Debye)      :      1.60668

                             ****ORCA TERMINATED NORMALLY****
TOTAL RUN TIME: 0 days 0 hours 11 minutes 21 seconds 18 msec
