                         Program Version 3.0.3 - RELEASE   -
|  1> ! RI-MP2 RIJK def2-TZVP def2-TZVP/C def2-TZVP/JK TIGHTSCF
|  2> % maxcore 2000
|  3> % mp2 density relaxed end
|  4> *xyz 0 1
|  5>  C        0.1216890844     1.5858009593     0.0986793788
|  6>  C        0.0129906955     0.0792545998     0.0311844280
|  7>  C       -1.3951525929    -0.5522713966     0.0298133268
|  8>  O       -1.0331281082    -1.5012332358     1.0563921004
|  9>  C        0.2756968961    -0.9096687815     1.2115868402
| 10>  C        1.3591802789    -1.6463587721     0.3996870338
| 11>  C        1.0886408277    -0.6925357493    -0.8071993373
| 12>  C        0.6894538232    -1.3230759688    -2.1275156859
| 13>  O        1.8544700189    -1.9280590756    -2.6731935233
| 14>  H        1.1412159609     1.9006583387     0.3462545693
| 15>  H       -0.1371006002     2.0433051845    -0.8643971792
| 16>  H       -0.5524827558     2.0016759872     0.8554598974
| 17>  H       -2.1796732526     0.1337861005     0.3796756601
| 18>  H       -1.7459287131    -1.0397985094    -0.8877271416
| 19>  H        0.4807978815    -0.6176392233     2.2460132230
| 20>  H        2.3679344380    -1.5620715902     0.8113509934
| 21>  H        1.1330615256    -2.7016647537     0.2300068433
| 22>  H        1.9489573389    -0.0444162367    -1.0013599731
| 23>  H       -0.1015009100    -2.0718342231    -1.9685923585
| 24>  H        0.2843470306    -0.5526517576    -2.8059475214
| 25>  H        1.5973480228    -2.4271449263    -3.4538899941
| 26> *
| 27>
| 28>                          ****END OF INPUT****

CARTESIAN COORDINATES (ANGSTROEM)
---------------------------------
  C      0.121689    1.585801    0.098679
  C      0.012991    0.079255    0.031184
  C     -1.395153   -0.552271    0.029813
  O     -1.033128   -1.501233    1.056392
  C      0.275697   -0.909669    1.211587
  C      1.359180   -1.646359    0.399687
  C      1.088641   -0.692536   -0.807199
  C      0.689454   -1.323076   -2.127516
  O      1.854470   -1.928059   -2.673194
  H      1.141216    1.900658    0.346255
  H     -0.137101    2.043305   -0.864397
  H     -0.552483    2.001676    0.855460
  H     -2.179673    0.133786    0.379676
  H     -1.745929   -1.039799   -0.887727
  H      0.480798   -0.617639    2.246013
  H      2.367934   -1.562072    0.811351
  H      1.133062   -2.701665    0.230007
  H      1.948957   -0.044416   -1.001360
  H     -0.101501   -2.071834   -1.968592
  H      0.284347   -0.552652   -2.805948
  H      1.597348   -2.427145   -3.453890

 Total Charge           Charge          ....    0
 Multiplicity           Mult            ....    1
 Number of Electrons    NEL             ....   70
 Basis Dimension        Dim             ....  351

ORBITAL ENERGIES
----------------

  NO   OCC          E(Eh)            E(eV)
   0   2.0000     -20.557210      -559.3901
   1   2.0000     -20.543977      -559.0300
   2   2.0000     -11.276929      -306.8608
   3   2.0000     -11.275971      -306.8348
   4   2.0000     -11.275126      -306.8118
   5   2.0000     -11.238217      -305.8074
   6   2.0000     -11.228758      -305.5500
   7   2.0000     -11.223569      -305.4088
   8   2.0000     -11.216220      -305.2089
   9   2.0000      -1.376176       -37.4476
  10   2.0000      -1.360683       -37.0261
  11   2.0000      -1.120268       -30.4840
  12   2.0000      -1.008429       -27.4408
  13   2.0000      -0.965774       -26.2801
  14   2.0000      -0.916158       -24.9299
  15   2.0000      -0.847879       -23.0720
  16   2.0000      -0.817124       -22.2351
  17   2.0000      -0.722745       -19.6669
  18   2.0000      -0.692028       -18.8310
  19   2.0000      -0.660084       -17.9618
  20   2.0000      -0.639490       -17.4014
  21   2.0000      -0.634948       -17.2778
  22   2.0000      -0.626016       -17.0348
  23   2.0000      -0.580022       -15.7832
  24   2.0000      -0.570771       -15.5315
  25   2.0000      -0.561356       -15.2753
  26   2.0000      -0.560184       -15.2434
  27   2.0000      -0.527707       -14.3596
  28   2.0000      -0.506719       -13.7885
  29   2.0000      -0.483833       -13.1658
  30   2.0000      -0.461682       -12.5630
  31   2.0000      -0.441149       -12.0043
  32   2.0000      -0.436359       -11.8739
  33   2.0000      -0.402726       -10.9587
  34   2.0000      -0.394677       -10.7397
  35   0.0000       0.129781         3.5315
  36   0.0000       0.138434         3.7670
  37   0.0000       0.166031         4.5179
  38   0.0000       0.175230         4.7682
  39   0.0000       0.183688         4.9984

MULLIKEN ATOMIC CHARGES
-----------------------
   0 C :   -0.411801
   1 C :    0.107490
   2 C :   -0.045967
   3 O :   -0.334222
   4 C :   -0.005829
   5 C :   -0.173440
   6 C :   -0.062831
   7 C :   -0.144979
   8 O :   -0.463457
   9 H :    0.134498
  10 H :    0.133862
  11 H :    0.135779
  12 H :    0.090739
  13 H :    0.093701
  14 H :    0.099103
  15 H :    0.116693
  16 H :    0.105657
  17 H :    0.101180
  18 H :    0.109117
  19 H :    0.099125
  20 H :    0.315581
Sum of atomic charges:    0.0000000

LOEWDIN ATOMIC CHARGES
----------------------
   0 C :   -0.277561
   1 C :   -0.224228
   2 C :   -0.232303
   3 O :    0.133124
   4 C :   -0.215260
   5 C :   -0.193279
   6 C :   -0.191132
   7 C :   -0.335577
   8 O :   -0.045177
   9 H :    0.128257
  10 H :    0.129503
  11 H :    0.127891
  12 H :    0.119855
  13 H :    0.114983
  14 H :    0.123980
  15 H :    0.133690
  16 H :    0.139054
  17 H :    0.155354
  18 H :    0.119356
  19 H :    0.117512
  20 H :    0.171957

  Mayer bond orders larger than 0.1
B(  0-C ,  1-C ) :   0.8854 B(  0-C ,  9-H ) :   0.9382 B(  0-C , 10-H ) :   0.9306
B(  0-C , 11-H ) :   0.9402 B(  1-C ,  2-C ) :   0.9922 B(  1-C ,  4-C ) :   0.9314
B(  1-C ,  6-C ) :   0.8658 B(  2-C ,  3-O ) :   0.9539 B(  2-C , 12-H ) :   0.9077
B(  2-C , 13-H ) :   0.9042 B(  3-O ,  4-C ) :   0.9522 B(  4-C ,  5-C ) :   0.9229
B(  4-C , 14-H ) :   0.9345 B(  5-C ,  6-C ) :   0.9543 B(  5-C , 15-H ) :   0.9091
B(  5-C , 16-H ) :   0.8837 B(  6-C ,  7-C ) :   0.8904 B(  6-C ,  8-O ) :  -0.1083
B(  6-C , 17-H ) :   0.9130 B(  7-C ,  8-O ) :   1.0423 B(  7-C , 18-H ) :   0.9247
B(  7-C , 19-H ) :   0.9374 B(  8-O , 20-H ) :   0.8482

MP2 TOTAL ENERGY:     -423.483148787 Eh
FINAL SINGLE POINT ENERGY      -423.483148786684

DIPOLE MOMENT
-------------
                                X             Y             Z
Electronic contribution:     -0.30462      -3.75103       1.11580
Nuclear contribution   :      0.17692       4.24564      -1.70739
                        -----------------------------------------
Total Dipole Moment    :     -0.12770       0.49461      -0.59159
                        -----------------------------------------
Magnitude (a.u.)       :      0.78162
Magnitude (Debye)      :      1.98671

                             ****ORCA TERMINATED NORMALLY****
TOTAL RUN TIME: 0 days 0 hours 30 minutes 0 seconds 100 msec
