                         Program Version 3.0.3 - RELEASE   -
|  1> ! RI-MP2 RIJK def2-TZVP def2-TZVP/C def2-TZVP/JK TIGHTSCF
|  2> % maxcore 2000
|  3> % mp2 density relaxed end
|  4> *xyz 0 1
|  5>  O       -0.6958181736     1.1674920290    -0.8165521420
|  6>  C       -0.3629938852    -0.1310175478    -0.4678413640
|  7>  C        0.0352220760    -0.4033312341     1.0154763423
|  8>  O       -1.3772390762    -0.0994790270     1.3858418639
|  9>  C       -1.4646847951    -1.0089838984     0.2055187115
| 10>  C       -0.3806788085    -1.8925129426     0.8726293234
| 11>  C        0.4405062978    -2.9322370081     0.1598678756
| 12>  C       -0.1547194938    -3.9082467492    -0.7647684848
| 13>  O        0.6552278528    -2.8363295550    -1.2508133253
| 14>  H       -1.2246375152     1.5003829221    -0.0765690883
| 15>  H        0.2320603943    -0.5801893798    -1.2590865136
| 16>  H        0.8161621727     0.0446630383     1.6312310864
| 17>  H       -2.4646243279    -1.2739740916    -0.1402058449
| 18>  H       -0.7265035135    -2.2862194238     1.8327268822
| 19>  H        1.3271728005    -3.2493425327     0.7125173836
| 20>  H        0.2801608429    -4.9018157012    -0.8581921232
| 21>  H       -1.2139570081    -3.8382840780    -1.0071633128
| 22> *
| 23>
| 24>                          ****END OF INPUT****

CARTESIAN COORDINATES (ANGSTROEM)
---------------------------------
  O     -0.695818    1.167492   -0.816552
  C     -0.362994   -0.131018   -0.467841
  C      0.035222   -0.403331    1.015476
  O     -1.377239   -0.099479    1.385842
  C     -1.464685   -1.008984    0.205519
  C     -0.380679   -1.892513    0.872629
  C      0.440506   -2.932237    0.159868
  C     -0.154719   -3.908247   -0.764768
  O      0.655228   -2.836330   -1.250813
  H     -1.224638    1.500383   -0.076569
  H      0.232060   -0.580189   -1.259087
  H      0.816162    0.044663    1.631231
  H     -2.464624   -1.273974   -0.140206
  H     -0.726504   -2.286219    1.832727
  H      1.327173   -3.249343    0.712517
  H      0.280161   -4.901816   -0.858192
  H     -1.213957   -3.838284   -1.007163

 Total Charge           Charge          ....    0
 Multiplicity           Mult            ....    1
 Number of Electrons    NEL             ....   68
 Basis Dimension        Dim             ....  327

ORBITAL ENERGIES
----------------

  NO   OCC          E(Eh)            E(eV)
   0   2.0000     -20.583025      -560.0926
   1   2.0000     -20.563160      -559.5520
   2   2.0000     -20.557704      -559.4036
   3   2.0000     -11.307284      -307.6868
   4   2.0000     -11.306413      -307.6631
   5   2.0000     -11.305303      -307.6329
   6   2.0000     -11.297386      -307.4175
   7   2.0000     -11.293443      -307.3102
   8   2.0000     -11.260658      -306.4181
   9   2.0000      -1.428221       -38.8639
  10   2.0000      -1.416827       -38.5538
  11   2.0000      -1.355829       -36.8940
  12   2.0000      -1.089346       -29.6426
  13   2.0000      -0.975016       -26.5315
  14   2.0000      -0.912978       -24.8434
  15   2.0000      -0.897130       -24.4122
  16   2.0000      -0.851088       -23.1593
  17   2.0000      -0.772910       -21.0320
  18   2.0000      -0.720167       -19.5967
  19   2.0000      -0.714009       -19.4292
  20   2.0000      -0.686889       -18.6912
  21   2.0000      -0.648129       -17.6365
  22   2.0000      -0.614589       -16.7238
  23   2.0000      -0.581823       -15.8322
  24   2.0000      -0.566678       -15.4201
  25   2.0000      -0.563448       -15.3322
  26   2.0000      -0.554218       -15.0810
  27   2.0000      -0.531813       -14.4714
  28   2.0000      -0.499015       -13.5789
  29   2.0000      -0.490801       -13.3554
  30   2.0000      -0.452520       -12.3137
  31   2.0000      -0.443041       -12.0558
  32   2.0000      -0.424464       -11.5502
  33   2.0000      -0.416719       -11.3395
  34   0.0000       0.141643         3.8543
  35   0.0000       0.151098         4.1116
  36   0.0000       0.166148         4.5211
  37   0.0000       0.172731         4.7002
  38   0.0000       0.179583         4.8867

MULLIKEN ATOMIC CHARGES
-----------------------
   0 O :   -0.464143
   1 C :    0.126024
   2 C :   -0.073140
   3 O :   -0.331363
   4 C :   -0.078557
   5 C :   -0.047101
   6 C :    0.010216
   7 C :   -0.074283
   8 O :   -0.334983
   9 H :    0.329895
  10 H :    0.150945
  11 H :    0.140846
  12 H :    0.142210
  13 H :    0.122997
  14 H :    0.138184
  15 H :    0.122238
  16 H :    0.120014
Sum of atomic charges:   -0.0000000

LOEWDIN ATOMIC CHARGES
----------------------
   0 O :    0.004942
   1 C :   -0.300896
   2 C :   -0.190252
   3 O :    0.110699
   4 C :   -0.188840
   5 C :   -0.187123
   6 C :   -0.274763
   7 C :   -0.256079
   8 O :    0.147673
   9 H :    0.185948
  10 H :    0.145453
  11 H :    0.125913
  12 H :    0.125693
  13 H :    0.164364
  14 H :    0.143518
  15 H :    0.121499
  16 H :    0.122250

  Mayer bond orders larger than 0.1
B(  0-O ,  1-C ) :   1.0042 B(  0-O ,  9-H ) :   0.8135 B(  1-C ,  2-C ) :   0.9147
B(  1-C ,  4-C ) :   0.8884 B(  1-C , 10-H ) :   0.9201 B(  2-C ,  3-O ) :   0.8731
B(  2-C ,  5-C ) :   0.9230 B(  2-C , 11-H ) :   0.8910 B(  3-O ,  4-C ) :   0.8837
B(  4-C ,  5-C ) :   0.9156 B(  4-C , 12-H ) :   0.8852 B(  5-C ,  6-C ) :   0.9084
B(  5-C , 13-H ) :   0.9048 B(  6-C ,  7-C ) :   0.9648 B(  6-C ,  8-O ) :   0.8698
B(  6-C , 14-H ) :   0.9170 B(  7-C ,  8-O ) :   0.9127 B(  7-C , 15-H ) :   0.9241
B(  7-C , 16-H ) :   0.9073

MP2 TOTAL ENERGY:     -458.125089163 Eh
FINAL SINGLE POINT ENERGY      -458.125089163397

DIPOLE MOMENT
-------------
                                X             Y             Z
Electronic contribution:     -0.05654       2.82954      -0.11308
Nuclear contribution   :      0.03777      -3.90298       0.64390
                        -----------------------------------------
Total Dipole Moment    :     -0.01877      -1.07344       0.53083
                        -----------------------------------------
Magnitude (a.u.)       :      1.19767
Magnitude (Debye)      :      3.04423

                             ****ORCA TERMINATED NORMALLY****
TOTAL RUN TIME: 0 days 0 hours 15 minutes 31 seconds 260 msec
