                         Program Version 3.0.3 - RELEASE   -
|  1> ! RI-MP2 RIJK def2-TZVP def2-TZVP/C def2-TZVP/JK TIGHTSCF
|  2> % maxcore 2000
|  3> % mp2 density relaxed end
|  4> *xyz 0 1
|  5>  O       -0.0281764918    -0.0631551653     0.3952343584
|  6>  C       -0.0635749237     1.1203944294     0.1285676364
|  7>  N       -1.2401597413     1.7930876369    -0.1105045089
|  8>  C       -1.3801892209     3.2432217307     0.0277339140
|  9>  C       -0.8228087018     3.7890432013     1.3304281655
| 10>  C        0.4731442307     3.6953456382     1.6276612257
| 11>  C        1.4455102636     3.0948831733     0.6738115310
| 12>  C        2.1549416789     1.8002978901     0.9314384559
| 13>  N        1.1098110954     1.8777260120    -0.0717584885
| 14>  H       -2.0428606243     1.2303941166     0.1262487151
| 15>  H       -0.8845721459     3.7313488906    -0.8201083689
| 16>  H       -2.4438143532     3.4728488789    -0.0616208203
| 17>  H       -1.5140446187     4.2492610124     2.0307870973
| 18>  H        0.8649140339     4.0925281790     2.5610088277
| 19>  H        1.9849121554     3.8237562672     0.0657094708
| 20>  H        3.1654854974     1.6561995427     0.5594717642
| 21>  H        1.9140417463     1.2561062960     1.8403015347
| 22> *
| 23>
| 24>                          ****END OF INPUT****

CARTESIAN COORDINATES (ANGSTROEM)
---------------------------------
  O     -0.028176   -0.063155    0.395234
  C     -0.063575    1.120394    0.128568
  N     -1.240160    1.793088   -0.110505
  C     -1.380189    3.243222    0.027734
  C     -0.822809    3.789043    1.330428
  C      0.473144    3.695346    1.627661
  C      1.445510    3.094883    0.673812
  C      2.154942    1.800298    0.931438
  N      1.109811    1.877726   -0.071758
  H     -2.042861    1.230394    0.126249
  H     -0.884572    3.731349   -0.820108
  H     -2.443814    3.472849   -0.061621
  H     -1.514045    4.249261    2.030787
  H      0.864914    4.092528    2.561009
  H      1.984912    3.823756    0.065709
  H      3.165485    1.656200    0.559472
  H      1.914042    1.256106    1.840302

 Total Charge           Charge          ....    0
 Multiplicity           Mult            ....    1
 Number of Electrons    NEL             ....   66
 Basis Dimension        Dim             ....  327

ORBITAL ENERGIES
----------------

  NO   OCC          E(Eh)            E(eV)
   0   2.0000     -20.510784      -558.1268
   1   2.0000     -15.582431      -424.0195
   2   2.0000     -15.578760      -423.9196
   3   2.0000     -11.370410      -309.4046
   4   2.0000     -11.289238      -307.1958
   5   2.0000     -11.284608      -307.0698
   6   2.0000     -11.272832      -306.7494
   7   2.0000     -11.252514      -306.1965
   8   2.0000     -11.250648      -306.1457
   9   2.0000      -1.393883       -37.9295
  10   2.0000      -1.290922       -35.1278
  11   2.0000      -1.228591       -33.4317
  12   2.0000      -1.090508       -29.6742
  13   2.0000      -0.968891       -26.3649
  14   2.0000      -0.960747       -26.1432
  15   2.0000      -0.861213       -23.4348
  16   2.0000      -0.786458       -21.4006
  17   2.0000      -0.760662       -20.6987
  18   2.0000      -0.697899       -18.9908
  19   2.0000      -0.689033       -18.7495
  20   2.0000      -0.666845       -18.1458
  21   2.0000      -0.649277       -17.6677
  22   2.0000      -0.617938       -16.8150
  23   2.0000      -0.594480       -16.1766
  24   2.0000      -0.558286       -15.1917
  25   2.0000      -0.554025       -15.0758
  26   2.0000      -0.522571       -14.2199
  27   2.0000      -0.511753       -13.9255
  28   2.0000      -0.496804       -13.5187
  29   2.0000      -0.434926       -11.8349
  30   2.0000      -0.401708       -10.9310
  31   2.0000      -0.398868       -10.8537
  32   2.0000      -0.372270       -10.1300
  33   0.0000       0.117195         3.1890
  34   0.0000       0.133601         3.6355
  35   0.0000       0.157055         4.2737
  36   0.0000       0.161779         4.4022
  37   0.0000       0.173056         4.7091

MULLIKEN ATOMIC CHARGES
-----------------------
   0 O :   -0.350971
   1 C :    0.289274
   2 N :   -0.318013
   3 C :   -0.105902
   4 C :   -0.169910
   5 C :   -0.185874
   6 C :   -0.015965
   7 C :   -0.153421
   8 N :   -0.199776
   9 H :    0.243539
  10 H :    0.136249
  11 H :    0.148450
  12 H :    0.135128
  13 H :    0.137898
  14 H :    0.136626
  15 H :    0.133319
  16 H :    0.139351
Sum of atomic charges:    0.0000000

LOEWDIN ATOMIC CHARGES
----------------------
   0 O :    0.082631
   1 C :   -0.528974
   2 N :    0.092910
   3 C :   -0.266214
   4 C :   -0.160938
   5 C :   -0.153855
   6 C :   -0.224764
   7 C :   -0.207001
   8 N :    0.178916
   9 H :    0.191475
  10 H :    0.146223
  11 H :    0.140911
  12 H :    0.143053
  13 H :    0.149105
  14 H :    0.152467
  15 H :    0.128770
  16 H :    0.135283

  Mayer bond orders larger than 0.1
B(  0-O ,  1-C ) :   1.9990 B(  1-C ,  2-N ) :   1.1501 B(  1-C ,  8-N ) :   0.9960
B(  2-N ,  3-C ) :   0.9107 B(  2-N ,  9-H ) :   0.8650 B(  3-C ,  4-C ) :   0.9215
B(  3-C , 10-H ) :   0.9207 B(  3-C , 11-H ) :   0.9375 B(  4-C ,  5-C ) :   1.8077
B(  4-C , 12-H ) :   0.9238 B(  5-C ,  6-C ) :   0.9453 B(  5-C , 13-H ) :   0.9239
B(  6-C ,  7-C ) :   0.9292 B(  6-C ,  8-N ) :   0.8616 B(  6-C , 14-H ) :   0.9127
B(  7-C ,  8-N ) :   0.8901 B(  7-C , 15-H ) :   0.9194 B(  7-C , 16-H ) :   0.9181

MP2 TOTAL ENERGY:     -417.304571313 Eh
FINAL SINGLE POINT ENERGY      -417.304571312918

DIPOLE MOMENT
-------------
                                X             Y             Z
Electronic contribution:     -0.03405      -3.81388      -1.36312
Nuclear contribution   :     -0.26405       5.38233       1.86396
                        -----------------------------------------
Total Dipole Moment    :     -0.29810       1.56845       0.50083
                        -----------------------------------------
Magnitude (a.u.)       :      1.67324
Magnitude (Debye)      :      4.25305

                             ****ORCA TERMINATED NORMALLY****
TOTAL RUN TIME: 0 days 0 hours 16 minutes 34 seconds 551 msec
