                         Program Version 3.0.3 - RELEASE   -
|  1> ! RI-MP2 RIJK def2-TZVP def2-TZVP/C def2-TZVP/JK TIGHTSCF
|  2> % maxcore 2000
|  3> % mp2 density relaxed end
|  4> *xyz 0 1
|  5>  C       -0.6519533204     1.2387378054    -0.0593133961
|  6>  C        0.1550971597    -0.0505387791    -0.1097428492
|  7>  C        1.5644764652    -0.0463751661    -0.7596524436
|  8>  C        2.0298209488    -1.0552492100     0.3218710576
|  9>  C        0.7921923229    -0.6646034898     1.1924610367
| 10>  C        1.1592187863     0.3825160728     2.2480309325
| 11>  C        0.0192235524    -1.8163048408     1.8285179947
| 12>  H       -0.0829507076     2.0582016527     0.3914874343
| 13>  H       -0.9384250369     1.5545307985    -1.0689928679
| 14>  H       -1.5748521260     1.1152148254     0.5191772762
| 15>  H       -0.4516856070    -0.8310492772    -0.5853613563
| 16>  H        1.6375188819    -0.3541246195    -1.8057771798
| 17>  H        2.0576203424     0.9255028963    -0.6556379907
| 18>  H        1.9679097068    -2.0897925743    -0.0293535621
| 19>  H        3.0165687414    -0.9001260539     0.7676479856
| 20>  H        1.7364009366     1.2106654135     1.8241353001
| 21>  H        0.2666541423     0.8064272823     2.7216118703
| 22>  H        1.7691008305    -0.0725673298     3.0368885605
| 23>  H        0.6041991943    -2.2978673588     2.6214999696
| 24>  H       -0.9178672069    -1.4662927493     2.2786715475
| 25>  H       -0.2321789267    -2.5827503282     1.0873949202
| 26> *
| 27>
| 28>                          ****END OF INPUT****

CARTESIAN COORDINATES (ANGSTROEM)
---------------------------------
  C     -0.651953    1.238738   -0.059313
  C      0.155097   -0.050539   -0.109743
  C      1.564476   -0.046375   -0.759652
  C      2.029821   -1.055249    0.321871
  C      0.792192   -0.664603    1.192461
  C      1.159219    0.382516    2.248031
  C      0.019224   -1.816305    1.828518
  H     -0.082951    2.058202    0.391487
  H     -0.938425    1.554531   -1.068993
  H     -1.574852    1.115215    0.519177
  H     -0.451686   -0.831049   -0.585361
  H      1.637519   -0.354125   -1.805777
  H      2.057620    0.925503   -0.655638
  H      1.967910   -2.089793   -0.029354
  H      3.016569   -0.900126    0.767648
  H      1.736401    1.210665    1.824135
  H      0.266654    0.806427    2.721612
  H      1.769101   -0.072567    3.036889
  H      0.604199   -2.297867    2.621500
  H     -0.917867   -1.466293    2.278672
  H     -0.232179   -2.582750    1.087395

 Total Charge           Charge          ....    0
 Multiplicity           Mult            ....    1
 Number of Electrons    NEL             ....   56
 Basis Dimension        Dim             ....  301

ORBITAL ENERGIES
----------------

  NO   OCC          E(Eh)            E(eV)
   0   2.0000     -11.226874      -305.4988
   1   2.0000     -11.218479      -305.2703
   2   2.0000     -11.211950      -305.0927
   3   2.0000     -11.211117      -305.0700
   4   2.0000     -11.208677      -305.0036
   5   2.0000     -11.208353      -304.9948
   6   2.0000     -11.207200      -304.9634
   7   2.0000      -1.138891       -30.9908
   8   2.0000      -1.002952       -27.2917
   9   2.0000      -0.971998       -26.4494
  10   2.0000      -0.926968       -25.2241
  11   2.0000      -0.841671       -22.9030
  12   2.0000      -0.817703       -22.2508
  13   2.0000      -0.702573       -19.1180
  14   2.0000      -0.633850       -17.2479
  15   2.0000      -0.612804       -16.6752
  16   2.0000      -0.602500       -16.3948
  17   2.0000      -0.568641       -15.4735
  18   2.0000      -0.561784       -15.2869
  19   2.0000      -0.544227       -14.8092
  20   2.0000      -0.533574       -14.5193
  21   2.0000      -0.522745       -14.2246
  22   2.0000      -0.499994       -13.6055
  23   2.0000      -0.489113       -13.3094
  24   2.0000      -0.447133       -12.1671
  25   2.0000      -0.438411       -11.9298
  26   2.0000      -0.410916       -11.1816
  27   2.0000      -0.406760       -11.0685
  28   0.0000       0.131730         3.5846
  29   0.0000       0.161172         4.3857
  30   0.0000       0.166987         4.5439
  31   0.0000       0.168234         4.5779
  32   0.0000       0.194799         5.3007

MULLIKEN ATOMIC CHARGES
-----------------------
   0 C :   -0.418498
   1 C :   -0.063462
   2 C :   -0.247477
   3 C :   -0.242921
   4 C :    0.149050
   5 C :   -0.455215
   6 C :   -0.411121
   7 H :    0.124037
   8 H :    0.134122
   9 H :    0.129248
  10 H :    0.086189
  11 H :    0.113038
  12 H :    0.109660
  13 H :    0.108712
  14 H :    0.110399
  15 H :    0.133108
  16 H :    0.131375
  17 H :    0.132491
  18 H :    0.127576
  19 H :    0.126057
  20 H :    0.123632
Sum of atomic charges:   -0.0000000

LOEWDIN ATOMIC CHARGES
----------------------
   0 C :   -0.302309
   1 C :   -0.221265
   2 C :   -0.223222
   3 C :   -0.202454
   4 C :   -0.284721
   5 C :   -0.272345
   6 C :   -0.279673
   7 H :    0.122385
   8 H :    0.125120
   9 H :    0.123570
  10 H :    0.151198
  11 H :    0.121932
  12 H :    0.132572
  13 H :    0.134090
  14 H :    0.124979
  15 H :    0.125956
  16 H :    0.125288
  17 H :    0.126366
  18 H :    0.124990
  19 H :    0.124993
  20 H :    0.122549

  Mayer bond orders larger than 0.1
B(  0-C ,  1-C ) :   0.9021 B(  0-C ,  7-H ) :   0.9351 B(  0-C ,  8-H ) :   0.9389
B(  0-C ,  9-H ) :   0.9409 B(  1-C ,  2-C ) :   0.9482 B(  1-C ,  4-C ) :   0.8985
B(  1-C , 10-H ) :   0.9215 B(  2-C ,  3-C ) :   0.9509 B(  2-C , 11-H ) :   0.9249
B(  2-C , 12-H ) :   0.9205 B(  3-C ,  4-C ) :   0.9037 B(  3-C , 13-H ) :   0.9171
B(  3-C , 14-H ) :   0.9252 B(  4-C ,  5-C ) :   0.8999 B(  4-C ,  6-C ) :   0.8976
B(  5-C , 15-H ) :   0.9350 B(  5-C , 16-H ) :   0.9398 B(  5-C , 17-H ) :   0.9368
B(  6-C , 18-H ) :   0.9382 B(  6-C , 19-H ) :   0.9378 B(  6-C , 20-H ) :   0.9329

MP2 TOTAL ENERGY:     -274.482223655 Eh
FINAL SINGLE POINT ENERGY      -274.482223654912

DIPOLE MOMENT
-------------
                                X             Y             Z
Electronic contribution:      0.98978      -0.88709      -1.42661
Nuclear contribution   :     -1.02678       0.88336       1.42918
                        -----------------------------------------
Total Dipole Moment    :     -0.03700      -0.00373       0.00257
                        -----------------------------------------
Magnitude (a.u.)       :      0.03728
Magnitude (Debye)      :      0.09475

                             ****ORCA TERMINATED NORMALLY****
TOTAL RUN TIME: 0 days 0 hours 10 minutes 22 seconds 693 msec
