                         Program Version 3.0.3 - RELEASE   -
|  1> ! RI-MP2 RIJK def2-TZVP def2-TZVP/C def2-TZVP/JK TIGHTSCF
|  2> % maxcore 2000
|  3> % mp2 density relaxed end
|  4> *xyz 0 1
|  5>  C        0.2113550316     1.5697348911     0.0643469407
|  6>  C       -0.0595602850     0.0958749719     0.0152903764
|  7>  C       -0.9034941593    -0.6357561831     0.9816685411
|  8>  N        0.5636438789    -0.8613287848     1.0054435664
|  9>  C        0.9912914792    -1.7071850666    -0.1664902728
| 10>  C       -0.0174660036    -2.1962653225    -1.1983636834
| 11>  C       -1.3326743908    -2.7612059341    -1.0628496258
| 12>  C       -2.4065565029    -3.3047726361    -1.0399832965
| 13>  C        0.4308823224    -0.7465426823    -1.1848262930
| 14>  H        1.2315092730     1.7934535737    -0.2671186596
| 15>  H       -0.4830370839     2.1136318030    -0.5871568132
| 16>  H        0.0950408200     1.9487616413     1.0833207338
| 17>  H       -1.2243522823    -0.0725410443     1.8545377439
| 18>  H       -1.5765410478    -1.4274120239     0.6857475249
| 19>  H        1.9648368395    -2.1760366716    -0.0921709571
| 20>  H        0.5450802812    -2.7225646933    -1.9710766984
| 21>  H       -3.3621821254    -3.7652521742    -0.9933626960
| 22>  H        0.9047410553    -0.2971771743    -2.0486765214
| 23> *
| 24>
| 25>                          ****END OF INPUT****

CARTESIAN COORDINATES (ANGSTROEM)
---------------------------------
  C      0.211355    1.569735    0.064347
  C     -0.059560    0.095875    0.015290
  C     -0.903494   -0.635756    0.981669
  N      0.563644   -0.861329    1.005444
  C      0.991291   -1.707185   -0.166490
  C     -0.017466   -2.196265   -1.198364
  C     -1.332674   -2.761206   -1.062850
  C     -2.406557   -3.304773   -1.039983
  C      0.430882   -0.746543   -1.184826
  H      1.231509    1.793454   -0.267119
  H     -0.483037    2.113632   -0.587157
  H      0.095041    1.948762    1.083321
  H     -1.224352   -0.072541    1.854538
  H     -1.576541   -1.427412    0.685748
  H      1.964837   -2.176037   -0.092171
  H      0.545080   -2.722565   -1.971077
  H     -3.362182   -3.765252   -0.993363
  H      0.904741   -0.297177   -2.048677

 Total Charge           Charge          ....    0
 Multiplicity           Mult            ....    1
 Number of Electrons    NEL             ....   64
 Basis Dimension        Dim             ....  333

ORBITAL ENERGIES
----------------

  NO   OCC          E(Eh)            E(eV)
   0   2.0000     -15.559833      -423.4046
   1   2.0000     -11.278204      -306.8955
   2   2.0000     -11.275927      -306.8336
   3   2.0000     -11.272697      -306.7457
   4   2.0000     -11.254324      -306.2457
   5   2.0000     -11.252067      -306.1843
   6   2.0000     -11.240913      -305.8808
   7   2.0000     -11.225877      -305.4717
   8   2.0000     -11.225515      -305.4618
   9   2.0000      -1.305686       -35.5295
  10   2.0000      -1.130958       -30.7749
  11   2.0000      -1.033028       -28.1101
  12   2.0000      -1.003200       -27.2985
  13   2.0000      -0.916967       -24.9519
  14   2.0000      -0.876953       -23.8631
  15   2.0000      -0.807832       -21.9822
  16   2.0000      -0.730007       -19.8645
  17   2.0000      -0.718119       -19.5410
  18   2.0000      -0.703501       -19.1432
  19   2.0000      -0.678102       -18.4521
  20   2.0000      -0.602025       -16.3819
  21   2.0000      -0.587839       -15.9959
  22   2.0000      -0.573027       -15.5929
  23   2.0000      -0.557240       -15.1633
  24   2.0000      -0.544237       -14.8094
  25   2.0000      -0.503531       -13.7018
  26   2.0000      -0.480412       -13.0727
  27   2.0000      -0.458106       -12.4657
  28   2.0000      -0.419365       -11.4115
  29   2.0000      -0.390605       -10.6289
  30   2.0000      -0.358190        -9.7468
  31   2.0000      -0.343837        -9.3563
  32   0.0000       0.137495         3.7414
  33   0.0000       0.150695         4.1006
  34   0.0000       0.163968         4.4618
  35   0.0000       0.169927         4.6239
  36   0.0000       0.180527         4.9124

MULLIKEN ATOMIC CHARGES
-----------------------
   0 C :   -0.427980
   1 C :    0.157218
   2 C :   -0.175162
   3 N :   -0.267279
   4 C :    0.007032
   5 C :   -0.381008
   6 C :    0.068194
   7 C :   -0.143423
   8 C :   -0.143546
   9 H :    0.132551
  10 H :    0.135735
  11 H :    0.141094
  12 H :    0.124117
  13 H :    0.160528
  14 H :    0.139900
  15 H :    0.134456
  16 H :    0.192290
  17 H :    0.145283
Sum of atomic charges:    0.0000000

LOEWDIN ATOMIC CHARGES
----------------------
   0 C :   -0.267060
   1 C :   -0.251438
   2 C :   -0.207554
   3 N :    0.135271
   4 C :   -0.168811
   5 C :   -0.179146
   6 C :   -0.106312
   7 C :   -0.098373
   8 C :   -0.123817
   9 H :    0.130744
  10 H :    0.131790
  11 H :    0.134351
  12 H :    0.136017
  13 H :    0.139935
  14 H :    0.137533
  15 H :    0.186388
  16 H :    0.127041
  17 H :    0.143441

  Mayer bond orders larger than 0.1
B(  0-C ,  1-C ) :   0.8661 B(  0-C ,  9-H ) :   0.9342 B(  0-C , 10-H ) :   0.9395
B(  0-C , 11-H ) :   0.9397 B(  1-C ,  2-C ) :   0.9797 B(  1-C ,  3-N ) :   0.7860
B(  1-C ,  8-C ) :   0.8971 B(  2-C ,  3-N ) :   0.9011 B(  2-C , 12-H ) :   0.9165
B(  2-C , 13-H ) :   0.8838 B(  3-N ,  4-C ) :   0.9341 B(  4-C ,  5-C ) :   0.8947
B(  4-C ,  8-C ) :   0.8858 B(  4-C , 14-H ) :   0.9276 B(  5-C ,  6-C ) :   1.0888
B(  5-C ,  7-C ) :  -0.1379 B(  5-C ,  8-C ) :   0.8600 B(  5-C , 15-H ) :   0.9301
B(  6-C ,  7-C ) :   2.6220 B(  7-C , 16-H ) :   0.8898 B(  8-C , 17-H ) :   0.9165

MP2 TOTAL ENERGY:     -364.013076892 Eh
FINAL SINGLE POINT ENERGY      -364.013076892191

DIPOLE MOMENT
-------------
                                X             Y             Z
Electronic contribution:     -0.55232      -4.89701      -0.53893
Nuclear contribution   :      0.42056       5.10800       0.04068
                        -----------------------------------------
Total Dipole Moment    :     -0.13176       0.21099      -0.49825
                        -----------------------------------------
Magnitude (a.u.)       :      0.55689
Magnitude (Debye)      :      1.41551

                             ****ORCA TERMINATED NORMALLY****
TOTAL RUN TIME: 0 days 0 hours 18 minutes 38 seconds 454 msec
