                         Program Version 3.0.3 - RELEASE   -
|  1> ! RI-MP2 RIJK def2-TZVP def2-TZVP/C def2-TZVP/JK TIGHTSCF
|  2> % maxcore 2000
|  3> % mp2 density relaxed end
|  4> *xyz 0 1
|  5>  N       -0.0936385520     1.4722203631     0.0132332709
|  6>  C        0.0216237897     0.0143341492    -0.0204064557
|  7>  C        0.7007540328    -0.5540200411    -1.2836461915
|  8>  O       -0.0780779234    -0.0959466448    -2.3738236546
|  9>  C        0.7267223783    -0.4673396378     1.1741729725
| 10>  N        1.3118399379    -0.8594503656     2.0895897201
| 11>  H        0.8332799795     1.8880942433     0.0573747833
| 12>  H       -0.5013150679     1.7612890164    -0.8719939634
| 13>  H       -0.9964715106    -0.3955076638     0.0059318878
| 14>  H        1.7366245264    -0.1856797872    -1.3341186706
| 15>  H        0.7293883276    -1.6522621848    -1.2307295822
| 16>  H        0.3548406518    -0.3526968869    -3.1927500265
| 17> *
| 18>
| 19>                          ****END OF INPUT****

CARTESIAN COORDINATES (ANGSTROEM)
---------------------------------
  N     -0.093639    1.472220    0.013233
  C      0.021624    0.014334   -0.020406
  C      0.700754   -0.554020   -1.283646
  O     -0.078078   -0.095947   -2.373824
  C      0.726722   -0.467340    1.174173
  N      1.311840   -0.859450    2.089590
  H      0.833280    1.888094    0.057375
  H     -0.501315    1.761289   -0.871994
  H     -0.996472   -0.395508    0.005932
  H      1.736625   -0.185680   -1.334119
  H      0.729388   -1.652262   -1.230730
  H      0.354841   -0.352697   -3.192750

 Total Charge           Charge          ....    0
 Multiplicity           Mult            ....    1
 Number of Electrons    NEL             ....   46
 Basis Dimension        Dim             ....  222

ORBITAL ENERGIES
----------------

  NO   OCC          E(Eh)            E(eV)
   0   2.0000     -20.588518      -560.2421
   1   2.0000     -15.575614      -423.8340
   2   2.0000     -15.567326      -423.6085
   3   2.0000     -11.316149      -307.9281
   4   2.0000     -11.310618      -307.7776
   5   2.0000     -11.275384      -306.8188
   6   2.0000      -1.395517       -37.9739
   7   2.0000      -1.236418       -33.6447
   8   2.0000      -1.202065       -32.7099
   9   2.0000      -1.026290       -27.9268
  10   2.0000      -0.892406       -24.2836
  11   2.0000      -0.765212       -20.8225
  12   2.0000      -0.697780       -18.9876
  13   2.0000      -0.674146       -18.3444
  14   2.0000      -0.648013       -17.6333
  15   2.0000      -0.624107       -16.9828
  16   2.0000      -0.585393       -15.9293
  17   2.0000      -0.554414       -15.0864
  18   2.0000      -0.549816       -14.9613
  19   2.0000      -0.482054       -13.1173
  20   2.0000      -0.471377       -12.8268
  21   2.0000      -0.468140       -12.7387
  22   2.0000      -0.422261       -11.4903
  23   0.0000       0.110948         3.0191
  24   0.0000       0.141149         3.8409
  25   0.0000       0.153346         4.1728
  26   0.0000       0.163172         4.4401
  27   0.0000       0.187148         5.0926

MULLIKEN ATOMIC CHARGES
-----------------------
   0 N :   -0.526840
   1 C :    0.174238
   2 C :   -0.088083
   3 O :   -0.472110
   4 C :   -0.200659
   5 N :   -0.054919
   6 H :    0.232552
   7 H :    0.250369
   8 H :    0.131796
   9 H :    0.108338
  10 H :    0.116372
  11 H :    0.328947
Sum of atomic charges:   -0.0000000

LOEWDIN ATOMIC CHARGES
----------------------
   0 N :   -0.129348
   1 C :   -0.326816
   2 C :   -0.326647
   3 O :   -0.043754
   4 C :   -0.167013
   5 N :    0.069205
   6 H :    0.161024
   7 H :    0.163992
   8 H :    0.173700
   9 H :    0.120823
  10 H :    0.125487
  11 H :    0.179347

  Mayer bond orders larger than 0.1
B(  0-N ,  1-C ) :   0.9385 B(  0-N ,  6-H ) :   0.8834 B(  0-N ,  7-H ) :   0.8814
B(  1-C ,  2-C ) :   0.9323 B(  1-C ,  4-C ) :   0.9134 B(  1-C ,  8-H ) :   0.8953
B(  2-C ,  3-O ) :   0.9961 B(  2-C ,  9-H ) :   0.9133 B(  2-C , 10-H ) :   0.9261
B(  3-O , 11-H ) :   0.8418 B(  4-C ,  5-N ) :   2.8609

MP2 TOTAL ENERGY:     -302.064008345 Eh
FINAL SINGLE POINT ENERGY      -302.064008345484

DIPOLE MOMENT
-------------
                                X             Y             Z
Electronic contribution:      0.43924      -1.20012       3.25699
Nuclear contribution   :     -0.29610       1.26059      -5.08674
                        -----------------------------------------
Total Dipole Moment    :      0.14313       0.06047      -1.82976
                        -----------------------------------------
Magnitude (a.u.)       :      1.83634
Magnitude (Debye)      :      4.66762

                             ****ORCA TERMINATED NORMALLY****
TOTAL RUN TIME: 0 days 0 hours 5 minutes 17 seconds 953 msec
