                         Program Version 3.0.3 - RELEASE   -
|  1> ! RI-MP2 RIJK def2-TZVP def2-TZVP/C def2-TZVP/JK TIGHTSCF
|  2> % maxcore 2000
|  3> % mp2 density relaxed end
|  4> *xyz 0 1
|  5>  C        0.2320834383     1.3926098747     0.2241527245
|  6>  O        1.1606024318     1.9186045289    -0.6977544591
|  7>  C        2.0128765313     0.8412309660    -1.0577144716
|  8>  C        3.2926757643     0.7083147997    -0.2039515545
|  9>  O        3.4136696617    -0.6736649258     0.0981368134
| 10>  C        2.1000481921    -1.1605454349     0.3285975727
| 11>  C        1.1979758867    -0.4357206516    -0.6938301644
| 12>  O       -0.0237927224     0.0626497637    -0.1688674613
| 13>  H        0.6398323136     1.4248766748     1.2505007363
| 14>  H       -0.6951593622     1.9695878921     0.1723882991
| 15>  H        2.2330069776     0.9340663593    -2.1224626900
| 16>  H        4.2025530419     1.0182542136    -0.7222059572
| 17>  H        3.1831675891     1.3171734427     0.7078975998
| 18>  H        2.1196318976    -2.2457052971     0.2078859587
| 19>  H        1.7511883494    -0.9267592635     1.3473273627
| 20>  H        0.9578656490    -1.0640709326    -1.5530668690
| 21> *
| 22>
| 23>                          ****END OF INPUT****

CARTESIAN COORDINATES (ANGSTROEM)
---------------------------------
  C      0.232083    1.392610    0.224153
  O      1.160602    1.918605   -0.697754
  C      2.012877    0.841231   -1.057714
  C      3.292676    0.708315   -0.203952
  O      3.413670   -0.673665    0.098137
  C      2.100048   -1.160545    0.328598
  C      1.197976   -0.435721   -0.693830
  O     -0.023793    0.062650   -0.168867
  H      0.639832    1.424877    1.250501
  H     -0.695159    1.969588    0.172388
  H      2.233007    0.934066   -2.122463
  H      4.202553    1.018254   -0.722206
  H      3.183168    1.317173    0.707898
  H      2.119632   -2.245705    0.207886
  H      1.751188   -0.926759    1.347327
  H      0.957866   -1.064071   -1.553067

 Total Charge           Charge          ....    0
 Multiplicity           Mult            ....    1
 Number of Electrons    NEL             ....   62
 Basis Dimension        Dim             ....  296

ORBITAL ENERGIES
----------------

  NO   OCC          E(Eh)            E(eV)
   0   2.0000     -20.573625      -559.8368
   1   2.0000     -20.573602      -559.8362
   2   2.0000     -20.566100      -559.6320
   3   2.0000     -11.336280      -308.4759
   4   2.0000     -11.293665      -307.3163
   5   2.0000     -11.293094      -307.3007
   6   2.0000     -11.282606      -307.0153
   7   2.0000     -11.282585      -307.0148
   8   2.0000      -1.450838       -39.4793
   9   2.0000      -1.389271       -37.8040
  10   2.0000      -1.344732       -36.5920
  11   2.0000      -1.055358       -28.7178
  12   2.0000      -0.998845       -27.1800
  13   2.0000      -0.902854       -24.5679
  14   2.0000      -0.829489       -22.5715
  15   2.0000      -0.822163       -22.3722
  16   2.0000      -0.738894       -20.1063
  17   2.0000      -0.691672       -18.8214
  18   2.0000      -0.675698       -18.3867
  19   2.0000      -0.654285       -17.8040
  20   2.0000      -0.650259       -17.6945
  21   2.0000      -0.625858       -17.0305
  22   2.0000      -0.574224       -15.6254
  23   2.0000      -0.564683       -15.3658
  24   2.0000      -0.530065       -14.4238
  25   2.0000      -0.526195       -14.3185
  26   2.0000      -0.518803       -14.1174
  27   2.0000      -0.481182       -13.0936
  28   2.0000      -0.454811       -12.3760
  29   2.0000      -0.447417       -12.1748
  30   2.0000      -0.411719       -11.2034
  31   0.0000       0.142336         3.8732
  32   0.0000       0.152498         4.1497
  33   0.0000       0.179230         4.8771
  34   0.0000       0.187573         5.1041
  35   0.0000       0.200558         5.4575

MULLIKEN ATOMIC CHARGES
-----------------------
   0 C :    0.085168
   1 O :   -0.321314
   2 C :    0.053346
   3 C :   -0.070168
   4 O :   -0.311351
   5 C :   -0.070168
   6 C :    0.053346
   7 O :   -0.321315
   8 H :    0.085039
   9 H :    0.132066
  10 H :    0.118047
  11 H :    0.125340
  12 H :    0.099289
  13 H :    0.125340
  14 H :    0.099289
  15 H :    0.118047
Sum of atomic charges:    0.0000000

LOEWDIN ATOMIC CHARGES
----------------------
   0 C :   -0.373785
   1 O :    0.173205
   2 C :   -0.283281
   3 C :   -0.288221
   4 O :    0.150957
   5 C :   -0.288220
   6 C :   -0.283281
   7 O :    0.173204
   8 H :    0.103120
   9 H :    0.121600
  10 H :    0.143167
  11 H :    0.128711
  12 H :    0.125472
  13 H :    0.128711
  14 H :    0.125472
  15 H :    0.143167

  Mayer bond orders larger than 0.1
B(  0-C ,  1-O ) :   0.9653 B(  0-C ,  7-O ) :   0.9653 B(  0-C ,  8-H ) :   0.9216
B(  0-C ,  9-H ) :   0.9268 B(  1-O ,  2-C ) :   0.9320 B(  2-C ,  3-C ) :   0.9250
B(  2-C ,  6-C ) :   0.9256 B(  2-C , 10-H ) :   0.9235 B(  3-C ,  4-O ) :   0.9310
B(  3-C , 11-H ) :   0.9286 B(  3-C , 12-H ) :   0.9123 B(  4-O ,  5-C ) :   0.9310
B(  5-C ,  6-C ) :   0.9250 B(  5-C , 13-H ) :   0.9286 B(  5-C , 14-H ) :   0.9123
B(  6-C ,  7-O ) :   0.9320 B(  6-C , 15-H ) :   0.9235

MP2 TOTAL ENERGY:     -420.213547984 Eh
FINAL SINGLE POINT ENERGY      -420.213547984096

DIPOLE MOMENT
-------------
                                X             Y             Z
Electronic contribution:     -1.00196       0.28637      -1.23890
Nuclear contribution   :      0.99258      -0.27368       1.26243
                        -----------------------------------------
Total Dipole Moment    :     -0.00938       0.01269       0.02353
                        -----------------------------------------
Magnitude (a.u.)       :      0.02833
Magnitude (Debye)      :      0.07201

                             ****ORCA TERMINATED NORMALLY****
TOTAL RUN TIME: 0 days 0 hours 12 minutes 16 seconds 516 msec
