                         Program Version 3.0.3 - RELEASE   -
|  1> ! RI-MP2 RIJK def2-TZVP def2-TZVP/C def2-TZVP/JK TIGHTSCF
|  2> % maxcore 2000
|  3> % mp2 density relaxed end
|  4> *xyz 0 1
|  5>  O       -0.1233445025     1.4084476480     0.0221352921
|  6>  C        0.0095172662     0.0509701540     0.0165411038
|  7>  C       -1.0369359155    -1.0215354008     0.1246828897
|  8>  C       -0.0149701968    -0.9988168622    -1.0421976681
|  9>  N        1.2220188100    -1.7062369411    -0.5235085657
| 10>  C        0.8325335041    -3.0542466296    -0.1693559095
| 11>  N        0.0358467226    -3.1825004369     0.8178029128
| 12>  C       -0.2449433874    -1.7971424495     1.2176222393
| 13>  C        0.9694528462    -0.9447234096     0.7649023672
| 14>  H        0.6247469079     1.7935951308    -0.4498817504
| 15>  H       -2.1038951656    -0.9731038848    -0.0409568465
| 16>  H       -0.2890038553    -0.9814280624    -2.0878760175
| 17>  H        1.1720222330    -3.8834611279    -0.7838913551
| 18>  H       -0.6110251330    -1.6905679045     2.2362259671
| 19>  H        1.8334828562    -0.7389509735     1.3951928907
| 20> *
| 21>
| 22>                          ****END OF INPUT****

CARTESIAN COORDINATES (ANGSTROEM)
---------------------------------
  O     -0.123345    1.408448    0.022135
  C      0.009517    0.050970    0.016541
  C     -1.036936   -1.021535    0.124683
  C     -0.014970   -0.998817   -1.042198
  N      1.222019   -1.706237   -0.523509
  C      0.832534   -3.054247   -0.169356
  N      0.035847   -3.182500    0.817803
  C     -0.244943   -1.797142    1.217622
  C      0.969453   -0.944723    0.764902
  H      0.624747    1.793595   -0.449882
  H     -2.103895   -0.973104   -0.040957
  H     -0.289004   -0.981428   -2.087876
  H      1.172022   -3.883461   -0.783891
  H     -0.611025   -1.690568    2.236226
  H      1.833483   -0.738951    1.395193

 Total Charge           Charge          ....    0
 Multiplicity           Mult            ....    1
 Number of Electrons    NEL             ....   64
 Basis Dimension        Dim             ....  315

ORBITAL ENERGIES
----------------

  NO   OCC          E(Eh)            E(eV)
   0   2.0000     -20.591807      -560.3316
   1   2.0000     -15.578212      -423.9047
   2   2.0000     -15.555481      -423.2862
   3   2.0000     -11.310753      -307.7812
   4   2.0000     -11.299331      -307.4704
   5   2.0000     -11.278888      -306.9142
   6   2.0000     -11.277591      -306.8788
   7   2.0000     -11.270871      -306.6960
   8   2.0000     -11.248136      -306.0773
   9   2.0000      -1.406514       -38.2732
  10   2.0000      -1.341152       -36.4946
  11   2.0000      -1.200771       -32.6746
  12   2.0000      -1.107249       -30.1298
  13   2.0000      -0.978874       -26.6365
  14   2.0000      -0.878561       -23.9069
  15   2.0000      -0.845294       -23.0016
  16   2.0000      -0.776752       -21.1365
  17   2.0000      -0.742286       -20.1986
  18   2.0000      -0.729571       -19.8526
  19   2.0000      -0.681755       -18.5515
  20   2.0000      -0.658972       -17.9315
  21   2.0000      -0.631077       -17.1725
  22   2.0000      -0.589109       -16.0305
  23   2.0000      -0.570792       -15.5320
  24   2.0000      -0.547836       -14.9074
  25   2.0000      -0.524414       -14.2700
  26   2.0000      -0.500931       -13.6310
  27   2.0000      -0.476163       -12.9570
  28   2.0000      -0.447895       -12.1878
  29   2.0000      -0.401283       -10.9195
  30   2.0000      -0.374750       -10.1975
  31   2.0000      -0.371027       -10.0962
  32   0.0000       0.131602         3.5811
  33   0.0000       0.134964         3.6726
  34   0.0000       0.158631         4.3166
  35   0.0000       0.176269         4.7965
  36   0.0000       0.185818         5.0564

MULLIKEN ATOMIC CHARGES
-----------------------
   0 O :   -0.436437
   1 C :    0.074740
   2 C :   -0.208457
   3 C :   -0.085825
   4 N :   -0.187215
   5 C :   -0.009310
   6 N :   -0.223240
   7 C :    0.018564
   8 C :   -0.012146
   9 H :    0.338468
  10 H :    0.153385
  11 H :    0.154620
  12 H :    0.137095
  13 H :    0.134659
  14 H :    0.151100
Sum of atomic charges:   -0.0000000

LOEWDIN ATOMIC CHARGES
----------------------
   0 O :    0.051472
   1 C :   -0.298412
   2 C :   -0.118246
   3 C :   -0.157748
   4 N :    0.130476
   5 C :   -0.265529
   6 N :    0.113887
   7 C :   -0.214013
   8 C :   -0.129020
   9 H :    0.195364
  10 H :    0.143970
  11 H :    0.138690
  12 H :    0.130611
  13 H :    0.145222
  14 H :    0.133279

  Mayer bond orders larger than 0.1
B(  0-O ,  1-C ) :   1.0694 B(  0-O ,  9-H ) :   0.8274 B(  1-C ,  2-C ) :   0.8772
B(  1-C ,  3-C ) :   0.8739 B(  1-C ,  8-C ) :   0.8753 B(  2-C ,  3-C ) :   0.8393
B(  2-C ,  7-C ) :   0.8445 B(  2-C , 10-H ) :   0.9175 B(  3-C ,  4-N ) :   0.8785
B(  3-C , 11-H ) :   0.9127 B(  4-N ,  5-C ) :   0.9960 B(  4-N ,  8-C ) :   0.9076
B(  5-C ,  6-N ) :   1.8361 B(  5-C , 12-H ) :   0.9237 B(  6-N ,  7-C ) :   0.9589
B(  7-C ,  8-C ) :   0.9336 B(  7-C , 13-H ) :   0.9349 B(  8-C , 14-H ) :   0.8929

MP2 TOTAL ENERGY:     -416.022439692 Eh
FINAL SINGLE POINT ENERGY      -416.022439692161

DIPOLE MOMENT
-------------
                                X             Y             Z
Electronic contribution:      0.66176      -0.02835       0.05833
Nuclear contribution   :     -0.44718       0.66844      -0.47299
                        -----------------------------------------
Total Dipole Moment    :      0.21458       0.64009      -0.41465
                        -----------------------------------------
Magnitude (a.u.)       :      0.79228
Magnitude (Debye)      :      2.01381

                             ****ORCA TERMINATED NORMALLY****
TOTAL RUN TIME: 0 days 0 hours 17 minutes 34 seconds 435 msec
