                         Program Version 3.0.3 - RELEASE   -
|  1> ! RI-MP2 RIJK def2-TZVP def2-TZVP/C def2-TZVP/JK TIGHTSCF
|  2> % maxcore 2000
|  3> % mp2 density relaxed end
|  4> *xyz 0 1
|  5>  C        0.1831454339     1.4966927419     0.0881802186
|  6>  C        0.0362569624    -0.0201275721     0.0541971621
|  7>  C        0.1500833540    -0.6463694262     1.4459411605
|  8>  O       -1.2278841274    -0.2801112982    -0.5596294550
|  9>  C       -1.4220733924    -1.5908305969    -0.9920793406
| 10>  C       -2.1912535145    -2.5753148172    -0.1439493181
| 11>  C       -2.8153621928    -1.9782226760    -1.3906420174
| 12>  C       -3.9457361706    -0.9926062312    -1.2580400311
| 13>  O       -5.1493625662    -1.7275027761    -1.0603527681
| 14>  H        1.1541162519     1.7815670659     0.5038397731
| 15>  H        0.0967377789     1.9120384186    -0.9191758597
| 16>  H       -0.6019843384     1.9391153590     0.7097748437
| 17>  H        0.8260483474    -0.4430732073    -0.5895647610
| 18>  H        0.0517298359    -1.7336454326     1.4047763619
| 19>  H        1.1238085893    -0.4105826121     1.8875800791
| 20>  H       -0.6311770109    -0.2534226169     2.1049467940
| 21>  H       -0.6011743184    -1.9770835851    -1.5988429044
| 22>  H       -1.9000684100    -3.6202669706    -0.1475586134
| 23>  H       -2.5701558721    -2.2101704123     0.8041622898
| 24>  H       -2.9021664126    -2.6338379771    -2.2523796219
| 25>  H       -3.7442990439    -0.3116553168    -0.4201205302
| 26>  H       -4.0060534042    -0.3775372860    -2.1701926461
| 27>  H       -5.8756903193    -1.0978442249    -1.0282094857
| 28> *
| 29>
| 30>                          ****END OF INPUT****

CARTESIAN COORDINATES (ANGSTROEM)
---------------------------------
  C      0.183145    1.496693    0.088180
  C      0.036257   -0.020128    0.054197
  C      0.150083   -0.646369    1.445941
  O     -1.227884   -0.280111   -0.559629
  C     -1.422073   -1.590831   -0.992079
  C     -2.191254   -2.575315   -0.143949
  C     -2.815362   -1.978223   -1.390642
  C     -3.945736   -0.992606   -1.258040
  O     -5.149363   -1.727503   -1.060353
  H      1.154116    1.781567    0.503840
  H      0.096738    1.912038   -0.919176
  H     -0.601984    1.939115    0.709775
  H      0.826048   -0.443073   -0.589565
  H      0.051730   -1.733645    1.404776
  H      1.123809   -0.410583    1.887580
  H     -0.631177   -0.253423    2.104947
  H     -0.601174   -1.977084   -1.598843
  H     -1.900068   -3.620267   -0.147559
  H     -2.570156   -2.210170    0.804162
  H     -2.902166   -2.633838   -2.252380
  H     -3.744299   -0.311655   -0.420121
  H     -4.006053   -0.377537   -2.170193
  H     -5.875690   -1.097844   -1.028209

 Total Charge           Charge          ....    0
 Multiplicity           Mult            ....    1
 Number of Electrons    NEL             ....   72
 Basis Dimension        Dim             ....  363

ORBITAL ENERGIES
----------------

  NO   OCC          E(Eh)            E(eV)
   0   2.0000     -20.554358      -559.3125
   1   2.0000     -20.547240      -559.1188
   2   2.0000     -11.281304      -306.9799
   3   2.0000     -11.279043      -306.9184
   4   2.0000     -11.268988      -306.6447
   5   2.0000     -11.223599      -305.4096
   6   2.0000     -11.217807      -305.2520
   7   2.0000     -11.213631      -305.1384
   8   2.0000     -11.212793      -305.1156
   9   2.0000      -1.379275       -37.5320
  10   2.0000      -1.350236       -36.7418
  11   2.0000      -1.135161       -30.8893
  12   2.0000      -1.040899       -28.3243
  13   2.0000      -0.942005       -25.6333
  14   2.0000      -0.933144       -25.3921
  15   2.0000      -0.829661       -22.5762
  16   2.0000      -0.796100       -21.6630
  17   2.0000      -0.767573       -20.8867
  18   2.0000      -0.695990       -18.9388
  19   2.0000      -0.681332       -18.5400
  20   2.0000      -0.658145       -17.9090
  21   2.0000      -0.626835       -17.0570
  22   2.0000      -0.610363       -16.6088
  23   2.0000      -0.596910       -16.2428
  24   2.0000      -0.579723       -15.7751
  25   2.0000      -0.546711       -14.8768
  26   2.0000      -0.538566       -14.6551
  27   2.0000      -0.534279       -14.5385
  28   2.0000      -0.521569       -14.1926
  29   2.0000      -0.516754       -14.0616
  30   2.0000      -0.483339       -13.1523
  31   2.0000      -0.475532       -12.9399
  32   2.0000      -0.453705       -12.3460
  33   2.0000      -0.445256       -12.1160
  34   2.0000      -0.404543       -11.0082
  35   2.0000      -0.379757       -10.3337
  36   0.0000       0.136602         3.7171
  37   0.0000       0.147023         4.0007
  38   0.0000       0.155077         4.2199
  39   0.0000       0.167897         4.5687
  40   0.0000       0.183696         4.9986

MULLIKEN ATOMIC CHARGES
-----------------------
   0 C :   -0.362075
   1 C :    0.074768
   2 C :   -0.395716
   3 O :   -0.290522
   4 C :   -0.012524
   5 C :   -0.266940
   6 C :   -0.033403
   7 C :   -0.103495
   8 O :   -0.462600
   9 H :    0.120712
  10 H :    0.135134
  11 H :    0.126297
  12 H :    0.066646
  13 H :    0.146084
  14 H :    0.129193
  15 H :    0.122543
  16 H :    0.100939
  17 H :    0.128275
  18 H :    0.133134
  19 H :    0.120033
  20 H :    0.112320
  21 H :    0.098509
  22 H :    0.312688
Sum of atomic charges:   -0.0000000

LOEWDIN ATOMIC CHARGES
----------------------
   0 C :   -0.293492
   1 C :   -0.365970
   2 C :   -0.298060
   3 O :    0.208585
   4 C :   -0.298237
   5 C :   -0.212167
   6 C :   -0.211888
   7 C :   -0.328678
   8 O :   -0.053170
   9 H :    0.125110
  10 H :    0.125279
  11 H :    0.125733
  12 H :    0.133107
  13 H :    0.125869
  14 H :    0.126235
  15 H :    0.125072
  16 H :    0.133409
  17 H :    0.130476
  18 H :    0.140514
  19 H :    0.150207
  20 H :    0.122527
  21 H :    0.119649
  22 H :    0.169889

  Mayer bond orders larger than 0.1
B(  0-C ,  1-C ) :   0.9306 B(  0-C ,  9-H ) :   0.9327 B(  0-C , 10-H ) :   0.9376
B(  0-C , 11-H ) :   0.9342 B(  1-C ,  2-C ) :   0.9163 B(  1-C ,  3-O ) :   0.9147
B(  1-C , 12-H ) :   0.9349 B(  2-C , 13-H ) :   0.9362 B(  2-C , 14-H ) :   0.9292
B(  2-C , 15-H ) :   0.9316 B(  3-O ,  4-C ) :   0.9647 B(  4-C ,  5-C ) :   0.9032
B(  4-C ,  6-C ) :   0.8753 B(  4-C , 16-H ) :   0.9234 B(  5-C ,  6-C ) :   0.8821
B(  5-C , 17-H ) :   0.9188 B(  5-C , 18-H ) :   0.9175 B(  6-C ,  7-C ) :   0.9331
B(  6-C , 19-H ) :   0.9199 B(  7-C ,  8-O ) :   1.0233 B(  7-C , 20-H ) :   0.9161
B(  7-C , 21-H ) :   0.9349 B(  8-O , 22-H ) :   0.8499

MP2 TOTAL ENERGY:     -424.696109400 Eh
FINAL SINGLE POINT ENERGY      -424.696109400257

DIPOLE MOMENT
-------------
                                X             Y             Z
Electronic contribution:     -5.57724      -2.61691      -3.77136
Nuclear contribution   :      5.99958       2.98660       3.83353
                        -----------------------------------------
Total Dipole Moment    :      0.42234       0.36969       0.06217
                        -----------------------------------------
Magnitude (a.u.)       :      0.56472
Magnitude (Debye)      :      1.43540

                             ****ORCA TERMINATED NORMALLY****
TOTAL RUN TIME: 0 days 0 hours 27 minutes 41 seconds 880 msec
