                         Program Version 3.0.3 - RELEASE   -
|  1> ! RI-MP2 RIJK def2-TZVP def2-TZVP/C def2-TZVP/JK TIGHTSCF
|  2> % maxcore 2000
|  3> % mp2 density relaxed end
|  4> *xyz 0 1
|  5>  C       -0.6857024561     1.2003512498    -1.5159418986
|  6>  C       -0.3391984964    -0.0679235031    -0.7667419107
|  7>  C        1.0793529785    -0.6036551765    -0.6182515460
|  8>  C        2.3005700579     0.0828257080    -1.1931276462
|  9>  C        0.3226189707    -0.0768276771     0.5842630270
| 10>  C        0.6941955112     1.1823009829     1.3302977235
| 11>  O       -0.2367886607    -1.0602601993     1.4629505284
| 12>  C        0.6270832097    -1.8147838326     2.1696121585
| 13>  O        0.2685339043    -2.6248579777     2.9719566627
| 14>  H        0.0853061817     1.9700453368    -1.4315345420
| 15>  H       -0.8186759613     0.9892585010    -2.5822059656
| 16>  H       -1.6222149386     1.6295004951    -1.1441457954
| 17>  H       -1.0885935191    -0.8486649877    -0.8658570579
| 18>  H        1.1376468464    -1.6885069162    -0.6568345606
| 19>  H        2.2326166179     1.1721782171    -1.1497484904
| 20>  H        3.2066886613    -0.2117369964    -0.6525670792
| 21>  H        2.4378280263    -0.1947804243    -2.2437086303
| 22>  H        1.0210905280     1.9752084772     0.6559071251
| 23>  H       -0.1701109016     1.5490553079     1.8927400734
| 24>  H        1.5046366297     0.9948219931     2.0431502763
| 25>  H        1.6846926003    -1.6094269978     1.9184813178
| 26> *
| 27>
| 28>                          ****END OF INPUT****

CARTESIAN COORDINATES (ANGSTROEM)
---------------------------------
  C     -0.685702    1.200351   -1.515942
  C     -0.339198   -0.067924   -0.766742
  C      1.079353   -0.603655   -0.618252
  C      2.300570    0.082826   -1.193128
  C      0.322619   -0.076828    0.584263
  C      0.694196    1.182301    1.330298
  O     -0.236789   -1.060260    1.462951
  C      0.627083   -1.814784    2.169612
  O      0.268534   -2.624858    2.971957
  H      0.085306    1.970045   -1.431535
  H     -0.818676    0.989259   -2.582206
  H     -1.622215    1.629500   -1.144146
  H     -1.088594   -0.848665   -0.865857
  H      1.137647   -1.688507   -0.656835
  H      2.232617    1.172178   -1.149748
  H      3.206689   -0.211737   -0.652567
  H      2.437828   -0.194780   -2.243709
  H      1.021091    1.975208    0.655907
  H     -0.170111    1.549055    1.892740
  H      1.504637    0.994822    2.043150
  H      1.684693   -1.609427    1.918481

 Total Charge           Charge          ....    0
 Multiplicity           Mult            ....    1
 Number of Electrons    NEL             ....   70
 Basis Dimension        Dim             ....  351

ORBITAL ENERGIES
----------------

  NO   OCC          E(Eh)            E(eV)
   0   2.0000     -20.602949      -560.6347
   1   2.0000     -20.545957      -559.0839
   2   2.0000     -11.377374      -309.5941
   3   2.0000     -11.307925      -307.7043
   4   2.0000     -11.249384      -306.1113
   5   2.0000     -11.244153      -305.9690
   6   2.0000     -11.237718      -305.7939
   7   2.0000     -11.235543      -305.7347
   8   2.0000     -11.231615      -305.6278
   9   2.0000      -1.458194       -39.6795
  10   2.0000      -1.369397       -37.2632
  11   2.0000      -1.168235       -31.7893
  12   2.0000      -1.004878       -27.3441
  13   2.0000      -0.998917       -27.1819
  14   2.0000      -0.953243       -25.9391
  15   2.0000      -0.864071       -23.5126
  16   2.0000      -0.791675       -21.5426
  17   2.0000      -0.769045       -20.9268
  18   2.0000      -0.724937       -19.7265
  19   2.0000      -0.663210       -18.0469
  20   2.0000      -0.658932       -17.9305
  21   2.0000      -0.629982       -17.1427
  22   2.0000      -0.605216       -16.4688
  23   2.0000      -0.592849       -16.1322
  24   2.0000      -0.583512       -15.8782
  25   2.0000      -0.562145       -15.2967
  26   2.0000      -0.559978       -15.2378
  27   2.0000      -0.555697       -15.1213
  28   2.0000      -0.553388       -15.0585
  29   2.0000      -0.529549       -14.4098
  30   2.0000      -0.499724       -13.5982
  31   2.0000      -0.475394       -12.9361
  32   2.0000      -0.458932       -12.4882
  33   2.0000      -0.406334       -11.0569
  34   2.0000      -0.405840       -11.0435
  35   0.0000       0.118853         3.2342
  36   0.0000       0.143338         3.9004
  37   0.0000       0.153510         4.1772
  38   0.0000       0.163317         4.4441
  39   0.0000       0.173975         4.7341

MULLIKEN ATOMIC CHARGES
-----------------------
   0 C :   -0.416986
   1 C :   -0.075501
   2 C :   -0.169123
   3 C :   -0.392907
   4 C :    0.128570
   5 C :   -0.377787
   6 O :   -0.206183
   7 C :    0.184655
   8 O :   -0.271351
   9 H :    0.119196
  10 H :    0.142864
  11 H :    0.144799
  12 H :    0.136179
  13 H :    0.146763
  14 H :    0.120726
  15 H :    0.138546
  16 H :    0.143027
  17 H :    0.125725
  18 H :    0.154269
  19 H :    0.135678
  20 H :    0.088841
Sum of atomic charges:   -0.0000000

LOEWDIN ATOMIC CHARGES
----------------------
   0 C :   -0.287470
   1 C :   -0.192804
   2 C :   -0.203314
   3 C :   -0.288983
   4 C :   -0.305274
   5 C :   -0.261962
   6 O :    0.285424
   7 C :   -0.446127
   8 O :    0.116706
   9 H :    0.122113
  10 H :    0.129900
  11 H :    0.130261
  12 H :    0.159416
  13 H :    0.156014
  14 H :    0.123168
  15 H :    0.127966
  16 H :    0.130113
  17 H :    0.129821
  18 H :    0.137200
  19 H :    0.130406
  20 H :    0.107426

  Mayer bond orders larger than 0.1
B(  0-C ,  1-C ) :   0.8953 B(  0-C ,  9-H ) :   0.9388 B(  0-C , 10-H ) :   0.9379
B(  0-C , 11-H ) :   0.9389 B(  1-C ,  2-C ) :   0.8867 B(  1-C ,  4-C ) :   0.8628
B(  1-C , 12-H ) :   0.9235 B(  2-C ,  3-C ) :   0.8955 B(  2-C ,  4-C ) :   0.8815
B(  2-C , 13-H ) :   0.9242 B(  3-C , 14-H ) :   0.9362 B(  3-C , 15-H ) :   0.9382
B(  3-C , 16-H ) :   0.9361 B(  4-C ,  5-C ) :   0.9471 B(  4-C ,  6-O ) :   0.8580
B(  5-C , 17-H ) :   0.9287 B(  5-C , 18-H ) :   0.9343 B(  5-C , 19-H ) :   0.9206
B(  6-O ,  7-C ) :   1.0541 B(  7-C ,  8-O ) :   2.0280 B(  7-C , 20-H ) :   0.9181

MP2 TOTAL ENERGY:     -423.532580952 Eh
FINAL SINGLE POINT ENERGY      -423.532580952303

DIPOLE MOMENT
-------------
                                X             Y             Z
Electronic contribution:     -3.21260      -8.96171       8.57293
Nuclear contribution   :      3.88932      10.10566      -9.75406
                        -----------------------------------------
Total Dipole Moment    :      0.67672       1.14395      -1.18113
                        -----------------------------------------
Magnitude (a.u.)       :      1.77810
Magnitude (Debye)      :      4.51956

                             ****ORCA TERMINATED NORMALLY****
TOTAL RUN TIME: 0 days 0 hours 18 minutes 31 seconds 397 msec
