                         Program Version 3.0.3 - RELEASE   -
|  1> ! RI-MP2 RIJK def2-TZVP def2-TZVP/C def2-TZVP/JK TIGHTSCF
|  2> % maxcore 2000
|  3> % mp2 density relaxed end
|  4> *xyz 0 1
|  5>  O        0.0106532554     1.4351398284     0.4115442565
|  6>  C       -0.0021795647     0.0651987885     0.1374399647
|  7>  C        0.6823414210    -0.2187818248    -1.1836751851
|  8>  O        1.1534036610     0.6703823541    -1.8502654165
|  9>  C        0.6779783599    -0.7467620262     1.2669927756
| 10>  O        2.0417635474    -0.3838979489     1.3353386655
| 11>  C        2.3130987374     0.1053757640     2.6470887072
| 12>  C        0.9255621195     0.4591209160     3.1822675863
| 13>  O        0.0927222895    -0.4920182736     2.5176707270
| 14>  H        0.5310310157     1.8347963543    -0.3041499728
| 15>  H       -1.0384327697    -0.3089303539     0.0655196543
| 16>  H        0.7290117806    -1.2783569660    -1.5055804269
| 17>  H        0.5714696350    -1.8238032504     1.0618871296
| 18>  H        2.7943207711    -0.6759133949     3.2506524210
| 19>  H        2.9836171640     0.9651253189     2.5698974240
| 20>  H        0.8192679526     0.3073435282     4.2586715536
| 21>  H        0.6352612042     1.4793787964     2.9133772260
| 22> *
| 23>
| 24>                          ****END OF INPUT****

CARTESIAN COORDINATES (ANGSTROEM)
---------------------------------
  O      0.010653    1.435140    0.411544
  C     -0.002180    0.065199    0.137440
  C      0.682341   -0.218782   -1.183675
  O      1.153404    0.670382   -1.850265
  C      0.677978   -0.746762    1.266993
  O      2.041764   -0.383898    1.335339
  C      2.313099    0.105376    2.647089
  C      0.925562    0.459121    3.182268
  O      0.092722   -0.492018    2.517671
  H      0.531031    1.834796   -0.304150
  H     -1.038433   -0.308930    0.065520
  H      0.729012   -1.278357   -1.505580
  H      0.571470   -1.823803    1.061887
  H      2.794321   -0.675913    3.250652
  H      2.983617    0.965125    2.569897
  H      0.819268    0.307344    4.258672
  H      0.635261    1.479379    2.913377

 Total Charge           Charge          ....    0
 Multiplicity           Mult            ....    1
 Number of Electrons    NEL             ....   70
 Basis Dimension        Dim             ....  327

ORBITAL ENERGIES
----------------

  NO   OCC          E(Eh)            E(eV)
   0   2.0000     -20.578333      -559.9649
   1   2.0000     -20.575710      -559.8935
   2   2.0000     -20.574739      -559.8671
   3   2.0000     -20.565031      -559.6029
   4   2.0000     -11.351114      -308.8795
   5   2.0000     -11.349494      -308.8354
   6   2.0000     -11.302241      -307.5496
   7   2.0000     -11.289695      -307.2082
   8   2.0000     -11.285389      -307.0910
   9   2.0000      -1.454117       -39.5685
  10   2.0000      -1.423754       -38.7423
  11   2.0000      -1.370011       -37.2799
  12   2.0000      -1.344402       -36.5830
  13   2.0000      -1.067378       -29.0448
  14   2.0000      -0.991275       -26.9740
  15   2.0000      -0.866780       -23.5863
  16   2.0000      -0.859077       -23.3767
  17   2.0000      -0.805270       -21.9125
  18   2.0000      -0.742877       -20.2147
  19   2.0000      -0.722086       -19.6490
  20   2.0000      -0.709043       -19.2940
  21   2.0000      -0.678366       -18.4593
  22   2.0000      -0.665809       -18.1176
  23   2.0000      -0.612639       -16.6708
  24   2.0000      -0.603716       -16.4280
  25   2.0000      -0.594984       -16.1903
  26   2.0000      -0.586289       -15.9537
  27   2.0000      -0.553248       -15.0547
  28   2.0000      -0.540097       -14.6968
  29   2.0000      -0.525947       -14.3118
  30   2.0000      -0.507977       -13.8227
  31   2.0000      -0.490368       -13.3436
  32   2.0000      -0.455444       -12.3933
  33   2.0000      -0.444280       -12.0895
  34   2.0000      -0.414341       -11.2748
  35   0.0000       0.119870         3.2618
  36   0.0000       0.141779         3.8580
  37   0.0000       0.150908         4.1064
  38   0.0000       0.172500         4.6940
  39   0.0000       0.185724         5.0538

MULLIKEN ATOMIC CHARGES
-----------------------
   0 O :   -0.497779
   1 C :    0.072313
   2 C :    0.112138
   3 O :   -0.290959
   4 C :    0.264242
   5 O :   -0.332968
   6 C :   -0.064054
   7 C :   -0.051138
   8 O :   -0.330782
   9 H :    0.335270
  10 H :    0.108553
  11 H :    0.102047
  12 H :    0.105086
  13 H :    0.101154
  14 H :    0.119260
  15 H :    0.126551
  16 H :    0.121066
Sum of atomic charges:   -0.0000000

LOEWDIN ATOMIC CHARGES
----------------------
   0 O :    0.010788
   1 C :   -0.356484
   2 C :   -0.265402
   3 O :    0.133192
   4 C :   -0.382368
   5 O :    0.173811
   6 C :   -0.299293
   7 C :   -0.298653
   8 O :    0.182998
   9 H :    0.185029
  10 H :    0.156183
  11 H :    0.121104
  12 H :    0.134855
  13 H :    0.120925
  14 H :    0.129340
  15 H :    0.128347
  16 H :    0.125628

  Mayer bond orders larger than 0.1
B(  0-O ,  1-C ) :   1.0658 B(  0-O ,  9-H ) :   0.8028 B(  1-C ,  2-C ) :   0.8848
B(  1-C ,  4-C ) :   0.8572 B(  1-C , 10-H ) :   0.9170 B(  2-C ,  3-O ) :   1.9142
B(  2-C , 11-H ) :   0.9245 B(  4-C ,  5-O ) :   0.9356 B(  4-C ,  8-O ) :   0.9601
B(  4-C , 12-H ) :   0.9093 B(  5-O ,  6-C ) :   0.9221 B(  6-C ,  7-C ) :   0.9660
B(  6-C , 13-H ) :   0.9330 B(  6-C , 14-H ) :   0.9182 B(  7-C ,  8-O ) :   0.9115
B(  7-C , 15-H ) :   0.9172 B(  7-C , 16-H ) :   0.9263

MP2 TOTAL ENERGY:     -495.338131055 Eh
FINAL SINGLE POINT ENERGY      -495.338131055074

DIPOLE MOMENT
-------------
                                X             Y             Z
Electronic contribution:     -0.81639      -0.02846      -4.00852
Nuclear contribution   :      0.93198      -0.43733       4.50200
                        -----------------------------------------
Total Dipole Moment    :      0.11560      -0.46579       0.49348
                        -----------------------------------------
Magnitude (a.u.)       :      0.68836
Magnitude (Debye)      :      1.74968

                             ****ORCA TERMINATED NORMALLY****
TOTAL RUN TIME: 0 days 0 hours 17 minutes 43 seconds 853 msec
