                         Program Version 3.0.3 - RELEASE   -
|  1> ! RI-MP2 RIJK def2-TZVP def2-TZVP/C def2-TZVP/JK TIGHTSCF
|  2> % maxcore 2000
|  3> % mp2 density relaxed end
|  4> *xyz 0 1
|  5>  O        0.1808812741    -0.0008243196     0.1092475577
|  6>  C        0.0791305100     1.1845168313     0.0624020102
|  7>  C       -1.0432553171     2.2435767356     0.0564694456
|  8>  N       -0.0879827837     2.9972963634     0.9471372019
|  9>  C        1.0032867991     2.4202267838     0.0810839601
| 10>  C        0.7271095772     3.0237442788    -1.3208810108
| 11>  C        0.8154716141     2.0980908036    -2.5721804519
| 12>  C       -0.7397409087     1.9638562141    -2.5908879144
| 13>  C       -0.8411744828     2.8883769809    -1.3397420563
| 14>  H       -2.0507088814     2.0535008416     0.4232123131
| 15>  H       -0.1737705181     4.0079692479     0.8265850578
| 16>  H        2.0193630298     2.4048149383     0.4721636956
| 17>  H        1.1645306606     4.0189749675    -1.4275405527
| 18>  H        1.2246438620     2.5926728838    -3.4552833517
| 19>  H        1.3658825825     1.1667145006    -2.4174068297
| 20>  H       -1.2063913313     2.3828545645    -3.4845222526
| 21>  H       -1.1259859908     0.9516349283    -2.4473911681
| 22>  H       -1.4399686554     3.7941658957    -1.4588618940
| 23> *
| 24>
| 25>                          ****END OF INPUT****

CARTESIAN COORDINATES (ANGSTROEM)
---------------------------------
  O      0.180881   -0.000824    0.109248
  C      0.079131    1.184517    0.062402
  C     -1.043255    2.243577    0.056469
  N     -0.087983    2.997296    0.947137
  C      1.003287    2.420227    0.081084
  C      0.727110    3.023744   -1.320881
  C      0.815472    2.098091   -2.572180
  C     -0.739741    1.963856   -2.590888
  C     -0.841174    2.888377   -1.339742
  H     -2.050709    2.053501    0.423212
  H     -0.173771    4.007969    0.826585
  H      2.019363    2.404815    0.472164
  H      1.164531    4.018975   -1.427541
  H      1.224644    2.592673   -3.455283
  H      1.365883    1.166715   -2.417407
  H     -1.206391    2.382855   -3.484522
  H     -1.125986    0.951635   -2.447391
  H     -1.439969    3.794166   -1.458862

 Total Charge           Charge          ....    0
 Multiplicity           Mult            ....    1
 Number of Electrons    NEL             ....   66
 Basis Dimension        Dim             ....  333

ORBITAL ENERGIES
----------------

  NO   OCC          E(Eh)            E(eV)
   0   2.0000     -20.558353      -559.4212
   1   2.0000     -15.569995      -423.6811
   2   2.0000     -11.338008      -308.5229
   3   2.0000     -11.277591      -306.8788
   4   2.0000     -11.277566      -306.8782
   5   2.0000     -11.247550      -306.0614
   6   2.0000     -11.247034      -306.0473
   7   2.0000     -11.233902      -305.6900
   8   2.0000     -11.233374      -305.6756
   9   2.0000      -1.405032       -38.2329
  10   2.0000      -1.280312       -34.8391
  11   2.0000      -1.126616       -30.6568
  12   2.0000      -0.979091       -26.6424
  13   2.0000      -0.961326       -26.1590
  14   2.0000      -0.901832       -24.5401
  15   2.0000      -0.865724       -23.5576
  16   2.0000      -0.735037       -20.0014
  17   2.0000      -0.734504       -19.9869
  18   2.0000      -0.696170       -18.9437
  19   2.0000      -0.684393       -18.6233
  20   2.0000      -0.648226       -17.6391
  21   2.0000      -0.622617       -16.9423
  22   2.0000      -0.586569       -15.9614
  23   2.0000      -0.561817       -15.2878
  24   2.0000      -0.555904       -15.1269
  25   2.0000      -0.524122       -14.2621
  26   2.0000      -0.517653       -14.0860
  27   2.0000      -0.498379       -13.5616
  28   2.0000      -0.479448       -13.0464
  29   2.0000      -0.454583       -12.3698
  30   2.0000      -0.439980       -11.9725
  31   2.0000      -0.404923       -11.0185
  32   2.0000      -0.387034       -10.5317
  33   0.0000       0.125558         3.4166
  34   0.0000       0.137464         3.7406
  35   0.0000       0.152846         4.1592
  36   0.0000       0.164581         4.4785
  37   0.0000       0.175388         4.7725

MULLIKEN ATOMIC CHARGES
-----------------------
   0 O :   -0.231526
   1 C :    0.075724
   2 C :   -0.007507
   3 N :   -0.328316
   4 C :   -0.007508
   5 C :   -0.119016
   6 C :   -0.250287
   7 C :   -0.250285
   8 C :   -0.119018
   9 H :    0.144612
  10 H :    0.204915
  11 H :    0.144612
  12 H :    0.119690
  13 H :    0.122555
  14 H :    0.129556
  15 H :    0.122554
  16 H :    0.129555
  17 H :    0.119690
Sum of atomic charges:   -0.0000000

LOEWDIN ATOMIC CHARGES
----------------------
   0 O :    0.179221
   1 C :   -0.277432
   2 C :   -0.199861
   3 N :    0.039291
   4 C :   -0.199861
   5 C :   -0.180543
   6 C :   -0.215687
   7 C :   -0.215687
   8 C :   -0.180543
   9 H :    0.137861
  10 H :    0.163989
  11 H :    0.137861
  12 H :    0.139228
  13 H :    0.131063
  14 H :    0.135405
  15 H :    0.131064
  16 H :    0.135405
  17 H :    0.139228

  Mayer bond orders larger than 0.1
B(  0-O ,  1-C ) :   2.0741 B(  1-C ,  2-C ) :   0.8409 B(  1-C ,  4-C ) :   0.8409
B(  2-C ,  3-N ) :   0.9340 B(  2-C ,  4-C ) :  -0.1125 B(  2-C ,  8-C ) :   0.8805
B(  2-C ,  9-H ) :   0.8969 B(  3-N ,  4-C ) :   0.9340 B(  3-N , 10-H ) :   0.8643
B(  4-C ,  5-C ) :   0.8805 B(  4-C , 11-H ) :   0.8969 B(  5-C ,  6-C ) :   0.9315
B(  5-C ,  8-C ) :   0.9080 B(  5-C , 12-H ) :   0.9052 B(  6-C ,  7-C ) :   0.9729
B(  6-C , 13-H ) :   0.9228 B(  6-C , 14-H ) :   0.9118 B(  7-C ,  8-C ) :   0.9315
B(  7-C , 15-H ) :   0.9228 B(  7-C , 16-H ) :   0.9118 B(  8-C , 17-H ) :   0.9052

MP2 TOTAL ENERGY:     -401.226398236 Eh
FINAL SINGLE POINT ENERGY      -401.226398236134

DIPOLE MOMENT
-------------
                                X             Y             Z
Electronic contribution:      0.21212      -3.18597       5.22835
Nuclear contribution   :     -0.30593       4.38041      -6.00076
                        -----------------------------------------
Total Dipole Moment    :     -0.09381       1.19443      -0.77241
                        -----------------------------------------
Magnitude (a.u.)       :      1.42551
Magnitude (Debye)      :      3.62337

                             ****ORCA TERMINATED NORMALLY****
TOTAL RUN TIME: 0 days 0 hours 18 minutes 58 seconds 161 msec
