                         Program Version 3.0.3 - RELEASE   -
|  1> ! RI-MP2 RIJK def2-TZVP def2-TZVP/C def2-TZVP/JK TIGHTSCF
|  2> % maxcore 2000
|  3> % mp2 density relaxed end
|  4> *xyz 0 1
|  5>  C       -0.1326316073     1.5772569528     0.0062170157
|  6>  C       -0.0484989809     0.0654223032     0.0187564327
|  7>  C        1.2772657100    -0.6247835276    -0.2952944572
|  8>  C        0.7019084557    -0.6669923860     1.0811520039
|  9>  C        1.2056690302    -0.2236525997     2.4728004357
| 10>  C       -0.1855713604    -0.6865916910     3.0059731733
| 11>  C        0.2784845062    -1.8095416477     2.0277498504
| 12>  C        1.6859698181    -1.6982604020     2.7104469389
| 13>  C        2.9444459144    -2.2533688667     2.0634564197
| 14>  H        0.7813774113     2.0245101080     0.4109883920
| 15>  H       -0.2665492821     1.9610091343    -1.0115939949
| 16>  H       -0.9720378561     1.9386208710     0.6111440688
| 17>  H       -0.9312054446    -0.4366784707    -0.3737938169
| 18>  H        1.2576186346    -1.5236173741    -0.9049089836
| 19>  H        2.1374290039     0.0134604140    -0.4811054143
| 20>  H        1.7393056028     0.6938768265     2.7282638186
| 21>  H       -0.2351342420    -0.9550194581     4.0651481867
| 22>  H       -1.0491011281    -0.0958859097     2.6941884655
| 23>  H       -0.2612386509    -2.7216575533     1.7644688283
| 24>  H        1.6590163464    -1.9783247707     3.7707599637
| 25>  H        3.0234080972    -2.0000069960     1.0054036731
| 26>  H        3.8366546575    -1.8682747289     2.5705258190
| 27>  H        2.9690099341    -3.3456452577     2.1517275407
| 28> *
| 29>
| 30>                          ****END OF INPUT****

CARTESIAN COORDINATES (ANGSTROEM)
---------------------------------
  C     -0.132632    1.577257    0.006217
  C     -0.048499    0.065422    0.018756
  C      1.277266   -0.624784   -0.295294
  C      0.701908   -0.666992    1.081152
  C      1.205669   -0.223653    2.472800
  C     -0.185571   -0.686592    3.005973
  C      0.278485   -1.809542    2.027750
  C      1.685970   -1.698260    2.710447
  C      2.944446   -2.253369    2.063456
  H      0.781377    2.024510    0.410988
  H     -0.266549    1.961009   -1.011594
  H     -0.972038    1.938621    0.611144
  H     -0.931205   -0.436678   -0.373794
  H      1.257619   -1.523617   -0.904909
  H      2.137429    0.013460   -0.481105
  H      1.739306    0.693877    2.728264
  H     -0.235134   -0.955019    4.065148
  H     -1.049101   -0.095886    2.694188
  H     -0.261239   -2.721658    1.764469
  H      1.659016   -1.978325    3.770760
  H      3.023408   -2.000007    1.005404
  H      3.836655   -1.868275    2.570526
  H      2.969010   -3.345645    2.151728

 Total Charge           Charge          ....    0
 Multiplicity           Mult            ....    1
 Number of Electrons    NEL             ....   68
 Basis Dimension        Dim             ....  363

ORBITAL ENERGIES
----------------

  NO   OCC          E(Eh)            E(eV)
   0   2.0000     -11.237832      -305.7970
   1   2.0000     -11.237069      -305.7762
   2   2.0000     -11.233886      -305.6896
   3   2.0000     -11.230272      -305.5912
   4   2.0000     -11.223130      -305.3969
   5   2.0000     -11.220733      -305.3317
   6   2.0000     -11.214261      -305.1555
   7   2.0000     -11.213046      -305.1225
   8   2.0000     -11.205848      -304.9266
   9   2.0000      -1.213564       -33.0228
  10   2.0000      -1.110788       -30.2261
  11   2.0000      -0.985806       -26.8252
  12   2.0000      -0.954529       -25.9740
  13   2.0000      -0.853393       -23.2220
  14   2.0000      -0.849806       -23.1244
  15   2.0000      -0.816297       -22.2126
  16   2.0000      -0.780030       -21.2257
  17   2.0000      -0.686165       -18.6715
  18   2.0000      -0.670446       -18.2438
  19   2.0000      -0.624513       -16.9939
  20   2.0000      -0.603272       -16.4159
  21   2.0000      -0.595581       -16.2066
  22   2.0000      -0.561328       -15.2745
  23   2.0000      -0.558369       -15.1940
  24   2.0000      -0.543143       -14.7797
  25   2.0000      -0.514675       -14.0050
  26   2.0000      -0.492900       -13.4125
  27   2.0000      -0.488297       -13.2872
  28   2.0000      -0.461282       -12.5521
  29   2.0000      -0.442757       -12.0480
  30   2.0000      -0.430443       -11.7129
  31   2.0000      -0.421528       -11.4704
  32   2.0000      -0.385371       -10.4865
  33   2.0000      -0.377070       -10.2606
  34   0.0000       0.142021         3.8646
  35   0.0000       0.149804         4.0764
  36   0.0000       0.162545         4.4231
  37   0.0000       0.165412         4.5011
  38   0.0000       0.192276         5.2321

MULLIKEN ATOMIC CHARGES
-----------------------
   0 C :   -0.414957
   1 C :   -0.087093
   2 C :   -0.320444
   3 C :   -0.081421
   4 C :   -0.066325
   5 C :   -0.206827
   6 C :   -0.063227
   7 C :   -0.056597
   8 C :   -0.430072
   9 H :    0.125703
  10 H :    0.133475
  11 H :    0.128239
  12 H :    0.112307
  13 H :    0.129771
  14 H :    0.124669
  15 H :    0.129157
  16 H :    0.107446
  17 H :    0.115369
  18 H :    0.126807
  19 H :    0.094237
  20 H :    0.142756
  21 H :    0.128379
  22 H :    0.128648
Sum of atomic charges:    0.0000000

LOEWDIN ATOMIC CHARGES
----------------------
   0 C :   -0.294321
   1 C :   -0.215034
   2 C :   -0.199033
   3 C :   -0.180186
   4 C :   -0.125834
   5 C :   -0.185414
   6 C :   -0.125204
   7 C :   -0.199681
   8 C :   -0.295207
   9 H :    0.126703
  10 H :    0.124020
  11 H :    0.123431
  12 H :    0.148277
  13 H :    0.133099
  14 H :    0.135110
  15 H :    0.125766
  16 H :    0.126033
  17 H :    0.129231
  18 H :    0.125688
  19 H :    0.144232
  20 H :    0.128566
  21 H :    0.124807
  22 H :    0.124953

  Mayer bond orders larger than 0.1
B(  0-C ,  1-C ) :   0.8811 B(  0-C ,  9-H ) :   0.9373 B(  0-C , 10-H ) :   0.9392
B(  0-C , 11-H ) :   0.9406 B(  1-C ,  2-C ) :   0.9501 B(  1-C ,  3-C ) :   0.8834
B(  1-C , 12-H ) :   0.9176 B(  2-C ,  3-C ) :   0.8812 B(  2-C , 13-H ) :   0.9155
B(  2-C , 14-H ) :   0.9141 B(  3-C ,  4-C ) :   0.8195 B(  3-C ,  6-C ) :   0.8118
B(  4-C ,  5-C ) :   0.9170 B(  4-C ,  7-C ) :   0.8833 B(  4-C , 15-H ) :   0.8803
B(  5-C ,  6-C ) :   0.9191 B(  5-C , 16-H ) :   0.9237 B(  5-C , 17-H ) :   0.9243
B(  6-C ,  7-C ) :   0.8849 B(  6-C , 18-H ) :   0.8797 B(  7-C ,  8-C ) :   0.9057
B(  7-C , 19-H ) :   0.9249 B(  8-C , 20-H ) :   0.9415 B(  8-C , 21-H ) :   0.9379
B(  8-C , 22-H ) :   0.9376

MP2 TOTAL ENERGY:     -350.440412970 Eh
FINAL SINGLE POINT ENERGY      -350.440412970416

DIPOLE MOMENT
-------------
                                X             Y             Z
Electronic contribution:     -1.38889      -1.28366       1.13924
Nuclear contribution   :      1.38477       1.27653      -1.13104
                        -----------------------------------------
Total Dipole Moment    :     -0.00412      -0.00713       0.00820
                        -----------------------------------------
Magnitude (a.u.)       :      0.01162
Magnitude (Debye)      :      0.02954

                             ****ORCA TERMINATED NORMALLY****
TOTAL RUN TIME: 0 days 0 hours 21 minutes 9 seconds 676 msec
