                         Program Version 3.0.3 - RELEASE   -
|  1> ! RI-MP2 RIJK def2-TZVP def2-TZVP/C def2-TZVP/JK TIGHTSCF
|  2> % maxcore 2000
|  3> % mp2 density relaxed end
|  4> *xyz 0 1
|  5>  C        0.1981904494     1.6109265630     1.1539259387
|  6>  C       -0.0658137703     0.4275937347     0.2371502265
|  7>  C        0.7598613729     0.3650306142    -1.0406094116
|  8>  C        1.0258111549    -0.6011390463     0.0890391388
|  9>  O        2.1674980069    -0.4608623240     0.8883510554
| 10>  C       -1.5019672602    -0.0246715527     0.2853703195
| 11>  C       -2.5475032109     0.5010569979    -0.6872709238
| 12>  C       -2.1910600678    -0.9634583062    -0.6643875602
| 13>  O       -1.4655101001    -1.5395713092    -1.7158250878
| 14>  H        1.2596140847     1.8626125522     1.1725871670
| 15>  H       -0.3679338802     2.4888076338     0.8233354716
| 16>  H       -0.1051924789     1.3852175406     2.1829145179
| 17>  H        0.3155239879    -0.0247351464    -1.9459872519
| 18>  H        1.4778445724     1.1685939923    -1.1733996188
| 19>  H        0.7036092812    -1.6291741845    -0.0692488627
| 20>  H        2.9307355471    -0.7005735882     0.3529310937
| 21>  H       -1.8519678656    -0.1335595920     1.3104098563
| 22>  H       -3.5172069610     0.8233793950    -0.3232936670
| 23>  H       -2.1603287294     1.0690106937    -1.5273297506
| 24>  H       -2.9152924680    -1.6421077828    -0.2128314805
| 25>  H       -2.0501899650    -1.6012930551    -2.4783183705
| 26> *
| 27>
| 28>                          ****END OF INPUT****

CARTESIAN COORDINATES (ANGSTROEM)
---------------------------------
  C      0.198190    1.610927    1.153926
  C     -0.065814    0.427594    0.237150
  C      0.759861    0.365031   -1.040609
  C      1.025811   -0.601139    0.089039
  O      2.167498   -0.460862    0.888351
  C     -1.501967   -0.024672    0.285370
  C     -2.547503    0.501057   -0.687271
  C     -2.191060   -0.963458   -0.664388
  O     -1.465510   -1.539571   -1.715825
  H      1.259614    1.862613    1.172587
  H     -0.367934    2.488808    0.823335
  H     -0.105192    1.385218    2.182915
  H      0.315524   -0.024735   -1.945987
  H      1.477845    1.168594   -1.173400
  H      0.703609   -1.629174   -0.069249
  H      2.930736   -0.700574    0.352931
  H     -1.851968   -0.133560    1.310410
  H     -3.517207    0.823379   -0.323294
  H     -2.160329    1.069011   -1.527330
  H     -2.915292   -1.642108   -0.212831
  H     -2.050190   -1.601293   -2.478318

 Total Charge           Charge          ....    0
 Multiplicity           Mult            ....    1
 Number of Electrons    NEL             ....   70
 Basis Dimension        Dim             ....  351

ORBITAL ENERGIES
----------------

  NO   OCC          E(Eh)            E(eV)
   0   2.0000     -20.566258      -559.6363
   1   2.0000     -20.552464      -559.2610
   2   2.0000     -11.284550      -307.0682
   3   2.0000     -11.267556      -306.6058
   4   2.0000     -11.233350      -305.6750
   5   2.0000     -11.232311      -305.6467
   6   2.0000     -11.223670      -305.4116
   7   2.0000     -11.209408      -305.0235
   8   2.0000     -11.204849      -304.8994
   9   2.0000      -1.375034       -37.4166
  10   2.0000      -1.360867       -37.0311
  11   2.0000      -1.153904       -31.3993
  12   2.0000      -1.101057       -29.9613
  13   2.0000      -0.955724       -26.0066
  14   2.0000      -0.851354       -23.1665
  15   2.0000      -0.825637       -22.4667
  16   2.0000      -0.810846       -22.0642
  17   2.0000      -0.731069       -19.8934
  18   2.0000      -0.713228       -19.4079
  19   2.0000      -0.682426       -18.5698
  20   2.0000      -0.664288       -18.0762
  21   2.0000      -0.636296       -17.3145
  22   2.0000      -0.608424       -16.5561
  23   2.0000      -0.581991       -15.8368
  24   2.0000      -0.556822       -15.1519
  25   2.0000      -0.548328       -14.9208
  26   2.0000      -0.545448       -14.8424
  27   2.0000      -0.520989       -14.1768
  28   2.0000      -0.509118       -13.8538
  29   2.0000      -0.490096       -13.3362
  30   2.0000      -0.483571       -13.1586
  31   2.0000      -0.431381       -11.7385
  32   2.0000      -0.405220       -11.0266
  33   2.0000      -0.384947       -10.4749
  34   2.0000      -0.367962       -10.0127
  35   0.0000       0.136933         3.7261
  36   0.0000       0.148701         4.0464
  37   0.0000       0.160262         4.3610
  38   0.0000       0.163599         4.4517
  39   0.0000       0.184789         5.0284

MULLIKEN ATOMIC CHARGES
-----------------------
   0 C :   -0.432877
   1 C :    0.135453
   2 C :   -0.326051
   3 C :   -0.007510
   4 O :   -0.472482
   5 C :   -0.070040
   6 C :   -0.303134
   7 C :    0.024291
   8 O :   -0.476724
   9 H :    0.145578
  10 H :    0.131487
  11 H :    0.124298
  12 H :    0.134170
  13 H :    0.130782
  14 H :    0.121557
  15 H :    0.323025
  16 H :    0.119572
  17 H :    0.129467
  18 H :    0.139170
  19 H :    0.105680
  20 H :    0.324287
Sum of atomic charges:   -0.0000000

LOEWDIN ATOMIC CHARGES
----------------------
   0 C :   -0.259369
   1 C :   -0.239355
   2 C :   -0.202612
   3 C :   -0.294560
   4 O :   -0.008405
   5 C :   -0.167736
   6 C :   -0.214048
   7 C :   -0.315596
   8 O :   -0.005165
   9 H :    0.130777
  10 H :    0.126218
  11 H :    0.126733
  12 H :    0.132873
  13 H :    0.135040
  14 H :    0.137492
  15 H :    0.178975
  16 H :    0.158118
  17 H :    0.128623
  18 H :    0.140065
  19 H :    0.131191
  20 H :    0.180741

  Mayer bond orders larger than 0.1
B(  0-C ,  1-C ) :   0.9167 B(  0-C ,  9-H ) :   0.9262 B(  0-C , 10-H ) :   0.9403
B(  0-C , 11-H ) :   0.9409 B(  1-C ,  2-C ) :   0.8449 B(  1-C ,  3-C ) :   0.8508
B(  1-C ,  5-C ) :   0.9170 B(  2-C ,  3-C ) :   0.9038 B(  2-C , 12-H ) :   0.9056
B(  2-C , 13-H ) :   0.9254 B(  3-C ,  4-O ) :   1.0332 B(  3-C , 14-H ) :   0.9529
B(  4-O , 15-H ) :   0.8420 B(  5-C ,  6-C ) :   0.8622 B(  5-C ,  7-C ) :   0.8788
B(  5-C ,  8-O ) :  -0.1032 B(  5-C , 16-H ) :   0.9231 B(  6-C ,  7-C ) :   0.8984
B(  6-C , 17-H ) :   0.9198 B(  6-C , 18-H ) :   0.9236 B(  7-C ,  8-O ) :   1.0105
B(  7-C , 19-H ) :   0.9568 B(  8-O , 20-H ) :   0.8394

MP2 TOTAL ENERGY:     -423.483033364 Eh
FINAL SINGLE POINT ENERGY      -423.483033363504

DIPOLE MOMENT
-------------
                                X             Y             Z
Electronic contribution:      1.21560      -4.03375      -0.88439
Nuclear contribution   :     -1.74141       4.00210       0.21279
                        -----------------------------------------
Total Dipole Moment    :     -0.52581      -0.03166      -0.67160
                        -----------------------------------------
Magnitude (a.u.)       :      0.85353
Magnitude (Debye)      :      2.16951

                             ****ORCA TERMINATED NORMALLY****
TOTAL RUN TIME: 0 days 0 hours 18 minutes 44 seconds 389 msec
