                         Program Version 3.0.3 - RELEASE   -
|  1> ! RI-MP2 RIJK def2-TZVP def2-TZVP/C def2-TZVP/JK TIGHTSCF
|  2> % maxcore 2000
|  3> % mp2 density relaxed end
|  4> *xyz 0 1
|  5>  O       -0.2713069225    -0.0122859010     0.2715073151
|  6>  C       -0.2068116867     1.1792009902     0.0668464517
|  7>  C       -1.3074542248     2.0861790762    -0.5055254875
|  8>  C       -0.7786807110     3.5044410120    -0.3096637140
|  9>  C       -0.9639653276     4.1576701510     1.0945463253
| 10>  C        0.5774425141     4.3138023361     1.2206297856
| 11>  C        0.7539830276     3.3775223011    -0.0067873064
| 12>  N        0.8900506886     1.9723400766     0.2969345921
| 13>  H       -1.4521659098     1.8254867386    -1.5596486517
| 14>  H       -2.2518424964     1.8910010258     0.0092616602
| 15>  H       -1.0146890442     4.1826222872    -1.1300507375
| 16>  H       -1.5494515841     5.0787211093     1.1246724888
| 17>  H       -1.3859023745     3.4602842234     1.8232399542
| 18>  H        0.9154877808     5.3300544478     1.0001988021
| 19>  H        1.0415210117     3.9834481860     2.1528860696
| 20>  H        1.4712762876     3.7008064273    -0.7685204440
| 21>  H        1.7358768511     1.5601251725     0.6589811765
| 22> *
| 23>
| 24>                          ****END OF INPUT****

CARTESIAN COORDINATES (ANGSTROEM)
---------------------------------
  O     -0.271307   -0.012286    0.271507
  C     -0.206812    1.179201    0.066846
  C     -1.307454    2.086179   -0.505525
  C     -0.778681    3.504441   -0.309664
  C     -0.963965    4.157670    1.094546
  C      0.577443    4.313802    1.220630
  C      0.753983    3.377522   -0.006787
  N      0.890051    1.972340    0.296935
  H     -1.452166    1.825487   -1.559649
  H     -2.251842    1.891001    0.009262
  H     -1.014689    4.182622   -1.130051
  H     -1.549452    5.078721    1.124672
  H     -1.385902    3.460284    1.823240
  H      0.915488    5.330054    1.000199
  H      1.041521    3.983448    2.152886
  H      1.471276    3.700806   -0.768520
  H      1.735877    1.560125    0.658981

 Total Charge           Charge          ....    0
 Multiplicity           Mult            ....    1
 Number of Electrons    NEL             ....   60
 Basis Dimension        Dim             ....  302

ORBITAL ENERGIES
----------------

  NO   OCC          E(Eh)            E(eV)
   0   2.0000     -20.511329      -558.1416
   1   2.0000     -15.579224      -423.9322
   2   2.0000     -11.342835      -308.6542
   3   2.0000     -11.276614      -306.8523
   4   2.0000     -11.245261      -305.9991
   5   2.0000     -11.237716      -305.7938
   6   2.0000     -11.233964      -305.6917
   7   2.0000     -11.233132      -305.6691
   8   2.0000      -1.376347       -37.4523
   9   2.0000      -1.253763       -34.1166
  10   2.0000      -1.114681       -30.3320
  11   2.0000      -1.025658       -27.9096
  12   2.0000      -0.909750       -24.7556
  13   2.0000      -0.876669       -23.8554
  14   2.0000      -0.792157       -21.5557
  15   2.0000      -0.767795       -20.8928
  16   2.0000      -0.695565       -18.9273
  17   2.0000      -0.665705       -18.1148
  18   2.0000      -0.621546       -16.9131
  19   2.0000      -0.617214       -16.7953
  20   2.0000      -0.602963       -16.4075
  21   2.0000      -0.578176       -15.7330
  22   2.0000      -0.550789       -14.9877
  23   2.0000      -0.533652       -14.5214
  24   2.0000      -0.505825       -13.7642
  25   2.0000      -0.494296       -13.4505
  26   2.0000      -0.453909       -12.3515
  27   2.0000      -0.443699       -12.0737
  28   2.0000      -0.408966       -11.1285
  29   2.0000      -0.383271       -10.4293
  30   0.0000       0.129569         3.5257
  31   0.0000       0.150352         4.0913
  32   0.0000       0.157301         4.2804
  33   0.0000       0.157571         4.2877
  34   0.0000       0.179480         4.8839

MULLIKEN ATOMIC CHARGES
-----------------------
   0 O :   -0.339981
   1 C :    0.187406
   2 C :   -0.237705
   3 C :   -0.039744
   4 C :   -0.291887
   5 C :   -0.202581
   6 C :    0.026088
   7 N :   -0.326400
   8 H :    0.134796
   9 H :    0.136032
  10 H :    0.118917
  11 H :    0.124178
  12 H :    0.125189
  13 H :    0.115894
  14 H :    0.114251
  15 H :    0.120169
  16 H :    0.235380
Sum of atomic charges:   -0.0000000

LOEWDIN ATOMIC CHARGES
----------------------
   0 O :    0.080762
   1 C :   -0.443755
   2 C :   -0.206612
   3 C :   -0.190962
   4 C :   -0.215814
   5 C :   -0.224282
   6 C :   -0.231858
   7 N :    0.142792
   8 H :    0.151152
   9 H :    0.150688
  10 H :    0.145748
  11 H :    0.127164
  12 H :    0.137314
  13 H :    0.134641
  14 H :    0.126729
  15 H :    0.131784
  16 H :    0.184510

  Mayer bond orders larger than 0.1
B(  0-O ,  1-C ) :   2.0200 B(  1-C ,  2-C ) :   0.9187 B(  1-C ,  7-N ) :   1.1554
B(  2-C ,  3-C ) :   0.9182 B(  2-C ,  8-H ) :   0.9138 B(  2-C ,  9-H ) :   0.9102
B(  3-C ,  4-C ) :   0.9261 B(  3-C ,  6-C ) :   0.9181 B(  3-C , 10-H ) :   0.9159
B(  4-C ,  5-C ) :   0.9439 B(  4-C , 11-H ) :   0.9311 B(  4-C , 12-H ) :   0.9167
B(  5-C ,  6-C ) :   0.9169 B(  5-C , 13-H ) :   0.9202 B(  5-C , 14-H ) :   0.9191
B(  6-C ,  7-N ) :   0.8677 B(  6-C , 15-H ) :   0.9267 B(  7-N , 16-H ) :   0.8639

MP2 TOTAL ENERGY:     -363.282180604 Eh
FINAL SINGLE POINT ENERGY      -363.282180603953

DIPOLE MOMENT
-------------
                                X             Y             Z
Electronic contribution:      1.33173      -6.06714      -0.91454
Nuclear contribution   :     -1.00160       7.60648       0.78337
                        -----------------------------------------
Total Dipole Moment    :      0.33013       1.53934      -0.13117
                        -----------------------------------------
Magnitude (a.u.)       :      1.57980
Magnitude (Debye)      :      4.01553

                             ****ORCA TERMINATED NORMALLY****
TOTAL RUN TIME: 0 days 0 hours 13 minutes 0 seconds 144 msec
