                         Program Version 3.0.3 - RELEASE   -
|  1> ! RI-MP2 RIJK def2-TZVP def2-TZVP/C def2-TZVP/JK TIGHTSCF
|  2> % maxcore 2000
|  3> % mp2 density relaxed end
|  4> *xyz 0 1
|  5>  C       -0.7651431682     0.3672311987     0.1307945590
|  6>  C        0.5669553345    -0.3761557679    -0.0654456491
|  7>  C        1.3994498240    -0.5207789101     1.1981072283
|  8>  O        2.5552020705    -0.1630853236     1.2526500310
|  9>  C        0.7274113548    -1.1308114475     2.4402717979
| 10>  N        1.6568041625    -1.4878382629     3.4988530848
| 11>  C        2.3380574917    -2.7578168977     3.2690204317
| 12>  C        1.4487537615    -3.9229087870     3.6753464132
| 13>  O        1.4315508491    -4.9947402771     3.1286330015
| 14>  H       -0.6020154316     1.3747922486     0.5260006776
| 15>  H       -1.2850380412     0.4651290337    -0.8260119929
| 16>  H       -1.4337558590    -0.1618599024     0.8158661999
| 17>  H        0.3629685764    -1.3886041087    -0.4410427819
| 18>  H        1.1914968567     0.1287884788    -0.8070684012
| 19>  H        0.0056484447    -0.3906846396     2.8146054168
| 20>  H        0.1300417028    -2.0037470361     2.1493280820
| 21>  H        2.3527547052    -0.7508798653     3.5527717851
| 22>  H        2.6996056542    -2.9234787946     2.2429332500
| 23>  H        3.2150884749    -2.7984634273     3.9298077058
| 24>  H        0.8020171164    -3.6945886519     4.5532953603
| 25> *
| 26>
| 27>                          ****END OF INPUT****

CARTESIAN COORDINATES (ANGSTROEM)
---------------------------------
  C     -0.765143    0.367231    0.130795
  C      0.566955   -0.376156   -0.065446
  C      1.399450   -0.520779    1.198107
  O      2.555202   -0.163085    1.252650
  C      0.727411   -1.130811    2.440272
  N      1.656804   -1.487838    3.498853
  C      2.338057   -2.757817    3.269020
  C      1.448754   -3.922909    3.675346
  O      1.431551   -4.994740    3.128633
  H     -0.602015    1.374792    0.526001
  H     -1.285038    0.465129   -0.826012
  H     -1.433756   -0.161860    0.815866
  H      0.362969   -1.388604   -0.441043
  H      1.191497    0.128788   -0.807068
  H      0.005648   -0.390685    2.814605
  H      0.130042   -2.003747    2.149328
  H      2.352755   -0.750880    3.552772
  H      2.699606   -2.923479    2.242933
  H      3.215088   -2.798463    3.929808
  H      0.802017   -3.694589    4.553295

 Total Charge           Charge          ....    0
 Multiplicity           Mult            ....    1
 Number of Electrons    NEL             ....   70
 Basis Dimension        Dim             ....  345

ORBITAL ENERGIES
----------------

  NO   OCC          E(Eh)            E(eV)
   0   2.0000     -20.559446      -559.4510
   1   2.0000     -20.557763      -559.4052
   2   2.0000     -15.565032      -423.5460
   3   2.0000     -11.339290      -308.5578
   4   2.0000     -11.330615      -308.3217
   5   2.0000     -11.278709      -306.9093
   6   2.0000     -11.270288      -306.6801
   7   2.0000     -11.250046      -306.1293
   8   2.0000     -11.242844      -305.9333
   9   2.0000      -1.402372       -38.1605
  10   2.0000      -1.398218       -38.0474
  11   2.0000      -1.230082       -33.4722
  12   2.0000      -1.075432       -29.2640
  13   2.0000      -1.009566       -27.4717
  14   2.0000      -0.936071       -25.4718
  15   2.0000      -0.889310       -24.1994
  16   2.0000      -0.798432       -21.7264
  17   2.0000      -0.753291       -20.4981
  18   2.0000      -0.694186       -18.8898
  19   2.0000      -0.678629       -18.4664
  20   2.0000      -0.673794       -18.3349
  21   2.0000      -0.647695       -17.6247
  22   2.0000      -0.630327       -17.1521
  23   2.0000      -0.620086       -16.8734
  24   2.0000      -0.596181       -16.2229
  25   2.0000      -0.582329       -15.8460
  26   2.0000      -0.562191       -15.2980
  27   2.0000      -0.550908       -14.9910
  28   2.0000      -0.537687       -14.6312
  29   2.0000      -0.519985       -14.1495
  30   2.0000      -0.502706       -13.6793
  31   2.0000      -0.497358       -13.5338
  32   2.0000      -0.444084       -12.0841
  33   2.0000      -0.422338       -11.4924
  34   2.0000      -0.389209       -10.5909
  35   0.0000       0.113430         3.0866
  36   0.0000       0.127734         3.4758
  37   0.0000       0.133972         3.6456
  38   0.0000       0.151302         4.1171
  39   0.0000       0.162131         4.4118

MULLIKEN ATOMIC CHARGES
-----------------------
   0 C :   -0.422680
   1 C :   -0.197060
   2 C :    0.195470
   3 O :   -0.299682
   4 C :   -0.220363
   5 N :   -0.339627
   6 C :   -0.082443
   7 C :    0.078770
   8 O :   -0.264699
   9 H :    0.141361
  10 H :    0.147472
  11 H :    0.134572
  12 H :    0.132284
  13 H :    0.135646
  14 H :    0.159906
  15 H :    0.144252
  16 H :    0.221062
  17 H :    0.114920
  18 H :    0.137937
  19 H :    0.082901
Sum of atomic charges:    0.0000000

LOEWDIN ATOMIC CHARGES
----------------------
   0 C :   -0.309488
   1 C :   -0.258572
   2 C :   -0.332362
   3 O :    0.144724
   4 C :   -0.290384
   5 N :   -0.014043
   6 C :   -0.311343
   7 C :   -0.301477
   8 O :    0.129880
   9 H :    0.125680
  10 H :    0.126776
  11 H :    0.121992
  12 H :    0.152171
  13 H :    0.147580
  14 H :    0.149746
  15 H :    0.148117
  16 H :    0.177426
  17 H :    0.132094
  18 H :    0.150179
  19 H :    0.111302

  Mayer bond orders larger than 0.1
B(  0-C ,  1-C ) :   0.8897 B(  0-C ,  9-H ) :   0.9369 B(  0-C , 10-H ) :   0.9343
B(  0-C , 11-H ) :   0.9324 B(  1-C ,  2-C ) :   0.9209 B(  1-C , 12-H ) :   0.9118
B(  1-C , 13-H ) :   0.9295 B(  2-C ,  3-O ) :   1.9840 B(  2-C ,  4-C ) :   0.8938
B(  4-C ,  5-N ) :   0.9783 B(  4-C , 14-H ) :   0.9042 B(  4-C , 15-H ) :   0.9169
B(  5-N ,  6-C ) :   0.9004 B(  5-N , 16-H ) :   0.8708 B(  6-C ,  7-C ) :   0.8706
B(  6-C , 17-H ) :   0.8983 B(  6-C , 18-H ) :   0.9076 B(  7-C ,  8-O ) :   2.0047
B(  7-C , 19-H ) :   0.9307

MP2 TOTAL ENERGY:     -439.570335346 Eh
FINAL SINGLE POINT ENERGY      -439.570335345779

DIPOLE MOMENT
-------------
                                X             Y             Z
Electronic contribution:      5.34960      -4.96754       3.64845
Nuclear contribution   :     -6.03221       5.82296      -3.84831
                        -----------------------------------------
Total Dipole Moment    :     -0.68260       0.85542      -0.19986
                        -----------------------------------------
Magnitude (a.u.)       :      1.11249
Magnitude (Debye)      :      2.82773

                             ****ORCA TERMINATED NORMALLY****
TOTAL RUN TIME: 0 days 0 hours 15 minutes 31 seconds 838 msec
