                         Program Version 3.0.3 - RELEASE   -
|  1> ! RI-MP2 RIJK def2-TZVP def2-TZVP/C def2-TZVP/JK TIGHTSCF
|  2> % maxcore 2000
|  3> % mp2 density relaxed end
|  4> *xyz 0 1
|  5>  C       -0.0584124586     1.5385502450    -0.0196277187
|  6>  C        1.3491994982     2.1411528099     0.0988310294
|  7>  N        1.9634256993     1.7291999691     1.3597521568
|  8>  C        1.8710602592     0.3925687903     1.6702081936
|  9>  N        2.6085631216    -0.2151805174     2.5730417227
| 10>  O        2.1204675172    -1.5355877137     2.5942438624
| 11>  C        1.1257982724    -1.6474981326     1.7014890442
| 12>  C        0.9027967836    -0.4723793727     1.0649807152
| 13>  C       -0.0220360388    -0.0045711988    -0.0195810615
| 14>  H       -0.6573407805     1.8932120284     0.8264959384
| 15>  H       -0.5322938423     1.9041978798    -0.9353474662
| 16>  H        1.9526106232     1.8394770495    -0.7742160160
| 17>  H        1.2893920250     3.2334325152     0.0919288602
| 18>  H        2.8390418838     2.1681339471     1.6031619160
| 19>  H        0.6718488502    -2.6245938557     1.6279858905
| 20>  H       -1.0325757130    -0.4066795195     0.1084513908
| 21>  H        0.3289007396    -0.3589632039    -0.9980710079
| 22> *
| 23>
| 24>                          ****END OF INPUT****

CARTESIAN COORDINATES (ANGSTROEM)
---------------------------------
  C     -0.058412    1.538550   -0.019628
  C      1.349199    2.141153    0.098831
  N      1.963426    1.729200    1.359752
  C      1.871060    0.392569    1.670208
  N      2.608563   -0.215181    2.573042
  O      2.120468   -1.535588    2.594244
  C      1.125798   -1.647498    1.701489
  C      0.902797   -0.472379    1.064981
  C     -0.022036   -0.004571   -0.019581
  H     -0.657341    1.893212    0.826496
  H     -0.532294    1.904198   -0.935347
  H      1.952611    1.839477   -0.774216
  H      1.289392    3.233433    0.091929
  H      2.839042    2.168134    1.603162
  H      0.671849   -2.624594    1.627986
  H     -1.032576   -0.406680    0.108451
  H      0.328901   -0.358963   -0.998071

 Total Charge           Charge          ....    0
 Multiplicity           Mult            ....    1
 Number of Electrons    NEL             ....   66
 Basis Dimension        Dim             ....  327

ORBITAL ENERGIES
----------------

  NO   OCC          E(Eh)            E(eV)
   0   2.0000     -20.622028      -561.1539
   1   2.0000     -15.586960      -424.1427
   2   2.0000     -15.576150      -423.8486
   3   2.0000     -11.304570      -307.6130
   4   2.0000     -11.302476      -307.5560
   5   2.0000     -11.274438      -306.7931
   6   2.0000     -11.247166      -306.0510
   7   2.0000     -11.240684      -305.8746
   8   2.0000     -11.232594      -305.6544
   9   2.0000      -1.468376       -39.9565
  10   2.0000      -1.264692       -34.4140
  11   2.0000      -1.124069       -30.5875
  12   2.0000      -1.098114       -29.8812
  13   2.0000      -1.036028       -28.1918
  14   2.0000      -0.930630       -25.3237
  15   2.0000      -0.847956       -23.0741
  16   2.0000      -0.825443       -22.4614
  17   2.0000      -0.758209       -20.6319
  18   2.0000      -0.716017       -19.4838
  19   2.0000      -0.668597       -18.1934
  20   2.0000      -0.646932       -17.6039
  21   2.0000      -0.637048       -17.3350
  22   2.0000      -0.620269       -16.8784
  23   2.0000      -0.596872       -16.2417
  24   2.0000      -0.585534       -15.9332
  25   2.0000      -0.546091       -14.8599
  26   2.0000      -0.522290       -14.2122
  27   2.0000      -0.511357       -13.9147
  28   2.0000      -0.493786       -13.4366
  29   2.0000      -0.469384       -12.7726
  30   2.0000      -0.454145       -12.3579
  31   2.0000      -0.352126        -9.5818
  32   2.0000      -0.343996        -9.3606
  33   0.0000       0.125344         3.4108
  34   0.0000       0.129731         3.5301
  35   0.0000       0.151793         4.1305
  36   0.0000       0.163284         4.4432
  37   0.0000       0.170986         4.6528

MULLIKEN ATOMIC CHARGES
-----------------------
   0 C :   -0.221393
   1 C :   -0.116091
   2 N :   -0.345385
   3 C :    0.146247
   4 N :   -0.142798
   5 O :   -0.113378
   6 C :   -0.017820
   7 C :   -0.129639
   8 C :   -0.201140
   9 H :    0.120789
  10 H :    0.130262
  11 H :    0.109317
  12 H :    0.131961
  13 H :    0.235506
  14 H :    0.151795
  15 H :    0.135411
  16 H :    0.126355
Sum of atomic charges:    0.0000000

LOEWDIN ATOMIC CHARGES
----------------------
   0 C :   -0.249549
   1 C :   -0.277861
   2 N :    0.078162
   3 C :   -0.349159
   4 N :    0.022029
   5 O :    0.262017
   6 C :   -0.248075
   7 C :   -0.176655
   8 C :   -0.222095
   9 H :    0.144281
  10 H :    0.139960
  11 H :    0.125969
  12 H :    0.134488
  13 H :    0.185658
  14 H :    0.137454
  15 H :    0.146565
  16 H :    0.146810

  Mayer bond orders larger than 0.1
B(  0-C ,  1-C ) :   0.9299 B(  0-C ,  8-C ) :   0.9480 B(  0-C ,  9-H ) :   0.9291
B(  0-C , 10-H ) :   0.9321 B(  1-C ,  2-N ) :   0.8982 B(  1-C , 11-H ) :   0.9329
B(  1-C , 12-H ) :   0.9276 B(  2-N ,  3-C ) :   1.1135 B(  2-N , 13-H ) :   0.8703
B(  3-C ,  4-N ) :   1.6447 B(  3-C ,  7-C ) :   1.1659 B(  4-N ,  5-O ) :   0.8598
B(  4-N ,  6-C ) :   0.1042 B(  5-O ,  6-C ) :   1.1367 B(  6-C ,  7-C ) :   1.5373
B(  6-C , 14-H ) :   0.9210 B(  7-C ,  8-C ) :   0.8984 B(  8-C , 15-H ) :   0.9214
B(  8-C , 16-H ) :   0.9189

MP2 TOTAL ENERGY:     -417.303379684 Eh
FINAL SINGLE POINT ENERGY      -417.303379683561

DIPOLE MOMENT
-------------
                                X             Y             Z
Electronic contribution:      4.60743      -4.97113       6.42466
Nuclear contribution   :     -5.39059       5.47791      -7.71631
                        -----------------------------------------
Total Dipole Moment    :     -0.78316       0.50679      -1.29165
                        -----------------------------------------
Magnitude (a.u.)       :      1.59328
Magnitude (Debye)      :      4.04979

                             ****ORCA TERMINATED NORMALLY****
TOTAL RUN TIME: 0 days 0 hours 19 minutes 11 seconds 635 msec
