                         Program Version 3.0.3 - RELEASE   -
|  1> ! RI-MP2 RIJK def2-TZVP def2-TZVP/C def2-TZVP/JK TIGHTSCF
|  2> % maxcore 2000
|  3> % mp2 density relaxed end
|  4> *xyz 0 1
|  5>  O        0.0945544455     1.4901980600     0.1134612042
|  6>  C       -0.0162953692     0.0973926582     0.0451295765
|  7>  C        0.1592956053    -0.6337656751     1.3775932380
|  8>  N        0.9959341561    -0.6955123097     2.3089279531
|  9>  N       -1.0697325190    -1.3969186716     1.2715281173
| 10>  C       -2.1322711676    -0.3600658358     1.2568667467
| 11>  C       -1.4048938244    -0.5759633621    -0.0127169851
| 12>  C       -1.9745986606    -1.1532198277    -1.1808411868
| 13>  C       -2.4351437675    -1.5963664038    -2.2001786134
| 14>  H        0.0812961144     1.8484996561    -0.7802690334
| 15>  H        0.6378237390    -0.3388068523    -0.7220739556
| 16>  H        1.7694213282    -0.0503268051     2.1354127211
| 17>  H       -3.1279767809    -0.7832593005     1.3298683017
| 18>  H       -1.9730013813     0.5596653004     1.8136203937
| 19>  H       -2.8479089280    -2.0038746910    -3.0900482681
| 20> *
| 21>
| 22>                          ****END OF INPUT****

CARTESIAN COORDINATES (ANGSTROEM)
---------------------------------
  O      0.094554    1.490198    0.113461
  C     -0.016295    0.097393    0.045130
  C      0.159296   -0.633766    1.377593
  N      0.995934   -0.695512    2.308928
  N     -1.069733   -1.396919    1.271528
  C     -2.132271   -0.360066    1.256867
  C     -1.404894   -0.575963   -0.012717
  C     -1.974599   -1.153220   -1.180841
  C     -2.435144   -1.596366   -2.200179
  H      0.081296    1.848500   -0.780269
  H      0.637824   -0.338807   -0.722074
  H      1.769421   -0.050327    2.135413
  H     -3.127977   -0.783259    1.329868
  H     -1.973001    0.559665    1.813620
  H     -2.847909   -2.003875   -3.090048

 Total Charge           Charge          ....    0
 Multiplicity           Mult            ....    1
 Number of Electrons    NEL             ....   64
 Basis Dimension        Dim             ....  315

ORBITAL ENERGIES
----------------

  NO   OCC          E(Eh)            E(eV)
   0   2.0000     -20.593605      -560.3805
   1   2.0000     -15.596522      -424.4029
   2   2.0000     -15.553925      -423.2438
   3   2.0000     -11.327040      -308.2244
   4   2.0000     -11.321647      -308.0777
   5   2.0000     -11.310570      -307.7763
   6   2.0000     -11.291233      -307.2501
   7   2.0000     -11.255235      -306.2705
   8   2.0000     -11.248278      -306.0812
   9   2.0000      -1.406715       -38.2787
  10   2.0000      -1.329927       -36.1891
  11   2.0000      -1.206269       -32.8242
  12   2.0000      -1.062499       -28.9121
  13   2.0000      -1.004435       -27.3321
  14   2.0000      -0.952992       -25.9322
  15   2.0000      -0.868189       -23.6246
  16   2.0000      -0.756381       -20.5822
  17   2.0000      -0.743669       -20.2363
  18   2.0000      -0.737306       -20.0631
  19   2.0000      -0.711297       -19.3554
  20   2.0000      -0.675000       -18.3677
  21   2.0000      -0.651727       -17.7344
  22   2.0000      -0.600271       -16.3342
  23   2.0000      -0.567045       -15.4301
  24   2.0000      -0.552171       -15.0253
  25   2.0000      -0.518999       -14.1227
  26   2.0000      -0.497014       -13.5244
  27   2.0000      -0.470500       -12.8029
  28   2.0000      -0.425116       -11.5680
  29   2.0000      -0.422214       -11.4890
  30   2.0000      -0.394966       -10.7476
  31   2.0000      -0.379875       -10.3369
  32   0.0000       0.108257         2.9458
  33   0.0000       0.129230         3.5165
  34   0.0000       0.153254         4.1703
  35   0.0000       0.154835         4.2133
  36   0.0000       0.162429         4.4199

MULLIKEN ATOMIC CHARGES
-----------------------
   0 O :   -0.440664
   1 C :    0.059576
   2 C :    0.038011
   3 N :   -0.292828
   4 N :   -0.173227
   5 C :   -0.119368
   6 C :   -0.184701
   7 C :    0.012979
   8 C :   -0.083147
   9 H :    0.329074
  10 H :    0.119759
  11 H :    0.238872
  12 H :    0.151472
  13 H :    0.143294
  14 H :    0.200899
Sum of atomic charges:   -0.0000000

LOEWDIN ATOMIC CHARGES
----------------------
   0 O :    0.007268
   1 C :   -0.271702
   2 C :   -0.322996
   3 N :   -0.004497
   4 N :    0.189420
   5 C :   -0.177895
   6 C :   -0.208619
   7 C :   -0.074805
   8 C :   -0.065021
   9 H :    0.184092
  10 H :    0.151556
  11 H :    0.179180
  12 H :    0.144144
  13 H :    0.139370
  14 H :    0.130506

  Mayer bond orders larger than 0.1
B(  0-O ,  1-C ) :   1.1428 B(  0-O ,  9-H ) :   0.8361 B(  1-C ,  2-C ) :   0.9147
B(  1-C ,  6-C ) :   0.8979 B(  1-C , 10-H ) :   0.9356 B(  2-C ,  3-N ) :   2.0459
B(  2-C ,  4-N ) :   0.9755 B(  3-N , 11-H ) :   0.8431 B(  4-N ,  5-C ) :   0.8717
B(  4-N ,  6-C ) :   0.8384 B(  5-C ,  6-C ) :   0.9621 B(  5-C , 12-H ) :   0.9216
B(  5-C , 13-H ) :   0.8902 B(  6-C ,  7-C ) :   1.2167 B(  6-C ,  8-C ) :  -0.1643
B(  7-C ,  8-C ) :   2.6057 B(  8-C , 14-H ) :   0.8686

MP2 TOTAL ENERGY:     -416.007477410 Eh
FINAL SINGLE POINT ENERGY      -416.007477410412

DIPOLE MOMENT
-------------
                                X             Y             Z
Electronic contribution:      0.34378      -1.05842      -0.01771
Nuclear contribution   :     -0.54899       1.92694      -1.37563
                        -----------------------------------------
Total Dipole Moment    :     -0.20521       0.86852      -1.39334
                        -----------------------------------------
Magnitude (a.u.)       :      1.65464
Magnitude (Debye)      :      4.20576

                             ****ORCA TERMINATED NORMALLY****
TOTAL RUN TIME: 0 days 0 hours 14 minutes 57 seconds 350 msec
