                         Program Version 3.0.3 - RELEASE   -
|  1> ! RI-MP2 RIJK def2-TZVP def2-TZVP/C def2-TZVP/JK TIGHTSCF
|  2> % maxcore 2000
|  3> % mp2 density relaxed end
|  4> *xyz 0 1
|  5>  C       -0.3356209759     1.4343158516     0.0245177249
|  6>  C        0.0387856107    -0.0444190745     0.0278603368
|  7>  O        0.6493079235    -0.3236112327    -1.2358073030
|  8>  C        0.4916170740    -1.6401059132    -1.6997552603
|  9>  C        1.0276881961    -2.7520693494    -0.8431778942
| 10>  C        1.5442359128    -2.7278095950     0.3969724224
| 11>  C        2.0896175683    -4.0005197583     1.0099490248
| 12>  C        1.6246526482    -1.5544922766     1.2763810865
| 13>  C        0.9674497085    -0.3947267922     1.1644087696
| 14>  H        0.5611128973     2.0487442824    -0.1025208421
| 15>  H       -1.0219208582     1.6526365621    -0.7969406652
| 16>  H       -0.8152716790     1.7118909814     0.9682206399
| 17>  H       -0.8799742125    -0.6487905906     0.1152766612
| 18>  H       -0.5698167327    -1.8537139581    -1.9316841791
| 19>  H        1.0173570251    -1.6630304339    -2.6644461252
| 20>  H        1.0004993321    -3.7137814521    -1.3558037036
| 21>  H        3.1520544169    -3.8887642070     1.2604703165
| 22>  H        1.5713086548    -4.2443282749     1.9454976864
| 23>  H        1.9900180775    -4.8526323687     0.3334999350
| 24>  H        2.2716848019    -1.6820477463     2.1426298242
| 25>  H        1.1246260607     0.3706356260     1.9206618844
| 26> *
| 27>
| 28>                          ****END OF INPUT****

CARTESIAN COORDINATES (ANGSTROEM)
---------------------------------
  C     -0.335621    1.434316    0.024518
  C      0.038786   -0.044419    0.027860
  O      0.649308   -0.323611   -1.235807
  C      0.491617   -1.640106   -1.699755
  C      1.027688   -2.752069   -0.843178
  C      1.544236   -2.727810    0.396972
  C      2.089618   -4.000520    1.009949
  C      1.624653   -1.554492    1.276381
  C      0.967450   -0.394727    1.164409
  H      0.561113    2.048744   -0.102521
  H     -1.021921    1.652637   -0.796941
  H     -0.815272    1.711891    0.968221
  H     -0.879974   -0.648791    0.115277
  H     -0.569817   -1.853714   -1.931684
  H      1.017357   -1.663030   -2.664446
  H      1.000499   -3.713781   -1.355804
  H      3.152054   -3.888764    1.260470
  H      1.571309   -4.244328    1.945498
  H      1.990018   -4.852632    0.333500
  H      2.271685   -1.682048    2.142630
  H      1.124626    0.370636    1.920662

 Total Charge           Charge          ....    0
 Multiplicity           Mult            ....    1
 Number of Electrons    NEL             ....   68
 Basis Dimension        Dim             ....  351

ORBITAL ENERGIES
----------------

  NO   OCC          E(Eh)            E(eV)
   0   2.0000     -20.549868      -559.1903
   1   2.0000     -11.283146      -307.0300
   2   2.0000     -11.278535      -306.9045
   3   2.0000     -11.238521      -305.8157
   4   2.0000     -11.229509      -305.5705
   5   2.0000     -11.227128      -305.5057
   6   2.0000     -11.227080      -305.5044
   7   2.0000     -11.221546      -305.3538
   8   2.0000     -11.214748      -305.1688
   9   2.0000      -1.373155       -37.3654
  10   2.0000      -1.108352       -30.1598
  11   2.0000      -1.069373       -29.0991
  12   2.0000      -0.985248       -26.8100
  13   2.0000      -0.971494       -26.4357
  14   2.0000      -0.879314       -23.9273
  15   2.0000      -0.861030       -23.4298
  16   2.0000      -0.773027       -21.0351
  17   2.0000      -0.712453       -19.3868
  18   2.0000      -0.666775       -18.1439
  19   2.0000      -0.662979       -18.0406
  20   2.0000      -0.625977       -17.0337
  21   2.0000      -0.612193       -16.6586
  22   2.0000      -0.578109       -15.7311
  23   2.0000      -0.569514       -15.4973
  24   2.0000      -0.555552       -15.1173
  25   2.0000      -0.547004       -14.8847
  26   2.0000      -0.534142       -14.5347
  27   2.0000      -0.513552       -13.9745
  28   2.0000      -0.494802       -13.4642
  29   2.0000      -0.488024       -13.2798
  30   2.0000      -0.476267       -12.9599
  31   2.0000      -0.417580       -11.3629
  32   2.0000      -0.404299       -11.0015
  33   2.0000      -0.309745        -8.4286
  34   0.0000       0.106760         2.9051
  35   0.0000       0.141438         3.8487
  36   0.0000       0.153846         4.1864
  37   0.0000       0.159475         4.3395
  38   0.0000       0.178567         4.8591

MULLIKEN ATOMIC CHARGES
-----------------------
   0 C :   -0.389496
   1 C :    0.188944
   2 O :   -0.307168
   3 C :   -0.045259
   4 C :   -0.190026
   5 C :    0.094349
   6 C :   -0.428085
   7 C :   -0.160252
   8 C :   -0.243951
   9 H :    0.137368
  10 H :    0.136049
  11 H :    0.125472
  12 H :    0.079968
  13 H :    0.106308
  14 H :    0.132053
  15 H :    0.111656
  16 H :    0.139025
  17 H :    0.139087
  18 H :    0.129029
  19 H :    0.123949
  20 H :    0.120980
Sum of atomic charges:    0.0000000

LOEWDIN ATOMIC CHARGES
----------------------
   0 C :   -0.289380
   1 C :   -0.322187
   2 O :    0.186450
   3 C :   -0.327751
   4 C :   -0.146069
   5 C :   -0.189434
   6 C :   -0.268275
   7 C :   -0.133989
   8 C :   -0.141004
   9 H :    0.129087
  10 H :    0.125080
  11 H :    0.125915
  12 H :    0.147525
  13 H :    0.126606
  14 H :    0.142426
  15 H :    0.149578
  16 H :    0.129832
  17 H :    0.128895
  18 H :    0.125980
  19 H :    0.153321
  20 H :    0.147392

  Mayer bond orders larger than 0.1
B(  0-C ,  1-C ) :   0.9117 B(  0-C ,  9-H ) :   0.9361 B(  0-C , 10-H ) :   0.9410
B(  0-C , 11-H ) :   0.9336 B(  1-C ,  2-O ) :   0.8769 B(  1-C ,  8-C ) :   0.9220
B(  1-C , 12-H ) :   0.9139 B(  2-O ,  3-C ) :   0.9907 B(  3-C ,  4-C ) :   0.9010
B(  3-C , 13-H ) :   0.9451 B(  3-C , 14-H ) :   0.9190 B(  4-C ,  5-C ) :   1.7147
B(  4-C , 15-H ) :   0.9100 B(  5-C ,  6-C ) :   0.8822 B(  5-C ,  7-C ) :   0.9824
B(  6-C , 16-H ) :   0.9329 B(  6-C , 17-H ) :   0.9320 B(  6-C , 18-H ) :   0.9441
B(  7-C ,  8-C ) :   1.7403 B(  7-C , 19-H ) :   0.9286 B(  8-C , 20-H ) :   0.9252

MP2 TOTAL ENERGY:     -386.407445382 Eh
FINAL SINGLE POINT ENERGY      -386.407445382091

DIPOLE MOMENT
-------------
                                X             Y             Z
Electronic contribution:      0.85169       0.66163      -1.62683
Nuclear contribution   :     -1.09440      -0.99302       1.85033
                        -----------------------------------------
Total Dipole Moment    :     -0.24271      -0.33139       0.22350
                        -----------------------------------------
Magnitude (a.u.)       :      0.46763
Magnitude (Debye)      :      1.18863

                             ****ORCA TERMINATED NORMALLY****
TOTAL RUN TIME: 0 days 0 hours 18 minutes 43 seconds 956 msec
