                         Program Version 3.0.3 - RELEASE   -
|  1> ! RI-MP2 RIJK def2-TZVP def2-TZVP/C def2-TZVP/JK TIGHTSCF
|  2> % maxcore 2000
|  3> % mp2 density relaxed end
|  4> *xyz 0 1
|  5>  C       -0.0351654281     1.3979966210     0.0104692714
|  6>  C        1.2781013625     1.8497187556     0.0000800836
|  7>  N        2.0957757320     0.7595056117    -0.0140158665
|  8>  C        3.4665711289     0.6505503828    -0.0280999212
|  9>  C        4.0243902013    -0.5886042788    -0.0404287471
| 10>  N        3.3035649147    -1.7547687295    -0.0397722299
| 11>  C        1.9981089919    -1.6412629791    -0.0262960399
| 12>  C        1.3070164455    -0.4095005054    -0.0127094859
| 13>  C       -0.0264061733    -0.0065816689     0.0025728067
| 14>  H       -0.9066084588     2.0353572902     0.0225598574
| 15>  H        1.6862746788     2.8475844545     0.0016068089
| 16>  H        4.0310516577     1.5737631121    -0.0285429376
| 17>  H        5.1039320784    -0.6884660088    -0.0515858111
| 18>  H        1.4133500846    -2.5592442262    -0.0256519416
| 19>  H       -0.8797501859    -0.6662670112     0.0072801427
| 20> *
| 21>
| 22>                          ****END OF INPUT****

CARTESIAN COORDINATES (ANGSTROEM)
---------------------------------
  C     -0.035165    1.397997    0.010469
  C      1.278101    1.849719    0.000080
  N      2.095776    0.759506   -0.014016
  C      3.466571    0.650550   -0.028100
  C      4.024390   -0.588604   -0.040429
  N      3.303565   -1.754769   -0.039772
  C      1.998109   -1.641263   -0.026296
  C      1.307016   -0.409501   -0.012709
  C     -0.026406   -0.006582    0.002573
  H     -0.906608    2.035357    0.022560
  H      1.686275    2.847584    0.001607
  H      4.031052    1.573763   -0.028543
  H      5.103932   -0.688466   -0.051586
  H      1.413350   -2.559244   -0.025652
  H     -0.879750   -0.666267    0.007280

 Total Charge           Charge          ....    0
 Multiplicity           Mult            ....    1
 Number of Electrons    NEL             ....   62
 Basis Dimension        Dim             ....  315

ORBITAL ENERGIES
----------------

  NO   OCC          E(Eh)            E(eV)
   0   2.0000     -15.648734      -425.8237
   1   2.0000     -15.565923      -423.5703
   2   2.0000     -11.288837      -307.1849
   3   2.0000     -11.285076      -307.0825
   4   2.0000     -11.274323      -306.7899
   5   2.0000     -11.268334      -306.6269
   6   2.0000     -11.265800      -306.5580
   7   2.0000     -11.233933      -305.6908
   8   2.0000     -11.229974      -305.5831
   9   2.0000      -1.346040       -36.6276
  10   2.0000      -1.241104       -33.7722
  11   2.0000      -1.113106       -30.2892
  12   2.0000      -1.027314       -27.9546
  13   2.0000      -0.996487       -27.1158
  14   2.0000      -0.887214       -24.1423
  15   2.0000      -0.838878       -22.8270
  16   2.0000      -0.806829       -21.9549
  17   2.0000      -0.738331       -20.0910
  18   2.0000      -0.691849       -18.8262
  19   2.0000      -0.663797       -18.0628
  20   2.0000      -0.626520       -17.0485
  21   2.0000      -0.625532       -17.0216
  22   2.0000      -0.617770       -16.8104
  23   2.0000      -0.566858       -15.4250
  24   2.0000      -0.560223       -15.2444
  25   2.0000      -0.539241       -14.6735
  26   2.0000      -0.497359       -13.5338
  27   2.0000      -0.430489       -11.7142
  28   2.0000      -0.427382       -11.6297
  29   2.0000      -0.330211        -8.9855
  30   2.0000      -0.282561        -7.6889
  31   0.0000       0.085772         2.3340
  32   0.0000       0.131305         3.5730
  33   0.0000       0.149769         4.0754
  34   0.0000       0.167871         4.5680
  35   0.0000       0.173891         4.7318

MULLIKEN ATOMIC CHARGES
-----------------------
   0 C :   -0.104266
   1 C :   -0.169417
   2 N :    0.043565
   3 C :   -0.082422
   4 C :   -0.049033
   5 N :   -0.250065
   6 C :   -0.078654
   7 C :    0.103366
   8 C :   -0.254473
   9 H :    0.139325
  10 H :    0.149823
  11 H :    0.143847
  12 H :    0.136595
  13 H :    0.134748
  14 H :    0.137063
Sum of atomic charges:   -0.0000000

LOEWDIN ATOMIC CHARGES
----------------------
   0 C :   -0.169455
   1 C :   -0.204991
   2 N :    0.325584
   3 C :   -0.170434
   4 C :   -0.237768
   5 N :    0.113189
   6 C :   -0.190615
   7 C :   -0.169015
   8 C :   -0.159454
   9 H :    0.143429
  10 H :    0.137289
  11 H :    0.148214
  12 H :    0.143901
  13 H :    0.146009
  14 H :    0.144118

  Mayer bond orders larger than 0.1
B(  0-C ,  1-C ) :   1.3745 B(  0-C ,  8-C ) :   1.3429 B(  0-C ,  9-H ) :   0.9293
B(  1-C ,  2-N ) :   1.1582 B(  1-C , 10-H ) :   0.9133 B(  2-N ,  3-C ) :   1.0723
B(  2-N ,  7-C ) :   1.0160 B(  3-C ,  4-C ) :   1.5064 B(  3-C , 11-H ) :   0.9123
B(  4-C ,  5-N ) :   1.2141 B(  4-C , 12-H ) :   0.9450 B(  5-N ,  6-C ) :   1.5670
B(  6-C ,  7-C ) :   1.1540 B(  6-C , 13-H ) :   0.9578 B(  7-C ,  8-C ) :   1.2830
B(  8-C , 14-H ) :   0.9373

MP2 TOTAL ENERGY:     -379.050961711 Eh
FINAL SINGLE POINT ENERGY      -379.050961710626

DIPOLE MOMENT
-------------
                                X             Y             Z
Electronic contribution:      1.05265      -1.25776      -0.01726
Nuclear contribution   :     -1.16959       2.20512       0.02365
                        -----------------------------------------
Total Dipole Moment    :     -0.11694       0.94736       0.00639
                        -----------------------------------------
Magnitude (a.u.)       :      0.95457
Magnitude (Debye)      :      2.42634

                             ****ORCA TERMINATED NORMALLY****
TOTAL RUN TIME: 0 days 0 hours 17 minutes 27 seconds 162 msec
