                         Program Version 3.0.3 - RELEASE   -
|  1> ! RI-MP2 RIJK def2-TZVP def2-TZVP/C def2-TZVP/JK TIGHTSCF
|  2> % maxcore 2000
|  3> % mp2 density relaxed end
|  4> *xyz 0 1
|  5>  C       -0.3508359211    -1.1403639525     0.1772086075
|  6>  C       -0.1693448466     0.0393643974     0.0335935717
|  7>  C        0.0248781937     1.4813970293    -0.1452495989
|  8>  O       -0.6850018478     2.2358366600     0.8400530812
|  9>  C        0.1636495303     2.4011254395     1.9737213204
| 10>  C        1.5865600119     2.5273854565     1.4078082193
| 11>  O        2.4992758554     1.4856167348     1.8155062729
| 12>  C        2.5926141121     0.9846326386     0.4623489195
| 13>  C        1.5022268210     1.9589648230    -0.0253064351
| 14>  H       -0.5195890818    -2.1814304657     0.3041938117
| 15>  H       -0.4006293294     1.7724222542    -1.1110067875
| 16>  H       -0.1858997164     3.2879346163     2.5076621332
| 17>  H        0.1230034062     1.5304853932     2.6426380334
| 18>  H        2.0258549667     3.5215900808     1.5394733834
| 19>  H        3.5823091352     1.1786982110     0.0315907483
| 20>  H        2.3633905166    -0.0828731444     0.3961438702
| 21>  H        1.7708640039     2.6149358278    -0.8518891515
| 22> *
| 23>
| 24>                          ****END OF INPUT****

CARTESIAN COORDINATES (ANGSTROEM)
---------------------------------
  C     -0.350836   -1.140364    0.177209
  C     -0.169345    0.039364    0.033594
  C      0.024878    1.481397   -0.145250
  O     -0.685002    2.235837    0.840053
  C      0.163650    2.401125    1.973721
  C      1.586560    2.527385    1.407808
  O      2.499276    1.485617    1.815506
  C      2.592614    0.984633    0.462349
  C      1.502227    1.958965   -0.025306
  H     -0.519589   -2.181430    0.304194
  H     -0.400629    1.772422   -1.111007
  H     -0.185900    3.287935    2.507662
  H      0.123003    1.530485    2.642638
  H      2.025855    3.521590    1.539473
  H      3.582309    1.178698    0.031591
  H      2.363391   -0.082873    0.396144
  H      1.770864    2.614936   -0.851889

 Total Charge           Charge          ....    0
 Multiplicity           Mult            ....    1
 Number of Electrons    NEL             ....   66
 Basis Dimension        Dim             ....  327

ORBITAL ENERGIES
----------------

  NO   OCC          E(Eh)            E(eV)
   0   2.0000     -20.567505      -559.6703
   1   2.0000     -20.554360      -559.3126
   2   2.0000     -11.317757      -307.9718
   3   2.0000     -11.291323      -307.2525
   4   2.0000     -11.285010      -307.0807
   5   2.0000     -11.278410      -306.9011
   6   2.0000     -11.250282      -306.1357
   7   2.0000     -11.239154      -305.8329
   8   2.0000     -11.232966      -305.6645
   9   2.0000      -1.401744       -38.1434
  10   2.0000      -1.375406       -37.4267
  11   2.0000      -1.077374       -29.3168
  12   2.0000      -1.031482       -28.0680
  13   2.0000      -0.998863       -27.1804
  14   2.0000      -0.933005       -25.3883
  15   2.0000      -0.852764       -23.2049
  16   2.0000      -0.766071       -20.8459
  17   2.0000      -0.733931       -19.9713
  18   2.0000      -0.722817       -19.6689
  19   2.0000      -0.688842       -18.7443
  20   2.0000      -0.650271       -17.6948
  21   2.0000      -0.645712       -17.5707
  22   2.0000      -0.629526       -17.1303
  23   2.0000      -0.588910       -16.0250
  24   2.0000      -0.563290       -15.3279
  25   2.0000      -0.548131       -14.9154
  26   2.0000      -0.498910       -13.5760
  27   2.0000      -0.470353       -12.7990
  28   2.0000      -0.462077       -12.5738
  29   2.0000      -0.447446       -12.1756
  30   2.0000      -0.423767       -11.5313
  31   2.0000      -0.401876       -10.9356
  32   2.0000      -0.394048       -10.7226
  33   0.0000       0.134164         3.6508
  34   0.0000       0.157929         4.2975
  35   0.0000       0.160322         4.3626
  36   0.0000       0.168209         4.5772
  37   0.0000       0.174898         4.7592

MULLIKEN ATOMIC CHARGES
-----------------------
   0 C :   -0.171835
   1 C :   -0.098861
   2 C :    0.061623
   3 O :   -0.306867
   4 C :   -0.040594
   5 C :    0.010997
   6 O :   -0.329420
   7 C :   -0.018023
   8 C :   -0.110153
   9 H :    0.192466
  10 H :    0.127939
  11 H :    0.121850
  12 H :    0.105758
  13 H :    0.101421
  14 H :    0.099818
  15 H :    0.120947
  16 H :    0.132935
Sum of atomic charges:   -0.0000000

LOEWDIN ATOMIC CHARGES
----------------------
   0 C :   -0.084472
   1 C :   -0.085122
   2 C :   -0.278453
   3 O :    0.181019
   4 C :   -0.277575
   5 C :   -0.249499
   6 O :    0.132730
   7 C :   -0.243903
   8 C :   -0.172147
   9 H :    0.128795
  10 H :    0.162112
  11 H :    0.128460
  12 H :    0.131416
  13 H :    0.134514
  14 H :    0.119719
  15 H :    0.125682
  16 H :    0.146725

  Mayer bond orders larger than 0.1
B(  0-C ,  1-C ) :   2.6214 B(  0-C ,  9-H ) :   0.9019 B(  1-C ,  2-C ) :   1.0478
B(  2-C ,  3-O ) :   0.9011 B(  2-C ,  8-C ) :   0.9156 B(  2-C , 10-H ) :   0.9372
B(  3-O ,  4-C ) :   0.9321 B(  4-C ,  5-C ) :   0.9148 B(  4-C , 11-H ) :   0.9239
B(  4-C , 12-H ) :   0.9026 B(  5-C ,  6-O ) :   1.0021 B(  5-C ,  8-C ) :   0.9501
B(  5-C , 13-H ) :   0.9245 B(  6-O ,  7-C ) :   0.9370 B(  7-C ,  8-C ) :   0.9730
B(  7-C , 14-H ) :   0.9205 B(  7-C , 15-H ) :   0.8977 B(  8-C , 16-H ) :   0.9111

MP2 TOTAL ENERGY:     -421.050752092 Eh
FINAL SINGLE POINT ENERGY      -421.050752092294

DIPOLE MOMENT
-------------
                                X             Y             Z
Electronic contribution:     -1.74184      -0.54806       0.03891
Nuclear contribution   :      2.04662       0.63441      -0.58392
                        -----------------------------------------
Total Dipole Moment    :      0.30478       0.08636      -0.54501
                        -----------------------------------------
Magnitude (a.u.)       :      0.63039
Magnitude (Debye)      :      1.60232

                             ****ORCA TERMINATED NORMALLY****
TOTAL RUN TIME: 0 days 0 hours 18 minutes 1 seconds 461 msec
