                         Program Version 3.0.3 - RELEASE   -
|  1> ! RI-MP2 RIJK def2-TZVP def2-TZVP/C def2-TZVP/JK TIGHTSCF
|  2> % maxcore 2000
|  3> % mp2 density relaxed end
|  4> *xyz 0 1
|  5>  C        1.0349151665    -0.0983413606     0.2000560919
|  6>  C       -0.4138466338     0.1155426411     0.5748260034
|  7>  O       -0.8849699959     1.2034308269     0.8038889045
|  8>  C       -1.3142135884    -1.1240037952     0.7243607033
|  9>  N       -0.9990516449    -2.2626340682    -0.1325916200
| 10>  C       -0.1991512427    -3.3022663432     0.3378992149
| 11>  N        0.3303858334    -3.2524003759     1.4921427545
| 12>  C       -1.5494431515    -2.3487759732    -1.4040937701
| 13>  O       -1.3508866011    -3.2463445009    -2.1858430198
| 14>  H        1.5622311827     0.8552471545     0.2311901349
| 15>  H        1.4932930298    -0.8182226986     0.8859692231
| 16>  H        1.1118826720    -0.5269363033    -0.8053386171
| 17>  H       -1.2215807138    -1.4654818974     1.7602202560
| 18>  H       -2.3451533816    -0.8054068938     0.5563193114
| 19>  H       -0.1136046892    -4.1049926189    -0.3952415959
| 20>  H        0.8616137408    -4.1013537678     1.6746151527
| 21>  H       -2.2035527522    -1.4848858953    -1.6223625976
| 22> *
| 23>
| 24>                          ****END OF INPUT****

CARTESIAN COORDINATES (ANGSTROEM)
---------------------------------
  C      1.034915   -0.098341    0.200056
  C     -0.413847    0.115543    0.574826
  O     -0.884970    1.203431    0.803889
  C     -1.314214   -1.124004    0.724361
  N     -0.999052   -2.262634   -0.132592
  C     -0.199151   -3.302266    0.337899
  N      0.330386   -3.252400    1.492143
  C     -1.549443   -2.348776   -1.404094
  O     -1.350887   -3.246345   -2.185843
  H      1.562231    0.855247    0.231190
  H      1.493293   -0.818223    0.885969
  H      1.111883   -0.526936   -0.805339
  H     -1.221581   -1.465482    1.760220
  H     -2.345153   -0.805407    0.556319
  H     -0.113605   -4.104993   -0.395242
  H      0.861614   -4.101354    1.674615
  H     -2.203553   -1.484886   -1.622363

 Total Charge           Charge          ....    0
 Multiplicity           Mult            ....    1
 Number of Electrons    NEL             ....   68
 Basis Dimension        Dim             ....  327

ORBITAL ENERGIES
----------------

  NO   OCC          E(Eh)            E(eV)
   0   2.0000     -20.562795      -559.5421
   1   2.0000     -20.558680      -559.4301
   2   2.0000     -15.632338      -425.3775
   3   2.0000     -15.564209      -423.5237
   4   2.0000     -11.383695      -309.7661
   5   2.0000     -11.345694      -308.7320
   6   2.0000     -11.340594      -308.5933
   7   2.0000     -11.295954      -307.3785
   8   2.0000     -11.240495      -305.8694
   9   2.0000      -1.425246       -38.7829
  10   2.0000      -1.404193       -38.2100
  11   2.0000      -1.313888       -35.7527
  12   2.0000      -1.204479       -32.7755
  13   2.0000      -1.043807       -28.4034
  14   2.0000      -0.986682       -26.8490
  15   2.0000      -0.926591       -25.2138
  16   2.0000      -0.803715       -21.8702
  17   2.0000      -0.759264       -20.6606
  18   2.0000      -0.742856       -20.2141
  19   2.0000      -0.695878       -18.9358
  20   2.0000      -0.679961       -18.5027
  21   2.0000      -0.666969       -18.1491
  22   2.0000      -0.643432       -17.5087
  23   2.0000      -0.634172       -17.2567
  24   2.0000      -0.605240       -16.4694
  25   2.0000      -0.595163       -16.1952
  26   2.0000      -0.575210       -15.6523
  27   2.0000      -0.556592       -15.1456
  28   2.0000      -0.516961       -14.0672
  29   2.0000      -0.507534       -13.8107
  30   2.0000      -0.476500       -12.9662
  31   2.0000      -0.448699       -12.2097
  32   2.0000      -0.436975       -11.8907
  33   2.0000      -0.389993       -10.6123
  34   0.0000       0.100651         2.7389
  35   0.0000       0.130724         3.5572
  36   0.0000       0.137856         3.7513
  37   0.0000       0.143850         3.9143
  38   0.0000       0.151251         4.1158

MULLIKEN ATOMIC CHARGES
-----------------------
   0 C :   -0.392707
   1 C :    0.160262
   2 O :   -0.270196
   3 C :   -0.171719
   4 N :   -0.080269
   5 C :    0.014353
   6 N :   -0.406150
   7 C :    0.151707
   8 O :   -0.318812
   9 H :    0.158004
  10 H :    0.165770
  11 H :    0.145123
  12 H :    0.177895
  13 H :    0.164787
  14 H :    0.158513
  15 H :    0.231588
  16 H :    0.111849
Sum of atomic charges:    0.0000000

LOEWDIN ATOMIC CHARGES
----------------------
   0 C :   -0.278310
   1 C :   -0.349125
   2 O :    0.156522
   3 C :   -0.220507
   4 N :    0.181064
   5 C :   -0.298806
   6 N :   -0.081597
   7 C :   -0.370947
   8 O :    0.096223
   9 H :    0.135461
  10 H :    0.143819
  11 H :    0.140044
  12 H :    0.165010
  13 H :    0.150525
  14 H :    0.137391
  15 H :    0.169349
  16 H :    0.123884

  Mayer bond orders larger than 0.1
B(  0-C ,  1-C ) :   0.9361 B(  0-C ,  9-H ) :   0.9297 B(  0-C , 10-H ) :   0.9046
B(  0-C , 11-H ) :   0.9031 B(  1-C ,  2-O ) :   2.0261 B(  1-C ,  3-C ) :   0.8767
B(  3-C ,  4-N ) :   0.8194 B(  3-C , 12-H ) :   0.8861 B(  3-C , 13-H ) :   0.9215
B(  4-N ,  5-C ) :   0.9988 B(  4-N ,  7-C ) :   1.0481 B(  5-C ,  6-N ) :   1.8615
B(  5-C , 14-H ) :   0.9174 B(  6-N , 15-H ) :   0.8615 B(  7-C ,  8-O ) :   1.9123
B(  7-C , 16-H ) :   0.9271

MP2 TOTAL ENERGY:     -454.444591774 Eh
FINAL SINGLE POINT ENERGY      -454.444591773783

DIPOLE MOMENT
-------------
                                X             Y             Z
Electronic contribution:     -3.27413      -0.81927      -1.67261
Nuclear contribution   :      3.59745       0.25097       1.86974
                        -----------------------------------------
Total Dipole Moment    :      0.32332      -0.56830       0.19713
                        -----------------------------------------
Magnitude (a.u.)       :      0.68291
Magnitude (Debye)      :      1.73582

                             ****ORCA TERMINATED NORMALLY****
TOTAL RUN TIME: 0 days 0 hours 16 minutes 31 seconds 79 msec
