                         Program Version 3.0.3 - RELEASE   -
|  1> ! RI-MP2 RIJK def2-TZVP def2-TZVP/C def2-TZVP/JK TIGHTSCF
|  2> % maxcore 2000
|  3> % mp2 density relaxed end
|  4> *xyz 0 1
|  5>  C       -0.5327727850     1.5412088086     0.0840279515
|  6>  C       -0.0710710816     0.1195087708    -0.0574022190
|  7>  C       -0.1744484809    -0.5851510570    -1.1886887536
|  8>  C        0.3389272375    -2.0028122715    -1.2696287213
|  9>  C       -0.0466053948    -2.7800041636    -0.0024308074
| 10>  O        0.9707973700    -3.7022531025     0.4606739219
| 11>  C        0.9970413879    -3.0860782076     1.7650367762
| 12>  C        0.0213032654    -1.9773368134     1.3161229628
| 13>  C        0.5672335090    -0.5508001649     1.1447636267
| 14>  H       -1.2859940581     1.6380595667     0.8770424119
| 15>  H        0.2980140289     2.2013616485     0.3661932668
| 16>  H       -0.9651988569     1.9208969707    -0.8458297815
| 17>  H       -0.6182656600    -0.1408447348    -2.0755312976
| 18>  H       -0.0272246442    -2.5080386747    -2.1678788018
| 19>  H        1.4361825515    -2.0126858684    -1.3303745118
| 20>  H       -1.0009522775    -3.3013360125    -0.1512625768
| 21>  H        0.6140332422    -3.7590828776     2.5433182093
| 22>  H        2.0069773712    -2.7590605396     2.0451205910
| 23>  H       -0.9215779013    -1.9514323003     1.8663457127
| 24>  H        1.6563072460    -0.5966741566     0.9967713729
| 25>  H        0.4076057106     0.0366667396     2.0550101272
| 26> *
| 27>
| 28>                          ****END OF INPUT****

CARTESIAN COORDINATES (ANGSTROEM)
---------------------------------
  C     -0.532773    1.541209    0.084028
  C     -0.071071    0.119509   -0.057402
  C     -0.174448   -0.585151   -1.188689
  C      0.338927   -2.002812   -1.269629
  C     -0.046605   -2.780004   -0.002431
  O      0.970797   -3.702253    0.460674
  C      0.997041   -3.086078    1.765037
  C      0.021303   -1.977337    1.316123
  C      0.567234   -0.550800    1.144764
  H     -1.285994    1.638060    0.877042
  H      0.298014    2.201362    0.366193
  H     -0.965199    1.920897   -0.845830
  H     -0.618266   -0.140845   -2.075531
  H     -0.027225   -2.508039   -2.167879
  H      1.436183   -2.012686   -1.330375
  H     -1.000952   -3.301336   -0.151263
  H      0.614033   -3.759083    2.543318
  H      2.006977   -2.759061    2.045121
  H     -0.921578   -1.951432    1.866346
  H      1.656307   -0.596674    0.996771
  H      0.407606    0.036667    2.055010

 Total Charge           Charge          ....    0
 Multiplicity           Mult            ....    1
 Number of Electrons    NEL             ....   68
 Basis Dimension        Dim             ....  351

ORBITAL ENERGIES
----------------

  NO   OCC          E(Eh)            E(eV)
   0   2.0000     -20.540167      -558.9263
   1   2.0000     -11.276111      -306.8386
   2   2.0000     -11.273229      -306.7602
   3   2.0000     -11.233253      -305.6724
   4   2.0000     -11.231321      -305.6198
   5   2.0000     -11.229945      -305.5823
   6   2.0000     -11.223379      -305.4037
   7   2.0000     -11.221088      -305.3413
   8   2.0000     -11.217744      -305.2503
   9   2.0000      -1.370932       -37.3049
  10   2.0000      -1.122980       -30.5578
  11   2.0000      -1.024137       -27.8682
  12   2.0000      -1.017400       -27.6849
  13   2.0000      -0.922417       -25.1002
  14   2.0000      -0.915036       -24.8994
  15   2.0000      -0.847174       -23.0528
  16   2.0000      -0.749662       -20.3994
  17   2.0000      -0.698217       -18.9994
  18   2.0000      -0.683736       -18.6054
  19   2.0000      -0.645686       -17.5700
  20   2.0000      -0.634730       -17.2719
  21   2.0000      -0.608228       -16.5507
  22   2.0000      -0.579735       -15.7754
  23   2.0000      -0.570743       -15.5307
  24   2.0000      -0.552568       -15.0361
  25   2.0000      -0.534240       -14.5374
  26   2.0000      -0.530091       -14.4245
  27   2.0000      -0.514431       -13.9984
  28   2.0000      -0.504516       -13.7286
  29   2.0000      -0.492344       -13.3974
  30   2.0000      -0.438153       -11.9227
  31   2.0000      -0.430705       -11.7201
  32   2.0000      -0.403223       -10.9723
  33   2.0000      -0.337415        -9.1815
  34   0.0000       0.130806         3.5594
  35   0.0000       0.152359         4.1459
  36   0.0000       0.159298         4.3347
  37   0.0000       0.163433         4.4472
  38   0.0000       0.170774         4.6470

MULLIKEN ATOMIC CHARGES
-----------------------
   0 C :   -0.432200
   1 C :    0.091383
   2 C :   -0.263202
   3 C :   -0.153534
   4 C :    0.062429
   5 O :   -0.329831
   6 C :   -0.031944
   7 C :   -0.063572
   8 C :   -0.283120
   9 H :    0.135753
  10 H :    0.138340
  11 H :    0.132685
  12 H :    0.117020
  13 H :    0.129000
  14 H :    0.112711
  15 H :    0.083649
  16 H :    0.093484
  17 H :    0.091915
  18 H :    0.112250
  19 H :    0.121516
  20 H :    0.135270
Sum of atomic charges:   -0.0000000

LOEWDIN ATOMIC CHARGES
----------------------
   0 C :   -0.275337
   1 C :   -0.193637
   2 C :   -0.150888
   3 C :   -0.229091
   4 C :   -0.246061
   5 O :    0.126584
   6 C :   -0.255341
   7 C :   -0.206978
   8 C :   -0.199302
   9 H :    0.129183
  10 H :    0.130226
  11 H :    0.128366
  12 H :    0.140401
  13 H :    0.140637
  14 H :    0.153528
  15 H :    0.134752
  16 H :    0.115689
  17 H :    0.115895
  18 H :    0.145991
  19 H :    0.152166
  20 H :    0.143217

  Mayer bond orders larger than 0.1
B(  0-C ,  1-C ) :   0.8860 B(  0-C ,  9-H ) :   0.9340 B(  0-C , 10-H ) :   0.9300
B(  0-C , 11-H ) :   0.9482 B(  1-C ,  2-C ) :   1.7267 B(  1-C ,  8-C ) :   0.9188
B(  2-C ,  3-C ) :   0.9550 B(  2-C , 12-H ) :   0.9281 B(  3-C ,  4-C ) :   0.9119
B(  3-C , 13-H ) :   0.9327 B(  3-C , 14-H ) :   0.8955 B(  4-C ,  5-O ) :   0.9957
B(  4-C ,  7-C ) :   0.9486 B(  4-C , 15-H ) :   0.9219 B(  5-O ,  6-C ) :   0.9524
B(  6-C ,  7-C ) :   0.9701 B(  6-C , 16-H ) :   0.9172 B(  6-C , 17-H ) :   0.9036
B(  7-C ,  8-C ) :   0.9347 B(  7-C , 18-H ) :   0.9214 B(  8-C , 19-H ) :   0.8993
B(  8-C , 20-H ) :   0.9340

MP2 TOTAL ENERGY:     -386.407478726 Eh
FINAL SINGLE POINT ENERGY      -386.407478725902

DIPOLE MOMENT
-------------
                                X             Y             Z
Electronic contribution:      0.91626      -5.30487      -0.60142
Nuclear contribution   :     -1.23989       5.97553       0.92231
                        -----------------------------------------
Total Dipole Moment    :     -0.32362       0.67066       0.32089
                        -----------------------------------------
Magnitude (a.u.)       :      0.81085
Magnitude (Debye)      :      2.06103

                             ****ORCA TERMINATED NORMALLY****
TOTAL RUN TIME: 0 days 0 hours 20 minutes 23 seconds 885 msec
