                         Program Version 3.0.3 - RELEASE   -
|  1> ! RI-MP2 RIJK def2-TZVP def2-TZVP/C def2-TZVP/JK TIGHTSCF
|  2> % maxcore 2000
|  3> % mp2 density relaxed end
|  4> *xyz 0 1
|  5>  C       -0.5524464648    -0.1342540840     0.5154222099
|  6>  C        0.6689964946    -0.7424353161    -0.1718347263
|  7>  N        0.9634221656    -0.1245772862    -1.4765877887
|  8>  C        1.9760220863     0.7937829043    -1.5445454063
|  9>  O        2.3656857676     1.4050032107    -2.5246601124
| 10>  C        0.1813414225    -0.5541173416    -2.5919255911
| 11>  N        0.3525095429     0.1645972032    -3.7401155727
| 12>  N       -0.6247342916    -1.5277477157    -2.3986492168
| 13>  C       -1.4322338700    -1.9529580818    -3.5224489645
| 14>  H       -0.4161872647     0.9374506716     0.6920513814
| 15>  H       -1.4419109258    -0.2819006954    -0.0996334470
| 16>  H       -0.7158001321    -0.6215842962     1.4818184862
| 17>  H        1.5607124660    -0.6184220875     0.4489497337
| 18>  H        0.5154021691    -1.8075720050    -0.3430773839
| 19>  H        2.4468225079     0.9398318522    -0.5569581185
| 20>  H        1.1594029083     0.7764601922    -3.7878124006
| 21>  H        0.0075184042    -0.2513939292    -4.5875877951
| 22>  H       -2.0717989802    -1.1456001521    -3.9144844126
| 23>  H       -0.8279895365    -2.3291758020    -4.3660138587
| 24>  H       -2.0868445492    -2.7699788215    -3.2088161661
| 25> *
| 26>
| 27>                          ****END OF INPUT****

CARTESIAN COORDINATES (ANGSTROEM)
---------------------------------
  C     -0.552446   -0.134254    0.515422
  C      0.668996   -0.742435   -0.171835
  N      0.963422   -0.124577   -1.476588
  C      1.976022    0.793783   -1.544545
  O      2.365686    1.405003   -2.524660
  C      0.181341   -0.554117   -2.591926
  N      0.352510    0.164597   -3.740116
  N     -0.624734   -1.527748   -2.398649
  C     -1.432234   -1.952958   -3.522449
  H     -0.416187    0.937451    0.692051
  H     -1.441911   -0.281901   -0.099633
  H     -0.715800   -0.621584    1.481818
  H      1.560712   -0.618422    0.448950
  H      0.515402   -1.807572   -0.343077
  H      2.446823    0.939832   -0.556958
  H      1.159403    0.776460   -3.787812
  H      0.007518   -0.251394   -4.587588
  H     -2.071799   -1.145600   -3.914484
  H     -0.827990   -2.329176   -4.366014
  H     -2.086845   -2.769979   -3.208816

 Total Charge           Charge          ....    0
 Multiplicity           Mult            ....    1
 Number of Electrons    NEL             ....   70
 Basis Dimension        Dim             ....  345

ORBITAL ENERGIES
----------------

  NO   OCC          E(Eh)            E(eV)
   0   2.0000     -20.546032      -559.0860
   1   2.0000     -15.614486      -424.8918
   2   2.0000     -15.569485      -423.6672
   3   2.0000     -15.519101      -422.2962
   4   2.0000     -11.370332      -309.4025
   5   2.0000     -11.352815      -308.9258
   6   2.0000     -11.272620      -306.7436
   7   2.0000     -11.242704      -305.9295
   8   2.0000     -11.220532      -305.3262
   9   2.0000      -1.407488       -38.2997
  10   2.0000      -1.312726       -35.7211
  11   2.0000      -1.223400       -33.2904
  12   2.0000      -1.161047       -31.5937
  13   2.0000      -1.025426       -27.9033
  14   2.0000      -0.957865       -26.0648
  15   2.0000      -0.873264       -23.7627
  16   2.0000      -0.866284       -23.5728
  17   2.0000      -0.762242       -20.7417
  18   2.0000      -0.725590       -19.7443
  19   2.0000      -0.700805       -19.0699
  20   2.0000      -0.678758       -18.4699
  21   2.0000      -0.646201       -17.5840
  22   2.0000      -0.627232       -17.0679
  23   2.0000      -0.608630       -16.5617
  24   2.0000      -0.597653       -16.2630
  25   2.0000      -0.583471       -15.8771
  26   2.0000      -0.553191       -15.0531
  27   2.0000      -0.543440       -14.7878
  28   2.0000      -0.527767       -14.3613
  29   2.0000      -0.510869       -13.9015
  30   2.0000      -0.503857       -13.7107
  31   2.0000      -0.451198       -12.2777
  32   2.0000      -0.413079       -11.2405
  33   2.0000      -0.406299       -11.0560
  34   2.0000      -0.346873        -9.4389
  35   0.0000       0.129608         3.5268
  36   0.0000       0.136855         3.7240
  37   0.0000       0.142267         3.8713
  38   0.0000       0.172527         4.6947
  39   0.0000       0.187932         5.1139

MULLIKEN ATOMIC CHARGES
-----------------------
   0 C :   -0.403473
   1 C :   -0.103542
   2 N :   -0.051296
   3 C :    0.163410
   4 O :   -0.387351
   5 C :    0.292654
   6 N :   -0.521726
   7 N :   -0.338548
   8 C :   -0.370533
   9 H :    0.121407
  10 H :    0.156369
  11 H :    0.130083
  12 H :    0.123826
  13 H :    0.142165
  14 H :    0.100172
  15 H :    0.285906
  16 H :    0.254510
  17 H :    0.135632
  18 H :    0.123693
  19 H :    0.146641
Sum of atomic charges:   -0.0000000

LOEWDIN ATOMIC CHARGES
----------------------
   0 C :   -0.313859
   1 C :   -0.270706
   2 N :    0.216123
   3 C :   -0.383957
   4 O :    0.051938
   5 C :   -0.401793
   6 N :   -0.024054
   7 N :    0.027955
   8 C :   -0.356234
   9 H :    0.120137
  10 H :    0.128791
  11 H :    0.125622
  12 H :    0.133232
  13 H :    0.143766
  14 H :    0.123336
  15 H :    0.172791
  16 H :    0.171739
  17 H :    0.110726
  18 H :    0.107635
  19 H :    0.116812

  Mayer bond orders larger than 0.1
B(  0-C ,  1-C ) :   0.9199 B(  0-C ,  9-H ) :   0.9310 B(  0-C , 10-H ) :   0.9374
B(  0-C , 11-H ) :   0.9342 B(  1-C ,  2-N ) :   0.8602 B(  1-C , 12-H ) :   0.9299
B(  1-C , 13-H ) :   0.9136 B(  2-N ,  3-C ) :   1.1458 B(  2-N ,  5-C ) :   0.9562
B(  3-C ,  4-O ) :   1.7998 B(  3-C , 14-H ) :   0.9324 B(  5-C ,  6-N ) :   1.1630
B(  5-C ,  7-N ) :   1.7335 B(  6-N , 15-H ) :   0.8130 B(  6-N , 16-H ) :   0.8711
B(  7-N ,  8-C ) :   0.9136 B(  8-C , 17-H ) :   0.9300 B(  8-C , 18-H ) :   0.9243
B(  8-C , 19-H ) :   0.9485

MP2 TOTAL ENERGY:     -435.782012260 Eh
FINAL SINGLE POINT ENERGY      -435.782012259685

DIPOLE MOMENT
-------------
                                X             Y             Z
Electronic contribution:      5.97294       3.43030      -2.93135
Nuclear contribution   :     -6.18441      -3.77493       3.10761
                        -----------------------------------------
Total Dipole Moment    :     -0.21147      -0.34463       0.17627
                        -----------------------------------------
Magnitude (a.u.)       :      0.44109
Magnitude (Debye)      :      1.12116

                             ****ORCA TERMINATED NORMALLY****
TOTAL RUN TIME: 0 days 0 hours 17 minutes 59 seconds 888 msec
