                         Program Version 3.0.3 - RELEASE   -
|  1> ! RI-MP2 RIJK def2-TZVP def2-TZVP/C def2-TZVP/JK TIGHTSCF
|  2> % maxcore 2000
|  3> % mp2 density relaxed end
|  4> *xyz 0 1
|  5>  C       -0.1256077296     1.5641224090     0.1173448636
|  6>  C        1.4348757334     1.6384443486     0.0260209998
|  7>  C        1.4528643224     0.1236286965     0.4327777572
|  8>  C       -0.0668338393     0.0030063065     0.0927714881
|  9>  C       -0.3298462499    -0.5661011216    -1.3281650562
| 10>  N        0.4529567095     0.3111800198    -2.1540700151
| 11>  C        1.6750631556     0.0875606425    -2.3555585679
| 12>  O        2.5715881627     1.0767827543    -2.2122089082
| 13>  C        2.0875568372     2.1136012327    -1.3116268155
| 14>  H       -0.4763107225     1.9389513557     1.0837112627
| 15>  H       -0.6919503759     2.0443491592    -0.6821250655
| 16>  H        1.8684148494     2.2807063776     0.7991671529
| 17>  H        2.1487377774    -0.5460859566    -0.0802331045
| 18>  H        1.6273736730     0.0190017820     1.5068208759
| 19>  H       -0.6794669408    -0.5209335978     0.8329562094
| 20>  H       -0.0381631429    -1.6307853522    -1.3747996080
| 21>  H       -1.3944853117    -0.4882248854    -1.5744037187
| 22>  H        2.1658231851    -0.8767251462    -2.5540832243
| 23>  H        1.3853210233     2.7594562736    -1.8464082621
| 24>  H        2.9962108635     2.6842920618    -1.1044331936
| 25> *
| 26>
| 27>                          ****END OF INPUT****

CARTESIAN COORDINATES (ANGSTROEM)
---------------------------------
  C     -0.125608    1.564122    0.117345
  C      1.434876    1.638444    0.026021
  C      1.452864    0.123629    0.432778
  C     -0.066834    0.003006    0.092771
  C     -0.329846   -0.566101   -1.328165
  N      0.452957    0.311180   -2.154070
  C      1.675063    0.087561   -2.355559
  O      2.571588    1.076783   -2.212209
  C      2.087557    2.113601   -1.311627
  H     -0.476311    1.938951    1.083711
  H     -0.691950    2.044349   -0.682125
  H      1.868415    2.280706    0.799167
  H      2.148738   -0.546086   -0.080233
  H      1.627374    0.019002    1.506821
  H     -0.679467   -0.520934    0.832956
  H     -0.038163   -1.630785   -1.374800
  H     -1.394485   -0.488225   -1.574404
  H      2.165823   -0.876725   -2.554083
  H      1.385321    2.759456   -1.846408
  H      2.996211    2.684292   -1.104433

 Total Charge           Charge          ....    0
 Multiplicity           Mult            ....    1
 Number of Electrons    NEL             ....   68
 Basis Dimension        Dim             ....  345

ORBITAL ENERGIES
----------------

  NO   OCC          E(Eh)            E(eV)
   0   2.0000     -20.585347      -560.1558
   1   2.0000     -15.520029      -422.3215
   2   2.0000     -11.333434      -308.3984
   3   2.0000     -11.282952      -307.0247
   4   2.0000     -11.255994      -306.2912
   5   2.0000     -11.233572      -305.6810
   6   2.0000     -11.227306      -305.5105
   7   2.0000     -11.225269      -305.4551
   8   2.0000     -11.215574      -305.1913
   9   2.0000      -1.419265       -38.6202
  10   2.0000      -1.218139       -33.1472
  11   2.0000      -1.122759       -30.5518
  12   2.0000      -0.984323       -26.7848
  13   2.0000      -0.963923       -26.2297
  14   2.0000      -0.897840       -24.4315
  15   2.0000      -0.824376       -22.4324
  16   2.0000      -0.787205       -21.4209
  17   2.0000      -0.725043       -19.7294
  18   2.0000      -0.694113       -18.8878
  19   2.0000      -0.679400       -18.4874
  20   2.0000      -0.654557       -17.8114
  21   2.0000      -0.637057       -17.3352
  22   2.0000      -0.596414       -16.2293
  23   2.0000      -0.579318       -15.7640
  24   2.0000      -0.561070       -15.2675
  25   2.0000      -0.537493       -14.6259
  26   2.0000      -0.528949       -14.3934
  27   2.0000      -0.494253       -13.4493
  28   2.0000      -0.466925       -12.7057
  29   2.0000      -0.448040       -12.1918
  30   2.0000      -0.434552       -11.8248
  31   2.0000      -0.422832       -11.5058
  32   2.0000      -0.408167       -11.1068
  33   2.0000      -0.355823        -9.6824
  34   0.0000       0.141537         3.8514
  35   0.0000       0.146862         3.9963
  36   0.0000       0.157999         4.2994
  37   0.0000       0.166194         4.5224
  38   0.0000       0.174766         4.7556

MULLIKEN ATOMIC CHARGES
-----------------------
   0 C :   -0.244140
   1 C :   -0.107849
   2 C :   -0.261245
   3 C :   -0.011997
   4 C :   -0.143413
   5 N :   -0.301656
   6 C :    0.105887
   7 O :   -0.250924
   8 C :   -0.034875
   9 H :    0.115388
  10 H :    0.121115
  11 H :    0.105110
  12 H :    0.122310
  13 H :    0.126719
  14 H :    0.104193
  15 H :    0.100451
  16 H :    0.117750
  17 H :    0.099398
  18 H :    0.114460
  19 H :    0.123316
Sum of atomic charges:   -0.0000000

LOEWDIN ATOMIC CHARGES
----------------------
   0 C :   -0.205134
   1 C :   -0.220313
   2 C :   -0.200074
   3 C :   -0.220536
   4 C :   -0.280240
   5 N :    0.085671
   6 C :   -0.370560
   7 O :    0.221791
   8 C :   -0.253459
   9 H :    0.131687
  10 H :    0.132558
  11 H :    0.143259
  12 H :    0.132320
  13 H :    0.137952
  14 H :    0.135416
  15 H :    0.123091
  16 H :    0.132353
  17 H :    0.114941
  18 H :    0.131410
  19 H :    0.127866

  Mayer bond orders larger than 0.1
B(  0-C ,  1-C ) :   0.9318 B(  0-C ,  3-C ) :   0.9199 B(  0-C ,  9-H ) :   0.9194
B(  0-C , 10-H ) :   0.9106 B(  1-C ,  2-C ) :   0.9263 B(  1-C ,  8-C ) :   0.8950
B(  1-C , 11-H ) :   0.9243 B(  2-C ,  3-C ) :   0.9235 B(  2-C , 12-H ) :   0.9117
B(  2-C , 13-H ) :   0.9200 B(  3-C ,  4-C ) :   0.9119 B(  3-C , 14-H ) :   0.9139
B(  4-C ,  5-N ) :   0.8697 B(  4-C , 15-H ) :   0.9208 B(  4-C , 16-H ) :   0.9320
B(  5-N ,  6-C ) :   1.7602 B(  6-C ,  7-O ) :   1.0864 B(  6-C , 17-H ) :   0.9250
B(  7-O ,  8-C ) :   0.8672 B(  8-C , 18-H ) :   0.9411 B(  8-C , 19-H ) :   0.9238

MP2 TOTAL ENERGY:     -402.420299507 Eh
FINAL SINGLE POINT ENERGY      -402.420299507481

DIPOLE MOMENT
-------------
                                X             Y             Z
Electronic contribution:      2.29448      -0.04002      -4.78041
Nuclear contribution   :     -2.34422      -0.13918       5.39518
                        -----------------------------------------
Total Dipole Moment    :     -0.04974      -0.17920       0.61478
                        -----------------------------------------
Magnitude (a.u.)       :      0.64229
Magnitude (Debye)      :      1.63257

                             ****ORCA TERMINATED NORMALLY****
TOTAL RUN TIME: 0 days 0 hours 21 minutes 22 seconds 264 msec
