                         Program Version 3.0.3 - RELEASE   -
|  1> ! RI-MP2 RIJK def2-TZVP def2-TZVP/C def2-TZVP/JK TIGHTSCF
|  2> % maxcore 2000
|  3> % mp2 density relaxed end
|  4> *xyz 0 1
|  5>  C       -0.2162690161     1.5370609260     0.0186985922
|  6>  C        0.0796816362     0.0468540470     0.0320655548
|  7>  C        0.9062471674    -0.4722334560    -1.1797285316
|  8>  N        2.1781957711    -0.9441436578    -0.6162895680
|  9>  C        2.0791897147    -0.7872796017     0.6399092352
| 10>  O        0.9418999457    -0.2652240972     1.1669218184
| 11>  C        3.1230495211    -1.1294115405     1.6612663589
| 12>  O        4.1924996992    -1.6047043655     1.3919785685
| 13>  H        0.7057601110     2.1119338126    -0.1139196351
| 14>  H       -0.8919936817     1.7753680443    -0.8092086653
| 15>  H       -0.6913370269     1.8512398757     0.9518232818
| 16>  H       -0.8417669985    -0.5248741855     0.1769248217
| 17>  H        0.4140241533    -1.2954197744    -1.7081870093
| 18>  H        1.0983881213     0.3158752441    -1.9168757256
| 19>  H        2.8107934722    -0.8997483710     2.7005152834
| 20> *
| 21>
| 22>                          ****END OF INPUT****

CARTESIAN COORDINATES (ANGSTROEM)
---------------------------------
  C     -0.216269    1.537061    0.018699
  C      0.079682    0.046854    0.032066
  C      0.906247   -0.472233   -1.179729
  N      2.178196   -0.944144   -0.616290
  C      2.079190   -0.787280    0.639909
  O      0.941900   -0.265224    1.166922
  C      3.123050   -1.129412    1.661266
  O      4.192500   -1.604704    1.391979
  H      0.705760    2.111934   -0.113920
  H     -0.891994    1.775368   -0.809209
  H     -0.691337    1.851240    0.951823
  H     -0.841767   -0.524874    0.176925
  H      0.414024   -1.295420   -1.708187
  H      1.098388    0.315875   -1.916876
  H      2.810793   -0.899748    2.700515

 Total Charge           Charge          ....    0
 Multiplicity           Mult            ....    1
 Number of Electrons    NEL             ....   60
 Basis Dimension        Dim             ....  290

ORBITAL ENERGIES
----------------

  NO   OCC          E(Eh)            E(eV)
   0   2.0000     -20.607110      -560.7480
   1   2.0000     -20.580060      -560.0119
   2   2.0000     -15.569925      -423.6792
   3   2.0000     -11.351592      -308.8925
   4   2.0000     -11.346461      -308.7529
   5   2.0000     -11.311276      -307.7955
   6   2.0000     -11.273635      -306.7712
   7   2.0000     -11.238461      -305.8141
   8   2.0000      -1.453149       -39.5422
   9   2.0000      -1.413814       -38.4718
  10   2.0000      -1.228393       -33.4263
  11   2.0000      -1.081147       -29.4195
  12   2.0000      -0.971496       -26.4357
  13   2.0000      -0.906712       -24.6729
  14   2.0000      -0.838757       -22.8237
  15   2.0000      -0.765770       -20.8377
  16   2.0000      -0.724200       -19.7065
  17   2.0000      -0.698407       -19.0046
  18   2.0000      -0.667108       -18.1529
  19   2.0000      -0.623135       -16.9564
  20   2.0000      -0.607371       -16.5274
  21   2.0000      -0.596244       -16.2246
  22   2.0000      -0.571429       -15.5494
  23   2.0000      -0.562797       -15.3145
  24   2.0000      -0.546894       -14.8817
  25   2.0000      -0.521524       -14.1914
  26   2.0000      -0.512478       -13.9452
  27   2.0000      -0.455185       -12.3862
  28   2.0000      -0.443381       -12.0650
  29   2.0000      -0.392003       -10.6669
  30   0.0000       0.069996         1.9047
  31   0.0000       0.128027         3.4838
  32   0.0000       0.163142         4.4393
  33   0.0000       0.175675         4.7804
  34   0.0000       0.176227         4.7954

MULLIKEN ATOMIC CHARGES
-----------------------
   0 C :   -0.419715
   1 C :    0.106027
   2 C :   -0.144041
   3 N :   -0.219904
   4 C :    0.220537
   5 O :   -0.281655
   6 C :    0.054508
   7 O :   -0.219662
   8 H :    0.140607
   9 H :    0.136065
  10 H :    0.144710
  11 H :    0.113334
  12 H :    0.129124
  13 H :    0.132944
  14 H :    0.107122
Sum of atomic charges:    0.0000000

LOEWDIN ATOMIC CHARGES
----------------------
   0 C :   -0.294226
   1 C :   -0.283144
   2 C :   -0.251713
   3 N :    0.121113
   4 C :   -0.389346
   5 O :    0.249166
   6 C :   -0.252279
   7 O :    0.175691
   8 H :    0.129797
   9 H :    0.131031
  10 H :    0.128879
  11 H :    0.141313
  12 H :    0.135358
  13 H :    0.137919
  14 H :    0.120440

  Mayer bond orders larger than 0.1
B(  0-C ,  1-C ) :   0.9229 B(  0-C ,  8-H ) :   0.9296 B(  0-C ,  9-H ) :   0.9302
B(  0-C , 10-H ) :   0.9353 B(  1-C ,  2-C ) :   0.9075 B(  1-C ,  5-O ) :   0.8238
B(  1-C , 11-H ) :   0.9282 B(  2-C ,  3-N ) :   0.9193 B(  2-C , 12-H ) :   0.9205
B(  2-C , 13-H ) :   0.9226 B(  3-N ,  4-C ) :   1.8155 B(  4-C ,  5-O ) :   1.0891
B(  4-C ,  6-C ) :   0.7920 B(  6-C ,  7-O ) :   2.0409 B(  6-C , 14-H ) :   0.9661

MP2 TOTAL ENERGY:     -399.163298154 Eh
FINAL SINGLE POINT ENERGY      -399.163298153846

DIPOLE MOMENT
-------------
                                X             Y             Z
Electronic contribution:      6.82654      -5.24701       3.28486
Nuclear contribution   :     -8.38443       5.98163      -3.30523
                        -----------------------------------------
Total Dipole Moment    :     -1.55789       0.73462      -0.02037
                        -----------------------------------------
Magnitude (a.u.)       :      1.72253
Magnitude (Debye)      :      4.37833

                             ****ORCA TERMINATED NORMALLY****
TOTAL RUN TIME: 0 days 0 hours 11 minutes 17 seconds 108 msec
