                         Program Version 3.0.3 - RELEASE   -
|  1> ! RI-MP2 RIJK def2-TZVP def2-TZVP/C def2-TZVP/JK TIGHTSCF
|  2> % maxcore 2000
|  3> % mp2 density relaxed end
|  4> *xyz 0 1
|  5>  O        0.1133333023     1.3466378156     0.1352681765
|  6>  C        0.0730365673     0.0077864133     0.0699241290
|  7>  N        0.1080919694    -0.6340859532    -1.0736023969
|  8>  O        0.0472489069    -1.9871896484    -0.7281347091
|  9>  C       -0.0212596061    -2.0888368700     0.6060711737
| 10>  C       -0.0102115645    -0.8659682574     1.1906788665
| 11>  H        0.1685169810     1.6827648791    -0.7695428993
| 12>  H       -0.0729888951    -3.0935701039     0.9970183221
| 13>  H       -0.0529957212    -0.6098034052     2.2348425375
| 14> *
| 15>
| 16>                          ****END OF INPUT****

CARTESIAN COORDINATES (ANGSTROEM)
---------------------------------
  O      0.113333    1.346638    0.135268
  C      0.073037    0.007786    0.069924
  N      0.108092   -0.634086   -1.073602
  O      0.047249   -1.987190   -0.728135
  C     -0.021260   -2.088837    0.606071
  C     -0.010212   -0.865968    1.190679
  H      0.168517    1.682765   -0.769543
  H     -0.072989   -3.093570    0.997018
  H     -0.052996   -0.609803    2.234843

 Total Charge           Charge          ....    0
 Multiplicity           Mult            ....    1
 Number of Electrons    NEL             ....   44
 Basis Dimension        Dim             ....  204

ORBITAL ENERGIES
----------------

  NO   OCC          E(Eh)            E(eV)
   0   2.0000     -20.647059      -561.8350
   1   2.0000     -20.616637      -561.0072
   2   2.0000     -15.610384      -424.7801
   3   2.0000     -11.348453      -308.8071
   4   2.0000     -11.326736      -308.2162
   5   2.0000     -11.245728      -306.0118
   6   2.0000      -1.499274       -40.7973
   7   2.0000      -1.437286       -39.1105
   8   2.0000      -1.153836       -31.3975
   9   2.0000      -1.081791       -29.4370
  10   2.0000      -0.860282       -23.4095
  11   2.0000      -0.831783       -22.6340
  12   2.0000      -0.753779       -20.5114
  13   2.0000      -0.689044       -18.7499
  14   2.0000      -0.673212       -18.3190
  15   2.0000      -0.632064       -17.1993
  16   2.0000      -0.605357       -16.4726
  17   2.0000      -0.597742       -16.2654
  18   2.0000      -0.556154       -15.1337
  19   2.0000      -0.486469       -13.2375
  20   2.0000      -0.402314       -10.9475
  21   2.0000      -0.378688       -10.3046
  22   0.0000       0.121574         3.3082
  23   0.0000       0.142014         3.8644
  24   0.0000       0.164170         4.4673
  25   0.0000       0.183266         4.9869
  26   0.0000       0.219347         5.9687

MULLIKEN ATOMIC CHARGES
-----------------------
   0 O :   -0.419472
   1 C :    0.243909
   2 N :   -0.158170
   3 O :   -0.108631
   4 C :    0.027609
   5 C :   -0.255249
   6 H :    0.345614
   7 H :    0.163658
   8 H :    0.160731
Sum of atomic charges:   -0.0000000

LOEWDIN ATOMIC CHARGES
----------------------
   0 O :    0.091064
   1 C :   -0.435154
   2 N :    0.011890
   3 O :    0.271314
   4 C :   -0.259727
   5 C :   -0.174669
   6 H :    0.205308
   7 H :    0.138890
   8 H :    0.151083

  Mayer bond orders larger than 0.1
B(  0-O ,  1-C ) :   1.1206 B(  0-O ,  6-H ) :   0.8153 B(  1-C ,  2-N ) :   1.5723
B(  1-C ,  5-C ) :   1.2100 B(  2-N ,  3-O ) :   0.8717 B(  2-N ,  4-C ) :   0.1047
B(  3-O ,  4-C ) :   1.1244 B(  4-C ,  5-C ) :   1.5570 B(  4-C ,  7-H ) :   0.9185
B(  5-C ,  8-H ) :   0.9088

MP2 TOTAL ENERGY:     -320.707847343 Eh
FINAL SINGLE POINT ENERGY      -320.707847343308

DIPOLE MOMENT
-------------
                                X             Y             Z
Electronic contribution:      0.08013      -0.01648      -1.64905
Nuclear contribution   :     -0.11208      -0.01376       2.28270
                        -----------------------------------------
Total Dipole Moment    :     -0.03195      -0.03024       0.63365
                        -----------------------------------------
Magnitude (a.u.)       :      0.63517
Magnitude (Debye)      :      1.61447

                             ****ORCA TERMINATED NORMALLY****
TOTAL RUN TIME: 0 days 0 hours 3 minutes 48 seconds 589 msec
