                         Program Version 3.0.3 - RELEASE   -
|  1> ! RI-MP2 RIJK def2-TZVP def2-TZVP/C def2-TZVP/JK TIGHTSCF
|  2> % maxcore 2000
|  3> % mp2 density relaxed end
|  4> *xyz 0 1
|  5>  C       -0.0313335431     1.5694111661    -0.0697899985
|  6>  C       -0.0590768987     0.0698456929     0.0917260093
|  7>  N        1.2118084812    -0.6426324998    -0.1284934439
|  8>  C        0.6331337519    -0.6195127228     1.2091107293
|  9>  C        1.3256656491    -0.1298872857     2.4749684952
| 10>  C        0.3038900592     0.0005830185     3.5480742489
| 11>  C        0.8264829298    -1.3960225378     3.2390643165
| 12>  C        0.2436487791    -1.8949572469     1.9463998936
| 13>  O       -0.1510123407    -2.9594670549     1.5534887152
| 14>  H        0.8978813745     1.9836052857     0.3301472786
| 15>  H       -0.0966282843     1.8450364877    -1.1275091126
| 16>  H       -0.8738099435     2.0334290395     0.4536918627
| 17>  H       -0.9615814246    -0.4252508342    -0.2658789085
| 18>  H        1.0456019539    -1.5595353224    -0.5423575032
| 19>  H        2.3187278243     0.2947410943     2.5176423994
| 20>  H        0.6447909792     0.3912498451     4.5014785815
| 21>  H       -0.7187121897     0.2670018315     3.2962846789
| 22>  H        1.3220977825    -1.9946987368     3.9919064878
| 23> *
| 24>
| 25>                          ****END OF INPUT****

CARTESIAN COORDINATES (ANGSTROEM)
---------------------------------
  C     -0.031334    1.569411   -0.069790
  C     -0.059077    0.069846    0.091726
  N      1.211808   -0.642632   -0.128493
  C      0.633134   -0.619513    1.209111
  C      1.325666   -0.129887    2.474968
  C      0.303890    0.000583    3.548074
  C      0.826483   -1.396023    3.239064
  C      0.243649   -1.894957    1.946400
  O     -0.151012   -2.959467    1.553489
  H      0.897881    1.983605    0.330147
  H     -0.096628    1.845036   -1.127509
  H     -0.873810    2.033429    0.453692
  H     -0.961581   -0.425251   -0.265879
  H      1.045602   -1.559535   -0.542358
  H      2.318728    0.294741    2.517642
  H      0.644791    0.391250    4.501479
  H     -0.718712    0.267002    3.296285
  H      1.322098   -1.994699    3.991906

 Total Charge           Charge          ....    0
 Multiplicity           Mult            ....    1
 Number of Electrons    NEL             ....   66
 Basis Dimension        Dim             ....  333

ORBITAL ENERGIES
----------------

  NO   OCC          E(Eh)            E(eV)
   0   2.0000     -20.551513      -559.2351
   1   2.0000     -15.570314      -423.6898
   2   2.0000     -11.337938      -308.5210
   3   2.0000     -11.279764      -306.9380
   4   2.0000     -11.274503      -306.7948
   5   2.0000     -11.264580      -306.5248
   6   2.0000     -11.260824      -306.4226
   7   2.0000     -11.257991      -306.3455
   8   2.0000     -11.227193      -305.5074
   9   2.0000      -1.395782       -37.9812
  10   2.0000      -1.283872       -34.9359
  11   2.0000      -1.199838       -32.6492
  12   2.0000      -1.001427       -27.2502
  13   2.0000      -0.955114       -25.9900
  14   2.0000      -0.881432       -23.9850
  15   2.0000      -0.840110       -22.8605
  16   2.0000      -0.799855       -21.7652
  17   2.0000      -0.736852       -20.0508
  18   2.0000      -0.693661       -18.8755
  19   2.0000      -0.680215       -18.5096
  20   2.0000      -0.646544       -17.5933
  21   2.0000      -0.603071       -16.4104
  22   2.0000      -0.587205       -15.9787
  23   2.0000      -0.575623       -15.6635
  24   2.0000      -0.569829       -15.5058
  25   2.0000      -0.544770       -14.8239
  26   2.0000      -0.533807       -14.5256
  27   2.0000      -0.498122       -13.5546
  28   2.0000      -0.486401       -13.2356
  29   2.0000      -0.444106       -12.0847
  30   2.0000      -0.427069       -11.6212
  31   2.0000      -0.401227       -10.9179
  32   2.0000      -0.383908       -10.4467
  33   0.0000       0.125033         3.4023
  34   0.0000       0.137088         3.7304
  35   0.0000       0.152588         4.1521
  36   0.0000       0.162471         4.4211
  37   0.0000       0.177196         4.8217

MULLIKEN ATOMIC CHARGES
-----------------------
   0 C :   -0.397072
   1 C :   -0.035777
   2 N :   -0.391101
   3 C :    0.025823
   4 C :   -0.088185
   5 C :   -0.253060
   6 C :   -0.120605
   7 C :    0.159600
   8 O :   -0.277008
   9 H :    0.140082
  10 H :    0.137753
  11 H :    0.126666
  12 H :    0.135872
  13 H :    0.233939
  14 H :    0.159062
  15 H :    0.143287
  16 H :    0.148021
  17 H :    0.152701
Sum of atomic charges:   -0.0000000

LOEWDIN ATOMIC CHARGES
----------------------
   0 C :   -0.289084
   1 C :   -0.251040
   2 N :    0.046873
   3 C :   -0.231707
   4 C :   -0.117972
   5 C :   -0.183033
   6 C :   -0.122967
   7 C :   -0.285903
   8 O :    0.151528
   9 H :    0.131909
  10 H :    0.128800
  11 H :    0.127051
  12 H :    0.144446
  13 H :    0.177130
  14 H :    0.146234
  15 H :    0.145194
  16 H :    0.138324
  17 H :    0.144218

  Mayer bond orders larger than 0.1
B(  0-C ,  1-C ) :   0.8838 B(  0-C ,  9-H ) :   0.9425 B(  0-C , 10-H ) :   0.9338
B(  0-C , 11-H ) :   0.9348 B(  1-C ,  2-N ) :   0.9664 B(  1-C ,  3-C ) :   0.8933
B(  1-C , 12-H ) :   0.9172 B(  2-N ,  3-C ) :   0.8913 B(  2-N , 13-H ) :   0.8627
B(  3-C ,  4-C ) :   0.8593 B(  3-C ,  7-C ) :   0.9097 B(  4-C ,  5-C ) :   0.8897
B(  4-C ,  6-C ) :   0.8170 B(  4-C , 14-H ) :   0.9161 B(  5-C ,  6-C ) :   0.8351
B(  5-C , 15-H ) :   0.9254 B(  5-C , 16-H ) :   0.9218 B(  6-C ,  7-C ) :   0.9260
B(  6-C , 17-H ) :   0.9177 B(  7-C ,  8-O ) :   2.0099

MP2 TOTAL ENERGY:     -401.217155872 Eh
FINAL SINGLE POINT ENERGY      -401.217155871848

DIPOLE MOMENT
-------------
                                X             Y             Z
Electronic contribution:      0.53032      -7.35063       0.90972
Nuclear contribution   :     -0.56329       8.27075      -0.39979
                        -----------------------------------------
Total Dipole Moment    :     -0.03297       0.92012       0.50994
                        -----------------------------------------
Magnitude (a.u.)       :      1.05249
Magnitude (Debye)      :      2.67523

                             ****ORCA TERMINATED NORMALLY****
TOTAL RUN TIME: 0 days 0 hours 18 minutes 39 seconds 939 msec
