                         Program Version 3.0.3 - RELEASE   -
|  1> ! RI-MP2 RIJK def2-TZVP def2-TZVP/C def2-TZVP/JK TIGHTSCF
|  2> % maxcore 2000
|  3> % mp2 density relaxed end
|  4> *xyz 0 1
|  5>  C       -0.2963135364     1.4841339990    -0.0442403763
|  6>  C        0.1476036345     0.0120391219     0.0201955566
|  7>  C        0.8494261568    -0.4604659912    -1.2190617386
|  8>  C        2.1016907689    -0.9302099429    -1.3049583222
|  9>  C        2.4544592636    -1.3745274894    -2.6808498254
| 10>  C        1.6148010337    -2.5249622259    -3.2367541002
| 11>  C        1.2021232618    -1.1163254136    -3.5116028640
| 12>  O        1.2397638380    -0.7234407007    -4.8492187812
| 13>  C        0.1749099720    -0.4671348645    -2.5825804426
| 14>  H        0.5631377954     2.1451237777    -0.1953299826
| 15>  H       -0.9987530761     1.6557872156    -0.8660963505
| 16>  H       -0.7938842319     1.7810650372     0.8840361475
| 17>  H        0.8071102813    -0.1338828802     0.8833600623
| 18>  H       -0.7392526388    -0.6122619500     0.2012513246
| 19>  H        2.7821515948    -1.0182797273    -0.4638809606
| 20>  H        3.4507825861    -1.2305520654    -3.0843476160
| 21>  H        2.0283024652    -3.0537458818    -4.0888716616
| 22>  H        1.0438643626    -3.1311805031    -2.5404874829
| 23>  H        1.4789054167     0.2098494599    -4.8770297239
| 24>  H       -0.7797795643    -1.0083661043    -2.5758533331
| 25>  H       -0.0562830339     0.5527600092    -2.9252106693
| 26> *
| 27>
| 28>                          ****END OF INPUT****

CARTESIAN COORDINATES (ANGSTROEM)
---------------------------------
  C     -0.296314    1.484134   -0.044240
  C      0.147604    0.012039    0.020196
  C      0.849426   -0.460466   -1.219062
  C      2.101691   -0.930210   -1.304958
  C      2.454459   -1.374527   -2.680850
  C      1.614801   -2.524962   -3.236754
  C      1.202123   -1.116325   -3.511603
  O      1.239764   -0.723441   -4.849219
  C      0.174910   -0.467135   -2.582580
  H      0.563138    2.145124   -0.195330
  H     -0.998753    1.655787   -0.866096
  H     -0.793884    1.781065    0.884036
  H      0.807110   -0.133883    0.883360
  H     -0.739253   -0.612262    0.201251
  H      2.782152   -1.018280   -0.463881
  H      3.450783   -1.230552   -3.084348
  H      2.028302   -3.053746   -4.088872
  H      1.043864   -3.131181   -2.540487
  H      1.478905    0.209849   -4.877030
  H     -0.779780   -1.008366   -2.575853
  H     -0.056283    0.552760   -2.925211

 Total Charge           Charge          ....    0
 Multiplicity           Mult            ....    1
 Number of Electrons    NEL             ....   68
 Basis Dimension        Dim             ....  351

ORBITAL ENERGIES
----------------

  NO   OCC          E(Eh)            E(eV)
   0   2.0000     -20.561706      -559.5125
   1   2.0000     -11.282800      -307.0206
   2   2.0000     -11.228922      -305.5545
   3   2.0000     -11.228250      -305.5362
   4   2.0000     -11.227877      -305.5261
   5   2.0000     -11.226437      -305.4869
   6   2.0000     -11.220952      -305.3376
   7   2.0000     -11.219604      -305.3009
   8   2.0000     -11.218020      -305.2578
   9   2.0000      -1.372350       -37.3435
  10   2.0000      -1.170463       -31.8499
  11   2.0000      -1.072193       -29.1759
  12   2.0000      -0.996449       -27.1147
  13   2.0000      -0.956471       -26.0269
  14   2.0000      -0.870243       -23.6805
  15   2.0000      -0.801807       -21.8183
  16   2.0000      -0.775213       -21.0946
  17   2.0000      -0.722306       -19.6550
  18   2.0000      -0.700321       -19.0567
  19   2.0000      -0.637870       -17.3573
  20   2.0000      -0.618598       -16.8329
  21   2.0000      -0.605872       -16.4866
  22   2.0000      -0.595675       -16.2092
  23   2.0000      -0.573500       -15.6057
  24   2.0000      -0.547402       -14.8956
  25   2.0000      -0.538086       -14.6421
  26   2.0000      -0.523369       -14.2416
  27   2.0000      -0.512705       -13.9514
  28   2.0000      -0.507704       -13.8153
  29   2.0000      -0.479492       -13.0477
  30   2.0000      -0.462658       -12.5896
  31   2.0000      -0.430024       -11.7015
  32   2.0000      -0.386847       -10.5266
  33   2.0000      -0.321023        -8.7355
  34   0.0000       0.130542         3.5522
  35   0.0000       0.144036         3.9194
  36   0.0000       0.160259         4.3609
  37   0.0000       0.170326         4.6348
  38   0.0000       0.176339         4.7984

MULLIKEN ATOMIC CHARGES
-----------------------
   0 C :   -0.400196
   1 C :   -0.224864
   2 C :   -0.019062
   3 C :   -0.223500
   4 C :   -0.073646
   5 C :   -0.286081
   6 C :    0.192539
   7 O :   -0.460228
   8 C :   -0.210574
   9 H :    0.128760
  10 H :    0.126837
  11 H :    0.133422
  12 H :    0.117848
  13 H :    0.115762
  14 H :    0.122933
  15 H :    0.134621
  16 H :    0.131002
  17 H :    0.134373
  18 H :    0.319816
  19 H :    0.129243
  20 H :    0.110997
Sum of atomic charges:   -0.0000000

LOEWDIN ATOMIC CHARGES
----------------------
   0 C :   -0.311012
   1 C :   -0.257410
   2 C :   -0.160019
   3 C :   -0.122226
   4 C :   -0.176161
   5 C :   -0.173717
   6 C :   -0.331869
   7 O :    0.025292
   8 C :   -0.176616
   9 H :    0.121999
  10 H :    0.119838
  11 H :    0.120854
  12 H :    0.143379
  13 H :    0.143190
  14 H :    0.139748
  15 H :    0.144874
  16 H :    0.141728
  17 H :    0.135856
  18 H :    0.180706
  19 H :    0.148002
  20 H :    0.143565

  Mayer bond orders larger than 0.1
B(  0-C ,  1-C ) :   0.9104 B(  0-C ,  9-H ) :   0.9379 B(  0-C , 10-H ) :   0.9388
B(  0-C , 11-H ) :   0.9373 B(  1-C ,  2-C ) :   0.9084 B(  1-C , 12-H ) :   0.9420
B(  1-C , 13-H ) :   0.9253 B(  2-C ,  3-C ) :   1.7419 B(  2-C ,  8-C ) :   0.9406
B(  3-C ,  4-C ) :   0.9082 B(  3-C , 14-H ) :   0.9214 B(  4-C ,  5-C ) :   0.8710
B(  4-C ,  6-C ) :   0.8610 B(  4-C , 15-H ) :   0.9242 B(  5-C ,  6-C ) :   0.9020
B(  5-C , 16-H ) :   0.9234 B(  5-C , 17-H ) :   0.9212 B(  6-C ,  7-O ) :   1.0118
B(  6-C ,  8-C ) :   0.9341 B(  7-O , 18-H ) :   0.8399 B(  8-C , 19-H ) :   0.8942
B(  8-C , 20-H ) :   0.9137

MP2 TOTAL ENERGY:     -386.411515564 Eh
FINAL SINGLE POINT ENERGY      -386.411515563645

DIPOLE MOMENT
-------------
                                X             Y             Z
Electronic contribution:      3.36669      -3.20937      -5.77290
Nuclear contribution   :     -3.33679       3.64876       6.21000
                        -----------------------------------------
Total Dipole Moment    :      0.02990       0.43939       0.43709
                        -----------------------------------------
Magnitude (a.u.)       :      0.62049
Magnitude (Debye)      :      1.57716

                             ****ORCA TERMINATED NORMALLY****
TOTAL RUN TIME: 0 days 0 hours 19 minutes 26 seconds 434 msec
