                         Program Version 3.0.3 - RELEASE   -
|  1> ! RI-MP2 RIJK def2-TZVP def2-TZVP/C def2-TZVP/JK TIGHTSCF
|  2> % maxcore 2000
|  3> % mp2 density relaxed end
|  4> *xyz 0 1
|  5>  O        0.1250710608     1.4176642095    -0.0087187482
|  6>  C        0.0901096645     0.0054461266    -0.0356333968
|  7>  C       -1.3490241217    -0.5079106961    -0.0406198513
|  8>  O       -1.9550327482     0.0583988416     1.1207178555
|  9>  C       -2.1235123677    -0.0523733768    -1.2884400460
| 10>  O       -3.4528462956    -0.5658408479    -1.2271260849
| 11>  C       -3.4375904432    -1.9704886976    -1.1700214626
| 12>  O       -2.7990615558    -2.4500060133    -0.0162065499
| 13>  C       -1.4340167072    -2.0399129851     0.0311055056
| 14>  H       -0.4730852171     1.6747265868     0.7047388390
| 15>  H        0.6131241474    -0.3138979746    -0.9430984154
| 16>  H        0.6171908796    -0.4284631193     0.8295217388
| 17>  H       -2.8990397949    -0.1326628246     1.0591721927
| 18>  H       -2.1946695341     1.0352415046    -1.3169543016
| 19>  H       -1.6221123980    -0.4026314232    -2.2047860137
| 20>  H       -4.4756909180    -2.3044279465    -1.1252528896
| 21>  H       -2.9397137127    -2.3732037131    -2.0726082863
| 22>  H       -0.8684029780    -2.4999386956    -0.7961252417
| 23>  H       -1.0333320901    -2.4009030455     0.9809750464
| 24> *
| 25>
| 26>                          ****END OF INPUT****

CARTESIAN COORDINATES (ANGSTROEM)
---------------------------------
  O      0.125071    1.417664   -0.008719
  C      0.090110    0.005446   -0.035633
  C     -1.349024   -0.507911   -0.040620
  O     -1.955033    0.058399    1.120718
  C     -2.123512   -0.052373   -1.288440
  O     -3.452846   -0.565841   -1.227126
  C     -3.437590   -1.970489   -1.170021
  O     -2.799062   -2.450006   -0.016207
  C     -1.434017   -2.039913    0.031106
  H     -0.473085    1.674727    0.704739
  H      0.613124   -0.313898   -0.943098
  H      0.617191   -0.428463    0.829522
  H     -2.899040   -0.132663    1.059172
  H     -2.194670    1.035242   -1.316954
  H     -1.622112   -0.402631   -2.204786
  H     -4.475691   -2.304428   -1.125253
  H     -2.939714   -2.373204   -2.072608
  H     -0.868403   -2.499939   -0.796125
  H     -1.033332   -2.400903    0.980975

 Total Charge           Charge          ....    0
 Multiplicity           Mult            ....    1
 Number of Electrons    NEL             ....   72
 Basis Dimension        Dim             ....  339

ORBITAL ENERGIES
----------------

  NO   OCC          E(Eh)            E(eV)
   0   2.0000     -20.578262      -559.9630
   1   2.0000     -20.577872      -559.9524
   2   2.0000     -20.566855      -559.6526
   3   2.0000     -20.557615      -559.4012
   4   2.0000     -11.340396      -308.5879
   5   2.0000     -11.297523      -307.4212
   6   2.0000     -11.292487      -307.2842
   7   2.0000     -11.288499      -307.1757
   8   2.0000     -11.285536      -307.0950
   9   2.0000      -1.442294       -39.2468
  10   2.0000      -1.384405       -37.6716
  11   2.0000      -1.360311       -37.0160
  12   2.0000      -1.354188       -36.8493
  13   2.0000      -1.073799       -29.2195
  14   2.0000      -0.961285       -26.1579
  15   2.0000      -0.936507       -25.4837
  16   2.0000      -0.879563       -23.9341
  17   2.0000      -0.799382       -21.7523
  18   2.0000      -0.744506       -20.2590
  19   2.0000      -0.707884       -19.2625
  20   2.0000      -0.690897       -18.8003
  21   2.0000      -0.675266       -18.3749
  22   2.0000      -0.668578       -18.1929
  23   2.0000      -0.636553       -17.3215
  24   2.0000      -0.625777       -17.0283
  25   2.0000      -0.595572       -16.2063
  26   2.0000      -0.585243       -15.9253
  27   2.0000      -0.583348       -15.8737
  28   2.0000      -0.553088       -15.0503
  29   2.0000      -0.523769       -14.2525
  30   2.0000      -0.507518       -13.8103
  31   2.0000      -0.499878       -13.6024
  32   2.0000      -0.489793       -13.3280
  33   2.0000      -0.456199       -12.4138
  34   2.0000      -0.443346       -12.0641
  35   2.0000      -0.421482       -11.4691
  36   0.0000       0.132655         3.6097
  37   0.0000       0.160674         4.3722
  38   0.0000       0.168063         4.5732
  39   0.0000       0.180231         4.9043
  40   0.0000       0.193167         5.2564

MULLIKEN ATOMIC CHARGES
-----------------------
   0 O :   -0.477948
   1 C :    0.003906
   2 C :    0.076169
   3 O :   -0.496570
   4 C :   -0.070842
   5 O :   -0.315323
   6 C :    0.061320
   7 O :   -0.308449
   8 C :   -0.077552
   9 H :    0.333994
  10 H :    0.109707
  11 H :    0.108412
  12 H :    0.336690
  13 H :    0.142723
  14 H :    0.105978
  15 H :    0.138945
  16 H :    0.088186
  17 H :    0.107036
  18 H :    0.133617
Sum of atomic charges:    0.0000000

LOEWDIN ATOMIC CHARGES
----------------------
   0 O :   -0.037386
   1 C :   -0.307097
   2 C :   -0.416146
   3 O :    0.006614
   4 C :   -0.275082
   5 O :    0.150881
   6 C :   -0.398532
   7 O :    0.155862
   8 C :   -0.274191
   9 H :    0.182149
  10 H :    0.134142
  11 H :    0.126746
  12 H :    0.183251
  13 H :    0.139171
  14 H :    0.129044
  15 H :    0.125538
  16 H :    0.108462
  17 H :    0.128324
  18 H :    0.138250

  Mayer bond orders larger than 0.1
B(  0-O ,  1-C ) :   0.9465 B(  0-O ,  9-H ) :   0.8241 B(  1-C ,  2-C ) :   0.9224
B(  1-C , 10-H ) :   0.9192 B(  1-C , 11-H ) :   0.9312 B(  2-C ,  3-O ) :   0.8765
B(  2-C ,  4-C ) :   0.9212 B(  2-C ,  8-C ) :   0.9129 B(  3-O , 12-H ) :   0.8196
B(  4-C ,  5-O ) :   0.8875 B(  4-C , 13-H ) :   0.9213 B(  4-C , 14-H ) :   0.9353
B(  5-O ,  6-C ) :   0.9681 B(  6-C ,  7-O ) :   0.9787 B(  6-C , 15-H ) :   0.9288
B(  6-C , 16-H ) :   0.9293 B(  7-O ,  8-C ) :   0.8983 B(  8-C , 17-H ) :   0.9373
B(  8-C , 18-H ) :   0.9195

MP2 TOTAL ENERGY:     -496.545138422 Eh
FINAL SINGLE POINT ENERGY      -496.545138421585

DIPOLE MOMENT
-------------
                                X             Y             Z
Electronic contribution:     -2.71256       0.86032       1.58462
Nuclear contribution   :      2.71195      -1.49392      -1.97339
                        -----------------------------------------
Total Dipole Moment    :     -0.00061      -0.63360      -0.38876
                        -----------------------------------------
Magnitude (a.u.)       :      0.74336
Magnitude (Debye)      :      1.88947

                             ****ORCA TERMINATED NORMALLY****
TOTAL RUN TIME: 0 days 0 hours 15 minutes 50 seconds 82 msec
