                         Program Version 3.0.3 - RELEASE   -
|  1> ! RI-MP2 RIJK def2-TZVP def2-TZVP/C def2-TZVP/JK TIGHTSCF
|  2> % maxcore 2000
|  3> % mp2 density relaxed end
|  4> *xyz 0 1
|  5>  C       -0.0499563375     1.5378061446     0.0431945925
|  6>  C       -0.0353270810     0.0342364071    -0.0307417199
|  7>  C        0.3495102387    -0.8135237325    -1.2946702268
|  8>  C       -0.3073139381    -1.9509106861    -0.4758254828
|  9>  N        0.6512040852    -2.0496857676     0.6436586677
| 10>  C        0.7775766828    -0.7141664726     1.0484777202
| 11>  O        1.3548851073    -0.2768395857     2.0092387802
| 12>  C       -1.3220694145    -0.8597798584     0.0096958257
| 13>  O       -1.9276196620    -0.9733909302     1.2662383792
| 14>  H        0.9659962088     1.9393899004    -0.0207708059
| 15>  H       -0.6446605484     1.9724218969    -0.7663656355
| 16>  H       -0.4709642316     1.8648123712     0.9984374649
| 17>  H       -0.2144621006    -0.5232080634    -2.1839016274
| 18>  H        1.4099629329    -0.9308580317    -1.5207033072
| 19>  H       -0.5940372937    -2.9106416169    -0.9023647548
| 20>  H        0.5046198986    -2.7347427505     1.3720741507
| 21>  H       -2.0369154324    -0.5731879625    -0.7725578232
| 22>  H       -2.7517232045    -1.4611697521     1.1748651426
| 23> *
| 24>
| 25>                          ****END OF INPUT****

CARTESIAN COORDINATES (ANGSTROEM)
---------------------------------
  C     -0.049956    1.537806    0.043195
  C     -0.035327    0.034236   -0.030742
  C      0.349510   -0.813524   -1.294670
  C     -0.307314   -1.950911   -0.475825
  N      0.651204   -2.049686    0.643659
  C      0.777577   -0.714166    1.048478
  O      1.354885   -0.276840    2.009239
  C     -1.322069   -0.859780    0.009696
  O     -1.927620   -0.973391    1.266238
  H      0.965996    1.939390   -0.020771
  H     -0.644661    1.972422   -0.766366
  H     -0.470964    1.864812    0.998437
  H     -0.214462   -0.523208   -2.183902
  H      1.409963   -0.930858   -1.520703
  H     -0.594037   -2.910642   -0.902365
  H      0.504620   -2.734743    1.372074
  H     -2.036915   -0.573188   -0.772558
  H     -2.751723   -1.461170    1.174865

 Total Charge           Charge          ....    0
 Multiplicity           Mult            ....    1
 Number of Electrons    NEL             ....   68
 Basis Dimension        Dim             ....  333

ORBITAL ENERGIES
----------------

  NO   OCC          E(Eh)            E(eV)
   0   2.0000     -20.577631      -559.9458
   1   2.0000     -20.525103      -558.5164
   2   2.0000     -15.570365      -423.6912
   3   2.0000     -11.342412      -308.6427
   4   2.0000     -11.304543      -307.6123
   5   2.0000     -11.284220      -307.0592
   6   2.0000     -11.257968      -306.3449
   7   2.0000     -11.246035      -306.0202
   8   2.0000     -11.219400      -305.2954
   9   2.0000      -1.395835       -37.9826
  10   2.0000      -1.379452       -37.5368
  11   2.0000      -1.266796       -34.4713
  12   2.0000      -1.110507       -30.2184
  13   2.0000      -0.995323       -27.0841
  14   2.0000      -0.908501       -24.7216
  15   2.0000      -0.897024       -24.4093
  16   2.0000      -0.809957       -22.0401
  17   2.0000      -0.729018       -19.8376
  18   2.0000      -0.725663       -19.7463
  19   2.0000      -0.689558       -18.7638
  20   2.0000      -0.666853       -18.1460
  21   2.0000      -0.628679       -17.1072
  22   2.0000      -0.600736       -16.3469
  23   2.0000      -0.593139       -16.1401
  24   2.0000      -0.573929       -15.6174
  25   2.0000      -0.556718       -15.1491
  26   2.0000      -0.542041       -14.7497
  27   2.0000      -0.530745       -14.4423
  28   2.0000      -0.525306       -14.2943
  29   2.0000      -0.486686       -13.2434
  30   2.0000      -0.457958       -12.4617
  31   2.0000      -0.452713       -12.3190
  32   2.0000      -0.406428       -11.0595
  33   2.0000      -0.381167       -10.3721
  34   0.0000       0.120399         3.2762
  35   0.0000       0.142146         3.8680
  36   0.0000       0.153726         4.1831
  37   0.0000       0.160384         4.3643
  38   0.0000       0.183428         4.9913

MULLIKEN ATOMIC CHARGES
-----------------------
   0 C :   -0.401915
   1 C :    0.113403
   2 C :   -0.289983
   3 C :    0.051634
   4 N :   -0.331648
   5 C :    0.170308
   6 O :   -0.295039
   7 C :   -0.072408
   8 O :   -0.451338
   9 H :    0.145720
  10 H :    0.127740
  11 H :    0.154568
  12 H :    0.127857
  13 H :    0.138437
  14 H :    0.149929
  15 H :    0.235363
  16 H :    0.105729
  17 H :    0.321644
Sum of atomic charges:   -0.0000000

LOEWDIN ATOMIC CHARGES
----------------------
   0 C :   -0.266290
   1 C :   -0.217100
   2 C :   -0.165821
   3 C :   -0.225241
   4 N :    0.100183
   5 C :   -0.383477
   6 O :    0.126742
   7 C :   -0.284373
   8 O :    0.007653
   9 H :    0.136071
  10 H :    0.126330
  11 H :    0.139957
  12 H :    0.138948
  13 H :    0.137553
  14 H :    0.130321
  15 H :    0.181408
  16 H :    0.137178
  17 H :    0.179958

  Mayer bond orders larger than 0.1
B(  0-C ,  1-C ) :   0.8653 B(  0-C ,  9-H ) :   0.9364 B(  0-C , 10-H ) :   0.9440
B(  0-C , 11-H ) :   0.9370 B(  1-C ,  2-C ) :   0.8816 B(  1-C ,  4-N ) :  -0.1057
B(  1-C ,  5-C ) :   0.8473 B(  1-C ,  7-C ) :   0.8518 B(  2-C ,  3-C ) :   0.8841
B(  2-C , 12-H ) :   0.9216 B(  2-C , 13-H ) :   0.9091 B(  3-C ,  4-N ) :   0.9022
B(  3-C ,  7-C ) :   0.8593 B(  3-C ,  8-O ) :  -0.1421 B(  3-C , 14-H ) :   0.9114
B(  4-N ,  5-C ) :   1.1334 B(  4-N , 15-H ) :   0.8589 B(  5-C ,  6-O ) :   2.0454
B(  7-C ,  8-O ) :   1.1870 B(  7-C , 16-H ) :   0.9786 B(  8-O , 17-H ) :   0.8388

MP2 TOTAL ENERGY:     -438.387984063 Eh
FINAL SINGLE POINT ENERGY      -438.387984062573

DIPOLE MOMENT
-------------
                                X             Y             Z
Electronic contribution:      1.54511      -3.21491       4.47111
Nuclear contribution   :     -2.86913       2.51045      -5.76634
                        -----------------------------------------
Total Dipole Moment    :     -1.32402      -0.70446      -1.29523
                        -----------------------------------------
Magnitude (a.u.)       :      1.98165
Magnitude (Debye)      :      5.03695

                             ****ORCA TERMINATED NORMALLY****
TOTAL RUN TIME: 0 days 0 hours 18 minutes 55 seconds 992 msec
