                         Program Version 3.0.3 - RELEASE   -
|  1> ! RI-MP2 RIJK def2-TZVP def2-TZVP/C def2-TZVP/JK TIGHTSCF
|  2> % maxcore 2000
|  3> % mp2 density relaxed end
|  4> *xyz 0 1
|  5>  C        0.1389968314     1.5938131581     0.0438587815
|  6>  C        0.0288733895     0.0632362871     0.0436951289
|  7>  C        0.7393052118    -0.5283123438     1.2629808615
|  8>  O        2.1147332132    -0.1754381475     1.2038951952
|  9>  C       -1.4252064006    -0.4364913501    -0.0080711472
| 10>  C       -2.1849318031    -0.0740052524    -1.2901117944
| 11>  C       -3.5962958550    -0.6680816229    -1.3295040152
| 12>  C       -4.3587137174    -0.3089637469    -2.5977801989
| 13>  O       -5.6437755089    -0.9094149434    -2.5243639238
| 14>  H        1.1813002667     1.8973660070     0.1635123460
| 15>  H       -0.2389044304     2.0290578897    -0.8853241348
| 16>  H       -0.4365025367     2.0242461369     0.8733182496
| 17>  H        0.5574777995    -0.3208224330    -0.8405975335
| 18>  H        0.2702953991    -0.1423237395     2.1840536246
| 19>  H        0.6154834426    -1.6232947712     1.2660380270
| 20>  H        2.5394388238    -0.4828936520     2.0094804158
| 21>  H       -1.4298900037    -1.5297876394     0.1017347965
| 22>  H       -1.9740438706    -0.0425754236     0.8596153693
| 23>  H       -2.2494689922     1.0165494336    -1.3904955366
| 24>  H       -1.6133656809    -0.4274313884    -2.1598091213
| 25>  H       -3.5493601854    -1.7613807424    -1.2513265958
| 26>  H       -4.1770914639    -0.3200078269    -0.4662091701
| 27>  H       -4.4361357175     0.7874417315    -2.6871403056
| 28>  H       -3.8020064840    -0.6666716399    -3.4799105246
| 29>  H       -6.1263527673    -0.6849467903    -3.3250715940
| 30> *
| 31>
| 32>                          ****END OF INPUT****

CARTESIAN COORDINATES (ANGSTROEM)
---------------------------------
  C      0.138997    1.593813    0.043859
  C      0.028873    0.063236    0.043695
  C      0.739305   -0.528312    1.262981
  O      2.114733   -0.175438    1.203895
  C     -1.425206   -0.436491   -0.008071
  C     -2.184932   -0.074005   -1.290112
  C     -3.596296   -0.668082   -1.329504
  C     -4.358714   -0.308964   -2.597780
  O     -5.643776   -0.909415   -2.524364
  H      1.181300    1.897366    0.163512
  H     -0.238904    2.029058   -0.885324
  H     -0.436503    2.024246    0.873318
  H      0.557478   -0.320822   -0.840598
  H      0.270295   -0.142324    2.184054
  H      0.615483   -1.623295    1.266038
  H      2.539439   -0.482894    2.009480
  H     -1.429890   -1.529788    0.101735
  H     -1.974044   -0.042575    0.859615
  H     -2.249469    1.016549   -1.390496
  H     -1.613366   -0.427431   -2.159809
  H     -3.549360   -1.761381   -1.251327
  H     -4.177091   -0.320008   -0.466209
  H     -4.436136    0.787442   -2.687140
  H     -3.802006   -0.666672   -3.479911
  H     -6.126353   -0.684947   -3.325072

 Total Charge           Charge          ....    0
 Multiplicity           Mult            ....    1
 Number of Electrons    NEL             ....   74
 Basis Dimension        Dim             ....  375

ORBITAL ENERGIES
----------------

  NO   OCC          E(Eh)            E(eV)
   0   2.0000     -20.552619      -559.2652
   1   2.0000     -20.552215      -559.2542
   2   2.0000     -11.271899      -306.7240
   3   2.0000     -11.270674      -306.6906
   4   2.0000     -11.221887      -305.3631
   5   2.0000     -11.219207      -305.2901
   6   2.0000     -11.218018      -305.2578
   7   2.0000     -11.214568      -305.1639
   8   2.0000     -11.203340      -304.8584
   9   2.0000      -1.356911       -36.9234
  10   2.0000      -1.355921       -36.8965
  11   2.0000      -1.094281       -29.7769
  12   2.0000      -1.044216       -28.4146
  13   2.0000      -0.955879       -26.0108
  14   2.0000      -0.917310       -24.9613
  15   2.0000      -0.854148       -23.2425
  16   2.0000      -0.795967       -21.6593
  17   2.0000      -0.765651       -20.8344
  18   2.0000      -0.691836       -18.8258
  19   2.0000      -0.689280       -18.7563
  20   2.0000      -0.661182       -17.9917
  21   2.0000      -0.644755       -17.5447
  22   2.0000      -0.608229       -16.5507
  23   2.0000      -0.595120       -16.1940
  24   2.0000      -0.580080       -15.7848
  25   2.0000      -0.564522       -15.3614
  26   2.0000      -0.541588       -14.7374
  27   2.0000      -0.525237       -14.2924
  28   2.0000      -0.512855       -13.9555
  29   2.0000      -0.507898       -13.8206
  30   2.0000      -0.484265       -13.1775
  31   2.0000      -0.474870       -12.9219
  32   2.0000      -0.460630       -12.5344
  33   2.0000      -0.454187       -12.3590
  34   2.0000      -0.443313       -12.0632
  35   2.0000      -0.440381       -11.9834
  36   2.0000      -0.438138       -11.9223
  37   0.0000       0.133833         3.6418
  38   0.0000       0.138422         3.7666
  39   0.0000       0.150206         4.0873
  40   0.0000       0.162503         4.4219
  41   0.0000       0.167730         4.5642

MULLIKEN ATOMIC CHARGES
-----------------------
   0 C :   -0.431159
   1 C :    0.025808
   2 C :   -0.066389
   3 O :   -0.469943
   4 C :   -0.255796
   5 C :   -0.273912
   6 C :   -0.148969
   7 C :   -0.063139
   8 O :   -0.466086
   9 H :    0.158861
  10 H :    0.131412
  11 H :    0.111909
  12 H :    0.083784
  13 H :    0.091893
  14 H :    0.097403
  15 H :    0.315191
  16 H :    0.111501
  17 H :    0.109996
  18 H :    0.113694
  19 H :    0.109067
  20 H :    0.110260
  21 H :    0.109924
  22 H :    0.090197
  23 H :    0.090337
  24 H :    0.314156
Sum of atomic charges:    0.0000000

LOEWDIN ATOMIC CHARGES
----------------------
   0 C :   -0.294905
   1 C :   -0.290670
   2 C :   -0.331288
   3 O :   -0.049188
   4 C :   -0.247188
   5 C :   -0.266738
   6 C :   -0.272354
   7 C :   -0.354393
   8 O :   -0.054085
   9 H :    0.129234
  10 H :    0.119917
  11 H :    0.122082
  12 H :    0.154389
  13 H :    0.116675
  14 H :    0.116273
  15 H :    0.171623
  16 H :    0.140088
  17 H :    0.139315
  18 H :    0.136758
  19 H :    0.137590
  20 H :    0.139375
  21 H :    0.139856
  22 H :    0.113308
  23 H :    0.113427
  24 H :    0.170900

  Mayer bond orders larger than 0.1
B(  0-C ,  1-C ) :   0.9103 B(  0-C ,  9-H ) :   0.9344 B(  0-C , 10-H ) :   0.9409
B(  0-C , 11-H ) :   0.9294 B(  1-C ,  2-C ) :   0.9277 B(  1-C ,  4-C ) :   0.9164
B(  1-C , 12-H ) :   0.9208 B(  2-C ,  3-O ) :   1.0177 B(  2-C , 13-H ) :   0.9228
B(  2-C , 14-H ) :   0.9349 B(  3-O , 15-H ) :   0.8486 B(  4-C ,  5-C ) :   0.9440
B(  4-C , 16-H ) :   0.9321 B(  4-C , 17-H ) :   0.9214 B(  5-C ,  6-C ) :   0.9242
B(  5-C , 18-H ) :   0.9295 B(  5-C , 19-H ) :   0.9259 B(  6-C ,  7-C ) :   0.9392
B(  6-C , 20-H ) :   0.9264 B(  6-C , 21-H ) :   0.9237 B(  7-C ,  8-O ) :   1.0228
B(  7-C , 22-H ) :   0.9332 B(  7-C , 23-H ) :   0.9331 B(  8-O , 24-H ) :   0.8500

MP2 TOTAL ENERGY:     -425.927098894 Eh
FINAL SINGLE POINT ENERGY      -425.927098893975

DIPOLE MOMENT
-------------
                                X             Y             Z
Electronic contribution:     -0.45445      -2.20833      -0.25673
Nuclear contribution   :      0.45526       2.24507       0.24423
                        -----------------------------------------
Total Dipole Moment    :      0.00081       0.03674      -0.01250
                        -----------------------------------------
Magnitude (a.u.)       :      0.03882
Magnitude (Debye)      :      0.09867

                             ****ORCA TERMINATED NORMALLY****
TOTAL RUN TIME: 0 days 0 hours 17 minutes 32 seconds 860 msec
