                         Program Version 3.0.3 - RELEASE   -
|  1> ! RI-MP2 RIJK def2-TZVP def2-TZVP/C def2-TZVP/JK TIGHTSCF
|  2> % maxcore 2000
|  3> % mp2 density relaxed end
|  4> *xyz 0 1
|  5>  C       -0.0350377901     1.3623494549    -0.0290667679
|  6>  O       -0.0343184096    -0.0468391636    -0.0665858634
|  7>  C        0.6278768124    -0.6053483988     1.0484202586
|  8>  C        0.6072613755    -2.0587872386     0.9725849129
|  9>  C        0.6130921417    -3.2619683662     0.9489858108
| 10>  C        0.6207458016    -4.6972545573     0.9221163278
| 11>  N        1.1725173013    -5.3637773444     1.8531934832
| 12>  O       -0.0193730110    -5.1483490053    -0.1921137896
| 13>  C       -0.0990437057    -6.5549329721    -0.3678098423
| 14>  H        0.9873359460     1.7725815152    -0.0375932022
| 15>  H       -0.5627540956     1.7071311378    -0.9206430149
| 16>  H       -0.5521700028     1.7478146195     0.8640196855
| 17>  H        1.6748861148    -0.2568074293     1.0957371482
| 18>  H        0.1488534436    -0.2817696845     1.9895747673
| 19>  H        1.1038883301    -6.3696750324     1.7068681624
| 20>  H        0.8976188899    -7.0064718188    -0.4454524381
| 21>  H       -0.6487117630    -7.0311466540     0.4533688714
| 22>  H       -0.6395768791    -6.7097546219    -1.3020040398
| 23> *
| 24>
| 25>                          ****END OF INPUT****

CARTESIAN COORDINATES (ANGSTROEM)
---------------------------------
  C     -0.035038    1.362349   -0.029067
  O     -0.034318   -0.046839   -0.066586
  C      0.627877   -0.605348    1.048420
  C      0.607261   -2.058787    0.972585
  C      0.613092   -3.261968    0.948986
  C      0.620746   -4.697255    0.922116
  N      1.172517   -5.363777    1.853193
  O     -0.019373   -5.148349   -0.192114
  C     -0.099044   -6.554933   -0.367810
  H      0.987336    1.772582   -0.037593
  H     -0.562754    1.707131   -0.920643
  H     -0.552170    1.747815    0.864020
  H      1.674886   -0.256807    1.095737
  H      0.148853   -0.281770    1.989575
  H      1.103888   -6.369675    1.706868
  H      0.897619   -7.006472   -0.445452
  H     -0.648712   -7.031147    0.453369
  H     -0.639577   -6.709755   -1.302004

 Total Charge           Charge          ....    0
 Multiplicity           Mult            ....    1
 Number of Electrons    NEL             ....   68
 Basis Dimension        Dim             ....  333

ORBITAL ENERGIES
----------------

  NO   OCC          E(Eh)            E(eV)
   0   2.0000     -20.604786      -560.6847
   1   2.0000     -20.569864      -559.7345
   2   2.0000     -15.547116      -423.0585
   3   2.0000     -11.364357      -309.2399
   4   2.0000     -11.312391      -307.8258
   5   2.0000     -11.297303      -307.4152
   6   2.0000     -11.279926      -306.9424
   7   2.0000     -11.245688      -306.0107
   8   2.0000     -11.235498      -305.7334
   9   2.0000      -1.436529       -39.0899
  10   2.0000      -1.390900       -37.8483
  11   2.0000      -1.205795       -32.8114
  12   2.0000      -1.069157       -29.0932
  13   2.0000      -1.005502       -27.3611
  14   2.0000      -0.965209       -26.2647
  15   2.0000      -0.901484       -24.5306
  16   2.0000      -0.842825       -22.9344
  17   2.0000      -0.740580       -20.1522
  18   2.0000      -0.702380       -19.1127
  19   2.0000      -0.683791       -18.6069
  20   2.0000      -0.681592       -18.5471
  21   2.0000      -0.672442       -18.2981
  22   2.0000      -0.664997       -18.0955
  23   2.0000      -0.605784       -16.4842
  24   2.0000      -0.576456       -15.6862
  25   2.0000      -0.569389       -15.4939
  26   2.0000      -0.539668       -14.6851
  27   2.0000      -0.537470       -14.6253
  28   2.0000      -0.501577       -13.6486
  29   2.0000      -0.452725       -12.3193
  30   2.0000      -0.448027       -12.1914
  31   2.0000      -0.432843       -11.7783
  32   2.0000      -0.401379       -10.9221
  33   2.0000      -0.371562       -10.1107
  34   0.0000       0.122727         3.3396
  35   0.0000       0.132496         3.6054
  36   0.0000       0.137049         3.7293
  37   0.0000       0.170134         4.6296
  38   0.0000       0.176859         4.8126

MULLIKEN ATOMIC CHARGES
-----------------------
   0 C :   -0.216464
   1 O :   -0.283055
   2 C :   -0.195702
   3 C :    0.072233
   4 C :    0.221298
   5 C :   -0.003351
   6 N :   -0.374255
   7 O :   -0.229696
   8 C :   -0.281360
   9 H :    0.113690
  10 H :    0.145428
  11 H :    0.113696
  12 H :    0.129149
  13 H :    0.129178
  14 H :    0.218665
  15 H :    0.141918
  16 H :    0.141928
  17 H :    0.156699
Sum of atomic charges:    0.0000000

LOEWDIN ATOMIC CHARGES
----------------------
   0 C :   -0.356497
   1 O :    0.142974
   2 C :   -0.312899
   3 C :   -0.027400
   4 C :   -0.006098
   5 C :   -0.411650
   6 N :   -0.035467
   7 O :    0.236014
   8 C :   -0.332298
   9 H :    0.102455
  10 H :    0.116274
  11 H :    0.102456
  12 H :    0.140146
  13 H :    0.140148
  14 H :    0.160562
  15 H :    0.109951
  16 H :    0.109957
  17 H :    0.121370

  Mayer bond orders larger than 0.1
B(  0-C ,  1-O ) :   0.9122 B(  0-C ,  9-H ) :   0.9363 B(  0-C , 10-H ) :   0.9381
B(  0-C , 11-H ) :   0.9363 B(  1-O ,  2-C ) :   1.0446 B(  2-C ,  3-C ) :   1.0083
B(  2-C , 12-H ) :   0.9297 B(  2-C , 13-H ) :   0.9297 B(  3-C ,  4-C ) :   2.7043
B(  4-C ,  5-C ) :   1.0149 B(  5-C ,  6-N ) :   1.9923 B(  5-C ,  7-O ) :   1.2056
B(  6-N , 14-H ) :   0.8615 B(  7-O ,  8-C ) :   0.8644 B(  8-C , 15-H ) :   0.9324
B(  8-C , 16-H ) :   0.9324 B(  8-C , 17-H ) :   0.9363

MP2 TOTAL ENERGY:     -438.296837126 Eh
FINAL SINGLE POINT ENERGY      -438.296837126305

DIPOLE MOMENT
-------------
                                X             Y             Z
Electronic contribution:      0.63973      -3.63826       0.99664
Nuclear contribution   :     -0.80399       3.58073      -1.28356
                        -----------------------------------------
Total Dipole Moment    :     -0.16426      -0.05753      -0.28692
                        -----------------------------------------
Magnitude (a.u.)       :      0.33558
Magnitude (Debye)      :      0.85298

                             ****ORCA TERMINATED NORMALLY****
TOTAL RUN TIME: 0 days 0 hours 13 minutes 18 seconds 456 msec
