                         Program Version 3.0.3 - RELEASE   -
|  1> ! RI-MP2 RIJK def2-TZVP def2-TZVP/C def2-TZVP/JK TIGHTSCF
|  2> % maxcore 2000
|  3> % mp2 density relaxed end
|  4> *xyz 0 1
|  5>  N       -0.0005055223     1.3318003659     0.2038063648
|  6>  C        0.0147639187    -0.0218391877     0.0147005069
|  7>  N        1.2404959126    -0.5914644736    -0.2546203902
|  8>  H        1.2605833708    -1.5950485572    -0.3334079796
|  9>  H        2.0340130756    -0.1985319943     0.2299477570
| 10>  C       -1.1597562099    -0.7252580859     0.0874619990
| 11>  N       -1.3029599960    -2.1348196854     0.0078595006
| 12>  C       -2.6644017287    -2.3927640440     0.0059603894
| 13>  C       -3.4026845237    -1.2535875850    -0.0429002799
| 14>  C       -2.4872356882    -0.1169485844     0.0399877071
| 15>  O       -2.7388591690     1.1004865048     0.0460042603
| 16>  H        0.6726803378     1.8522118409    -0.3405552877
| 17>  H       -0.9624248437     1.6955961127     0.1909528714
| 18>  H       -0.7164535740    -2.7329365354     0.5742264568
| 19>  H       -3.0008740810    -3.4205337075     0.0288984291
| 20>  H       -4.4763407290    -1.1820451040    -0.1206004849
| 21> *
| 22>
| 23>                          ****END OF INPUT****

CARTESIAN COORDINATES (ANGSTROEM)
---------------------------------
  N     -0.000506    1.331800    0.203806
  C      0.014764   -0.021839    0.014701
  N      1.240496   -0.591464   -0.254620
  H      1.260583   -1.595049   -0.333408
  H      2.034013   -0.198532    0.229948
  C     -1.159756   -0.725258    0.087462
  N     -1.302960   -2.134820    0.007860
  C     -2.664402   -2.392764    0.005960
  C     -3.402685   -1.253588   -0.042900
  C     -2.487236   -0.116949    0.039988
  O     -2.738859    1.100487    0.046004
  H      0.672680    1.852212   -0.340555
  H     -0.962425    1.695596    0.190953
  H     -0.716454   -2.732937    0.574226
  H     -3.000874   -3.420534    0.028898
  H     -4.476341   -1.182045   -0.120600

 Total Charge           Charge          ....    0
 Multiplicity           Mult            ....    1
 Number of Electrons    NEL             ....   66
 Basis Dimension        Dim             ....  321

ORBITAL ENERGIES
----------------

  NO   OCC          E(Eh)            E(eV)
   0   2.0000     -20.491405      -557.5995
   1   2.0000     -15.596317      -424.3973
   2   2.0000     -15.591177      -424.2575
   3   2.0000     -15.568066      -423.6286
   4   2.0000     -11.342935      -308.6570
   5   2.0000     -11.300821      -307.5110
   6   2.0000     -11.288114      -307.1652
   7   2.0000     -11.231735      -305.6310
   8   2.0000     -11.209146      -305.0164
   9   2.0000      -1.336067       -36.3562
  10   2.0000      -1.292544       -35.1719
  11   2.0000      -1.266489       -34.4629
  12   2.0000      -1.178069       -32.0569
  13   2.0000      -1.031154       -28.0591
  14   2.0000      -1.002690       -27.2846
  15   2.0000      -0.864730       -23.5305
  16   2.0000      -0.794540       -21.6205
  17   2.0000      -0.772181       -21.0121
  18   2.0000      -0.734802       -19.9950
  19   2.0000      -0.705972       -19.2105
  20   2.0000      -0.679844       -18.4995
  21   2.0000      -0.633399       -17.2357
  22   2.0000      -0.618877       -16.8405
  23   2.0000      -0.595009       -16.1910
  24   2.0000      -0.587558       -15.9883
  25   2.0000      -0.571146       -15.5417
  26   2.0000      -0.562378       -15.3031
  27   2.0000      -0.531797       -14.4709
  28   2.0000      -0.486614       -13.2414
  29   2.0000      -0.436578       -11.8799
  30   2.0000      -0.386998       -10.5307
  31   2.0000      -0.341659        -9.2970
  32   2.0000      -0.287169        -7.8143
  33   0.0000       0.099970         2.7203
  34   0.0000       0.110906         3.0179
  35   0.0000       0.141051         3.8382
  36   0.0000       0.165030         4.4907
  37   0.0000       0.178768         4.8645

MULLIKEN ATOMIC CHARGES
-----------------------
   0 N :   -0.488975
   1 C :    0.178184
   2 N :   -0.520050
   3 H :    0.250207
   4 H :    0.263712
   5 C :    0.120920
   6 N :   -0.351988
   7 C :   -0.045952
   8 C :   -0.217918
   9 C :    0.215284
  10 O :   -0.460742
  11 H :    0.249377
  12 H :    0.293295
  13 H :    0.238968
  14 H :    0.141051
  15 H :    0.134628
Sum of atomic charges:   -0.0000000

LOEWDIN ATOMIC CHARGES
----------------------
   0 N :   -0.019428
   1 C :   -0.320552
   2 N :   -0.037970
   3 H :    0.171795
   4 H :    0.174061
   5 C :   -0.215197
   6 N :    0.118269
   7 C :   -0.203476
   8 C :   -0.159875
   9 C :   -0.347025
  10 O :    0.016940
  11 H :    0.170937
  12 H :    0.189672
  13 H :    0.184361
  14 H :    0.135074
  15 H :    0.142415

  Mayer bond orders larger than 0.1
B(  0-N ,  1-C ) :   1.2347 B(  0-N , 11-H ) :   0.8645 B(  0-N , 12-H ) :   0.7943
B(  1-C ,  2-N ) :   1.1411 B(  1-C ,  5-C ) :   1.3211 B(  2-N ,  3-H ) :   0.8767
B(  2-N ,  4-H ) :   0.8610 B(  5-C ,  6-N ) :   0.8721 B(  5-C ,  9-C ) :   1.0258
B(  6-N ,  7-C ) :   1.1480 B(  6-N , 13-H ) :   0.8589 B(  7-C ,  8-C ) :   1.5625
B(  7-C , 14-H ) :   0.9179 B(  8-C ,  9-C ) :   1.1700 B(  8-C , 15-H ) :   0.9257
B(  9-C , 10-O ) :   1.7101 B( 10-O , 12-H ) :   0.1142

MP2 TOTAL ENERGY:     -433.387775040 Eh
FINAL SINGLE POINT ENERGY      -433.387775039611

DIPOLE MOMENT
-------------
                                X             Y             Z
Electronic contribution:     -1.98153       0.69396       0.05200
Nuclear contribution   :      3.86748      -1.97262       0.12980
                        -----------------------------------------
Total Dipole Moment    :      1.88595      -1.27867       0.18180
                        -----------------------------------------
Magnitude (a.u.)       :      2.28579
Magnitude (Debye)      :      5.81002

                             ****ORCA TERMINATED NORMALLY****
TOTAL RUN TIME: 0 days 0 hours 17 minutes 2 seconds 770 msec
