                         Program Version 3.0.3 - RELEASE   -
|  1> ! RI-MP2 RIJK def2-TZVP def2-TZVP/C def2-TZVP/JK TIGHTSCF
|  2> % maxcore 2000
|  3> % mp2 density relaxed end
|  4> *xyz 0 1
|  5>  O       -0.1758015877     1.4377838502     0.5186188134
|  6>  C       -0.0724993490     0.1086008106     0.0697415365
|  7>  C        0.4344906505    -0.9468471446     1.0935247834
|  8>  C       -0.9240970321    -1.6944130203     1.0201593753
|  9>  C       -1.8769041353    -1.4169571318     2.1858849222
| 10>  O       -2.3712171830    -0.0877707014     1.9672162361
| 11>  C       -2.6223372449    -0.0054703732     0.5654582053
| 12>  C       -1.4163278868    -0.6957624392    -0.0800509423
| 13>  O       -1.6650327765    -1.2770506697    -1.3358744701
| 14>  H       -0.6456668030     1.4141985287     1.3630667739
| 15>  H        0.4950012462     0.1369726388    -0.8645350285
| 16>  H        1.2899929778    -1.5308303875     0.7474684975
| 17>  H        0.6787219170    -0.5218747958     2.0723610815
| 18>  H       -0.8864152791    -2.7430027618     0.7254156292
| 19>  H       -2.7141290499    -2.1314054384     2.1863442500
| 20>  H       -1.4002197078    -1.4339085059     3.1696492216
| 21>  H       -3.5394210567    -0.5470685812     0.2869316364
| 22>  H       -2.7243054919     1.0507992443     0.3048550666
| 23>  H       -1.7516349577    -0.5677086516    -1.9826942681
| 24> *
| 25>
| 26>                          ****END OF INPUT****

CARTESIAN COORDINATES (ANGSTROEM)
---------------------------------
  O     -0.175802    1.437784    0.518619
  C     -0.072499    0.108601    0.069742
  C      0.434491   -0.946847    1.093525
  C     -0.924097   -1.694413    1.020159
  C     -1.876904   -1.416957    2.185885
  O     -2.371217   -0.087771    1.967216
  C     -2.622337   -0.005470    0.565458
  C     -1.416328   -0.695762   -0.080051
  O     -1.665033   -1.277051   -1.335874
  H     -0.645667    1.414199    1.363067
  H      0.495001    0.136973   -0.864535
  H      1.289993   -1.530830    0.747468
  H      0.678722   -0.521875    2.072361
  H     -0.886415   -2.743003    0.725416
  H     -2.714129   -2.131405    2.186344
  H     -1.400220   -1.433909    3.169649
  H     -3.539421   -0.547069    0.286932
  H     -2.724305    1.050799    0.304855
  H     -1.751635   -0.567709   -1.982694

 Total Charge           Charge          ....    0
 Multiplicity           Mult            ....    1
 Number of Electrons    NEL             ....   70
 Basis Dimension        Dim             ....  339

ORBITAL ENERGIES
----------------

  NO   OCC          E(Eh)            E(eV)
   0   2.0000     -20.571227      -559.7715
   1   2.0000     -20.567435      -559.6684
   2   2.0000     -20.557568      -559.3999
   3   2.0000     -11.288318      -307.1707
   4   2.0000     -11.282530      -307.0133
   5   2.0000     -11.282009      -306.9991
   6   2.0000     -11.277397      -306.8736
   7   2.0000     -11.234253      -305.6996
   8   2.0000     -11.227254      -305.5091
   9   2.0000      -1.397366       -38.0243
  10   2.0000      -1.373815       -37.3834
  11   2.0000      -1.363162       -37.0935
  12   2.0000      -1.118976       -30.4489
  13   2.0000      -0.999535       -27.1987
  14   2.0000      -0.949691       -25.8424
  15   2.0000      -0.870529       -23.6883
  16   2.0000      -0.824593       -22.4383
  17   2.0000      -0.759753       -20.6739
  18   2.0000      -0.734068       -19.9750
  19   2.0000      -0.692584       -18.8462
  20   2.0000      -0.669784       -18.2257
  21   2.0000      -0.642850       -17.4928
  22   2.0000      -0.622899       -16.9499
  23   2.0000      -0.607965       -16.5436
  24   2.0000      -0.590295       -16.0627
  25   2.0000      -0.580926       -15.8078
  26   2.0000      -0.561590       -15.2816
  27   2.0000      -0.539499       -14.6805
  28   2.0000      -0.528022       -14.3682
  29   2.0000      -0.510721       -13.8974
  30   2.0000      -0.486671       -13.2430
  31   2.0000      -0.449677       -12.2363
  32   2.0000      -0.440429       -11.9847
  33   2.0000      -0.423642       -11.5279
  34   2.0000      -0.396831       -10.7983
  35   0.0000       0.136557         3.7159
  36   0.0000       0.143717         3.9107
  37   0.0000       0.167663         4.5624
  38   0.0000       0.171317         4.6618
  39   0.0000       0.175593         4.7781

MULLIKEN ATOMIC CHARGES
-----------------------
   0 O :   -0.448136
   1 C :   -0.076352
   2 C :   -0.233487
   3 C :   -0.089054
   4 C :   -0.088240
   5 O :   -0.344288
   6 C :   -0.137224
   7 C :    0.270502
   8 O :   -0.462636
   9 H :    0.330001
  10 H :    0.112934
  11 H :    0.124132
  12 H :    0.116764
  13 H :    0.119080
  14 H :    0.106532
  15 H :    0.124327
  16 H :    0.105460
  17 H :    0.145231
  18 H :    0.324454
Sum of atomic charges:    0.0000000

LOEWDIN ATOMIC CHARGES
----------------------
   0 O :   -0.007491
   1 C :   -0.292657
   2 C :   -0.202941
   3 C :   -0.185512
   4 C :   -0.280116
   5 O :    0.135934
   6 C :   -0.285990
   7 C :   -0.330072
   8 O :    0.016301
   9 H :    0.178540
  10 H :    0.138206
  11 H :    0.135292
  12 H :    0.134939
  13 H :    0.148086
  14 H :    0.124998
  15 H :    0.129090
  16 H :    0.128547
  17 H :    0.132138
  18 H :    0.182710

  Mayer bond orders larger than 0.1
B(  0-O ,  1-C ) :   0.9969 B(  0-O ,  9-H ) :   0.8203 B(  1-C ,  2-C ) :   0.9486
B(  1-C ,  7-C ) :   0.8625 B(  1-C , 10-H ) :   0.9352 B(  2-C ,  3-C ) :   0.9503
B(  2-C , 11-H ) :   0.9112 B(  2-C , 12-H ) :   0.9204 B(  3-C ,  4-C ) :   0.9601
B(  3-C ,  7-C ) :   0.8798 B(  3-C , 13-H ) :   0.8814 B(  4-C ,  5-O ) :   0.9093
B(  4-C , 14-H ) :   0.9417 B(  4-C , 15-H ) :   0.9211 B(  5-O ,  6-C ) :   0.8874
B(  6-C ,  7-C ) :   0.9304 B(  6-C , 16-H ) :   0.9096 B(  6-C , 17-H ) :   0.9200
B(  7-C ,  8-O ) :   0.9901 B(  8-O , 18-H ) :   0.8375

MP2 TOTAL ENERGY:     -459.425050023 Eh
FINAL SINGLE POINT ENERGY      -459.425050023395

DIPOLE MOMENT
-------------
                                X             Y             Z
Electronic contribution:     -0.82760       1.60062      -1.44643
Nuclear contribution   :      0.76560      -1.98450       1.39011
                        -----------------------------------------
Total Dipole Moment    :     -0.06199      -0.38388      -0.05632
                        -----------------------------------------
Magnitude (a.u.)       :      0.39291
Magnitude (Debye)      :      0.99869

                             ****ORCA TERMINATED NORMALLY****
TOTAL RUN TIME: 0 days 0 hours 17 minutes 11 seconds 995 msec
