                         Program Version 3.0.3 - RELEASE   -
|  1> ! RI-MP2 RIJK def2-TZVP def2-TZVP/C def2-TZVP/JK TIGHTSCF
|  2> % maxcore 2000
|  3> % mp2 density relaxed end
|  4> *xyz 0 1
|  5>  O        0.0418160269     0.0571245575    -0.2778254334
|  6>  C        0.0062090195     1.2337929069    -0.0638682516
|  7>  C       -1.0801475851     2.2573936601     0.3259642311
|  8>  N       -0.0142258594     3.3097754057     0.4037003651
|  9>  C        1.0108260755     2.3488450555    -0.0506367507
| 10>  C        2.4392667790     2.2759720602     0.4247786761
| 11>  C        2.1438098128     2.5792148921    -1.0184139711
| 12>  H       -1.8373718980     2.4068059869    -0.4522308158
| 13>  H       -1.5817595545     2.0701078881     1.2805108882
| 14>  H       -0.1711257578     4.0457624703    -0.2776206857
| 15>  H        2.7712378604     3.0906111720     1.0588319533
| 16>  H        2.8244006319     1.2947409781     0.6810989735
| 17>  H        2.3239784165     1.8123231151    -1.7644338460
| 18>  H        2.2909930722     3.5979271315    -1.3632999332
| 19> *
| 20>
| 21>                          ****END OF INPUT****

CARTESIAN COORDINATES (ANGSTROEM)
---------------------------------
  O      0.041816    0.057125   -0.277825
  C      0.006209    1.233793   -0.063868
  C     -1.080148    2.257394    0.325964
  N     -0.014226    3.309775    0.403700
  C      1.010826    2.348845   -0.050637
  C      2.439267    2.275972    0.424779
  C      2.143810    2.579215   -1.018414
  H     -1.837372    2.406806   -0.452231
  H     -1.581760    2.070108    1.280511
  H     -0.171126    4.045762   -0.277621
  H      2.771238    3.090611    1.058832
  H      2.824401    1.294741    0.681099
  H      2.323978    1.812323   -1.764434
  H      2.290993    3.597927   -1.363300

 Total Charge           Charge          ....    0
 Multiplicity           Mult            ....    1
 Number of Electrons    NEL             ....   52
 Basis Dimension        Dim             ....  259

ORBITAL ENERGIES
----------------

  NO   OCC          E(Eh)            E(eV)
   0   2.0000     -20.556904      -559.3818
   1   2.0000     -15.565014      -423.5456
   2   2.0000     -11.336889      -308.4924
   3   2.0000     -11.278711      -306.9093
   4   2.0000     -11.272651      -306.7444
   5   2.0000     -11.249458      -306.1133
   6   2.0000     -11.242906      -305.9350
   7   2.0000      -1.400662       -38.1139
   8   2.0000      -1.257375       -34.2149
   9   2.0000      -1.130761       -30.7696
  10   2.0000      -0.950282       -25.8585
  11   2.0000      -0.877822       -23.8868
  12   2.0000      -0.843291       -22.9471
  13   2.0000      -0.712338       -19.3837
  14   2.0000      -0.693784       -18.8788
  15   2.0000      -0.681615       -18.5477
  16   2.0000      -0.648954       -17.6589
  17   2.0000      -0.613510       -16.6945
  18   2.0000      -0.571698       -15.5567
  19   2.0000      -0.559041       -15.2123
  20   2.0000      -0.535350       -14.5676
  21   2.0000      -0.524042       -14.2599
  22   2.0000      -0.475700       -12.9445
  23   2.0000      -0.466479       -12.6935
  24   2.0000      -0.397606       -10.8194
  25   2.0000      -0.375913       -10.2291
  26   0.0000       0.123053         3.3484
  27   0.0000       0.137683         3.7465
  28   0.0000       0.157159         4.2765
  29   0.0000       0.166660         4.5351
  30   0.0000       0.182481         4.9656

MULLIKEN ATOMIC CHARGES
-----------------------
   0 O :   -0.260711
   1 C :    0.129091
   2 C :   -0.147056
   3 N :   -0.320218
   4 C :    0.066657
   5 C :   -0.232789
   6 C :   -0.293857
   7 H :    0.135974
   8 H :    0.133098
   9 H :    0.214046
  10 H :    0.137466
  11 H :    0.147935
  12 H :    0.147209
  13 H :    0.143155
Sum of atomic charges:    0.0000000

LOEWDIN ATOMIC CHARGES
----------------------
   0 O :    0.162292
   1 C :   -0.293713
   2 C :   -0.226222
   3 N :    0.011923
   4 C :   -0.259489
   5 C :   -0.188600
   6 C :   -0.198247
   7 H :    0.132152
   8 H :    0.134308
   9 H :    0.162701
  10 H :    0.141126
  11 H :    0.141246
  12 H :    0.141609
  13 H :    0.138916

  Mayer bond orders larger than 0.1
B(  0-O ,  1-C ) :   2.0353 B(  1-C ,  2-C ) :   0.9175 B(  1-C ,  4-C ) :   0.8800
B(  2-C ,  3-N ) :   0.9654 B(  2-C ,  7-H ) :   0.9111 B(  2-C ,  8-H ) :   0.8986
B(  3-N ,  4-C ) :   0.9889 B(  3-N ,  9-H ) :   0.8739 B(  4-C ,  5-C ) :   0.7995
B(  4-C ,  6-C ) :   0.8460 B(  5-C ,  6-C ) :   0.9270 B(  5-C , 10-H ) :   0.9211
B(  5-C , 11-H ) :   0.9224 B(  6-C , 12-H ) :   0.9140 B(  6-C , 13-H ) :   0.9221

MP2 TOTAL ENERGY:     -323.993652290 Eh
FINAL SINGLE POINT ENERGY      -323.993652289779

DIPOLE MOMENT
-------------
                                X             Y             Z
Electronic contribution:     -1.99206      -3.14734       0.14474
Nuclear contribution   :      2.04459       4.03216      -0.50073
                        -----------------------------------------
Total Dipole Moment    :      0.05253       0.88482      -0.35598
                        -----------------------------------------
Magnitude (a.u.)       :      0.95519
Magnitude (Debye)      :      2.42790

                             ****ORCA TERMINATED NORMALLY****
TOTAL RUN TIME: 0 days 0 hours 7 minutes 37 seconds 89 msec
