                         Program Version 3.0.3 - RELEASE   -
|  1> ! RI-MP2 RIJK def2-TZVP def2-TZVP/C def2-TZVP/JK TIGHTSCF
|  2> % maxcore 2000
|  3> % mp2 density relaxed end
|  4> *xyz 0 1
|  5>  C       -0.2307388786     1.5180120253    -0.0604162382
|  6>  C        0.0990031976     0.0179841244     0.0441883047
|  7>  C        0.8006221016    -0.5023831116    -1.1700072674
|  8>  C        2.0456999556    -0.9495066891    -1.3446638446
|  9>  C        2.2404466276    -1.3502419117    -2.7761164959
| 10>  O        0.9880683589    -1.0930819385    -3.4075725475
| 11>  C        0.1045945628    -0.5921063084    -2.4862003862
| 12>  O       -1.0257808012    -0.3015472240    -2.7660021678
| 13>  H        0.6815222122     2.1151452074    -0.1562545936
| 14>  H       -0.8613637115     1.7087329793    -0.9318645419
| 15>  H       -0.7656206016     1.8543746348     0.8323960839
| 16>  H        0.7107872781    -0.1758440473     0.9314207518
| 17>  H       -0.8373830923    -0.5393037327     0.1676222430
| 18>  H        2.8271981086    -1.0318614395    -0.5996386388
| 19>  H        3.0221504262    -0.7676478591    -3.2804354266
| 20>  H        2.4873909760    -2.4134775992    -2.8915364148
| 21> *
| 22>
| 23>                          ****END OF INPUT****

CARTESIAN COORDINATES (ANGSTROEM)
---------------------------------
  C     -0.230739    1.518012   -0.060416
  C      0.099003    0.017984    0.044188
  C      0.800622   -0.502383   -1.170007
  C      2.045700   -0.949507   -1.344664
  C      2.240447   -1.350242   -2.776116
  O      0.988068   -1.093082   -3.407573
  C      0.104595   -0.592106   -2.486200
  O     -1.025781   -0.301547   -2.766002
  H      0.681522    2.115145   -0.156255
  H     -0.861364    1.708733   -0.931865
  H     -0.765621    1.854375    0.832396
  H      0.710787   -0.175844    0.931421
  H     -0.837383   -0.539304    0.167622
  H      2.827198   -1.031861   -0.599639
  H      3.022150   -0.767648   -3.280435
  H      2.487391   -2.413478   -2.891536

 Total Charge           Charge          ....    0
 Multiplicity           Mult            ....    1
 Number of Electrons    NEL             ....   60
 Basis Dimension        Dim             ....  296

ORBITAL ENERGIES
----------------

  NO   OCC          E(Eh)            E(eV)
   0   2.0000     -20.601729      -560.6015
   1   2.0000     -20.538473      -558.8803
   2   2.0000     -11.377066      -309.5857
   3   2.0000     -11.310837      -307.7835
   4   2.0000     -11.270055      -306.6738
   5   2.0000     -11.260972      -306.4266
   6   2.0000     -11.243205      -305.9432
   7   2.0000     -11.220652      -305.3295
   8   2.0000      -1.457968       -39.6733
   9   2.0000      -1.366351       -37.1803
  10   2.0000      -1.128367       -30.7044
  11   2.0000      -1.037769       -28.2391
  12   2.0000      -0.976099       -26.5610
  13   2.0000      -0.869082       -23.6489
  14   2.0000      -0.825418       -22.4608
  15   2.0000      -0.758532       -20.6407
  16   2.0000      -0.693925       -18.8827
  17   2.0000      -0.687515       -18.7082
  18   2.0000      -0.649956       -17.6862
  19   2.0000      -0.631275       -17.1779
  20   2.0000      -0.602906       -16.4059
  21   2.0000      -0.580744       -15.8028
  22   2.0000      -0.565625       -15.3914
  23   2.0000      -0.546639       -14.8748
  24   2.0000      -0.529455       -14.4072
  25   2.0000      -0.511946       -13.9308
  26   2.0000      -0.498847       -13.5743
  27   2.0000      -0.463047       -12.6001
  28   2.0000      -0.441344       -12.0096
  29   2.0000      -0.385306       -10.4847
  30   0.0000       0.097561         2.6548
  31   0.0000       0.133889         3.6433
  32   0.0000       0.150807         4.1037
  33   0.0000       0.164407         4.4737
  34   0.0000       0.179713         4.8902

MULLIKEN ATOMIC CHARGES
-----------------------
   0 C :   -0.407606
   1 C :   -0.191257
   2 C :   -0.028570
   3 C :   -0.210082
   4 C :    0.019104
   5 O :   -0.234356
   6 C :    0.268023
   7 O :   -0.301078
   8 H :    0.123132
   9 H :    0.161144
  10 H :    0.133101
  11 H :    0.122206
  12 H :    0.131392
  13 H :    0.149372
  14 H :    0.132630
  15 H :    0.132844
Sum of atomic charges:   -0.0000000

LOEWDIN ATOMIC CHARGES
----------------------
   0 C :   -0.302815
   1 C :   -0.243069
   2 C :   -0.145544
   3 C :   -0.107896
   4 C :   -0.261188
   5 O :    0.257651
   6 C :   -0.425685
   7 O :    0.135364
   8 H :    0.120898
   9 H :    0.130480
  10 H :    0.122492
  11 H :    0.143420
  12 H :    0.154416
  13 H :    0.144876
  14 H :    0.138273
  15 H :    0.138327

  Mayer bond orders larger than 0.1
B(  0-C ,  1-C ) :   0.9076 B(  0-C ,  8-H ) :   0.9355 B(  0-C ,  9-H ) :   0.9345
B(  0-C , 10-H ) :   0.9351 B(  1-C ,  2-C ) :   0.8916 B(  1-C , 11-H ) :   0.9471
B(  1-C , 12-H ) :   0.9194 B(  2-C ,  3-C ) :   1.6792 B(  2-C ,  6-C ) :   0.9393
B(  3-C ,  4-C ) :   0.9940 B(  3-C , 13-H ) :   0.9075 B(  4-C ,  5-O ) :   0.9013
B(  4-C , 14-H ) :   0.9083 B(  4-C , 15-H ) :   0.9071 B(  5-O ,  6-C ) :   1.1002
B(  6-C ,  7-O ) :   2.0019

MP2 TOTAL ENERGY:     -383.153841830 Eh
FINAL SINGLE POINT ENERGY      -383.153841830106

DIPOLE MOMENT
-------------
                                X             Y             Z
Electronic contribution:     -0.83070      -3.82981      -6.66589
Nuclear contribution   :      2.27963       3.63157       7.67609
                        -----------------------------------------
Total Dipole Moment    :      1.44894      -0.19824       1.01020
                        -----------------------------------------
Magnitude (a.u.)       :      1.77742
Magnitude (Debye)      :      4.51784

                             ****ORCA TERMINATED NORMALLY****
TOTAL RUN TIME: 0 days 0 hours 10 minutes 56 seconds 195 msec
