                         Program Version 3.0.3 - RELEASE   -
|  1> ! RI-MP2 RIJK def2-TZVP def2-TZVP/C def2-TZVP/JK TIGHTSCF
|  2> % maxcore 2000
|  3> % mp2 density relaxed end
|  4> *xyz 0 1
|  5>  C        0.6254729748     1.4586270901     0.2347607202
|  6>  C       -0.1490581278     0.1910145164    -0.1351139747
|  7>  C        0.3993700111    -0.4584733827    -1.4144751085
|  8>  C       -0.1069050019    -1.8786111670    -1.6875769632
|  9>  O        0.0006064975    -2.0612360849    -3.0999764595
| 10>  C        0.7116080482    -2.9511118864    -0.9525581849
| 11>  C        0.5975371529    -2.9391912678     0.5776934004
| 12>  C        0.8385941184    -1.5742794980     1.2281639843
| 13>  O       -0.2451612270    -0.6923247346     0.9835625675
| 14>  H        1.6741612464     1.2305913459     0.4551183929
| 15>  H        0.6073774820     2.1800609374    -0.5889271185
| 16>  H        0.1834936363     1.9268944462     1.1181777273
| 17>  H       -1.1949719633     0.4664033330    -0.3205927248
| 18>  H        0.1030346213     0.1689653111    -2.2613172159
| 19>  H        1.4965349597    -0.4632665408    -1.4095811455
| 20>  H       -1.1631544506    -1.9493059854    -1.3785983810
| 21>  H       -0.2403453691    -2.9717209137    -3.2986979191
| 22>  H        0.4002680351    -3.9398346238    -1.3179248087
| 23>  H        1.7601373539    -2.8285463964    -1.2546798188
| 24>  H       -0.4032888264    -3.2686831151     0.8822905212
| 25>  H        1.3086703256    -3.6639682110     0.9938704274
| 26>  H        0.8944000055    -1.6940643758     2.3162764513
| 27>  H        1.7978352375    -1.1451052668     0.9044535807
| 28> *
| 29>
| 30>                          ****END OF INPUT****

CARTESIAN COORDINATES (ANGSTROEM)
---------------------------------
  C      0.625473    1.458627    0.234761
  C     -0.149058    0.191015   -0.135114
  C      0.399370   -0.458473   -1.414475
  C     -0.106905   -1.878611   -1.687577
  O      0.000606   -2.061236   -3.099976
  C      0.711608   -2.951112   -0.952558
  C      0.597537   -2.939191    0.577693
  C      0.838594   -1.574279    1.228164
  O     -0.245161   -0.692325    0.983563
  H      1.674161    1.230591    0.455118
  H      0.607377    2.180061   -0.588927
  H      0.183494    1.926894    1.118178
  H     -1.194972    0.466403   -0.320593
  H      0.103035    0.168965   -2.261317
  H      1.496535   -0.463267   -1.409581
  H     -1.163154   -1.949306   -1.378598
  H     -0.240345   -2.971721   -3.298698
  H      0.400268   -3.939835   -1.317925
  H      1.760137   -2.828546   -1.254680
  H     -0.403289   -3.268683    0.882291
  H      1.308670   -3.663968    0.993870
  H      0.894400   -1.694064    2.316276
  H      1.797835   -1.145105    0.904454

 Total Charge           Charge          ....    0
 Multiplicity           Mult            ....    1
 Number of Electrons    NEL             ....   72
 Basis Dimension        Dim             ....  363

ORBITAL ENERGIES
----------------

  NO   OCC          E(Eh)            E(eV)
   0   2.0000     -20.551547      -559.2360
   1   2.0000     -20.543765      -559.0243
   2   2.0000     -11.278250      -306.8968
   3   2.0000     -11.277295      -306.8708
   4   2.0000     -11.271658      -306.7174
   5   2.0000     -11.224190      -305.4257
   6   2.0000     -11.222960      -305.3923
   7   2.0000     -11.216983      -305.2296
   8   2.0000     -11.212191      -305.0992
   9   2.0000      -1.365353       -37.1531
  10   2.0000      -1.356769       -36.9196
  11   2.0000      -1.072761       -29.1913
  12   2.0000      -1.061625       -28.8883
  13   2.0000      -0.967669       -26.3316
  14   2.0000      -0.928298       -25.2603
  15   2.0000      -0.863343       -23.4927
  16   2.0000      -0.788151       -21.4467
  17   2.0000      -0.763973       -20.7887
  18   2.0000      -0.699166       -19.0253
  19   2.0000      -0.677694       -18.4410
  20   2.0000      -0.638310       -17.3693
  21   2.0000      -0.626800       -17.0561
  22   2.0000      -0.619124       -16.8472
  23   2.0000      -0.581315       -15.8184
  24   2.0000      -0.567014       -15.4292
  25   2.0000      -0.563424       -15.3315
  26   2.0000      -0.544246       -14.8097
  27   2.0000      -0.539789       -14.6884
  28   2.0000      -0.522622       -14.2213
  29   2.0000      -0.499132       -13.5821
  30   2.0000      -0.493720       -13.4348
  31   2.0000      -0.475159       -12.9297
  32   2.0000      -0.455576       -12.3968
  33   2.0000      -0.444603       -12.0983
  34   2.0000      -0.430808       -11.7229
  35   2.0000      -0.405171       -11.0253
  36   0.0000       0.133359         3.6289
  37   0.0000       0.146170         3.9775
  38   0.0000       0.156180         4.2499
  39   0.0000       0.162580         4.4240
  40   0.0000       0.188900         5.1402

MULLIKEN ATOMIC CHARGES
-----------------------
   0 C :   -0.388504
   1 C :    0.054711
   2 C :   -0.253908
   3 C :    0.126856
   4 O :   -0.457954
   5 C :   -0.290271
   6 C :   -0.213500
   7 C :   -0.070570
   8 O :   -0.324373
   9 H :    0.119422
  10 H :    0.128390
  11 H :    0.139718
  12 H :    0.096428
  13 H :    0.142229
  14 H :    0.116281
  15 H :    0.086185
  16 H :    0.310221
  17 H :    0.107560
  18 H :    0.123191
  19 H :    0.108465
  20 H :    0.114999
  21 H :    0.126532
  22 H :    0.097892
Sum of atomic charges:    0.0000000

LOEWDIN ATOMIC CHARGES
----------------------
   0 C :   -0.297082
   1 C :   -0.347851
   2 C :   -0.231751
   3 C :   -0.338938
   4 O :   -0.026087
   5 C :   -0.263574
   6 C :   -0.273945
   7 C :   -0.319621
   8 O :    0.167593
   9 H :    0.121086
  10 H :    0.126446
  11 H :    0.125245
  12 H :    0.145578
  13 H :    0.153145
  14 H :    0.141809
  15 H :    0.137605
  16 H :    0.169954
  17 H :    0.135332
  18 H :    0.140988
  19 H :    0.141631
  20 H :    0.140480
  21 H :    0.129023
  22 H :    0.122933

  Mayer bond orders larger than 0.1
B(  0-C ,  1-C ) :   0.9398 B(  0-C ,  9-H ) :   0.9243 B(  0-C , 10-H ) :   0.9338
B(  0-C , 11-H ) :   0.9427 B(  1-C ,  2-C ) :   0.9162 B(  1-C ,  8-O ) :   0.8989
B(  1-C , 12-H ) :   0.9283 B(  2-C ,  3-C ) :   0.8987 B(  2-C , 13-H ) :   0.9092
B(  2-C , 14-H ) :   0.9298 B(  3-C ,  4-O ) :   0.9732 B(  3-C ,  5-C ) :   0.9161
B(  3-C , 15-H ) :   0.9353 B(  4-O , 16-H ) :   0.8471 B(  5-C ,  6-C ) :   0.9264
B(  5-C , 17-H ) :   0.9297 B(  5-C , 18-H ) :   0.9365 B(  6-C ,  7-C ) :   0.9366
B(  6-C , 19-H ) :   0.9221 B(  6-C , 20-H ) :   0.9196 B(  7-C ,  8-O ) :   0.9059
B(  7-C , 21-H ) :   0.9325 B(  7-C , 22-H ) :   0.9308

MP2 TOTAL ENERGY:     -424.736768218 Eh
FINAL SINGLE POINT ENERGY      -424.736768218100

DIPOLE MOMENT
-------------
                                X             Y             Z
Electronic contribution:     -2.67116      -1.41977      -1.57970
Nuclear contribution   :      2.89096       0.97507       1.68750
                        -----------------------------------------
Total Dipole Moment    :      0.21980      -0.44470       0.10780
                        -----------------------------------------
Magnitude (a.u.)       :      0.50763
Magnitude (Debye)      :      1.29030

                             ****ORCA TERMINATED NORMALLY****
TOTAL RUN TIME: 0 days 0 hours 19 minutes 23 seconds 998 msec
