                         Program Version 3.0.3 - RELEASE   -
|  1> ! RI-MP2 RIJK def2-TZVP def2-TZVP/C def2-TZVP/JK TIGHTSCF
|  2> % maxcore 2000
|  3> % mp2 density relaxed end
|  4> *xyz 0 1
|  5>  C        0.0261094238     1.3711763001     0.2036544139
|  6>  O       -0.0664681709     0.0174449060    -0.2116497817
|  7>  C       -1.3394346057    -0.5566577057    -0.0415829360
|  8>  C       -1.3471056100    -1.9210040328    -0.7452086844
|  9>  C       -1.1006906336    -1.7844339137    -2.2550319075
| 10>  C       -0.9215749101    -3.1307832138    -2.9207805834
| 11>  O       -1.5411622038    -3.5119566482    -3.8788127454
| 12>  C       -1.6725706922    -0.7101989586     1.3946658118
| 13>  N       -1.9245955434    -0.8229675533     2.5166273275
| 14>  H        1.0442877620     1.6961998808    -0.0162514943
| 15>  H       -0.6833570501     2.0061162096    -0.3465217151
| 16>  H       -0.1625479554     1.4763822626     1.2798907112
| 17>  H       -2.1149066344     0.0903645496    -0.4856644632
| 18>  H       -0.5706063953    -2.5423084885    -0.2856019218
| 19>  H       -2.3090629707    -2.4067290493    -0.5531728295
| 20>  H       -1.9172121331    -1.2543572988    -2.7543941997
| 21>  H       -0.1749720535    -1.2133579578    -2.4029315147
| 22>  H       -0.1405570735    -3.7730901082    -2.4495337675
| 23> *
| 24>
| 25>                          ****END OF INPUT****

CARTESIAN COORDINATES (ANGSTROEM)
---------------------------------
  C      0.026109    1.371176    0.203654
  O     -0.066468    0.017445   -0.211650
  C     -1.339435   -0.556658   -0.041583
  C     -1.347106   -1.921004   -0.745209
  C     -1.100691   -1.784434   -2.255032
  C     -0.921575   -3.130783   -2.920781
  O     -1.541162   -3.511957   -3.878813
  C     -1.672571   -0.710199    1.394666
  N     -1.924596   -0.822968    2.516627
  H      1.044288    1.696200   -0.016251
  H     -0.683357    2.006116   -0.346522
  H     -0.162548    1.476382    1.279891
  H     -2.114907    0.090365   -0.485664
  H     -0.570606   -2.542308   -0.285602
  H     -2.309063   -2.406729   -0.553173
  H     -1.917212   -1.254357   -2.754394
  H     -0.174972   -1.213358   -2.402932
  H     -0.140557   -3.773090   -2.449534

 Total Charge           Charge          ....    0
 Multiplicity           Mult            ....    1
 Number of Electrons    NEL             ....   68
 Basis Dimension        Dim             ....  333

ORBITAL ENERGIES
----------------

  NO   OCC          E(Eh)            E(eV)
   0   2.0000     -20.599203      -560.5328
   1   2.0000     -20.566842      -559.6522
   2   2.0000     -15.587553      -424.1589
   3   2.0000     -11.354924      -308.9832
   4   2.0000     -11.342355      -308.6412
   5   2.0000     -11.298059      -307.4358
   6   2.0000     -11.284248      -307.0600
   7   2.0000     -11.270733      -306.6922
   8   2.0000     -11.256962      -306.3175
   9   2.0000      -1.422613       -38.7113
  10   2.0000      -1.405932       -38.2574
  11   2.0000      -1.232276       -33.5319
  12   2.0000      -1.116186       -30.3730
  13   2.0000      -1.026078       -27.9210
  14   2.0000      -0.942423       -25.6446
  15   2.0000      -0.886869       -24.1329
  16   2.0000      -0.808925       -22.0120
  17   2.0000      -0.750325       -20.4174
  18   2.0000      -0.715926       -19.4813
  19   2.0000      -0.683148       -18.5894
  20   2.0000      -0.676816       -18.4171
  21   2.0000      -0.644852       -17.5473
  22   2.0000      -0.623275       -16.9602
  23   2.0000      -0.608702       -16.5636
  24   2.0000      -0.586169       -15.9505
  25   2.0000      -0.570043       -15.5117
  26   2.0000      -0.549737       -14.9591
  27   2.0000      -0.535620       -14.5749
  28   2.0000      -0.526667       -14.3313
  29   2.0000      -0.508993       -13.8504
  30   2.0000      -0.482718       -13.1354
  31   2.0000      -0.474584       -12.9141
  32   2.0000      -0.471081       -12.8188
  33   2.0000      -0.429975       -11.7002
  34   0.0000       0.115661         3.1473
  35   0.0000       0.123413         3.3583
  36   0.0000       0.142302         3.8722
  37   0.0000       0.149978         4.0811
  38   0.0000       0.156275         4.2525

MULLIKEN ATOMIC CHARGES
-----------------------
   0 C :   -0.232479
   1 O :   -0.294707
   2 C :    0.168422
   3 C :   -0.271101
   4 C :   -0.150868
   5 C :    0.087809
   6 O :   -0.257781
   7 C :   -0.183527
   8 N :   -0.046205
   9 H :    0.149798
  10 H :    0.120187
  11 H :    0.144046
  12 H :    0.122202
  13 H :    0.140519
  14 H :    0.152329
  15 H :    0.121028
  16 H :    0.152722
  17 H :    0.077605
Sum of atomic charges:    0.0000000

LOEWDIN ATOMIC CHARGES
----------------------
   0 C :   -0.335025
   1 O :    0.175515
   2 C :   -0.328497
   3 C :   -0.222208
   4 C :   -0.257428
   5 C :   -0.295691
   6 O :    0.136128
   7 C :   -0.167876
   8 N :    0.073401
   9 H :    0.118592
  10 H :    0.106307
  11 H :    0.113297
  12 H :    0.160842
  13 H :    0.152472
  14 H :    0.153483
  15 H :    0.146163
  16 H :    0.158947
  17 H :    0.111578

  Mayer bond orders larger than 0.1
B(  0-C ,  1-O ) :   0.8892 B(  0-C ,  9-H ) :   0.9370 B(  0-C , 10-H ) :   0.9315
B(  0-C , 11-H ) :   0.9313 B(  1-O ,  2-C ) :   0.9885 B(  2-C ,  3-C ) :   0.9127
B(  2-C ,  7-C ) :   0.8778 B(  2-C , 12-H ) :   0.9344 B(  3-C ,  4-C ) :   0.9004
B(  3-C , 13-H ) :   0.9236 B(  3-C , 14-H ) :   0.9176 B(  4-C ,  5-C ) :   0.8731
B(  4-C , 15-H ) :   0.8975 B(  4-C , 16-H ) :   0.9137 B(  5-C ,  6-O ) :   2.0072
B(  5-C , 17-H ) :   0.9412 B(  7-C ,  8-N ) :   2.8683

MP2 TOTAL ENERGY:     -438.368036825 Eh
FINAL SINGLE POINT ENERGY      -438.368036824627

DIPOLE MOMENT
-------------
                                X             Y             Z
Electronic contribution:     -1.96265      -3.73015       1.16700
Nuclear contribution   :      2.44700       4.67612      -1.51755
                        -----------------------------------------
Total Dipole Moment    :      0.48434       0.94597      -0.35055
                        -----------------------------------------
Magnitude (a.u.)       :      1.11908
Magnitude (Debye)      :      2.84447

                             ****ORCA TERMINATED NORMALLY****
TOTAL RUN TIME: 0 days 0 hours 17 minutes 2 seconds 933 msec
