                         Program Version 3.0.3 - RELEASE   -
|  1> ! RI-MP2 RIJK def2-TZVP def2-TZVP/C def2-TZVP/JK TIGHTSCF
|  2> % maxcore 2000
|  3> % mp2 density relaxed end
|  4> *xyz 0 1
|  5>  O       -0.0932312480     1.4809448945    -0.3073242871
|  6>  C        0.0505384217     0.1198155346     0.0749865741
|  7>  C       -1.3291855593    -0.5035890682     0.0397499726
|  8>  C       -1.9781161404    -0.8368603770    -1.3203741483
|  9>  C       -1.1227799161    -2.1556083737    -1.5079169108
| 10>  C       -1.4757839496    -2.0402018292     0.0298690832
| 11>  C       -2.8865856255    -1.9569574999    -0.6754494157
| 12>  C       -2.4087798052    -2.9432296963    -1.7333289473
| 13>  O       -2.8211348225    -3.8489754055    -2.3917710706
| 14>  H        0.7699074000     1.9020011319    -0.2588872525
| 15>  H        0.7320325715    -0.4162070524    -0.6041296333
| 16>  H        0.4661877434     0.0313302941     1.0923531888
| 17>  H       -1.9897404838     0.0209772799     0.7394748267
| 18>  H       -2.2842025365    -0.1699875178    -2.1250158839
| 19>  H       -0.1347639955    -2.2434972361    -1.9528212857
| 20>  H       -1.2033054331    -2.7725851309     0.7903497390
| 21>  H       -3.8459322812    -1.8077917680    -0.1842723291
| 22> *
| 23>
| 24>                          ****END OF INPUT****

CARTESIAN COORDINATES (ANGSTROEM)
---------------------------------
  O     -0.093231    1.480945   -0.307324
  C      0.050538    0.119816    0.074987
  C     -1.329186   -0.503589    0.039750
  C     -1.978116   -0.836860   -1.320374
  C     -1.122780   -2.155608   -1.507917
  C     -1.475784   -2.040202    0.029869
  C     -2.886586   -1.956957   -0.675449
  C     -2.408780   -2.943230   -1.733329
  O     -2.821135   -3.848975   -2.391771
  H      0.769907    1.902001   -0.258887
  H      0.732033   -0.416207   -0.604130
  H      0.466188    0.031330    1.092353
  H     -1.989740    0.020977    0.739475
  H     -2.284203   -0.169988   -2.125016
  H     -0.134764   -2.243497   -1.952821
  H     -1.203305   -2.772585    0.790350
  H     -3.845932   -1.807792   -0.184272

 Total Charge           Charge          ....    0
 Multiplicity           Mult            ....    1
 Number of Electrons    NEL             ....   66
 Basis Dimension        Dim             ....  327

ORBITAL ENERGIES
----------------

  NO   OCC          E(Eh)            E(eV)
   0   2.0000     -20.567128      -559.6600
   1   2.0000     -20.544556      -559.0458
   2   2.0000     -11.334993      -308.4408
   3   2.0000     -11.287763      -307.1556
   4   2.0000     -11.274865      -306.8047
   5   2.0000     -11.271457      -306.7119
   6   2.0000     -11.261789      -306.4489
   7   2.0000     -11.261624      -306.4444
   8   2.0000     -11.249815      -306.1230
   9   2.0000      -1.392189       -37.8834
  10   2.0000      -1.371068       -37.3087
  11   2.0000      -1.263267       -34.3752
  12   2.0000      -1.035857       -28.1871
  13   2.0000      -0.917385       -24.9633
  14   2.0000      -0.892950       -24.2984
  15   2.0000      -0.883934       -24.0531
  16   2.0000      -0.763146       -20.7663
  17   2.0000      -0.710209       -19.3258
  18   2.0000      -0.705497       -19.1975
  19   2.0000      -0.696881       -18.9631
  20   2.0000      -0.667878       -18.1739
  21   2.0000      -0.637735       -17.3537
  22   2.0000      -0.618305       -16.8249
  23   2.0000      -0.584241       -15.8980
  24   2.0000      -0.569484       -15.4964
  25   2.0000      -0.535470       -14.5709
  26   2.0000      -0.481056       -13.0902
  27   2.0000      -0.475514       -12.9394
  28   2.0000      -0.460235       -12.5236
  29   2.0000      -0.455380       -12.3915
  30   2.0000      -0.450994       -12.2722
  31   2.0000      -0.445543       -12.1238
  32   2.0000      -0.395897       -10.7729
  33   0.0000       0.124706         3.3934
  34   0.0000       0.139367         3.7924
  35   0.0000       0.154231         4.1968
  36   0.0000       0.163585         4.4514
  37   0.0000       0.171176         4.6579

MULLIKEN ATOMIC CHARGES
-----------------------
   0 O :   -0.465176
   1 C :   -0.106723
   2 C :    0.007662
   3 C :   -0.127212
   4 C :   -0.156071
   5 C :   -0.137395
   6 C :   -0.129413
   7 C :    0.173224
   8 O :   -0.263908
   9 H :    0.317631
  10 H :    0.101358
  11 H :    0.103506
  12 H :    0.106706
  13 H :    0.144423
  14 H :    0.144625
  15 H :    0.141390
  16 H :    0.145372
Sum of atomic charges:   -0.0000000

LOEWDIN ATOMIC CHARGES
----------------------
   0 O :   -0.045911
   1 C :   -0.328566
   2 C :   -0.195100
   3 C :   -0.096721
   4 C :   -0.097280
   5 C :   -0.104070
   6 C :   -0.091212
   7 C :   -0.294873
   8 O :    0.153492
   9 H :    0.173423
  10 H :    0.119716
  11 H :    0.119175
  12 H :    0.150537
  13 H :    0.136370
  14 H :    0.132552
  15 H :    0.132889
  16 H :    0.135580

  Mayer bond orders larger than 0.1
B(  0-O ,  1-C ) :   1.0340 B(  0-O ,  9-H ) :   0.8471 B(  1-C ,  2-C ) :   0.9176
B(  1-C , 10-H ) :   0.9183 B(  1-C , 11-H ) :   0.9317 B(  2-C ,  3-C ) :   0.8952
B(  2-C ,  5-C ) :   0.8890 B(  2-C , 12-H ) :   0.9228 B(  3-C ,  4-C ) :   0.8277
B(  3-C ,  6-C ) :   0.8304 B(  3-C , 13-H ) :   0.9038 B(  4-C ,  5-C ) :   0.8383
B(  4-C ,  7-C ) :   0.8427 B(  4-C , 14-H ) :   0.8991 B(  5-C ,  6-C ) :   0.8394
B(  5-C , 15-H ) :   0.8972 B(  6-C ,  7-C ) :   0.8441 B(  6-C , 16-H ) :   0.8995
B(  7-C ,  8-O ) :   2.0539

MP2 TOTAL ENERGY:     -421.054681166 Eh
FINAL SINGLE POINT ENERGY      -421.054681166300

DIPOLE MOMENT
-------------
                                X             Y             Z
Electronic contribution:     -3.34766      -4.19995      -3.21937
Nuclear contribution   :      4.34789       5.00120       4.09875
                        -----------------------------------------
Total Dipole Moment    :      1.00023       0.80126       0.87939
                        -----------------------------------------
Magnitude (a.u.)       :      1.55429
Magnitude (Debye)      :      3.95068

                             ****ORCA TERMINATED NORMALLY****
TOTAL RUN TIME: 0 days 0 hours 14 minutes 15 seconds 326 msec
