                         Program Version 3.0.3 - RELEASE   -
|  1> ! RI-MP2 RIJK def2-TZVP def2-TZVP/C def2-TZVP/JK TIGHTSCF
|  2> % maxcore 2000
|  3> % mp2 density relaxed end
|  4> *xyz 0 1
|  5>  O        0.0365380791     1.3702131086     0.0089345257
|  6>  C       -0.0192265350    -0.0336259652     0.0027496276
|  7>  C       -1.4760519703    -0.4799657434     0.0118144416
|  8>  O       -2.4042938955     0.2991406348     0.0223877904
|  9>  C       -1.6918135088    -1.9399425876     0.0062918455
| 10>  C       -2.9102065740    -2.5808095495     0.0124348900
| 11>  N       -2.6153558707    -3.9155745715     0.0036635697
| 12>  C       -1.2505024006    -4.0361958635    -0.0073405447
| 13>  N       -0.6651816668    -2.8665435985    -0.0061498380
| 14>  H        0.9634698013     1.6247091348     0.0014915844
| 15>  H        0.4617034404    -0.4820684169    -0.8820693729
| 16>  H        0.4751262757    -0.4903096891     0.8758966934
| 17>  H       -3.9169303924    -2.2003169872     0.0219941922
| 18>  H       -3.2817614571    -4.6703369847     0.0050661894
| 19>  H       -0.7587957851    -4.9974853010    -0.0157988041
| 20> *
| 21>
| 22>                          ****END OF INPUT****

CARTESIAN COORDINATES (ANGSTROEM)
---------------------------------
  O      0.036538    1.370213    0.008935
  C     -0.019227   -0.033626    0.002750
  C     -1.476052   -0.479966    0.011814
  O     -2.404294    0.299141    0.022388
  C     -1.691814   -1.939943    0.006292
  C     -2.910207   -2.580810    0.012435
  N     -2.615356   -3.915575    0.003664
  C     -1.250502   -4.036196   -0.007341
  N     -0.665182   -2.866544   -0.006150
  H      0.963470    1.624709    0.001492
  H      0.461703   -0.482068   -0.882069
  H      0.475126   -0.490310    0.875897
  H     -3.916930   -2.200317    0.021994
  H     -3.281761   -4.670337    0.005066
  H     -0.758796   -4.997485   -0.015799

 Total Charge           Charge          ....    0
 Multiplicity           Mult            ....    1
 Number of Electrons    NEL             ....   66
 Basis Dimension        Dim             ....  315

ORBITAL ENERGIES
----------------

  NO   OCC          E(Eh)            E(eV)
   0   2.0000     -20.554582      -559.3186
   1   2.0000     -20.531118      -558.6801
   2   2.0000     -15.642905      -425.6651
   3   2.0000     -15.567451      -423.6119
   4   2.0000     -11.323644      -308.1320
   5   2.0000     -11.315046      -307.8981
   6   2.0000     -11.287084      -307.1372
   7   2.0000     -11.280989      -306.9713
   8   2.0000     -11.258015      -306.3462
   9   2.0000      -1.384720       -37.6802
  10   2.0000      -1.362443       -37.0740
  11   2.0000      -1.352388       -36.8003
  12   2.0000      -1.191554       -32.4238
  13   2.0000      -1.042656       -28.3721
  14   2.0000      -0.978726       -26.6325
  15   2.0000      -0.857178       -23.3250
  16   2.0000      -0.843538       -22.9538
  17   2.0000      -0.784296       -21.3418
  18   2.0000      -0.721589       -19.6354
  19   2.0000      -0.698833       -19.0162
  20   2.0000      -0.644872       -17.5479
  21   2.0000      -0.643307       -17.5053
  22   2.0000      -0.620841       -16.8939
  23   2.0000      -0.617765       -16.8102
  24   2.0000      -0.610622       -16.6159
  25   2.0000      -0.597590       -16.2612
  26   2.0000      -0.525036       -14.2870
  27   2.0000      -0.514987       -14.0135
  28   2.0000      -0.462482       -12.5848
  29   2.0000      -0.447440       -12.1755
  30   2.0000      -0.420450       -11.4410
  31   2.0000      -0.410405       -11.1677
  32   2.0000      -0.336410        -9.1542
  33   0.0000       0.108932         2.9642
  34   0.0000       0.113955         3.1009
  35   0.0000       0.139133         3.7860
  36   0.0000       0.152259         4.1432
  37   0.0000       0.173070         4.7095

MULLIKEN ATOMIC CHARGES
-----------------------
   0 O :   -0.434361
   1 C :   -0.061466
   2 C :    0.167163
   3 O :   -0.286129
   4 C :    0.056973
   5 C :   -0.078768
   6 N :   -0.245191
   7 C :    0.051711
   8 N :   -0.316900
   9 H :    0.315941
  10 H :    0.119932
  11 H :    0.119877
  12 H :    0.174592
  13 H :    0.258565
  14 H :    0.158060
Sum of atomic charges:    0.0000000

LOEWDIN ATOMIC CHARGES
----------------------
   0 O :   -0.025016
   1 C :   -0.329894
   2 C :   -0.310314
   3 O :    0.160636
   4 C :   -0.242920
   5 C :   -0.174415
   6 N :    0.186913
   7 C :   -0.302007
   8 N :    0.116885
   9 H :    0.175708
  10 H :    0.133815
  11 H :    0.133806
  12 H :    0.146668
  13 H :    0.197467
  14 H :    0.132668

  Mayer bond orders larger than 0.1
B(  0-O ,  1-C ) :   1.0404 B(  0-O ,  9-H ) :   0.8463 B(  1-C ,  2-C ) :   0.9750
B(  1-C , 10-H ) :   0.9113 B(  1-C , 11-H ) :   0.9113 B(  2-C ,  3-O ) :   2.0107
B(  2-C ,  4-C ) :   0.8536 B(  4-C ,  5-C ) :   1.4660 B(  4-C ,  8-N ) :   1.2184
B(  5-C ,  6-N ) :   1.1696 B(  5-C , 12-H ) :   0.8910 B(  6-N ,  7-C ) :   1.1433
B(  6-N , 13-H ) :   0.8673 B(  7-C ,  8-N ) :   1.5634 B(  7-C , 14-H ) :   0.9244

MP2 TOTAL ENERGY:     -453.253800135 Eh
FINAL SINGLE POINT ENERGY      -453.253800135019

DIPOLE MOMENT
-------------
                                X             Y             Z
Electronic contribution:     -2.33369      -0.03786       0.01806
Nuclear contribution   :      2.27505      -2.05898      -0.02865
                        -----------------------------------------
Total Dipole Moment    :     -0.05864      -2.09684      -0.01059
                        -----------------------------------------
Magnitude (a.u.)       :      2.09768
Magnitude (Debye)      :      5.33189

                             ****ORCA TERMINATED NORMALLY****
TOTAL RUN TIME: 0 days 0 hours 13 minutes 46 seconds 525 msec
