                         Program Version 3.0.3 - RELEASE   -
|  1> ! RI-MP2 RIJK def2-TZVP def2-TZVP/C def2-TZVP/JK TIGHTSCF
|  2> % maxcore 2000
|  3> % mp2 density relaxed end
|  4> *xyz 0 1
|  5>  O        0.0743347954    -0.0179981201     0.2432685235
|  6>  C        0.0821730426     1.1824601544     0.1536948079
|  7>  C        1.3201590096     2.0345593391    -0.0745572466
|  8>  C        1.1754166142     2.7884276088    -1.3890490674
|  9>  C        2.3880352340     3.1146304511    -2.2235656170
| 10>  C        1.4002101716     2.0804004039    -2.7025376368
| 11>  C        1.5100741867     2.9713894922     1.1101445567
| 12>  C        2.0837920540     2.4542345533     2.4064765270
| 13>  C        2.8923889082     3.3898717557     1.5430034233
| 14>  H       -0.8640678303     1.7696651618     0.2369930154
| 15>  H        2.1692451334     1.3437702277    -0.1376571683
| 16>  H        0.3886461274     3.5393751394    -1.3815963785
| 17>  H        2.4195889270     4.0731941006    -2.7295238030
| 18>  H        3.3535159378     2.7682161166    -1.8708739016
| 19>  H        1.6992362446     1.0380429584    -2.6667184401
| 20>  H        0.7559522589     2.3281790536    -3.5385988452
| 21>  H        0.7347808870     3.7287532910     1.2012522913
| 22>  H        1.6760568707     2.8315396693     3.3375267426
| 23>  H        2.3825311965     1.4118279229     2.4432610666
| 24>  H        3.7383720570     2.9778287732     1.0034831106
| 25>  H        3.0371413338     4.4101427070     1.8805365197
| 26> *
| 27>
| 28>                          ****END OF INPUT****

CARTESIAN COORDINATES (ANGSTROEM)
---------------------------------
  O      0.074335   -0.017998    0.243269
  C      0.082173    1.182460    0.153695
  C      1.320159    2.034559   -0.074557
  C      1.175417    2.788428   -1.389049
  C      2.388035    3.114630   -2.223566
  C      1.400210    2.080400   -2.702538
  C      1.510074    2.971389    1.110145
  C      2.083792    2.454235    2.406477
  C      2.892389    3.389872    1.543003
  H     -0.864068    1.769665    0.236993
  H      2.169245    1.343770   -0.137657
  H      0.388646    3.539375   -1.381596
  H      2.419589    4.073194   -2.729524
  H      3.353516    2.768216   -1.870874
  H      1.699236    1.038043   -2.666718
  H      0.755952    2.328179   -3.538599
  H      0.734781    3.728753    1.201252
  H      1.676057    2.831540    3.337527
  H      2.382531    1.411828    2.443261
  H      3.738372    2.977829    1.003483
  H      3.037141    4.410143    1.880537

 Total Charge           Charge          ....    0
 Multiplicity           Mult            ....    1
 Number of Electrons    NEL             ....   68
 Basis Dimension        Dim             ....  351

ORBITAL ENERGIES
----------------

  NO   OCC          E(Eh)            E(eV)
   0   2.0000     -20.552121      -559.2517
   1   2.0000     -11.325592      -308.1850
   2   2.0000     -11.247696      -306.0654
   3   2.0000     -11.244154      -305.9690
   4   2.0000     -11.244092      -305.9673
   5   2.0000     -11.233827      -305.6880
   6   2.0000     -11.233825      -305.6879
   7   2.0000     -11.231568      -305.6265
   8   2.0000     -11.231561      -305.6263
   9   2.0000      -1.391056       -37.8526
  10   2.0000      -1.169491       -31.8235
  11   2.0000      -1.141432       -31.0599
  12   2.0000      -1.019613       -27.7451
  13   2.0000      -0.838964       -22.8294
  14   2.0000      -0.829670       -22.5765
  15   2.0000      -0.814082       -22.1523
  16   2.0000      -0.812141       -22.0995
  17   2.0000      -0.782317       -21.2879
  18   2.0000      -0.678210       -18.4550
  19   2.0000      -0.672047       -18.2873
  20   2.0000      -0.665906       -18.1202
  21   2.0000      -0.627635       -17.0788
  22   2.0000      -0.625263       -17.0143
  23   2.0000      -0.594974       -16.1901
  24   2.0000      -0.542843       -14.7715
  25   2.0000      -0.523638       -14.2489
  26   2.0000      -0.518845       -14.1185
  27   2.0000      -0.510106       -13.8807
  28   2.0000      -0.496171       -13.5015
  29   2.0000      -0.457190       -12.4408
  30   2.0000      -0.442982       -12.0542
  31   2.0000      -0.428641       -11.6639
  32   2.0000      -0.406838       -11.0706
  33   2.0000      -0.390057       -10.6140
  34   0.0000       0.133793         3.6407
  35   0.0000       0.140322         3.8184
  36   0.0000       0.145802         3.9675
  37   0.0000       0.157748         4.2925
  38   0.0000       0.162641         4.4257

MULLIKEN ATOMIC CHARGES
-----------------------
   0 O :   -0.263933
   1 C :    0.108829
   2 C :   -0.049148
   3 C :   -0.118020
   4 C :   -0.256977
   5 C :   -0.254291
   6 C :   -0.117947
   7 C :   -0.254274
   8 C :   -0.257019
   9 H :    0.061628
  10 H :    0.092924
  11 H :    0.122844
  12 H :    0.131485
  13 H :    0.125995
  14 H :    0.140981
  15 H :    0.132803
  16 H :    0.122834
  17 H :    0.132804
  18 H :    0.140997
  19 H :    0.125999
  20 H :    0.131484
Sum of atomic charges:    0.0000000

LOEWDIN ATOMIC CHARGES
----------------------
   0 O :    0.133344
   1 C :   -0.259239
   2 C :   -0.230199
   3 C :   -0.203358
   4 C :   -0.221645
   5 C :   -0.222010
   6 C :   -0.203340
   7 C :   -0.222007
   8 C :   -0.221647
   9 H :    0.112207
  10 H :    0.167732
  11 H :    0.150726
  12 H :    0.132011
  13 H :    0.132970
  14 H :    0.137265
  15 H :    0.132105
  16 H :    0.150726
  17 H :    0.132106
  18 H :    0.137273
  19 H :    0.132967
  20 H :    0.132011

  Mayer bond orders larger than 0.1
B(  0-O ,  1-C ) :   2.0026 B(  1-C ,  2-C ) :   0.8542 B(  1-C ,  9-H ) :   0.9354
B(  2-C ,  3-C ) :   0.9131 B(  2-C ,  6-C ) :   0.9131 B(  2-C , 10-H ) :   0.8931
B(  3-C ,  4-C ) :   0.8889 B(  3-C ,  5-C ) :   0.8880 B(  3-C , 11-H ) :   0.9106
B(  4-C ,  5-C ) :   0.9095 B(  4-C , 12-H ) :   0.9291 B(  4-C , 13-H ) :   0.9290
B(  5-C , 14-H ) :   0.9253 B(  5-C , 15-H ) :   0.9301 B(  6-C ,  7-C ) :   0.8879
B(  6-C ,  8-C ) :   0.8889 B(  6-C , 16-H ) :   0.9106 B(  7-C ,  8-C ) :   0.9096
B(  7-C , 17-H ) :   0.9301 B(  7-C , 18-H ) :   0.9253 B(  8-C , 19-H ) :   0.9290
B(  8-C , 20-H ) :   0.9291

MP2 TOTAL ENERGY:     -386.386196945 Eh
FINAL SINGLE POINT ENERGY      -386.386196945066

DIPOLE MOMENT
-------------
                                X             Y             Z
Electronic contribution:     -3.81314      -4.40852       0.83413
Nuclear contribution   :      4.07597       5.48239      -0.94831
                        -----------------------------------------
Total Dipole Moment    :      0.26283       1.07387      -0.11418
                        -----------------------------------------
Magnitude (a.u.)       :      1.11144
Magnitude (Debye)      :      2.82506

                             ****ORCA TERMINATED NORMALLY****
TOTAL RUN TIME: 0 days 0 hours 19 minutes 9 seconds 672 msec
