                         Program Version 3.0.3 - RELEASE   -
|  1> ! RI-MP2 RIJK def2-TZVP def2-TZVP/C def2-TZVP/JK TIGHTSCF
|  2> % maxcore 2000
|  3> % mp2 density relaxed end
|  4> *xyz 0 1
|  5>  C       -0.2834657352     1.5331317719     0.0637421052
|  6>  C        0.0456104841     0.0418825493     0.0884278901
|  7>  C        0.7867572964    -0.4952543478    -1.1543398991
|  8>  C        1.3763100872    -1.8666292122    -0.7330541677
|  9>  C        2.7527700295    -2.1513585704    -1.3352011081
| 10>  C        1.3618560697    -1.8553821426     0.8446285467
| 11>  O        2.5672298959    -2.2443373507     1.4614316389
| 12>  C        0.9511185068    -0.4156406293     1.2400822130
| 13>  O        2.1249052564     0.3942083297     1.3974317679
| 14>  H        0.6260429193     2.1405747501     0.0198297548
| 15>  H       -0.8961419599     1.7837378617    -0.8081910629
| 16>  H       -0.8351917418     1.8338230567     0.9602289162
| 17>  H       -0.8911024900    -0.5234844868     0.1933983429
| 18>  H        0.1352866130    -0.5598225721    -2.0306588011
| 19>  H        1.5963624612     0.1959862083    -1.4357402294
| 20>  H        0.6930669397    -2.6559075109    -1.0659793025
| 21>  H        3.4816274860    -1.3852655361    -1.0469966807
| 22>  H        3.1442304937    -3.1119256744    -0.9927478556
| 23>  H        2.6999324589    -2.1651718777    -2.4290940674
| 24>  H        0.5886795582    -2.5501134591     1.1935102483
| 25>  H        3.0304935310    -1.4169641646     1.6575442407
| 26>  H        0.4584899188    -0.3805439704     2.2156166110
| 27>  H        2.4473163209     0.6395222775     0.5228146289
| 28> *
| 29>
| 30>                          ****END OF INPUT****

CARTESIAN COORDINATES (ANGSTROEM)
---------------------------------
  C     -0.283466    1.533132    0.063742
  C      0.045610    0.041883    0.088428
  C      0.786757   -0.495254   -1.154340
  C      1.376310   -1.866629   -0.733054
  C      2.752770   -2.151359   -1.335201
  C      1.361856   -1.855382    0.844629
  O      2.567230   -2.244337    1.461432
  C      0.951119   -0.415641    1.240082
  O      2.124905    0.394208    1.397432
  H      0.626043    2.140575    0.019830
  H     -0.896142    1.783738   -0.808191
  H     -0.835192    1.833823    0.960229
  H     -0.891102   -0.523484    0.193398
  H      0.135287   -0.559823   -2.030659
  H      1.596362    0.195986   -1.435740
  H      0.693067   -2.655908   -1.065979
  H      3.481627   -1.385266   -1.046997
  H      3.144230   -3.111926   -0.992748
  H      2.699932   -2.165172   -2.429094
  H      0.588680   -2.550113    1.193510
  H      3.030494   -1.416964    1.657544
  H      0.458490   -0.380544    2.215617
  H      2.447316    0.639522    0.522815

 Total Charge           Charge          ....    0
 Multiplicity           Mult            ....    1
 Number of Electrons    NEL             ....   72
 Basis Dimension        Dim             ....  363

ORBITAL ENERGIES
----------------

  NO   OCC          E(Eh)            E(eV)
   0   2.0000     -20.570131      -559.7417
   1   2.0000     -20.541900      -558.9735
   2   2.0000     -11.280888      -306.9686
   3   2.0000     -11.272681      -306.7452
   4   2.0000     -11.236373      -305.7572
   5   2.0000     -11.228110      -305.5324
   6   2.0000     -11.227535      -305.5168
   7   2.0000     -11.221711      -305.3583
   8   2.0000     -11.211927      -305.0920
   9   2.0000      -1.383574       -37.6490
  10   2.0000      -1.343937       -36.5704
  11   2.0000      -1.123629       -30.5755
  12   2.0000      -1.030503       -28.0414
  13   2.0000      -0.971065       -26.4240
  14   2.0000      -0.928653       -25.2699
  15   2.0000      -0.870709       -23.6932
  16   2.0000      -0.788404       -21.4536
  17   2.0000      -0.763599       -20.7786
  18   2.0000      -0.712505       -19.3882
  19   2.0000      -0.679193       -18.4818
  20   2.0000      -0.657164       -17.8823
  21   2.0000      -0.612191       -16.6586
  22   2.0000      -0.599939       -16.3252
  23   2.0000      -0.584183       -15.8964
  24   2.0000      -0.580109       -15.7856
  25   2.0000      -0.562157       -15.2971
  26   2.0000      -0.556623       -15.1465
  27   2.0000      -0.536854       -14.6085
  28   2.0000      -0.519151       -14.1268
  29   2.0000      -0.505996       -13.7689
  30   2.0000      -0.493537       -13.4298
  31   2.0000      -0.477223       -12.9859
  32   2.0000      -0.463375       -12.6091
  33   2.0000      -0.453398       -12.3376
  34   2.0000      -0.434617       -11.8265
  35   2.0000      -0.408555       -11.1173
  36   0.0000       0.120962         3.2916
  37   0.0000       0.135931         3.6989
  38   0.0000       0.151269         4.1162
  39   0.0000       0.175425         4.7735
  40   0.0000       0.182519         4.9666

MULLIKEN ATOMIC CHARGES
-----------------------
   0 C :   -0.354245
   1 C :   -0.091962
   2 C :   -0.366305
   3 C :    0.034449
   4 C :   -0.399550
   5 C :   -0.008266
   6 O :   -0.473376
   7 C :    0.074051
   8 O :   -0.491210
   9 H :    0.112449
  10 H :    0.134942
  11 H :    0.134852
  12 H :    0.097980
  13 H :    0.131938
  14 H :    0.117495
  15 H :    0.094208
  16 H :    0.095498
  17 H :    0.149255
  18 H :    0.130992
  19 H :    0.103233
  20 H :    0.332753
  21 H :    0.119461
  22 H :    0.321361
Sum of atomic charges:    0.0000000

LOEWDIN ATOMIC CHARGES
----------------------
   0 C :   -0.292315
   1 C :   -0.267339
   2 C :   -0.220358
   3 C :   -0.248560
   4 C :   -0.301109
   5 C :   -0.303586
   6 O :   -0.012165
   7 C :   -0.292936
   8 O :   -0.018617
   9 H :    0.121090
  10 H :    0.125342
  11 H :    0.126842
  12 H :    0.161600
  13 H :    0.136453
  14 H :    0.134494
  15 H :    0.149376
  16 H :    0.116373
  17 H :    0.128692
  18 H :    0.122647
  19 H :    0.142282
  20 H :    0.175475
  21 H :    0.143304
  22 H :    0.173018

  Mayer bond orders larger than 0.1
B(  0-C ,  1-C ) :   0.9318 B(  0-C ,  9-H ) :   0.9205 B(  0-C , 10-H ) :   0.9410
B(  0-C , 11-H ) :   0.9392 B(  1-C ,  2-C ) :   0.8909 B(  1-C ,  7-C ) :   0.9445
B(  1-C , 12-H ) :   0.9176 B(  2-C ,  3-C ) :   0.8843 B(  2-C , 13-H ) :   0.9189
B(  2-C , 14-H ) :   0.9391 B(  3-C ,  4-C ) :   0.9147 B(  3-C ,  5-C ) :   0.8504
B(  3-C , 15-H ) :   0.9218 B(  4-C , 16-H ) :   0.9298 B(  4-C , 17-H ) :   0.9373
B(  4-C , 18-H ) :   0.9391 B(  5-C ,  6-O ) :   1.0258 B(  5-C ,  7-C ) :   0.9657
B(  5-C , 19-H ) :   0.9478 B(  6-O , 20-H ) :   0.8118 B(  7-C ,  8-O ) :   0.8390
B(  7-C , 21-H ) :   0.9206 B(  8-O , 22-H ) :   0.8347

MP2 TOTAL ENERGY:     -424.750151160 Eh
FINAL SINGLE POINT ENERGY      -424.750151159977

DIPOLE MOMENT
-------------
                                X             Y             Z
Electronic contribution:      1.83950      -1.99551       5.23428
Nuclear contribution   :     -2.39854       2.47230      -5.93313
                        -----------------------------------------
Total Dipole Moment    :     -0.55904       0.47679      -0.69885
                        -----------------------------------------
Magnitude (a.u.)       :      1.01402
Magnitude (Debye)      :      2.57744

                             ****ORCA TERMINATED NORMALLY****
TOTAL RUN TIME: 0 days 0 hours 20 minutes 55 seconds 129 msec
