                         Program Version 3.0.3 - RELEASE   -
|  1> ! RI-MP2 RIJK def2-TZVP def2-TZVP/C def2-TZVP/JK TIGHTSCF
|  2> % maxcore 2000
|  3> % mp2 density relaxed end
|  4> *xyz 0 1
|  5>  C        0.5413867733    -1.1246042591    -1.4711652839
|  6>  C        0.0944371711    -0.4509837185    -0.1691168005
|  7>  C       -1.4158576589    -0.4615585140     0.0702786208
|  8>  C       -2.2222798754     0.2071473534    -1.0590830231
|  9>  C       -1.7889070140     1.6359738860    -1.2986272065
| 10>  O       -1.3118329340     2.0388752571    -2.3306236381
| 11>  C       -2.0173770341    -1.8023922168     0.5688778203
| 12>  C       -2.3271564406    -1.0261384124     1.8629239239
| 13>  O       -1.7208356012     0.1761782899     1.3459391119
| 14>  H        1.6323930566    -1.1893510399    -1.5122329830
| 15>  H        0.1477269915    -2.1442006625    -1.5535924154
| 16>  H        0.2117043817    -0.5606632692    -2.3482122955
| 17>  H        0.5663801684    -0.9389635832     0.6912543858
| 18>  H        0.4365062190     0.5912188270    -0.1529767800
| 19>  H       -2.1264913153    -0.3548090850    -1.9921320041
| 20>  H       -3.2775302843     0.2134145213    -0.7580062239
| 21>  H       -1.9322741613     2.3121408964    -0.4282766234
| 22>  H       -2.8842054182    -2.1642539407     0.0135057487
| 23>  H       -1.2938586576    -2.6131108621     0.6720742412
| 24>  H       -3.3913893699    -0.8847599284     2.0876090052
| 25>  H       -1.8215017868    -1.3801247294     2.7686718395
| 26> *
| 27>
| 28>                          ****END OF INPUT****

CARTESIAN COORDINATES (ANGSTROEM)
---------------------------------
  C      0.541387   -1.124604   -1.471165
  C      0.094437   -0.450984   -0.169117
  C     -1.415858   -0.461559    0.070279
  C     -2.222280    0.207147   -1.059083
  C     -1.788907    1.635974   -1.298627
  O     -1.311833    2.038875   -2.330624
  C     -2.017377   -1.802392    0.568878
  C     -2.327156   -1.026138    1.862924
  O     -1.720836    0.176178    1.345939
  H      1.632393   -1.189351   -1.512233
  H      0.147727   -2.144201   -1.553592
  H      0.211704   -0.560663   -2.348212
  H      0.566380   -0.938964    0.691254
  H      0.436506    0.591219   -0.152977
  H     -2.126491   -0.354809   -1.992132
  H     -3.277530    0.213415   -0.758006
  H     -1.932274    2.312141   -0.428277
  H     -2.884205   -2.164254    0.013506
  H     -1.293859   -2.613111    0.672074
  H     -3.391389   -0.884760    2.087609
  H     -1.821502   -1.380125    2.768672

 Total Charge           Charge          ....    0
 Multiplicity           Mult            ....    1
 Number of Electrons    NEL             ....   70
 Basis Dimension        Dim             ....  351

ORBITAL ENERGIES
----------------

  NO   OCC          E(Eh)            E(eV)
   0   2.0000     -20.554428      -559.3144
   1   2.0000     -20.554229      -559.3090
   2   2.0000     -11.328372      -308.2607
   3   2.0000     -11.304411      -307.6087
   4   2.0000     -11.287528      -307.1493
   5   2.0000     -11.240794      -305.8776
   6   2.0000     -11.239592      -305.8448
   7   2.0000     -11.229424      -305.5682
   8   2.0000     -11.220981      -305.3384
   9   2.0000      -1.393010       -37.9057
  10   2.0000      -1.386239       -37.7215
  11   2.0000      -1.088371       -29.6161
  12   2.0000      -1.015261       -27.6267
  13   2.0000      -1.012802       -27.5598
  14   2.0000      -0.916008       -24.9258
  15   2.0000      -0.846416       -23.0321
  16   2.0000      -0.802053       -21.8250
  17   2.0000      -0.736822       -20.0499
  18   2.0000      -0.691716       -18.8225
  19   2.0000      -0.673365       -18.3232
  20   2.0000      -0.656968       -17.8770
  21   2.0000      -0.644951       -17.5500
  22   2.0000      -0.612843       -16.6763
  23   2.0000      -0.609657       -16.5896
  24   2.0000      -0.568925       -15.4812
  25   2.0000      -0.556553       -15.1446
  26   2.0000      -0.545357       -14.8399
  27   2.0000      -0.533684       -14.5223
  28   2.0000      -0.518569       -14.1110
  29   2.0000      -0.504800       -13.7363
  30   2.0000      -0.489512       -13.3203
  31   2.0000      -0.468345       -12.7443
  32   2.0000      -0.463613       -12.6155
  33   2.0000      -0.420124       -11.4321
  34   2.0000      -0.408627       -11.1193
  35   0.0000       0.125879         3.4253
  36   0.0000       0.134429         3.6580
  37   0.0000       0.153259         4.1704
  38   0.0000       0.158211         4.3051
  39   0.0000       0.170300         4.6341

MULLIKEN ATOMIC CHARGES
-----------------------
   0 C :   -0.437533
   1 C :   -0.225931
   2 C :    0.258026
   3 C :   -0.204414
   4 C :    0.066371
   5 O :   -0.268292
   6 C :   -0.316654
   7 C :   -0.021855
   8 O :   -0.350790
   9 H :    0.141777
  10 H :    0.125845
  11 H :    0.154466
  12 H :    0.119264
  13 H :    0.128540
  14 H :    0.134041
  15 H :    0.131028
  16 H :    0.103028
  17 H :    0.132177
  18 H :    0.130150
  19 H :    0.098600
  20 H :    0.102155
Sum of atomic charges:    0.0000000

LOEWDIN ATOMIC CHARGES
----------------------
   0 C :   -0.310015
   1 C :   -0.251615
   2 C :   -0.314527
   3 C :   -0.224095
   4 C :   -0.288441
   5 O :    0.127519
   6 C :   -0.207049
   7 C :   -0.272427
   8 O :    0.150046
   9 H :    0.125221
  10 H :    0.121395
  11 H :    0.126155
  12 H :    0.143449
  13 H :    0.147142
  14 H :    0.151550
  15 H :    0.156283
  16 H :    0.117099
  17 H :    0.133306
  18 H :    0.134802
  19 H :    0.116600
  20 H :    0.117600

  Mayer bond orders larger than 0.1
B(  0-C ,  1-C ) :   0.9058 B(  0-C ,  9-H ) :   0.9371 B(  0-C , 10-H ) :   0.9353
B(  0-C , 11-H ) :   0.9306 B(  1-C ,  2-C ) :   0.9294 B(  1-C , 12-H ) :   0.9319
B(  1-C , 13-H ) :   0.9206 B(  2-C ,  3-C ) :   0.8888 B(  2-C ,  6-C ) :   0.8509
B(  2-C ,  8-O ) :   0.8764 B(  3-C ,  4-C ) :   0.8881 B(  3-C , 14-H ) :   0.9109
B(  3-C , 15-H ) :   0.9036 B(  4-C ,  5-O ) :   1.9794 B(  4-C , 16-H ) :   0.9358
B(  6-C ,  7-C ) :   0.9911 B(  6-C , 17-H ) :   0.9278 B(  6-C , 18-H ) :   0.9259
B(  7-C ,  8-O ) :   0.9516 B(  7-C , 19-H ) :   0.9156 B(  7-C , 20-H ) :   0.9169

MP2 TOTAL ENERGY:     -423.514282539 Eh
FINAL SINGLE POINT ENERGY      -423.514282539122

DIPOLE MOMENT
-------------
                                X             Y             Z
Electronic contribution:     -2.60503       6.44967      -0.26513
Nuclear contribution   :      2.22728      -7.63205       0.82122
                        -----------------------------------------
Total Dipole Moment    :     -0.37775      -1.18238       0.55609
                        -----------------------------------------
Magnitude (a.u.)       :      1.36013
Magnitude (Debye)      :      3.45718

                             ****ORCA TERMINATED NORMALLY****
TOTAL RUN TIME: 0 days 0 hours 20 minutes 59 seconds 92 msec
