                         Program Version 3.0.3 - RELEASE   -
|  1> ! RI-MP2 RIJK def2-TZVP def2-TZVP/C def2-TZVP/JK TIGHTSCF
|  2> % maxcore 2000
|  3> % mp2 density relaxed end
|  4> *xyz 0 1
|  5>  O       -0.0764730175     0.0036334338     0.0033815252
|  6>  N       -0.0122973206     1.2275034500     0.0068909834
|  7>  O        1.0027535626     1.8934456386     0.0025353421
|  8>  C       -1.3215331804     1.9468389348     0.0176018025
|  9>  N       -1.2679385010     3.2617193418     0.0204658977
| 10>  C       -2.4449301231     3.8851721837     0.0300327164
| 11>  C       -3.6456447359     3.1723677842     0.0365474330
| 12>  N       -3.6806936440     1.8389939523     0.0335360379
| 13>  C       -2.5032383545     1.2111811841     0.0238879031
| 14>  H       -2.4319837116     4.9710624475     0.0325740530
| 15>  H       -4.6000376823     3.6913136950     0.0443797967
| 16>  H       -2.4912734018     0.1287154641     0.0211235890
| 17> *
| 18>
| 19>                          ****END OF INPUT****

CARTESIAN COORDINATES (ANGSTROEM)
---------------------------------
  O     -0.076473    0.003633    0.003382
  N     -0.012297    1.227503    0.006891
  O      1.002754    1.893446    0.002535
  C     -1.321533    1.946839    0.017602
  N     -1.267939    3.261719    0.020466
  C     -2.444930    3.885172    0.030033
  C     -3.645645    3.172368    0.036547
  N     -3.680694    1.838994    0.033536
  C     -2.503238    1.211181    0.023888
  H     -2.431984    4.971062    0.032574
  H     -4.600038    3.691314    0.044380
  H     -2.491273    0.128715    0.021124

 Total Charge           Charge          ....    0
 Multiplicity           Mult            ....    1
 Number of Electrons    NEL             ....   64
 Basis Dimension        Dim             ....  297

ORBITAL ENERGIES
----------------

  NO   OCC          E(Eh)            E(eV)
   0   2.0000     -20.615896      -560.9870
   1   2.0000     -20.609119      -560.8026
   2   2.0000     -15.863586      -431.6701
   3   2.0000     -15.637007      -425.5046
   4   2.0000     -15.626340      -425.2143
   5   2.0000     -11.362459      -309.1882
   6   2.0000     -11.327052      -308.2248
   7   2.0000     -11.323298      -308.1226
   8   2.0000     -11.319546      -308.0205
   9   2.0000      -1.619032       -44.0561
  10   2.0000      -1.414107       -38.4798
  11   2.0000      -1.355520       -36.8856
  12   2.0000      -1.264750       -34.4156
  13   2.0000      -1.121239       -30.5105
  14   2.0000      -1.006134       -27.3783
  15   2.0000      -0.942663       -25.6512
  16   2.0000      -0.880744       -23.9663
  17   2.0000      -0.799503       -21.7556
  18   2.0000      -0.763285       -20.7700
  19   2.0000      -0.738831       -20.1046
  20   2.0000      -0.734584       -19.9890
  21   2.0000      -0.722577       -19.6623
  22   2.0000      -0.674164       -18.3449
  23   2.0000      -0.612815       -16.6755
  24   2.0000      -0.607696       -16.5362
  25   2.0000      -0.541034       -14.7223
  26   2.0000      -0.512938       -13.9578
  27   2.0000      -0.504409       -13.7257
  28   2.0000      -0.477704       -12.9990
  29   2.0000      -0.462137       -12.5754
  30   2.0000      -0.451512       -12.2863
  31   2.0000      -0.399187       -10.8624
  32   0.0000       0.023173         0.6306
  33   0.0000       0.058120         1.5815
  34   0.0000       0.133286         3.6269
  35   0.0000       0.144875         3.9423
  36   0.0000       0.160927         4.3791

MULLIKEN ATOMIC CHARGES
-----------------------
   0 O :   -0.296365
   1 N :    0.426138
   2 O :   -0.250608
   3 C :    0.119439
   4 N :   -0.211957
   5 C :    0.000151
   6 C :   -0.013969
   7 N :   -0.211405
   8 C :   -0.054119
   9 H :    0.156349
  10 H :    0.154130
  11 H :    0.182217
Sum of atomic charges:   -0.0000000

LOEWDIN ATOMIC CHARGES
----------------------
   0 O :    0.002385
   1 N :   -0.062706
   2 O :    0.038945
   3 C :   -0.234436
   4 N :    0.190537
   5 C :   -0.182302
   6 C :   -0.196951
   7 N :    0.165014
   8 C :   -0.170994
   9 H :    0.148635
  10 H :    0.146983
  11 H :    0.154889

  Mayer bond orders larger than 0.1
B(  0-O ,  1-N ) :   1.4689 B(  0-O ,  2-O ) :   0.1858 B(  1-N ,  2-O ) :   1.5077
B(  1-N ,  3-C ) :   0.8614 B(  3-C ,  4-N ) :   1.4468 B(  3-C ,  8-C ) :   1.3279
B(  4-N ,  5-C ) :   1.3594 B(  5-C ,  6-C ) :   1.2954 B(  5-C ,  9-H ) :   0.9259
B(  6-C ,  7-N ) :   1.3698 B(  6-C , 10-H ) :   0.9261 B(  7-N ,  8-C ) :   1.3845
B(  8-C , 11-H ) :   0.9025

MP2 TOTAL ENERGY:     -468.001920985 Eh
FINAL SINGLE POINT ENERGY      -468.001920985415

DIPOLE MOMENT
-------------
                                X             Y             Z
Electronic contribution:      3.46268      -1.75578      -0.02795
Nuclear contribution   :     -4.75485       2.58062       0.03882
                        -----------------------------------------
Total Dipole Moment    :     -1.29217       0.82484       0.01087
                        -----------------------------------------
Magnitude (a.u.)       :      1.53303
Magnitude (Debye)      :      3.89666

                             ****ORCA TERMINATED NORMALLY****
TOTAL RUN TIME: 0 days 0 hours 13 minutes 44 seconds 756 msec
