                         Program Version 3.0.3 - RELEASE   -
|  1> ! RI-MP2 RIJK def2-TZVP def2-TZVP/C def2-TZVP/JK TIGHTSCF
|  2> % maxcore 2000
|  3> % mp2 density relaxed end
|  4> *xyz 0 1
|  5>  C       -0.0593845893     1.3743820668     0.0559125224
|  6>  C        1.3129843888     0.7526965887     0.0337465347
|  7>  C        2.2632160510     0.6574972734     1.1907038270
|  8>  N        1.7842531858    -0.2586633294     2.2378200005
|  9>  C        0.7136581682    -0.9138752715     2.1204460610
| 10>  O       -0.2187946116    -0.9398793013     1.1039278303
| 11>  C        0.1076690894    -0.1265276774     0.0260092917
| 12>  C        0.6012005378    -0.6183685458    -1.3266049112
| 13>  O        1.6793027680     0.3671204786    -1.3041515926
| 14>  H       -0.3801755534     1.7669493617     1.0155702442
| 15>  H       -0.4230123918     1.9064877675    -0.8175120545
| 16>  H        3.2222354410     0.2766608028     0.8239342953
| 17>  H        2.4680415355     1.6227790823     1.6668860660
| 18>  H        0.3853467451    -1.5857808430     2.9095489242
| 19>  H        1.0014639153    -1.6372487061    -1.2871813686
| 20>  H       -0.0565521397    -0.5015309774    -2.1944683502
| 21> *
| 22>
| 23>                          ****END OF INPUT****

CARTESIAN COORDINATES (ANGSTROEM)
---------------------------------
  C     -0.059385    1.374382    0.055913
  C      1.312984    0.752697    0.033747
  C      2.263216    0.657497    1.190704
  N      1.784253   -0.258663    2.237820
  C      0.713658   -0.913875    2.120446
  O     -0.218795   -0.939879    1.103928
  C      0.107669   -0.126528    0.026009
  C      0.601201   -0.618369   -1.326605
  O      1.679303    0.367120   -1.304152
  H     -0.380176    1.766949    1.015570
  H     -0.423012    1.906488   -0.817512
  H      3.222235    0.276661    0.823934
  H      2.468042    1.622779    1.666886
  H      0.385347   -1.585781    2.909549
  H      1.001464   -1.637249   -1.287181
  H     -0.056552   -0.501531   -2.194468

 Total Charge           Charge          ....    0
 Multiplicity           Mult            ....    1
 Number of Electrons    NEL             ....   66
 Basis Dimension        Dim             ....  321

ORBITAL ENERGIES
----------------

  NO   OCC          E(Eh)            E(eV)
   0   2.0000     -20.614009      -560.9357
   1   2.0000     -20.569307      -559.7193
   2   2.0000     -15.560605      -423.4256
   3   2.0000     -11.343631      -308.6759
   4   2.0000     -11.301768      -307.5367
   5   2.0000     -11.301143      -307.5197
   6   2.0000     -11.296246      -307.3865
   7   2.0000     -11.272639      -306.7441
   8   2.0000     -11.253350      -306.2192
   9   2.0000      -1.450117       -39.4597
  10   2.0000      -1.398047       -38.0428
  11   2.0000      -1.228028       -33.4163
  12   2.0000      -1.136560       -30.9274
  13   2.0000      -0.994425       -27.0597
  14   2.0000      -0.961193       -26.1554
  15   2.0000      -0.860783       -23.4231
  16   2.0000      -0.837582       -22.7918
  17   2.0000      -0.727858       -19.8060
  18   2.0000      -0.719081       -19.5672
  19   2.0000      -0.684034       -18.6135
  20   2.0000      -0.668528       -18.1916
  21   2.0000      -0.644026       -17.5248
  22   2.0000      -0.613005       -16.6807
  23   2.0000      -0.605028       -16.4636
  24   2.0000      -0.591197       -16.0873
  25   2.0000      -0.571365       -15.5476
  26   2.0000      -0.560081       -15.2406
  27   2.0000      -0.541307       -14.7297
  28   2.0000      -0.485533       -13.2120
  29   2.0000      -0.443606       -12.0711
  30   2.0000      -0.414212       -11.2713
  31   2.0000      -0.396296       -10.7838
  32   2.0000      -0.378640       -10.3033
  33   0.0000       0.141661         3.8548
  34   0.0000       0.157876         4.2960
  35   0.0000       0.164346         4.4721
  36   0.0000       0.180510         4.9119
  37   0.0000       0.184174         5.0116

MULLIKEN ATOMIC CHARGES
-----------------------
   0 C :   -0.282840
   1 C :    0.154185
   2 C :   -0.153636
   3 N :   -0.254594
   4 C :    0.079324
   5 O :   -0.263100
   6 C :    0.106429
   7 C :   -0.024307
   8 O :   -0.320644
   9 H :    0.149638
  10 H :    0.147826
  11 H :    0.149919
  12 H :    0.138773
  13 H :    0.142767
  14 H :    0.113106
  15 H :    0.117156
Sum of atomic charges:    0.0000000

LOEWDIN ATOMIC CHARGES
----------------------
   0 C :   -0.153374
   1 C :   -0.274381
   2 C :   -0.244358
   3 N :    0.084317
   4 C :   -0.332077
   5 O :    0.267491
   6 C :   -0.288684
   7 C :   -0.206458
   8 O :    0.161727
   9 H :    0.153193
  10 H :    0.142840
  11 H :    0.154751
  12 H :    0.143036
  13 H :    0.136506
  14 H :    0.132058
  15 H :    0.123413

  Mayer bond orders larger than 0.1
B(  0-C ,  1-C ) :   0.8825 B(  0-C ,  6-C ) :   0.8967 B(  0-C ,  9-H ) :   0.9058
B(  0-C , 10-H ) :   0.9081 B(  1-C ,  2-C ) :   0.9212 B(  1-C ,  6-C ) :   0.8547
B(  1-C ,  8-O ) :   0.9919 B(  2-C ,  3-N ) :   0.9118 B(  2-C , 11-H ) :   0.9146
B(  2-C , 12-H ) :   0.9315 B(  3-N ,  4-C ) :   1.8669 B(  4-C ,  5-O ) :   1.0104
B(  4-C , 13-H ) :   0.9276 B(  5-O ,  6-C ) :   0.9494 B(  6-C ,  7-C ) :   0.9640
B(  7-C ,  8-O ) :   0.9264 B(  7-C , 14-H ) :   0.8995 B(  7-C , 15-H ) :   0.9188

MP2 TOTAL ENERGY:     -437.107107225 Eh
FINAL SINGLE POINT ENERGY      -437.107107224912

DIPOLE MOMENT
-------------
                                X             Y             Z
Electronic contribution:     -0.32591      -1.55432       0.77849
Nuclear contribution   :     -0.14829       1.58704      -0.93324
                        -----------------------------------------
Total Dipole Moment    :     -0.47420       0.03272      -0.15475
                        -----------------------------------------
Magnitude (a.u.)       :      0.49989
Magnitude (Debye)      :      1.27061

                             ****ORCA TERMINATED NORMALLY****
TOTAL RUN TIME: 0 days 0 hours 23 minutes 43 seconds 566 msec
