                         Program Version 3.0.3 - RELEASE   -
|  1> ! RI-MP2 RIJK def2-TZVP def2-TZVP/C def2-TZVP/JK TIGHTSCF
|  2> % maxcore 2000
|  3> % mp2 density relaxed end
|  4> *xyz 0 1
|  5>  C       -0.1158430032     1.6078488368     0.0780353424
|  6>  C       -0.0043642505     0.0853121034    -0.0290164272
|  7>  C       -1.3695298610    -0.5927338042     0.1638037390
|  8>  O       -1.9043381902    -0.3415654067     1.4469151738
|  9>  C        0.8399594228    -0.4269565135    -1.2520124701
| 10>  C        1.9710950432    -0.9068870907    -0.2857274157
| 11>  C        1.0625460453    -0.5355579170     0.8635726392
| 12>  N        1.0140401968    -0.7426242916     2.1134473730
| 13>  O        2.1438679850    -1.4455347716     2.5691602116
| 14>  H        0.8676150503     2.0870702550     0.0461704463
| 15>  H       -0.7122097185     2.0009053278    -0.7533340646
| 16>  H       -0.6080461332     1.8840772146     1.0133891847
| 17>  H       -2.0900960507    -0.1976882596    -0.5625257999
| 18>  H       -1.2677425447    -1.6741141133    -0.0253387756
| 19>  H       -1.2312712253    -0.6177042596     2.0855249858
| 20>  H        0.3606343764    -1.2435277760    -1.7973918238
| 21>  H        1.1292889563     0.3484621232    -1.9634615535
| 22>  H        2.2511166668    -1.9624865074    -0.3317507643
| 23>  H        2.8891989676    -0.3130366010    -0.3279299392
| 24>  H        1.9807333568    -1.5075066285     3.5165327180
| 25> *
| 26>
| 27>                          ****END OF INPUT****

CARTESIAN COORDINATES (ANGSTROEM)
---------------------------------
  C     -0.115843    1.607849    0.078035
  C     -0.004364    0.085312   -0.029016
  C     -1.369530   -0.592734    0.163804
  O     -1.904338   -0.341565    1.446915
  C      0.839959   -0.426957   -1.252012
  C      1.971095   -0.906887   -0.285727
  C      1.062546   -0.535558    0.863573
  N      1.014040   -0.742624    2.113447
  O      2.143868   -1.445535    2.569160
  H      0.867615    2.087070    0.046170
  H     -0.712210    2.000905   -0.753334
  H     -0.608046    1.884077    1.013389
  H     -2.090096   -0.197688   -0.562526
  H     -1.267743   -1.674114   -0.025339
  H     -1.231271   -0.617704    2.085525
  H      0.360634   -1.243528   -1.797392
  H      1.129289    0.348462   -1.963462
  H      2.251117   -1.962487   -0.331751
  H      2.889199   -0.313037   -0.327930
  H      1.980733   -1.507507    3.516533

 Total Charge           Charge          ....    0
 Multiplicity           Mult            ....    1
 Number of Electrons    NEL             ....   70
 Basis Dimension        Dim             ....  345

ORBITAL ENERGIES
----------------

  NO   OCC          E(Eh)            E(eV)
   0   2.0000     -20.596334      -560.4548
   1   2.0000     -20.545277      -559.0654
   2   2.0000     -15.620030      -425.0426
   3   2.0000     -11.280868      -306.9680
   4   2.0000     -11.276577      -306.8513
   5   2.0000     -11.249885      -306.1249
   6   2.0000     -11.245332      -306.0010
   7   2.0000     -11.239597      -305.8450
   8   2.0000     -11.221168      -305.3435
   9   2.0000      -1.421587       -38.6834
  10   2.0000      -1.354274       -36.8517
  11   2.0000      -1.193051       -32.4646
  12   2.0000      -1.102669       -30.0051
  13   2.0000      -1.007619       -27.4187
  14   2.0000      -0.926579       -25.2135
  15   2.0000      -0.866444       -23.5771
  16   2.0000      -0.837564       -22.7913
  17   2.0000      -0.708787       -19.2871
  18   2.0000      -0.704448       -19.1690
  19   2.0000      -0.684253       -18.6195
  20   2.0000      -0.671011       -18.2591
  21   2.0000      -0.641286       -17.4503
  22   2.0000      -0.614797       -16.7295
  23   2.0000      -0.593689       -16.1551
  24   2.0000      -0.579658       -15.7733
  25   2.0000      -0.567382       -15.4393
  26   2.0000      -0.537191       -14.6177
  27   2.0000      -0.532707       -14.4957
  28   2.0000      -0.528670       -14.3858
  29   2.0000      -0.503612       -13.7040
  30   2.0000      -0.475595       -12.9416
  31   2.0000      -0.459816       -12.5122
  32   2.0000      -0.440501       -11.9866
  33   2.0000      -0.415686       -11.3114
  34   2.0000      -0.388602       -10.5744
  35   0.0000       0.128902         3.5076
  36   0.0000       0.139787         3.8038
  37   0.0000       0.146252         3.9797
  38   0.0000       0.164599         4.4790
  39   0.0000       0.169155         4.6030

MULLIKEN ATOMIC CHARGES
-----------------------
   0 C :   -0.428292
   1 C :    0.164288
   2 C :   -0.022538
   3 O :   -0.478023
   4 C :   -0.313497
   5 C :   -0.164992
   6 C :   -0.048313
   7 N :   -0.161198
   8 O :   -0.365235
   9 H :    0.131308
  10 H :    0.132284
  11 H :    0.152693
  12 H :    0.109873
  13 H :    0.097672
  14 H :    0.326041
  15 H :    0.127647
  16 H :    0.129763
  17 H :    0.136242
  18 H :    0.137103
  19 H :    0.337172
Sum of atomic charges:    0.0000000

LOEWDIN ATOMIC CHARGES
----------------------
   0 C :   -0.260292
   1 C :   -0.257384
   2 C :   -0.306691
   3 O :   -0.037375
   4 C :   -0.177614
   5 C :   -0.199932
   6 C :   -0.240295
   7 N :    0.009365
   8 O :   -0.071909
   9 H :    0.127162
  10 H :    0.128154
  11 H :    0.134433
  12 H :    0.132150
  13 H :    0.121625
  14 H :    0.171559
  15 H :    0.134792
  16 H :    0.131817
  17 H :    0.143098
  18 H :    0.147387
  19 H :    0.169949

  Mayer bond orders larger than 0.1
B(  0-C ,  1-C ) :   0.8882 B(  0-C ,  9-H ) :   0.9295 B(  0-C , 10-H ) :   0.9354
B(  0-C , 11-H ) :   0.9319 B(  1-C ,  2-C ) :   0.9085 B(  1-C ,  4-C ) :   0.9024
B(  1-C ,  6-C ) :   0.8830 B(  2-C ,  3-O ) :   0.9448 B(  2-C , 12-H ) :   0.9287
B(  2-C , 13-H ) :   0.9135 B(  3-O , 14-H ) :   0.8220 B(  4-C ,  5-C ) :   0.9749
B(  4-C , 15-H ) :   0.9133 B(  4-C , 16-H ) :   0.9262 B(  5-C ,  6-C ) :   0.9685
B(  5-C , 17-H ) :   0.8997 B(  5-C , 18-H ) :   0.8970 B(  6-C ,  7-N ) :   1.7735
B(  7-N ,  8-O ) :   0.8061 B(  8-O , 19-H ) :   0.8431

MP2 TOTAL ENERGY:     -439.513942858 Eh
FINAL SINGLE POINT ENERGY      -439.513942858347

DIPOLE MOMENT
-------------
                                X             Y             Z
Electronic contribution:      1.32964      -2.94684       5.84382
Nuclear contribution   :     -0.67230       2.81118      -6.23789
                        -----------------------------------------
Total Dipole Moment    :      0.65734      -0.13565      -0.39408
                        -----------------------------------------
Magnitude (a.u.)       :      0.77833
Magnitude (Debye)      :      1.97835

                             ****ORCA TERMINATED NORMALLY****
TOTAL RUN TIME: 0 days 0 hours 18 minutes 31 seconds 781 msec
