                         Program Version 3.0.3 - RELEASE   -
|  1> ! RI-MP2 RIJK def2-TZVP def2-TZVP/C def2-TZVP/JK TIGHTSCF
|  2> % maxcore 2000
|  3> % mp2 density relaxed end
|  4> *xyz 0 1
|  5>  O       -0.0529595260    -0.0040176424     0.1996802588
|  6>  C       -0.0391601148     1.1920891561     0.0647051248
|  7>  N       -1.1172569089     2.0216176171    -0.0970897257
|  8>  C       -0.8172611356     3.4229782715    -0.0460473755
|  9>  C       -0.2018374193     3.9440527930     1.2293836905
| 10>  C        0.6826327452     3.5308277976     0.0732619249
| 11>  C        1.2321755725     2.1083745663     0.0434279419
| 12>  C        2.1450128041     1.7846664545     1.1348192146
| 13>  N        2.8685351134     1.5591796250     2.0067083971
| 14>  H       -2.0437166151     1.6530657065     0.0562330077
| 15>  H       -1.3911985121     4.0639223102    -0.7044847246
| 16>  H       -0.2676679464     5.0078182748     1.4285846133
| 17>  H       -0.2435915003     3.3106414182     2.1094403857
| 18>  H        1.2262235295     4.2963783071    -0.4640906562
| 19>  H        1.7501314139     1.9164070647    -0.9036892172
| 20> *
| 21>
| 22>                          ****END OF INPUT****

CARTESIAN COORDINATES (ANGSTROEM)
---------------------------------
  O     -0.052960   -0.004018    0.199680
  C     -0.039160    1.192089    0.064705
  N     -1.117257    2.021618   -0.097090
  C     -0.817261    3.422978   -0.046047
  C     -0.201837    3.944053    1.229384
  C      0.682633    3.530828    0.073262
  C      1.232176    2.108375    0.043428
  C      2.145013    1.784666    1.134819
  N      2.868535    1.559180    2.006708
  H     -2.043717    1.653066    0.056233
  H     -1.391199    4.063922   -0.704485
  H     -0.267668    5.007818    1.428585
  H     -0.243592    3.310641    2.109440
  H      1.226224    4.296378   -0.464091
  H      1.750131    1.916407   -0.903689

 Total Charge           Charge          ....    0
 Multiplicity           Mult            ....    1
 Number of Electrons    NEL             ....   64
 Basis Dimension        Dim             ....  315

ORBITAL ENERGIES
----------------

  NO   OCC          E(Eh)            E(eV)
   0   2.0000     -20.546212      -559.0909
   1   2.0000     -15.610907      -424.7944
   2   2.0000     -15.575169      -423.8219
   3   2.0000     -11.380706      -309.6848
   4   2.0000     -11.310740      -307.7809
   5   2.0000     -11.306997      -307.6790
   6   2.0000     -11.279811      -306.9393
   7   2.0000     -11.279281      -306.9248
   8   2.0000     -11.263395      -306.4926
   9   2.0000      -1.413412       -38.4609
  10   2.0000      -1.296412       -35.2772
  11   2.0000      -1.223430       -33.2912
  12   2.0000      -1.152213       -31.3533
  13   2.0000      -1.067876       -29.0584
  14   2.0000      -0.879198       -23.9242
  15   2.0000      -0.854673       -23.2568
  16   2.0000      -0.834441       -22.7063
  17   2.0000      -0.739089       -20.1116
  18   2.0000      -0.714633       -19.4461
  19   2.0000      -0.679017       -18.4770
  20   2.0000      -0.658964       -17.9313
  21   2.0000      -0.633842       -17.2477
  22   2.0000      -0.614929       -16.7331
  23   2.0000      -0.593048       -16.1377
  24   2.0000      -0.565720       -15.3940
  25   2.0000      -0.556679       -15.1480
  26   2.0000      -0.503444       -13.6994
  27   2.0000      -0.483631       -13.1603
  28   2.0000      -0.465553       -12.6683
  29   2.0000      -0.457018       -12.4361
  30   2.0000      -0.434234       -11.8161
  31   2.0000      -0.397782       -10.8242
  32   0.0000       0.116481         3.1696
  33   0.0000       0.131888         3.5889
  34   0.0000       0.147733         4.0200
  35   0.0000       0.154392         4.2012
  36   0.0000       0.160857         4.3771

MULLIKEN ATOMIC CHARGES
-----------------------
   0 O :   -0.291618
   1 C :    0.163926
   2 N :   -0.308086
   3 C :    0.005266
   4 C :   -0.277415
   5 C :   -0.128621
   6 C :    0.057607
   7 C :   -0.192301
   8 N :   -0.049257
   9 H :    0.252614
  10 H :    0.148036
  11 H :    0.144688
  12 H :    0.163345
  13 H :    0.154652
  14 H :    0.157165
Sum of atomic charges:    0.0000000

LOEWDIN ATOMIC CHARGES
----------------------
   0 O :    0.125083
   1 C :   -0.405077
   2 N :    0.150078
   3 C :   -0.230670
   4 C :   -0.186555
   5 C :   -0.158215
   6 C :   -0.178208
   7 C :   -0.157794
   8 N :    0.072928
   9 H :    0.193513
  10 H :    0.144409
  11 H :    0.141690
  12 H :    0.145900
  13 H :    0.152512
  14 H :    0.190405

  Mayer bond orders larger than 0.1
B(  0-O ,  1-C ) :   2.0427 B(  1-C ,  2-N ) :   1.1847 B(  1-C ,  6-C ) :   0.8481
B(  2-N ,  3-C ) :   0.8949 B(  2-N ,  9-H ) :   0.8579 B(  3-C ,  4-C ) :   0.8845
B(  3-C ,  5-C ) :   0.8905 B(  3-C , 10-H ) :   0.9264 B(  4-C ,  5-C ) :   0.8808
B(  4-C , 11-H ) :   0.9245 B(  4-C , 12-H ) :   0.9192 B(  5-C ,  6-C ) :   0.8906
B(  5-C , 13-H ) :   0.9193 B(  6-C ,  7-C ) :   0.9462 B(  6-C , 14-H ) :   0.8842
B(  7-C ,  8-N ) :   2.8589

MP2 TOTAL ENERGY:     -416.138752436 Eh
FINAL SINGLE POINT ENERGY      -416.138752435960

DIPOLE MOMENT
-------------
                                X             Y             Z
Electronic contribution:      2.24572      -5.04734       0.33376
Nuclear contribution   :     -3.62164       6.86272      -1.40623
                        -----------------------------------------
Total Dipole Moment    :     -1.37591       1.81538      -1.07247
                        -----------------------------------------
Magnitude (a.u.)       :      2.51772
Magnitude (Debye)      :      6.39953

                             ****ORCA TERMINATED NORMALLY****
TOTAL RUN TIME: 0 days 0 hours 16 minutes 44 seconds 762 msec
