                         Program Version 3.0.3 - RELEASE   -
|  1> ! RI-MP2 RIJK def2-TZVP def2-TZVP/C def2-TZVP/JK TIGHTSCF
|  2> % maxcore 2000
|  3> % mp2 density relaxed end
|  4> *xyz 0 1
|  5>  C       -0.2196062020     1.5919370680     0.0883680374
|  6>  C       -0.0031982954     0.0764881920     0.0205484572
|  7>  C        0.6909735835    -0.4425039117    -1.2648732197
|  8>  C        0.0057290483     0.0371960506    -2.5683824295
|  9>  C        2.1706764270    -0.0124616352    -1.3249068012
| 10>  O        2.7472680868     0.6043162022    -0.4709209056
| 11>  C        0.7313857788    -1.9077988369    -1.2534318876
| 12>  C        0.8012729890    -3.1084764803    -1.2450275047
| 13>  H        0.7248180595     2.1331534021    -0.0012732356
| 14>  H       -0.9007133568     1.9470663529    -0.6909418325
| 15>  H       -0.6650718809     1.8562902867     1.0522499767
| 16>  H        0.6043215732    -0.2419890985     0.8727042557
| 17>  H       -0.9646940254    -0.4407804596     0.1082208370
| 18>  H        0.0230405408     1.1274855959    -2.6415760107
| 19>  H        0.5110133456    -0.3775791115    -3.4450954589
| 20>  H       -1.0342487258    -0.2989327260    -2.5890284088
| 21>  H        2.6861424128    -0.3424043908    -2.2544625805
| 22>  H        0.8480964910    -4.1695492898    -1.2320496388
| 23> *
| 24>
| 25>                          ****END OF INPUT****

CARTESIAN COORDINATES (ANGSTROEM)
---------------------------------
  C     -0.219606    1.591937    0.088368
  C     -0.003198    0.076488    0.020548
  C      0.690974   -0.442504   -1.264873
  C      0.005729    0.037196   -2.568382
  C      2.170676   -0.012462   -1.324907
  O      2.747268    0.604316   -0.470921
  C      0.731386   -1.907799   -1.253432
  C      0.801273   -3.108476   -1.245028
  H      0.724818    2.133153   -0.001273
  H     -0.900713    1.947066   -0.690942
  H     -0.665072    1.856290    1.052250
  H      0.604322   -0.241989    0.872704
  H     -0.964694   -0.440780    0.108221
  H      0.023041    1.127486   -2.641576
  H      0.511013   -0.377579   -3.445095
  H     -1.034249   -0.298933   -2.589028
  H      2.686142   -0.342404   -2.254463
  H      0.848096   -4.169549   -1.232050

 Total Charge           Charge          ....    0
 Multiplicity           Mult            ....    1
 Number of Electrons    NEL             ....   60
 Basis Dimension        Dim             ....  308

ORBITAL ENERGIES
----------------

  NO   OCC          E(Eh)            E(eV)
   0   2.0000     -20.564113      -559.5780
   1   2.0000     -11.339218      -308.5558
   2   2.0000     -11.281563      -306.9869
   3   2.0000     -11.245175      -305.9968
   4   2.0000     -11.241470      -305.8960
   5   2.0000     -11.235980      -305.7466
   6   2.0000     -11.233936      -305.6909
   7   2.0000     -11.215597      -305.1919
   8   2.0000      -1.405537       -38.2466
   9   2.0000      -1.134732       -30.8776
  10   2.0000      -1.028679       -27.9918
  11   2.0000      -0.997670       -27.1480
  12   2.0000      -0.919282       -25.0149
  13   2.0000      -0.858110       -23.3503
  14   2.0000      -0.784045       -21.3349
  15   2.0000      -0.729008       -19.8373
  16   2.0000      -0.691277       -18.8106
  17   2.0000      -0.656879       -17.8746
  18   2.0000      -0.646788       -17.6000
  19   2.0000      -0.591921       -16.1070
  20   2.0000      -0.584160       -15.8958
  21   2.0000      -0.560525       -15.2527
  22   2.0000      -0.548278       -14.9194
  23   2.0000      -0.529209       -14.4005
  24   2.0000      -0.507943       -13.8218
  25   2.0000      -0.497568       -13.5395
  26   2.0000      -0.485065       -13.1993
  27   2.0000      -0.436105       -11.8670
  28   2.0000      -0.398248       -10.8369
  29   2.0000      -0.390244       -10.6191
  30   0.0000       0.118277         3.2185
  31   0.0000       0.132153         3.5961
  32   0.0000       0.152235         4.1425
  33   0.0000       0.167073         4.5463
  34   0.0000       0.168940         4.5971

MULLIKEN ATOMIC CHARGES
-----------------------
   0 C :   -0.441969
   1 C :   -0.181803
   2 C :    0.019877
   3 C :   -0.445166
   4 C :    0.078836
   5 O :   -0.257225
   6 C :   -0.063189
   7 C :   -0.120133
   8 H :    0.154984
   9 H :    0.128097
  10 H :    0.139280
  11 H :    0.128347
  12 H :    0.123806
  13 H :    0.153818
  14 H :    0.147245
  15 H :    0.147715
  16 H :    0.091940
  17 H :    0.195537
Sum of atomic charges:    0.0000000

LOEWDIN ATOMIC CHARGES
----------------------
   0 C :   -0.313772
   1 C :   -0.230902
   2 C :   -0.291788
   3 C :   -0.243388
   4 C :   -0.236021
   5 O :    0.152998
   6 C :   -0.070238
   7 C :   -0.082241
   8 H :    0.126671
   9 H :    0.118569
  10 H :    0.125582
  11 H :    0.150316
  12 H :    0.145181
  13 H :    0.129758
  14 H :    0.132211
  15 H :    0.135349
  16 H :    0.122730
  17 H :    0.128985

  Mayer bond orders larger than 0.1
B(  0-C ,  1-C ) :   0.8951 B(  0-C ,  8-H ) :   0.9365 B(  0-C ,  9-H ) :   0.9398
B(  0-C , 10-H ) :   0.9378 B(  1-C ,  2-C ) :   0.9290 B(  1-C , 11-H ) :   0.9191
B(  1-C , 12-H ) :   0.9296 B(  2-C ,  3-C ) :   0.8928 B(  2-C ,  4-C ) :   0.8191
B(  2-C ,  6-C ) :   1.1233 B(  2-C ,  7-C ) :  -0.1037 B(  3-C , 13-H ) :   0.9341
B(  3-C , 14-H ) :   0.9235 B(  3-C , 15-H ) :   0.9310 B(  4-C ,  5-O ) :   1.9929
B(  4-C , 16-H ) :   0.9363 B(  6-C ,  7-C ) :   2.5876 B(  7-C , 17-H ) :   0.8790

MP2 TOTAL ENERGY:     -347.170109392 Eh
FINAL SINGLE POINT ENERGY      -347.170109391519

DIPOLE MOMENT
-------------
                                X             Y             Z
Electronic contribution:      5.79322      -4.34070       0.32117
Nuclear contribution   :     -6.42674       4.05878      -0.85294
                        -----------------------------------------
Total Dipole Moment    :     -0.63351      -0.28192      -0.53177
                        -----------------------------------------
Magnitude (a.u.)       :      0.87384
Magnitude (Debye)      :      2.22113

                             ****ORCA TERMINATED NORMALLY****
TOTAL RUN TIME: 0 days 0 hours 13 minutes 45 seconds 695 msec
