                         Program Version 3.0.3 - RELEASE   -
|  1> ! RI-MP2 RIJK def2-TZVP def2-TZVP/C def2-TZVP/JK TIGHTSCF
|  2> % maxcore 2000
|  3> % mp2 density relaxed end
|  4> *xyz 0 1
|  5>  C       -0.2475917986     1.4227967851     0.1635383876
|  6>  C        0.0667502888    -0.0657830652    -0.0426273835
|  7>  C        0.8495920969    -0.3086017363    -1.3535778044
|  8>  C        0.0422157431     0.0403734353    -2.5803363035
|  9>  O        0.3988080451     0.7710550352    -3.4692134149
| 10>  C        0.8336149218    -0.6302365033     1.1404136988
| 11>  C        0.0931341355    -1.1308483974     2.3662695331
| 12>  C        0.7982993237    -2.0984126671     1.4471429857
| 13>  O        0.0481051556    -2.8989155171     0.5767258811
| 14>  H        0.6745993041     2.0104411580     0.2400525723
| 15>  H       -0.8274041300     1.8310605880    -0.6706603856
| 16>  H       -0.8206561523     1.5771375612     1.0827417377
| 17>  H       -0.8770376002    -0.6183978649    -0.1209568070
| 18>  H        1.7878967864     0.2554132034    -1.3758084392
| 19>  H        1.0841777397    -1.3797241675    -1.4163095090
| 20>  H       -0.9591802349    -0.4532595237    -2.6161550880
| 21>  H        1.7856360549    -0.1371748684     1.3254203674
| 22>  H        0.5038874996    -0.9444706064     3.3526562712
| 23>  H       -0.9915419283    -1.1219870448     2.3161963820
| 24>  H        1.7165753932    -2.5612778296     1.8080879321
| 25>  H       -0.3777076640    -3.5890132945     1.0953820360
| 26> *
| 27>
| 28>                          ****END OF INPUT****

CARTESIAN COORDINATES (ANGSTROEM)
---------------------------------
  C     -0.247592    1.422797    0.163538
  C      0.066750   -0.065783   -0.042627
  C      0.849592   -0.308602   -1.353578
  C      0.042216    0.040373   -2.580336
  O      0.398808    0.771055   -3.469213
  C      0.833615   -0.630237    1.140414
  C      0.093134   -1.130848    2.366270
  C      0.798299   -2.098413    1.447143
  O      0.048105   -2.898916    0.576726
  H      0.674599    2.010441    0.240053
  H     -0.827404    1.831061   -0.670660
  H     -0.820656    1.577138    1.082742
  H     -0.877038   -0.618398   -0.120957
  H      1.787897    0.255413   -1.375808
  H      1.084178   -1.379724   -1.416310
  H     -0.959180   -0.453260   -2.616155
  H      1.785636   -0.137175    1.325420
  H      0.503887   -0.944471    3.352656
  H     -0.991542   -1.121987    2.316196
  H      1.716575   -2.561278    1.808088
  H     -0.377708   -3.589013    1.095382

 Total Charge           Charge          ....    0
 Multiplicity           Mult            ....    1
 Number of Electrons    NEL             ....   70
 Basis Dimension        Dim             ....  351

ORBITAL ENERGIES
----------------

  NO   OCC          E(Eh)            E(eV)
   0   2.0000     -20.573609      -559.8364
   1   2.0000     -20.548196      -559.1448
   2   2.0000     -11.323251      -308.1213
   3   2.0000     -11.291293      -307.2517
   4   2.0000     -11.243457      -305.9500
   5   2.0000     -11.239525      -305.8430
   6   2.0000     -11.234070      -305.6946
   7   2.0000     -11.230040      -305.5849
   8   2.0000     -11.218967      -305.2836
   9   2.0000      -1.386842       -37.7379
  10   2.0000      -1.382545       -37.6210
  11   2.0000      -1.151411       -31.3315
  12   2.0000      -1.072725       -29.1903
  13   2.0000      -0.967498       -26.3269
  14   2.0000      -0.874989       -23.8097
  15   2.0000      -0.834909       -22.7190
  16   2.0000      -0.785259       -21.3680
  17   2.0000      -0.773929       -21.0597
  18   2.0000      -0.710775       -19.3412
  19   2.0000      -0.676175       -18.3996
  20   2.0000      -0.658910       -17.9298
  21   2.0000      -0.634112       -17.2551
  22   2.0000      -0.619143       -16.8477
  23   2.0000      -0.611524       -16.6404
  24   2.0000      -0.563983       -15.3467
  25   2.0000      -0.556984       -15.1563
  26   2.0000      -0.553681       -15.0664
  27   2.0000      -0.526190       -14.3184
  28   2.0000      -0.518566       -14.1109
  29   2.0000      -0.498178       -13.5561
  30   2.0000      -0.483076       -13.1452
  31   2.0000      -0.477530       -12.9942
  32   2.0000      -0.420817       -11.4510
  33   2.0000      -0.412478       -11.2241
  34   2.0000      -0.399031       -10.8582
  35   0.0000       0.129215         3.5161
  36   0.0000       0.143436         3.9031
  37   0.0000       0.146649         3.9905
  38   0.0000       0.149487         4.0678
  39   0.0000       0.170218         4.6319

MULLIKEN ATOMIC CHARGES
-----------------------
   0 C :   -0.395342
   1 C :   -0.098462
   2 C :   -0.143575
   3 C :    0.073951
   4 O :   -0.265846
   5 C :   -0.089763
   6 C :   -0.286171
   7 C :    0.017126
   8 O :   -0.474614
   9 H :    0.125151
  10 H :    0.142759
  11 H :    0.136193
  12 H :    0.098072
  13 H :    0.111819
  14 H :    0.148213
  15 H :    0.070953
  16 H :    0.125056
  17 H :    0.133696
  18 H :    0.136340
  19 H :    0.109227
  20 H :    0.325218
Sum of atomic charges:   -0.0000000

LOEWDIN ATOMIC CHARGES
----------------------
   0 C :   -0.282548
   1 C :   -0.262770
   2 C :   -0.235104
   3 C :   -0.297790
   4 O :    0.126568
   5 C :   -0.193165
   6 C :   -0.217920
   7 C :   -0.319840
   8 O :   -0.006043
   9 H :    0.126264
  10 H :    0.126035
  11 H :    0.125662
  12 H :    0.159480
  13 H :    0.145539
  14 H :    0.161280
  15 H :    0.109904
  16 H :    0.152704
  17 H :    0.131489
  18 H :    0.138407
  19 H :    0.130262
  20 H :    0.181585

  Mayer bond orders larger than 0.1
B(  0-C ,  1-C ) :   0.9201 B(  0-C ,  9-H ) :   0.9293 B(  0-C , 10-H ) :   0.9373
B(  0-C , 11-H ) :   0.9405 B(  1-C ,  2-C ) :   0.9013 B(  1-C ,  5-C ) :   0.9253
B(  1-C , 12-H ) :   0.9190 B(  2-C ,  3-C ) :   0.8710 B(  2-C , 13-H ) :   0.8951
B(  2-C , 14-H ) :   0.9108 B(  3-C ,  4-O ) :   2.0080 B(  3-C , 15-H ) :   0.9417
B(  5-C ,  6-C ) :   0.8812 B(  5-C ,  7-C ) :   0.8841 B(  5-C , 16-H ) :   0.9161
B(  6-C ,  7-C ) :   0.8911 B(  6-C , 17-H ) :   0.9218 B(  6-C , 18-H ) :   0.9221
B(  7-C ,  8-O ) :   1.0297 B(  7-C , 19-H ) :   0.9525 B(  8-O , 20-H ) :   0.8395

MP2 TOTAL ENERGY:     -423.512499993 Eh
FINAL SINGLE POINT ENERGY      -423.512499992964

DIPOLE MOMENT
-------------
                                X             Y             Z
Electronic contribution:      0.71105      -2.30797      -5.53664
Nuclear contribution   :     -0.90710       1.53896       7.09053
                        -----------------------------------------
Total Dipole Moment    :     -0.19605      -0.76902       1.55389
                        -----------------------------------------
Magnitude (a.u.)       :      1.74482
Magnitude (Debye)      :      4.43498

                             ****ORCA TERMINATED NORMALLY****
TOTAL RUN TIME: 0 days 0 hours 20 minutes 19 seconds 8 msec
