                         Program Version 3.0.3 - RELEASE   -
|  1> ! RI-MP2 RIJK def2-TZVP def2-TZVP/C def2-TZVP/JK TIGHTSCF
|  2> % maxcore 2000
|  3> % mp2 density relaxed end
|  4> *xyz 0 1
|  5>  C        0.0280073434     1.5581860543     0.0321526857
|  6>  C        0.0373543968     0.0271971697     0.0283597075
|  7>  C        0.7787257376    -0.5274714675     1.2487027528
|  8>  O        2.1080060129    -0.0375065615     1.1961293930
|  9>  C       -1.4204392883    -0.5346522071    -0.0235503817
| 10>  C       -2.1641516326    -0.0622973429    -1.1931635997
| 11>  C       -2.7673352505     0.3275842632    -2.1547249142
| 12>  C       -1.4374879934    -2.0081501993     0.0125977345
| 13>  N       -1.4382317773    -3.1625747016     0.0549696075
| 14>  H        1.0529953941     1.9277145750     0.0896326090
| 15>  H       -0.4430760389     1.9555295812    -0.8694439812
| 16>  H       -0.5193605974     1.9428407098     0.9015641931
| 17>  H        0.5594066465    -0.3290660687    -0.8666158454
| 18>  H        0.2666553828    -0.1965434470     2.1693142309
| 19>  H        0.7600281345    -1.6257730983     1.2336023790
| 20>  H        2.6075665634    -0.4431305285     1.9103391977
| 21>  H       -1.9417809018    -0.1904604648     0.8821104662
| 22>  H       -3.3064809717     0.6679968440    -3.0044660947
| 23> *
| 24>
| 25>                          ****END OF INPUT****

CARTESIAN COORDINATES (ANGSTROEM)
---------------------------------
  C      0.028007    1.558186    0.032153
  C      0.037354    0.027197    0.028360
  C      0.778726   -0.527471    1.248703
  O      2.108006   -0.037507    1.196129
  C     -1.420439   -0.534652   -0.023550
  C     -2.164152   -0.062297   -1.193164
  C     -2.767335    0.327584   -2.154725
  C     -1.437488   -2.008150    0.012598
  N     -1.438232   -3.162575    0.054970
  H      1.052995    1.927715    0.089633
  H     -0.443076    1.955530   -0.869444
  H     -0.519361    1.942841    0.901564
  H      0.559407   -0.329066   -0.866616
  H      0.266655   -0.196543    2.169314
  H      0.760028   -1.625773    1.233602
  H      2.607567   -0.443131    1.910339
  H     -1.941781   -0.190460    0.882110
  H     -3.306481    0.667997   -3.004466

 Total Charge           Charge          ....    0
 Multiplicity           Mult            ....    1
 Number of Electrons    NEL             ....   66
 Basis Dimension        Dim             ....  333

ORBITAL ENERGIES
----------------

  NO   OCC          E(Eh)            E(eV)
   0   2.0000     -20.570761      -559.7589
   1   2.0000     -15.577592      -423.8878
   2   2.0000     -11.319997      -308.0328
   3   2.0000     -11.292885      -307.2950
   4   2.0000     -11.282332      -307.0079
   5   2.0000     -11.263886      -306.5059
   6   2.0000     -11.257874      -306.3423
   7   2.0000     -11.246951      -306.0451
   8   2.0000     -11.225251      -305.4546
   9   2.0000      -1.376563       -37.4582
  10   2.0000      -1.229430       -33.4545
  11   2.0000      -1.142170       -31.0800
  12   2.0000      -1.052228       -28.6326
  13   2.0000      -0.991741       -26.9866
  14   2.0000      -0.938615       -25.5410
  15   2.0000      -0.812899       -22.1201
  16   2.0000      -0.763226       -20.7684
  17   2.0000      -0.730289       -19.8722
  18   2.0000      -0.712623       -19.3915
  19   2.0000      -0.687973       -18.7207
  20   2.0000      -0.645973       -17.5778
  21   2.0000      -0.604841       -16.4586
  22   2.0000      -0.594163       -16.1680
  23   2.0000      -0.571188       -15.5428
  24   2.0000      -0.560519       -15.2525
  25   2.0000      -0.532905       -14.5011
  26   2.0000      -0.512721       -13.9519
  27   2.0000      -0.490800       -13.3553
  28   2.0000      -0.473371       -12.8811
  29   2.0000      -0.468367       -12.7449
  30   2.0000      -0.456806       -12.4303
  31   2.0000      -0.414409       -11.2766
  32   2.0000      -0.408812       -11.1243
  33   0.0000       0.118540         3.2256
  34   0.0000       0.135020         3.6741
  35   0.0000       0.148975         4.0538
  36   0.0000       0.151750         4.1293
  37   0.0000       0.163069         4.4373

MULLIKEN ATOMIC CHARGES
-----------------------
   0 C :   -0.411008
   1 C :   -0.017967
   2 C :   -0.101451
   3 O :   -0.463511
   4 C :   -0.116243
   5 C :   -0.036815
   6 C :   -0.090440
   7 C :   -0.170703
   8 N :   -0.049066
   9 H :    0.167093
  10 H :    0.154802
  11 H :    0.116464
  12 H :    0.111780
  13 H :    0.094542
  14 H :    0.138093
  15 H :    0.322301
  16 H :    0.150680
  17 H :    0.201446
Sum of atomic charges:   -0.0000000

LOEWDIN ATOMIC CHARGES
----------------------
   0 C :   -0.279825
   1 C :   -0.235626
   2 C :   -0.324905
   3 O :   -0.038133
   4 C :   -0.205144
   5 C :   -0.072646
   6 C :   -0.069246
   7 C :   -0.154136
   8 N :    0.070420
   9 H :    0.135136
  10 H :    0.130562
  11 H :    0.125943
  12 H :    0.165743
  13 H :    0.119974
  14 H :    0.128271
  15 H :    0.176597
  16 H :    0.195641
  17 H :    0.131374

  Mayer bond orders larger than 0.1
B(  0-C ,  1-C ) :   0.9221 B(  0-C ,  9-H ) :   0.9311 B(  0-C , 10-H ) :   0.9361
B(  0-C , 11-H ) :   0.9230 B(  1-C ,  2-C ) :   0.9216 B(  1-C ,  4-C ) :   0.9072
B(  1-C , 12-H ) :   0.9050 B(  2-C ,  3-O ) :   1.0266 B(  2-C , 13-H ) :   0.9159
B(  2-C , 14-H ) :   0.9322 B(  3-O , 15-H ) :   0.8444 B(  4-C ,  5-C ) :   1.1434
B(  4-C ,  6-C ) :  -0.1149 B(  4-C ,  7-C ) :   0.8954 B(  4-C , 16-H ) :   0.8928
B(  5-C ,  6-C ) :   2.6020 B(  6-C , 17-H ) :   0.8796 B(  7-C ,  8-N ) :   2.8680

MP2 TOTAL ENERGY:     -401.228267338 Eh
FINAL SINGLE POINT ENERGY      -401.228267337860

DIPOLE MOMENT
-------------
                                X             Y             Z
Electronic contribution:     -3.87270      -6.19680      -2.03118
Nuclear contribution   :      3.98536       7.29727       2.46714
                        -----------------------------------------
Total Dipole Moment    :      0.11266       1.10047       0.43595
                        -----------------------------------------
Magnitude (a.u.)       :      1.18902
Magnitude (Debye)      :      3.02226

                             ****ORCA TERMINATED NORMALLY****
TOTAL RUN TIME: 0 days 0 hours 16 minutes 33 seconds 948 msec
