                         Program Version 3.0.3 - RELEASE   -
|  1> ! RI-MP2 RIJK def2-TZVP def2-TZVP/C def2-TZVP/JK TIGHTSCF
|  2> % maxcore 2000
|  3> % mp2 density relaxed end
|  4> *xyz 0 1
|  5>  C       -0.0962215179     1.4822517601    -0.1654951515
|  6>  C       -0.0423497203    -0.0202574887     0.0983369880
|  7>  N       -1.3678684147    -0.6212373785     0.0838817990
|  8>  C       -2.2712150395    -0.3478690555     1.2312612810
|  9>  C       -2.6003852887    -1.8472186065     1.2564345994
| 10>  O       -3.3920668131    -2.5349198981     1.8233129027
| 11>  C       -1.4692693020    -2.0995487210     0.2417249198
| 12>  C       -1.8120306871    -2.8239135379    -1.0574619754
| 13>  O       -2.8294320985    -2.1426020918    -1.7540963714
| 14>  H        0.9116083168     1.9076403115    -0.1699998553
| 15>  H       -0.5662375647     1.6869416781    -1.1316981265
| 16>  H       -0.6728720874     2.0002693174     0.6079991771
| 17>  H        0.5528401523    -0.5108266499    -0.6805712688
| 18>  H        0.4705129385    -0.2132721817     1.0604919919
| 19>  H       -1.7488737735    -0.0359996562     2.1506329608
| 20>  H       -3.0929912164     0.3471916014     1.0338830646
| 21>  H       -0.5962355905    -2.5584883737     0.7348368057
| 22>  H       -0.8997196400    -2.9305513484    -1.6691739214
| 23>  H       -2.1753542679    -3.8307796832    -0.8248391741
| 24>  H       -2.5934940855    -1.2060831772    -1.6788187556
| 25> *
| 26>
| 27>                          ****END OF INPUT****

CARTESIAN COORDINATES (ANGSTROEM)
---------------------------------
  C     -0.096222    1.482252   -0.165495
  C     -0.042350   -0.020257    0.098337
  N     -1.367868   -0.621237    0.083882
  C     -2.271215   -0.347869    1.231261
  C     -2.600385   -1.847219    1.256435
  O     -3.392067   -2.534920    1.823313
  C     -1.469269   -2.099549    0.241725
  C     -1.812031   -2.823914   -1.057462
  O     -2.829432   -2.142602   -1.754096
  H      0.911608    1.907640   -0.170000
  H     -0.566238    1.686942   -1.131698
  H     -0.672872    2.000269    0.607999
  H      0.552840   -0.510827   -0.680571
  H      0.470513   -0.213272    1.060492
  H     -1.748874   -0.036000    2.150633
  H     -3.092991    0.347192    1.033883
  H     -0.596236   -2.558488    0.734837
  H     -0.899720   -2.930551   -1.669174
  H     -2.175354   -3.830780   -0.824839
  H     -2.593494   -1.206083   -1.678819

 Total Charge           Charge          ....    0
 Multiplicity           Mult            ....    1
 Number of Electrons    NEL             ....   70
 Basis Dimension        Dim             ....  345

ORBITAL ENERGIES
----------------

  NO   OCC          E(Eh)            E(eV)
   0   2.0000     -20.564715      -559.5943
   1   2.0000     -20.552403      -559.2593
   2   2.0000     -15.575443      -423.8293
   3   2.0000     -11.342319      -308.6402
   4   2.0000     -11.284491      -307.0666
   5   2.0000     -11.279851      -306.9404
   6   2.0000     -11.277697      -306.8817
   7   2.0000     -11.271549      -306.7144
   8   2.0000     -11.230713      -305.6032
   9   2.0000      -1.409458       -38.3533
  10   2.0000      -1.364352       -37.1259
  11   2.0000      -1.271673       -34.6040
  12   2.0000      -1.065904       -29.0047
  13   2.0000      -1.000703       -27.2305
  14   2.0000      -0.947389       -25.7798
  15   2.0000      -0.876870       -23.8609
  16   2.0000      -0.821930       -22.3659
  17   2.0000      -0.739732       -20.1291
  18   2.0000      -0.704539       -19.1715
  19   2.0000      -0.684962       -18.6388
  20   2.0000      -0.671314       -18.2674
  21   2.0000      -0.647368       -17.6158
  22   2.0000      -0.624667       -16.9981
  23   2.0000      -0.609022       -16.5723
  24   2.0000      -0.605957       -16.4889
  25   2.0000      -0.586725       -15.9656
  26   2.0000      -0.557716       -15.1762
  27   2.0000      -0.535447       -14.5703
  28   2.0000      -0.527957       -14.3664
  29   2.0000      -0.522527       -14.2187
  30   2.0000      -0.496604       -13.5133
  31   2.0000      -0.481366       -13.0986
  32   2.0000      -0.458326       -12.4717
  33   2.0000      -0.404647       -11.0110
  34   2.0000      -0.391890       -10.6639
  35   0.0000       0.118285         3.2187
  36   0.0000       0.124705         3.3934
  37   0.0000       0.150646         4.0993
  38   0.0000       0.152756         4.1567
  39   0.0000       0.168659         4.5895

MULLIKEN ATOMIC CHARGES
-----------------------
   0 C :   -0.376316
   1 C :   -0.157549
   2 N :   -0.223017
   3 C :   -0.175699
   4 C :    0.132315
   5 O :   -0.235295
   6 C :   -0.017825
   7 C :   -0.005827
   8 O :   -0.481014
   9 H :    0.134426
  10 H :    0.131094
  11 H :    0.129070
  12 H :    0.122045
  13 H :    0.097293
  14 H :    0.126045
  15 H :    0.142840
  16 H :    0.114699
  17 H :    0.099597
  18 H :    0.123097
  19 H :    0.320021
Sum of atomic charges:   -0.0000000

LOEWDIN ATOMIC CHARGES
----------------------
   0 C :   -0.314251
   1 C :   -0.324934
   2 N :    0.101557
   3 C :   -0.222310
   4 C :   -0.290839
   5 O :    0.182167
   6 C :   -0.236407
   7 C :   -0.333136
   8 O :   -0.039455
   9 H :    0.125203
  10 H :    0.123950
  11 H :    0.121772
  12 H :    0.134913
  13 H :    0.120617
  14 H :    0.137584
  15 H :    0.134261
  16 H :    0.152116
  17 H :    0.119167
  18 H :    0.137349
  19 H :    0.170675

  Mayer bond orders larger than 0.1
B(  0-C ,  1-C ) :   0.9366 B(  0-C ,  9-H ) :   0.9360 B(  0-C , 10-H ) :   0.9351
B(  0-C , 11-H ) :   0.9342 B(  1-C ,  2-N ) :   0.8875 B(  1-C , 12-H ) :   0.9276
B(  1-C , 13-H ) :   0.9166 B(  2-N ,  3-C ) :   0.9066 B(  2-N ,  6-C ) :   0.8759
B(  3-C ,  4-C ) :   0.9191 B(  3-C , 14-H ) :   0.8950 B(  3-C , 15-H ) :   0.9058
B(  4-C ,  5-O ) :   2.0693 B(  4-C ,  6-C ) :   0.8402 B(  6-C ,  7-C ) :   0.9377
B(  6-C , 16-H ) :   0.8868 B(  7-C ,  8-O ) :   0.9455 B(  7-C , 17-H ) :   0.9194
B(  7-C , 18-H ) :   0.9251 B(  8-O , 19-H ) :   0.8136

MP2 TOTAL ENERGY:     -439.552306100 Eh
FINAL SINGLE POINT ENERGY      -439.552306100228

DIPOLE MOMENT
-------------
                                X             Y             Z
Electronic contribution:     -7.06522      -6.62496       2.39911
Nuclear contribution   :      8.47522       7.49011      -2.21319
                        -----------------------------------------
Total Dipole Moment    :      1.41000       0.86515       0.18592
                        -----------------------------------------
Magnitude (a.u.)       :      1.66468
Magnitude (Debye)      :      4.23127

                             ****ORCA TERMINATED NORMALLY****
TOTAL RUN TIME: 0 days 0 hours 28 minutes 39 seconds 597 msec
