                         Program Version 3.0.3 - RELEASE   -
|  1> ! RI-MP2 RIJK def2-TZVP def2-TZVP/C def2-TZVP/JK TIGHTSCF
|  2> % maxcore 2000
|  3> % mp2 density relaxed end
|  4> *xyz 0 1
|  5>  O       -0.2305939610     1.4824680983     0.1412983601
|  6>  C       -0.0544275237     0.0749019670    -0.0057261004
|  7>  C        0.6889551123    -0.2804758623    -1.2763950204
|  8>  C        0.3219576311    -1.5234000075    -2.0505134163
|  9>  C        0.0010180327    -0.1607031814    -2.6100291395
| 10>  C        0.6012091856    -0.5496416589     1.2292852641
| 11>  C        1.9438077685     0.0431654628     1.7196446678
| 12>  O        1.3843834482     0.3824963573     2.9986407716
| 13>  C        0.0783518047    -0.1002056768     2.6116631284
| 14>  H        0.6232261365     1.9087846257     0.0129854760
| 15>  H       -1.0778234165    -0.3173110427    -0.0808927405
| 16>  H        1.7483889801    -0.0285103941    -1.2566534348
| 17>  H        1.1187123947    -2.0985501278    -2.5085596367
| 18>  H       -0.5010466884    -2.1257175882    -1.6793137684
| 19>  H       -1.0350217462     0.1606148938    -2.6093495529
| 20>  H        0.5763541527     0.1967787992    -3.4566274975
| 21>  H        0.6343497361    -1.6347965213     1.1037758366
| 22>  H        2.7803799981    -0.6610484049     1.8054132593
| 23>  H        2.2992255769     0.9337725228     1.1794143261
| 24>  H       -0.6591184508     0.7091394090     2.5752562288
| 25>  H       -0.2761449017    -0.8956948999     3.2778758087
| 26> *
| 27>
| 28>                          ****END OF INPUT****

CARTESIAN COORDINATES (ANGSTROEM)
---------------------------------
  O     -0.230594    1.482468    0.141298
  C     -0.054428    0.074902   -0.005726
  C      0.688955   -0.280476   -1.276395
  C      0.321958   -1.523400   -2.050513
  C      0.001018   -0.160703   -2.610029
  C      0.601209   -0.549642    1.229285
  C      1.943808    0.043165    1.719645
  O      1.384383    0.382496    2.998641
  C      0.078352   -0.100206    2.611663
  H      0.623226    1.908785    0.012985
  H     -1.077823   -0.317311   -0.080893
  H      1.748389   -0.028510   -1.256653
  H      1.118712   -2.098550   -2.508560
  H     -0.501047   -2.125718   -1.679314
  H     -1.035022    0.160615   -2.609350
  H      0.576354    0.196779   -3.456627
  H      0.634350   -1.634797    1.103776
  H      2.780380   -0.661048    1.805413
  H      2.299226    0.933773    1.179414
  H     -0.659118    0.709139    2.575256
  H     -0.276145   -0.895695    3.277876

 Total Charge           Charge          ....    0
 Multiplicity           Mult            ....    1
 Number of Electrons    NEL             ....   70
 Basis Dimension        Dim             ....  351

ORBITAL ENERGIES
----------------

  NO   OCC          E(Eh)            E(eV)
   0   2.0000     -20.557125      -559.3878
   1   2.0000     -20.544247      -559.0374
   2   2.0000     -11.289107      -307.1922
   3   2.0000     -11.279985      -306.9440
   4   2.0000     -11.271748      -306.7198
   5   2.0000     -11.239654      -305.8465
   6   2.0000     -11.235985      -305.7467
   7   2.0000     -11.234672      -305.7110
   8   2.0000     -11.232289      -305.6461
   9   2.0000      -1.377026       -37.4708
  10   2.0000      -1.361781       -37.0560
  11   2.0000      -1.152632       -31.3647
  12   2.0000      -1.042890       -28.3785
  13   2.0000      -0.933503       -25.4019
  14   2.0000      -0.921661       -25.0797
  15   2.0000      -0.831662       -22.6307
  16   2.0000      -0.806835       -21.9551
  17   2.0000      -0.758980       -20.6529
  18   2.0000      -0.699266       -19.0280
  19   2.0000      -0.688603       -18.7378
  20   2.0000      -0.672731       -18.3060
  21   2.0000      -0.654233       -17.8026
  22   2.0000      -0.602290       -16.3891
  23   2.0000      -0.593189       -16.1415
  24   2.0000      -0.582400       -15.8479
  25   2.0000      -0.565643       -15.3919
  26   2.0000      -0.553558       -15.0631
  27   2.0000      -0.522692       -14.2232
  28   2.0000      -0.507017       -13.7966
  29   2.0000      -0.476647       -12.9702
  30   2.0000      -0.454609       -12.3705
  31   2.0000      -0.447538       -12.1781
  32   2.0000      -0.424487       -11.5509
  33   2.0000      -0.417846       -11.3702
  34   2.0000      -0.407872       -11.0988
  35   0.0000       0.130768         3.5584
  36   0.0000       0.139396         3.7931
  37   0.0000       0.157046         4.2734
  38   0.0000       0.162219         4.4142
  39   0.0000       0.181320         4.9340

MULLIKEN ATOMIC CHARGES
-----------------------
   0 O :   -0.462505
   1 C :    0.008168
   2 C :   -0.116442
   3 C :   -0.283887
   4 C :   -0.240946
   5 C :   -0.070704
   6 C :   -0.054135
   7 O :   -0.327090
   8 C :   -0.005515
   9 H :    0.313355
  10 H :    0.096464
  11 H :    0.122808
  12 H :    0.132250
  13 H :    0.130830
  14 H :    0.136618
  15 H :    0.131922
  16 H :    0.117801
  17 H :    0.099560
  18 H :    0.065970
  19 H :    0.111824
  20 H :    0.093655
Sum of atomic charges:   -0.0000000

LOEWDIN ATOMIC CHARGES
----------------------
   0 O :   -0.007879
   1 C :   -0.320709
   2 C :   -0.223608
   3 C :   -0.225024
   4 C :   -0.222559
   5 C :   -0.225028
   6 C :   -0.263789
   7 O :    0.111642
   8 C :   -0.247688
   9 H :    0.173481
  10 H :    0.153659
  11 H :    0.148542
  12 H :    0.131586
  13 H :    0.133484
  14 H :    0.137460
  15 H :    0.132006
  16 H :    0.152278
  17 H :    0.116271
  18 H :    0.108696
  19 H :    0.123083
  20 H :    0.114096

  Mayer bond orders larger than 0.1
B(  0-O ,  1-C ) :   0.9345 B(  0-O ,  9-H ) :   0.8439 B(  1-C ,  2-C ) :   0.9593
B(  1-C ,  5-C ) :   0.9240 B(  1-C , 10-H ) :   0.9117 B(  2-C ,  3-C ) :   0.8940
B(  2-C ,  4-C ) :   0.8749 B(  2-C , 11-H ) :   0.9056 B(  3-C ,  4-C ) :   0.9100
B(  3-C , 12-H ) :   0.9251 B(  3-C , 13-H ) :   0.9292 B(  4-C , 14-H ) :   0.9285
B(  4-C , 15-H ) :   0.9313 B(  5-C ,  6-C ) :   0.9245 B(  5-C ,  8-C ) :   0.9519
B(  5-C , 16-H ) :   0.9142 B(  6-C ,  7-O ) :   0.9705 B(  6-C , 17-H ) :   0.9124
B(  6-C , 18-H ) :   0.8996 B(  7-O ,  8-C ) :   0.9508 B(  8-C , 19-H ) :   0.9031
B(  8-C , 20-H ) :   0.9151

MP2 TOTAL ENERGY:     -423.477075396 Eh
FINAL SINGLE POINT ENERGY      -423.477075395937

DIPOLE MOMENT
-------------
                                X             Y             Z
Electronic contribution:      0.32284       2.60980       4.50955
Nuclear contribution   :     -0.10334      -3.23191      -5.36376
                        -----------------------------------------
Total Dipole Moment    :      0.21950      -0.62210      -0.85421
                        -----------------------------------------
Magnitude (a.u.)       :      1.07929
Magnitude (Debye)      :      2.74334

                             ****ORCA TERMINATED NORMALLY****
TOTAL RUN TIME: 0 days 0 hours 18 minutes 56 seconds 732 msec
