                         Program Version 3.0.3 - RELEASE   -
|  1> ! RI-MP2 RIJK def2-TZVP def2-TZVP/C def2-TZVP/JK TIGHTSCF
|  2> % maxcore 2000
|  3> % mp2 density relaxed end
|  4> *xyz 0 1
|  5>  N       -0.1410653094     1.3005924494    -0.1047768757
|  6>  C       -0.0136277624     0.0439131675     0.0083199084
|  7>  N       -1.0698160530    -0.8367004316     0.1794746613
|  8>  C       -0.6548098400    -2.2253153151     0.0074077730
|  9>  C       -1.1271518135    -2.8434871371    -1.2277814682
| 10>  C       -1.5403952458    -3.3307036339    -2.2447342999
| 11>  C        0.8961303844    -2.1052301613     0.0325802685
| 12>  O        1.6974304092    -2.9992939024     0.0640336789
| 13>  N        1.1448241431    -0.7527048288     0.0141633299
| 14>  H        0.7568209682     1.7675643285    -0.2021652108
| 15>  H       -1.9658452606    -0.5348068700    -0.1699209431
| 16>  H       -0.9549500289    -2.8410457828     0.8646463565
| 17>  H       -1.8970683802    -3.7700530186    -3.1439591895
| 18>  H        2.0790841689    -0.3757609535     0.0153185208
| 19> *
| 20>
| 21>                          ****END OF INPUT****

CARTESIAN COORDINATES (ANGSTROEM)
---------------------------------
  N     -0.141065    1.300592   -0.104777
  C     -0.013628    0.043913    0.008320
  N     -1.069816   -0.836700    0.179475
  C     -0.654810   -2.225315    0.007408
  C     -1.127152   -2.843487   -1.227781
  C     -1.540395   -3.330704   -2.244734
  C      0.896130   -2.105230    0.032580
  O      1.697430   -2.999294    0.064034
  N      1.144824   -0.752705    0.014163
  H      0.756821    1.767564   -0.202165
  H     -1.965845   -0.534807   -0.169921
  H     -0.954950   -2.841046    0.864646
  H     -1.897068   -3.770053   -3.143959
  H      2.079084   -0.375761    0.015319

 Total Charge           Charge          ....    0
 Multiplicity           Mult            ....    1
 Number of Electrons    NEL             ....   64
 Basis Dimension        Dim             ....  309

ORBITAL ENERGIES
----------------

  NO   OCC          E(Eh)            E(eV)
   0   2.0000     -20.558966      -559.4379
   1   2.0000     -15.630095      -425.3165
   2   2.0000     -15.601082      -424.5270
   3   2.0000     -15.537423      -422.7948
   4   2.0000     -11.390841      -309.9605
   5   2.0000     -11.374311      -309.5107
   6   2.0000     -11.332671      -308.3776
   7   2.0000     -11.258695      -306.3647
   8   2.0000     -11.252046      -306.1837
   9   2.0000      -1.428983       -38.8846
  10   2.0000      -1.353755       -36.8375
  11   2.0000      -1.220558       -33.2131
  12   2.0000      -1.195824       -32.5400
  13   2.0000      -1.073075       -29.1998
  14   2.0000      -0.991721       -26.9861
  15   2.0000      -0.872693       -23.7472
  16   2.0000      -0.854478       -23.2515
  17   2.0000      -0.765408       -20.8278
  18   2.0000      -0.736754       -20.0481
  19   2.0000      -0.705575       -19.1997
  20   2.0000      -0.688461       -18.7340
  21   2.0000      -0.666340       -18.1320
  22   2.0000      -0.642475       -17.4826
  23   2.0000      -0.637723       -17.3533
  24   2.0000      -0.598344       -16.2818
  25   2.0000      -0.555158       -15.1066
  26   2.0000      -0.481336       -13.0978
  27   2.0000      -0.448222       -12.1967
  28   2.0000      -0.439089       -11.9482
  29   2.0000      -0.421174       -11.4607
  30   2.0000      -0.409551       -11.1444
  31   2.0000      -0.381594       -10.3837
  32   0.0000       0.115508         3.1431
  33   0.0000       0.129985         3.5371
  34   0.0000       0.145024         3.9463
  35   0.0000       0.153499         4.1769
  36   0.0000       0.161138         4.3848

MULLIKEN ATOMIC CHARGES
-----------------------
   0 N :   -0.387569
   1 C :    0.205670
   2 N :   -0.317031
   3 C :    0.006004
   4 C :   -0.108248
   5 C :   -0.115741
   6 C :    0.216791
   7 O :   -0.288935
   8 N :   -0.288165
   9 H :    0.213413
  10 H :    0.258317
  11 H :    0.150630
  12 H :    0.201566
  13 H :    0.253299
Sum of atomic charges:   -0.0000000

LOEWDIN ATOMIC CHARGES
----------------------
   0 N :   -0.091681
   1 C :   -0.439752
   2 N :    0.125464
   3 C :   -0.225033
   4 C :   -0.084962
   5 C :   -0.066690
   6 C :   -0.388522
   7 O :    0.137059
   8 N :    0.171837
   9 H :    0.163513
  10 H :    0.194565
  11 H :    0.175557
  12 H :    0.131538
  13 H :    0.197107

  Mayer bond orders larger than 0.1
B(  0-N ,  1-C ) :   2.0027 B(  0-N ,  9-H ) :   0.8550 B(  1-C ,  2-N ) :   1.1099
B(  1-C ,  8-N ) :   1.0062 B(  2-N ,  3-C ) :   0.9102 B(  2-N , 10-H ) :   0.8655
B(  3-C ,  4-C ) :   1.1300 B(  3-C ,  6-C ) :   0.8668 B(  3-C , 11-H ) :   0.9125
B(  4-C ,  5-C ) :   2.5970 B(  5-C , 12-H ) :   0.8902 B(  6-C ,  7-O ) :   2.0520
B(  6-C ,  8-N ) :   1.1144 B(  8-N , 13-H ) :   0.8589

MP2 TOTAL ENERGY:     -432.152592066 Eh
FINAL SINGLE POINT ENERGY      -432.152592066360

DIPOLE MOMENT
-------------
                                X             Y             Z
Electronic contribution:      1.54853      -1.48376       0.61171
Nuclear contribution   :     -1.64018       1.59309      -0.87928
                        -----------------------------------------
Total Dipole Moment    :     -0.09165       0.10933      -0.26757
                        -----------------------------------------
Magnitude (a.u.)       :      0.30323
Magnitude (Debye)      :      0.77074

                             ****ORCA TERMINATED NORMALLY****
TOTAL RUN TIME: 0 days 0 hours 13 minutes 36 seconds 114 msec
