                         Program Version 3.0.3 - RELEASE   -
|  1> ! RI-MP2 RIJK def2-TZVP def2-TZVP/C def2-TZVP/JK TIGHTSCF
|  2> % maxcore 2000
|  3> % mp2 density relaxed end
|  4> *xyz 0 1
|  5>  O       -0.0432941062     1.4300561661    -0.0139417415
|  6>  C        0.0320455674     0.0091821624     0.0049129288
|  7>  C       -1.3902458552    -0.5433680945    -0.0283252309
|  8>  C       -2.1479468821    -0.1269480572    -1.3014447049
|  9>  C       -3.5821237442    -0.6731649469    -1.3100524167
| 10>  C       -3.6014062198    -2.1980400236    -1.1313588147
| 11>  C       -2.8357148664    -2.6227503550     0.1319127657
| 12>  C       -1.4000254396    -2.0754858615     0.1525711833
| 13>  O       -0.5665945604    -2.7361788547    -0.8034977957
| 14>  H        0.8495678616     1.7757003685    -0.0987167045
| 15>  H        0.5962725399    -0.3762171142    -0.8560189432
| 16>  H        0.5426247428    -0.3465612231     0.9148195459
| 17>  H       -1.9219128037    -0.1156878766     0.8341838917
| 18>  H       -2.1408906691     0.9627828482    -1.3830876923
| 19>  H       -1.6073426213    -0.4997668594    -2.1853196830
| 20>  H       -4.1493130188    -0.2082835256    -0.4916958645
| 21>  H       -4.0912771645    -0.3918688611    -2.2387552823
| 22>  H       -4.6307889770    -2.5696489745    -1.0861237462
| 23>  H       -3.1538338944    -2.6750099374    -2.0161454838
| 24>  H       -3.3645137714    -2.2467991361     1.0176067306
| 25>  H       -2.7992626861    -3.7139294329     0.2169907713
| 26>  H       -0.9377929611    -2.3210566835     1.1159738615
| 27>  H       -0.9611442103    -2.6243047676    -1.6741454743
| 28> *
| 29>
| 30>                          ****END OF INPUT****

CARTESIAN COORDINATES (ANGSTROEM)
---------------------------------
  O     -0.043294    1.430056   -0.013942
  C      0.032046    0.009182    0.004913
  C     -1.390246   -0.543368   -0.028325
  C     -2.147947   -0.126948   -1.301445
  C     -3.582124   -0.673165   -1.310052
  C     -3.601406   -2.198040   -1.131359
  C     -2.835715   -2.622750    0.131913
  C     -1.400025   -2.075486    0.152571
  O     -0.566595   -2.736179   -0.803498
  H      0.849568    1.775700   -0.098717
  H      0.596273   -0.376217   -0.856019
  H      0.542625   -0.346561    0.914820
  H     -1.921913   -0.115688    0.834184
  H     -2.140891    0.962783   -1.383088
  H     -1.607343   -0.499767   -2.185320
  H     -4.149313   -0.208284   -0.491696
  H     -4.091277   -0.391869   -2.238755
  H     -4.630789   -2.569649   -1.086124
  H     -3.153834   -2.675010   -2.016145
  H     -3.364514   -2.246799    1.017607
  H     -2.799263   -3.713929    0.216991
  H     -0.937793   -2.321057    1.115974
  H     -0.961144   -2.624305   -1.674145

 Total Charge           Charge          ....    0
 Multiplicity           Mult            ....    1
 Number of Electrons    NEL             ....   72
 Basis Dimension        Dim             ....  363

ORBITAL ENERGIES
----------------

  NO   OCC          E(Eh)            E(eV)
   0   2.0000     -20.551816      -559.2433
   1   2.0000     -20.550389      -559.2045
   2   2.0000     -11.274925      -306.8063
   3   2.0000     -11.268044      -306.6191
   4   2.0000     -11.223153      -305.3975
   5   2.0000     -11.221473      -305.3518
   6   2.0000     -11.219386      -305.2950
   7   2.0000     -11.219114      -305.2876
   8   2.0000     -11.215388      -305.1862
   9   2.0000      -1.358216       -36.9589
  10   2.0000      -1.353908       -36.8417
  11   2.0000      -1.110776       -30.2257
  12   2.0000      -1.028567       -27.9887
  13   2.0000      -0.997178       -27.1346
  14   2.0000      -0.905514       -24.6403
  15   2.0000      -0.839342       -22.8397
  16   2.0000      -0.804675       -21.8963
  17   2.0000      -0.754005       -20.5175
  18   2.0000      -0.704230       -19.1631
  19   2.0000      -0.670241       -18.2382
  20   2.0000      -0.642777       -17.4909
  21   2.0000      -0.624486       -16.9931
  22   2.0000      -0.612001       -16.6534
  23   2.0000      -0.599601       -16.3160
  24   2.0000      -0.583429       -15.8759
  25   2.0000      -0.554085       -15.0774
  26   2.0000      -0.544635       -14.8203
  27   2.0000      -0.529002       -14.3949
  28   2.0000      -0.500572       -13.6213
  29   2.0000      -0.495605       -13.4861
  30   2.0000      -0.490075       -13.3356
  31   2.0000      -0.464866       -12.6497
  32   2.0000      -0.460791       -12.5388
  33   2.0000      -0.443171       -12.0593
  34   2.0000      -0.425166       -11.5693
  35   2.0000      -0.413038       -11.2393
  36   0.0000       0.131669         3.5829
  37   0.0000       0.142544         3.8788
  38   0.0000       0.143754         3.9117
  39   0.0000       0.168181         4.5764
  40   0.0000       0.179029         4.8716

MULLIKEN ATOMIC CHARGES
-----------------------
   0 O :   -0.471297
   1 C :   -0.046777
   2 C :   -0.056217
   3 C :   -0.319065
   4 C :   -0.175179
   5 C :   -0.283948
   6 C :   -0.198718
   7 C :    0.057583
   8 O :   -0.472412
   9 H :    0.315745
  10 H :    0.102756
  11 H :    0.093159
  12 H :    0.087572
  13 H :    0.149800
  14 H :    0.101869
  15 H :    0.106040
  16 H :    0.123224
  17 H :    0.129906
  18 H :    0.105151
  19 H :    0.109175
  20 H :    0.127894
  21 H :    0.102226
  22 H :    0.311513
Sum of atomic charges:   -0.0000000

LOEWDIN ATOMIC CHARGES
----------------------
   0 O :   -0.050902
   1 C :   -0.324975
   2 C :   -0.250713
   3 C :   -0.243753
   4 C :   -0.264591
   5 C :   -0.271927
   6 C :   -0.249898
   7 C :   -0.315943
   8 O :   -0.018060
   9 H :    0.171527
  10 H :    0.119003
  11 H :    0.118788
  12 H :    0.161958
  13 H :    0.145339
  14 H :    0.134451
  15 H :    0.139088
  16 H :    0.135495
  17 H :    0.137434
  18 H :    0.131628
  19 H :    0.142984
  20 H :    0.140199
  21 H :    0.145970
  22 H :    0.166900

  Mayer bond orders larger than 0.1
B(  0-O ,  1-C ) :   1.0128 B(  0-O ,  9-H ) :   0.8491 B(  1-C ,  2-C ) :   0.9306
B(  1-C , 10-H ) :   0.9186 B(  1-C , 11-H ) :   0.9342 B(  2-C ,  3-C ) :   0.9092
B(  2-C ,  7-C ) :   0.9091 B(  2-C , 12-H ) :   0.9102 B(  3-C ,  4-C ) :   0.9202
B(  3-C , 13-H ) :   0.9260 B(  3-C , 14-H ) :   0.9377 B(  4-C ,  5-C ) :   0.9191
B(  4-C , 15-H ) :   0.9259 B(  4-C , 16-H ) :   0.9366 B(  5-C ,  6-C ) :   0.9128
B(  5-C , 17-H ) :   0.9332 B(  5-C , 18-H ) :   0.9406 B(  6-C ,  7-C ) :   0.9430
B(  6-C , 19-H ) :   0.9237 B(  6-C , 20-H ) :   0.9290 B(  7-C ,  8-O ) :   0.9039
B(  7-C , 21-H ) :   0.9248 B(  8-O , 22-H ) :   0.8431

MP2 TOTAL ENERGY:     -424.751841163 Eh
FINAL SINGLE POINT ENERGY      -424.751841163243

DIPOLE MOMENT
-------------
                                X             Y             Z
Electronic contribution:      4.02594       0.81704       0.93196
Nuclear contribution   :     -4.11766      -0.74720      -1.09284
                        -----------------------------------------
Total Dipole Moment    :     -0.09172       0.06984      -0.16088
                        -----------------------------------------
Magnitude (a.u.)       :      0.19792
Magnitude (Debye)      :      0.50306

                             ****ORCA TERMINATED NORMALLY****
TOTAL RUN TIME: 0 days 0 hours 20 minutes 4 seconds 148 msec
