                         Program Version 3.0.3 - RELEASE   -
|  1> ! RI-MP2 RIJK def2-TZVP def2-TZVP/C def2-TZVP/JK TIGHTSCF
|  2> % maxcore 2000
|  3> % mp2 density relaxed end
|  4> *xyz 0 1
|  5>  C        0.1624578403     1.1593888025    -0.3027451174
|  6>  O       -0.0636987425    -0.1139749224     0.2653352219
|  7>  C       -1.4081555732    -0.4878574846     0.2719901266
|  8>  C       -1.9934930810    -1.0446430464    -1.0733098405
|  9>  N       -2.2354401313    -2.3058845377    -0.3718523378
| 10>  C       -1.6216063689    -1.8926653704     0.8889893890
| 11>  C       -2.8196348046    -3.4723530435    -0.7169665616
| 12>  O       -2.9330543958    -4.4299443632     0.0213111306
| 13>  H        1.2334667321     1.3591270207    -0.2301134518
| 14>  H       -0.1331074440     1.1962796065    -1.3619113180
| 15>  H       -0.3867550795     1.9453283746     0.2377808238
| 16>  H       -2.0340296009     0.2981143729     0.7159164850
| 17>  H       -2.8945497264    -0.5522404234    -1.4539844317
| 18>  H       -1.2435503333    -1.1114305583    -1.8703181265
| 19>  H       -0.6806651394    -2.4052589972     1.1125172821
| 20>  H       -2.2872213516    -1.9547724121     1.7542829603
| 21>  H       -3.1937398200    -3.4537416780    -1.7619841341
| 22> *
| 23>
| 24>                          ****END OF INPUT****

CARTESIAN COORDINATES (ANGSTROEM)
---------------------------------
  C      0.162458    1.159389   -0.302745
  O     -0.063699   -0.113975    0.265335
  C     -1.408156   -0.487857    0.271990
  C     -1.993493   -1.044643   -1.073310
  N     -2.235440   -2.305885   -0.371852
  C     -1.621606   -1.892665    0.888989
  C     -2.819635   -3.472353   -0.716967
  O     -2.933054   -4.429944    0.021311
  H      1.233467    1.359127   -0.230113
  H     -0.133107    1.196280   -1.361911
  H     -0.386755    1.945328    0.237781
  H     -2.034030    0.298114    0.715916
  H     -2.894550   -0.552240   -1.453984
  H     -1.243550   -1.111431   -1.870318
  H     -0.680665   -2.405259    1.112517
  H     -2.287221   -1.954772    1.754283
  H     -3.193740   -3.453742   -1.761984

 Total Charge           Charge          ....    0
 Multiplicity           Mult            ....    1
 Number of Electrons    NEL             ....   62
 Basis Dimension        Dim             ....  302

ORBITAL ENERGIES
----------------

  NO   OCC          E(Eh)            E(eV)
   0   2.0000     -20.576661      -559.9194
   1   2.0000     -20.516068      -558.2706
   2   2.0000     -15.585649      -424.1071
   3   2.0000     -11.342516      -308.6455
   4   2.0000     -11.305594      -307.6409
   5   2.0000     -11.287591      -307.1510
   6   2.0000     -11.282875      -307.0226
   7   2.0000     -11.270810      -306.6943
   8   2.0000      -1.402554       -38.1654
   9   2.0000      -1.376001       -37.4429
  10   2.0000      -1.270491       -34.5718
  11   2.0000      -1.042625       -28.3713
  12   2.0000      -0.958034       -26.0694
  13   2.0000      -0.940828       -25.6012
  14   2.0000      -0.834894       -22.7186
  15   2.0000      -0.761807       -20.7298
  16   2.0000      -0.718365       -19.5477
  17   2.0000      -0.709622       -19.3098
  18   2.0000      -0.665448       -18.1078
  19   2.0000      -0.640470       -17.4281
  20   2.0000      -0.634797       -17.2737
  21   2.0000      -0.618178       -16.8215
  22   2.0000      -0.576670       -15.6920
  23   2.0000      -0.558285       -15.1917
  24   2.0000      -0.541692       -14.7402
  25   2.0000      -0.525288       -14.2938
  26   2.0000      -0.518133       -14.0991
  27   2.0000      -0.482242       -13.1225
  28   2.0000      -0.439112       -11.9488
  29   2.0000      -0.419123       -11.4049
  30   2.0000      -0.376819       -10.2538
  31   0.0000       0.127861         3.4793
  32   0.0000       0.147567         4.0155
  33   0.0000       0.153470         4.1761
  34   0.0000       0.163134         4.4391
  35   0.0000       0.189820         5.1653

MULLIKEN ATOMIC CHARGES
-----------------------
   0 C :   -0.223498
   1 O :   -0.301966
   2 C :    0.064047
   3 C :   -0.167489
   4 N :   -0.063245
   5 C :   -0.115630
   6 C :    0.124948
   7 O :   -0.362017
   8 H :    0.149133
   9 H :    0.116189
  10 H :    0.119058
  11 H :    0.088940
  12 H :    0.121993
  13 H :    0.117621
  14 H :    0.128984
  15 H :    0.127754
  16 H :    0.075177
Sum of atomic charges:    0.0000000

LOEWDIN ATOMIC CHARGES
----------------------
   0 C :   -0.347477
   1 O :    0.164639
   2 C :   -0.304471
   3 C :   -0.213429
   4 N :    0.173840
   5 C :   -0.192397
   6 C :   -0.427805
   7 O :    0.055327
   8 H :    0.116850
   9 H :    0.103067
  10 H :    0.104300
  11 H :    0.130591
  12 H :    0.125214
  13 H :    0.130747
  14 H :    0.138622
  15 H :    0.131908
  16 H :    0.110474

  Mayer bond orders larger than 0.1
B(  0-C ,  1-O ) :   0.9004 B(  0-C ,  8-H ) :   0.9396 B(  0-C ,  9-H ) :   0.9335
B(  0-C , 10-H ) :   0.9349 B(  1-O ,  2-C ) :   0.9888 B(  2-C ,  3-C ) :   0.9382
B(  2-C ,  5-C ) :   0.9371 B(  2-C , 11-H ) :   0.9258 B(  3-C ,  4-N ) :   0.9243
B(  3-C , 12-H ) :   0.9092 B(  3-C , 13-H ) :   0.8991 B(  4-N ,  5-C ) :   0.8835
B(  4-N ,  6-C ) :   1.1421 B(  5-C , 14-H ) :   0.9079 B(  5-C , 15-H ) :   0.9233
B(  6-C ,  7-O ) :   1.9069 B(  6-C , 16-H ) :   0.9287

MP2 TOTAL ENERGY:     -400.335133622 Eh
FINAL SINGLE POINT ENERGY      -400.335133622138

DIPOLE MOMENT
-------------
                                X             Y             Z
Electronic contribution:     -2.30433      -6.73901       1.01904
Nuclear contribution   :      2.53447       8.68586      -1.59654
                        -----------------------------------------
Total Dipole Moment    :      0.23014       1.94686      -0.57750
                        -----------------------------------------
Magnitude (a.u.)       :      2.04370
Magnitude (Debye)      :      5.19468

                             ****ORCA TERMINATED NORMALLY****
TOTAL RUN TIME: 0 days 0 hours 10 minutes 30 seconds 835 msec
