                         Program Version 3.0.3 - RELEASE   -
|  1> ! RI-MP2 RIJK def2-TZVP def2-TZVP/C def2-TZVP/JK TIGHTSCF
|  2> % maxcore 2000
|  3> % mp2 density relaxed end
|  4> *xyz 0 1
|  5>  N        0.1565284431    -1.2046935099     0.0240556051
|  6>  C        0.1120090311    -0.0507254674     0.0198710638
|  7>  C        0.0093490875     1.4201968913     0.0199728141
|  8>  C       -0.8508836389     1.8951228520     1.2101295732
|  9>  C       -1.4522808684     3.3143120112     1.0775405332
| 10>  C       -0.7126895736     4.3157663541     0.1691004132
| 11>  C        0.8177738903     4.3464072292     0.3020244330
| 12>  C        1.5265327582     3.2183017510    -0.4522235581
| 13>  O        1.3330472556     1.9196386514     0.0880245825
| 14>  H       -0.4604058616     1.7062198465    -0.9351744280
| 15>  H       -1.6593694566     1.1759033310     1.3743662247
| 16>  H       -0.1954135446     1.8302316720     2.0841297150
| 17>  H       -2.4830575449     3.2347320439     0.7141310165
| 18>  H       -1.5270191199     3.7358693379     2.0863446788
| 19>  H       -0.9625695527     4.1162500091    -0.8817823332
| 20>  H       -1.1163597152     5.3124281329     0.3787268203
| 21>  H        1.1945311086     5.2898233199    -0.1129450717
| 22>  H        1.1204334441     4.3259198225     1.3562884486
| 23>  H        1.2144496923     3.2326695596    -1.5102557439
| 24>  H        2.6097585056     3.3673289120    -0.4244693772
| 25> *
| 26>
| 27>                          ****END OF INPUT****

CARTESIAN COORDINATES (ANGSTROEM)
---------------------------------
  N      0.156528   -1.204694    0.024056
  C      0.112009   -0.050725    0.019871
  C      0.009349    1.420197    0.019973
  C     -0.850884    1.895123    1.210130
  C     -1.452281    3.314312    1.077541
  C     -0.712690    4.315766    0.169100
  C      0.817774    4.346407    0.302024
  C      1.526533    3.218302   -0.452224
  O      1.333047    1.919639    0.088025
  H     -0.460406    1.706220   -0.935174
  H     -1.659369    1.175903    1.374366
  H     -0.195414    1.830232    2.084130
  H     -2.483058    3.234732    0.714131
  H     -1.527019    3.735869    2.086345
  H     -0.962570    4.116250   -0.881782
  H     -1.116360    5.312428    0.378727
  H      1.194531    5.289823   -0.112945
  H      1.120433    4.325920    1.356288
  H      1.214450    3.232670   -1.510256
  H      2.609759    3.367329   -0.424469

 Total Charge           Charge          ....    0
 Multiplicity           Mult            ....    1
 Number of Electrons    NEL             ....   68
 Basis Dimension        Dim             ....  345

ORBITAL ENERGIES
----------------

  NO   OCC          E(Eh)            E(eV)
   0   2.0000     -20.578651      -559.9736
   1   2.0000     -15.568919      -423.6518
   2   2.0000     -11.337414      -308.5067
   3   2.0000     -11.291966      -307.2700
   4   2.0000     -11.268488      -306.6311
   5   2.0000     -11.246844      -306.0422
   6   2.0000     -11.241423      -305.8947
   7   2.0000     -11.240023      -305.8566
   8   2.0000     -11.238229      -305.8078
   9   2.0000      -1.402892       -38.1746
  10   2.0000      -1.215361       -33.0716
  11   2.0000      -1.101830       -29.9823
  12   2.0000      -1.079425       -29.3726
  13   2.0000      -0.967423       -26.3249
  14   2.0000      -0.939502       -25.5651
  15   2.0000      -0.838672       -22.8214
  16   2.0000      -0.789661       -21.4878
  17   2.0000      -0.738538       -20.0966
  18   2.0000      -0.686147       -18.6710
  19   2.0000      -0.667048       -18.1513
  20   2.0000      -0.643446       -17.5091
  21   2.0000      -0.624237       -16.9863
  22   2.0000      -0.597102       -16.2480
  23   2.0000      -0.567229       -15.4351
  24   2.0000      -0.561082       -15.2678
  25   2.0000      -0.557143       -15.1606
  26   2.0000      -0.533231       -14.5099
  27   2.0000      -0.503611       -13.7040
  28   2.0000      -0.487898       -13.2764
  29   2.0000      -0.485876       -13.2214
  30   2.0000      -0.473204       -12.8765
  31   2.0000      -0.466338       -12.6897
  32   2.0000      -0.452386       -12.3100
  33   2.0000      -0.432692       -11.7741
  34   0.0000       0.119367         3.2481
  35   0.0000       0.136889         3.7249
  36   0.0000       0.150630         4.0989
  37   0.0000       0.162730         4.4281
  38   0.0000       0.171208         4.6588

MULLIKEN ATOMIC CHARGES
-----------------------
   0 N :   -0.051266
   1 C :   -0.150027
   2 C :    0.145610
   3 C :   -0.228113
   4 C :   -0.261484
   5 C :   -0.225529
   6 C :   -0.194102
   7 C :   -0.130735
   8 O :   -0.284312
   9 H :    0.113040
  10 H :    0.145259
  11 H :    0.129380
  12 H :    0.127052
  13 H :    0.128587
  14 H :    0.113169
  15 H :    0.135020
  16 H :    0.124469
  17 H :    0.115371
  18 H :    0.111613
  19 H :    0.136999
Sum of atomic charges:   -0.0000000

LOEWDIN ATOMIC CHARGES
----------------------
   0 N :    0.068990
   1 C :   -0.158938
   2 C :   -0.310127
   3 C :   -0.229960
   4 C :   -0.266044
   5 C :   -0.274725
   6 C :   -0.271184
   7 C :   -0.317871
   8 O :    0.192141
   9 H :    0.160682
  10 H :    0.150734
  11 H :    0.150078
  12 H :    0.140467
  13 H :    0.141740
  14 H :    0.136486
  15 H :    0.141488
  16 H :    0.145521
  17 H :    0.142223
  18 H :    0.123389
  19 H :    0.134911

  Mayer bond orders larger than 0.1
B(  0-N ,  1-C ) :   2.8781 B(  1-C ,  2-C ) :   0.9121 B(  2-C ,  3-C ) :   0.8871
B(  2-C ,  8-O ) :   0.9628 B(  2-C ,  9-H ) :   0.9180 B(  3-C ,  4-C ) :   0.9133
B(  3-C , 10-H ) :   0.9253 B(  3-C , 11-H ) :   0.9156 B(  4-C ,  5-C ) :   0.9272
B(  4-C , 12-H ) :   0.9369 B(  4-C , 13-H ) :   0.9389 B(  5-C ,  6-C ) :   0.9073
B(  5-C , 14-H ) :   0.9363 B(  5-C , 15-H ) :   0.9295 B(  6-C ,  7-C ) :   0.9275
B(  6-C , 16-H ) :   0.9222 B(  6-C , 17-H ) :   0.9203 B(  7-C ,  8-O ) :   0.9217
B(  7-C , 18-H ) :   0.9435 B(  7-C , 19-H ) :   0.9332

MP2 TOTAL ENERGY:     -402.473618765 Eh
FINAL SINGLE POINT ENERGY      -402.473618765351

DIPOLE MOMENT
-------------
                                X             Y             Z
Electronic contribution:      2.81891     -10.48992      -1.12547
Nuclear contribution   :     -3.31285      12.47434       1.05933
                        -----------------------------------------
Total Dipole Moment    :     -0.49394       1.98442      -0.06614
                        -----------------------------------------
Magnitude (a.u.)       :      2.04604
Magnitude (Debye)      :      5.20062

                             ****ORCA TERMINATED NORMALLY****
TOTAL RUN TIME: 0 days 0 hours 19 minutes 50 seconds 724 msec
