                         Program Version 3.0.3 - RELEASE   -
|  1> ! RI-MP2 RIJK def2-TZVP def2-TZVP/C def2-TZVP/JK TIGHTSCF
|  2> % maxcore 2000
|  3> % mp2 density relaxed end
|  4> *xyz 0 1
|  5>  C       -0.2616667192     0.7112289479    -3.5045207579
|  6>  O       -0.1330176891    -0.6172878050    -3.0552321066
|  7>  C        0.8818673555    -0.7698554816    -2.0814245285
|  8>  C        0.8469181431    -2.2023251227    -1.5965315752
|  9>  C        1.3085442520    -3.3334775205    -2.4635643010
| 10>  C        1.8561181690    -3.1233982936    -3.8585577404
| 11>  O        2.9080939819    -4.0321849824    -4.1664048752
| 12>  N        2.0368059152    -2.9797049485    -1.2488620684
| 13>  C        3.3792906476    -2.4188236102    -1.3205959468
| 14>  H       -0.5253547009     1.3969879071    -2.6836973130
| 15>  H        0.6669759427     1.0782160262    -3.9704024634
| 16>  H       -1.0606176970     0.7285049833    -4.2495951460
| 17>  H        1.8597955865    -0.4965515906    -2.5035318885
| 18>  H        0.7007696824    -0.0877102398    -1.2334360827
| 19>  H        0.0010384336    -2.3996510691    -0.9392238981
| 20>  H        0.7657861755    -4.2774149077    -2.3689659984
| 21>  H        1.0259089171    -3.2091334935    -4.5758409576
| 22>  H        2.2848070693    -2.1286597394    -3.9897514435
| 23>  H        2.5702710195    -4.9251392871    -4.0409028826
| 24>  H        3.5760037488    -1.7362889900    -2.1581759910
| 25>  H        3.5834391137    -1.8809947499    -0.3890072028
| 26>  H        4.0893973228    -3.2463364430    -1.4023128826
| 27> *
| 28>
| 29>                          ****END OF INPUT****

CARTESIAN COORDINATES (ANGSTROEM)
---------------------------------
  C     -0.261667    0.711229   -3.504521
  O     -0.133018   -0.617288   -3.055232
  C      0.881867   -0.769855   -2.081425
  C      0.846918   -2.202325   -1.596532
  C      1.308544   -3.333478   -2.463564
  C      1.856118   -3.123398   -3.858558
  O      2.908094   -4.032185   -4.166405
  N      2.036806   -2.979705   -1.248862
  C      3.379291   -2.418824   -1.320596
  H     -0.525355    1.396988   -2.683697
  H      0.666976    1.078216   -3.970402
  H     -1.060618    0.728505   -4.249595
  H      1.859796   -0.496552   -2.503532
  H      0.700770   -0.087710   -1.233436
  H      0.001038   -2.399651   -0.939224
  H      0.765786   -4.277415   -2.368966
  H      1.025909   -3.209133   -4.575841
  H      2.284807   -2.128660   -3.989751
  H      2.570271   -4.925139   -4.040903
  H      3.576004   -1.736289   -2.158176
  H      3.583439   -1.880995   -0.389007
  H      4.089397   -3.246336   -1.402313

 Total Charge           Charge          ....    0
 Multiplicity           Mult            ....    1
 Number of Electrons    NEL             ....   72
 Basis Dimension        Dim             ....  357

ORBITAL ENERGIES
----------------

  NO   OCC          E(Eh)            E(eV)
   0   2.0000     -20.562809      -559.5425
   1   2.0000     -20.554814      -559.3249
   2   2.0000     -15.555985      -423.2999
   3   2.0000     -11.284453      -307.0656
   4   2.0000     -11.276872      -306.8593
   5   2.0000     -11.276288      -306.8434
   6   2.0000     -11.258802      -306.3676
   7   2.0000     -11.255131      -306.2677
   8   2.0000     -11.242674      -305.9287
   9   2.0000      -1.383167       -37.6379
  10   2.0000      -1.358895       -36.9774
  11   2.0000      -1.268463       -34.5166
  12   2.0000      -1.017598       -27.6902
  13   2.0000      -0.985765       -26.8240
  14   2.0000      -0.944403       -25.6985
  15   2.0000      -0.895144       -24.3581
  16   2.0000      -0.790076       -21.4991
  17   2.0000      -0.784766       -21.3546
  18   2.0000      -0.700032       -19.0488
  19   2.0000      -0.684914       -18.6375
  20   2.0000      -0.660631       -17.9767
  21   2.0000      -0.657876       -17.9017
  22   2.0000      -0.640302       -17.4235
  23   2.0000      -0.604646       -16.4533
  24   2.0000      -0.593257       -16.1433
  25   2.0000      -0.579716       -15.7749
  26   2.0000      -0.555330       -15.1113
  27   2.0000      -0.552525       -15.0350
  28   2.0000      -0.546573       -14.8730
  29   2.0000      -0.501771       -13.6539
  30   2.0000      -0.489183       -13.3114
  31   2.0000      -0.468767       -12.7558
  32   2.0000      -0.443554       -12.0697
  33   2.0000      -0.431735       -11.7481
  34   2.0000      -0.429672       -11.6920
  35   2.0000      -0.361798        -9.8450
  36   0.0000       0.131935         3.5901
  37   0.0000       0.142834         3.8867
  38   0.0000       0.165381         4.5002
  39   0.0000       0.167069         4.5462
  40   0.0000       0.181555         4.9404

MULLIKEN ATOMIC CHARGES
-----------------------
   0 C :   -0.216540
   1 O :   -0.306618
   2 C :   -0.086277
   3 C :   -0.027985
   4 C :   -0.109408
   5 C :   -0.003943
   6 O :   -0.476598
   7 N :   -0.217105
   8 C :   -0.279176
   9 H :    0.113397
  10 H :    0.111288
  11 H :    0.140849
  12 H :    0.102216
  13 H :    0.110812
  14 H :    0.118351
  15 H :    0.109503
  16 H :    0.118429
  17 H :    0.102496
  18 H :    0.313574
  19 H :    0.104090
  20 H :    0.137358
  21 H :    0.141287
Sum of atomic charges:   -0.0000000

LOEWDIN ATOMIC CHARGES
----------------------
   0 C :   -0.361748
   1 O :    0.138997
   2 C :   -0.313354
   3 C :   -0.233949
   4 C :   -0.254323
   5 C :   -0.331077
   6 O :   -0.050667
   7 N :    0.112138
   8 C :   -0.328233
   9 H :    0.102159
  10 H :    0.101446
  11 H :    0.114245
  12 H :    0.120347
  13 H :    0.125178
  14 H :    0.144612
  15 H :    0.140709
  16 H :    0.127267
  17 H :    0.130200
  18 H :    0.172655
  19 H :    0.102535
  20 H :    0.117900
  21 H :    0.122965

  Mayer bond orders larger than 0.1
B(  0-C ,  1-O ) :   0.9186 B(  0-C ,  9-H ) :   0.9370 B(  0-C , 10-H ) :   0.9355
B(  0-C , 11-H ) :   0.9385 B(  1-O ,  2-C ) :   0.9297 B(  2-C ,  3-C ) :   0.9296
B(  2-C , 12-H ) :   0.9302 B(  2-C , 13-H ) :   0.9194 B(  3-C ,  4-C ) :   0.9289
B(  3-C ,  7-N ) :   0.9151 B(  3-C , 14-H ) :   0.9107 B(  4-C ,  5-C ) :   0.9627
B(  4-C ,  7-N ) :   0.9286 B(  4-C , 15-H ) :   0.8934 B(  5-C ,  6-O ) :   0.8984
B(  5-C , 16-H ) :   0.9242 B(  5-C , 17-H ) :   0.9271 B(  6-O , 18-H ) :   0.8481
B(  7-N ,  8-C ) :   0.8913 B(  8-C , 19-H ) :   0.9271 B(  8-C , 20-H ) :   0.9324
B(  8-C , 21-H ) :   0.9350

MP2 TOTAL ENERGY:     -440.704509020 Eh
FINAL SINGLE POINT ENERGY      -440.704509020228

DIPOLE MOMENT
-------------
                                X             Y             Z
Electronic contribution:     -1.06762      -4.79171       0.18331
Nuclear contribution   :      0.77389       5.33201      -0.23400
                        -----------------------------------------
Total Dipole Moment    :     -0.29372       0.54029      -0.05069
                        -----------------------------------------
Magnitude (a.u.)       :      0.61706
Magnitude (Debye)      :      1.56844

                             ****ORCA TERMINATED NORMALLY****
TOTAL RUN TIME: 0 days 0 hours 16 minutes 17 seconds 780 msec
