                         Program Version 3.0.3 - RELEASE   -
|  1> ! RI-MP2 RIJK def2-TZVP def2-TZVP/C def2-TZVP/JK TIGHTSCF
|  2> % maxcore 2000
|  3> % mp2 density relaxed end
|  4> *xyz 0 1
|  5>  C        0.1526215392     1.3293791845    -0.1640614111
|  6>  O        0.1113114336    -0.0981215822    -0.0367889018
|  7>  C        0.6444733125    -0.5772994516     1.1092480890
|  8>  O        1.1293876198     0.0924515727     1.9888348696
|  9>  N        0.5603202720    -1.9451284931     1.1407934812
| 10>  C        1.0107231053    -2.8713828275     2.1875779943
| 11>  C        0.4815108501    -4.0328242069     1.2919043907
| 12>  C        0.0629278447    -2.9616894416     0.2886042576
| 13>  N       -0.4974659625    -2.9963488236    -0.8363304125
| 14>  H        1.1839604380     1.6889270596    -0.1380285267
| 15>  H       -0.3046755076     1.5505489365    -1.1282793645
| 16>  H       -0.4089049123     1.8046653674     0.6437128452
| 17>  H        2.0909288182    -2.8483273529     2.3492433592
| 18>  H        0.4944076149    -2.7308133006     3.1400396342
| 19>  H        1.2428818435    -4.7202147175     0.9205775092
| 20>  H       -0.3490739640    -4.6035684797     1.7095502070
| 21>  H       -0.6159107855    -2.0559446335    -1.2147503105
| 22> *
| 23>
| 24>                          ****END OF INPUT****

CARTESIAN COORDINATES (ANGSTROEM)
---------------------------------
  C      0.152622    1.329379   -0.164061
  O      0.111311   -0.098122   -0.036789
  C      0.644473   -0.577299    1.109248
  O      1.129388    0.092452    1.988835
  N      0.560320   -1.945128    1.140793
  C      1.010723   -2.871383    2.187578
  C      0.481511   -4.032824    1.291904
  C      0.062928   -2.961689    0.288604
  N     -0.497466   -2.996349   -0.836330
  H      1.183960    1.688927   -0.138029
  H     -0.304676    1.550549   -1.128279
  H     -0.408905    1.804665    0.643713
  H      2.090929   -2.848327    2.349243
  H      0.494408   -2.730813    3.140040
  H      1.242882   -4.720215    0.920578
  H     -0.349074   -4.603568    1.709550
  H     -0.615911   -2.055945   -1.214750

 Total Charge           Charge          ....    0
 Multiplicity           Mult            ....    1
 Number of Electrons    NEL             ....   68
 Basis Dimension        Dim             ....  327

ORBITAL ENERGIES
----------------

  NO   OCC          E(Eh)            E(eV)
   0   2.0000     -20.615651      -560.9804
   1   2.0000     -20.542839      -558.9991
   2   2.0000     -15.609535      -424.7571
   3   2.0000     -15.538925      -422.8356
   4   2.0000     -11.416786      -310.6665
   5   2.0000     -11.331814      -308.3543
   6   2.0000     -11.294445      -307.3375
   7   2.0000     -11.287537      -307.1495
   8   2.0000     -11.254767      -306.2578
   9   2.0000      -1.478428       -40.2301
  10   2.0000      -1.372367       -37.3440
  11   2.0000      -1.313674       -35.7469
  12   2.0000      -1.187977       -32.3265
  13   2.0000      -1.064393       -28.9636
  14   2.0000      -0.966510       -26.3001
  15   2.0000      -0.901751       -24.5379
  16   2.0000      -0.850812       -23.1518
  17   2.0000      -0.768123       -20.9017
  18   2.0000      -0.716562       -19.4986
  19   2.0000      -0.704358       -19.1666
  20   2.0000      -0.694269       -18.8920
  21   2.0000      -0.667725       -18.1697
  22   2.0000      -0.636354       -17.3161
  23   2.0000      -0.624192       -16.9851
  24   2.0000      -0.579687       -15.7741
  25   2.0000      -0.553802       -15.0697
  26   2.0000      -0.547413       -14.8959
  27   2.0000      -0.544137       -14.8067
  28   2.0000      -0.522031       -14.2052
  29   2.0000      -0.492375       -13.3982
  30   2.0000      -0.478646       -13.0246
  31   2.0000      -0.476419       -12.9640
  32   2.0000      -0.430708       -11.7202
  33   2.0000      -0.380296       -10.3484
  34   0.0000       0.131320         3.5734
  35   0.0000       0.139505         3.7961
  36   0.0000       0.149732         4.0744
  37   0.0000       0.169715         4.6182
  38   0.0000       0.180588         4.9141

MULLIKEN ATOMIC CHARGES
-----------------------
   0 C :   -0.217947
   1 O :   -0.291596
   2 C :    0.378171
   3 O :   -0.361434
   4 N :   -0.078075
   5 C :   -0.142112
   6 C :   -0.177141
   7 C :    0.046128
   8 N :   -0.363545
   9 H :    0.143688
  10 H :    0.144814
  11 H :    0.143485
  12 H :    0.131359
  13 H :    0.131350
  14 H :    0.138725
  15 H :    0.138741
  16 H :    0.235390
Sum of atomic charges:    0.0000000

LOEWDIN ATOMIC CHARGES
----------------------
   0 C :   -0.303524
   1 O :    0.215064
   2 C :   -0.558013
   3 O :    0.101222
   4 N :    0.232272
   5 C :   -0.195950
   6 C :   -0.185236
   7 C :   -0.324281
   8 N :   -0.045429
   9 H :    0.115600
  10 H :    0.115848
  11 H :    0.115540
  12 H :    0.130232
  13 H :    0.130241
  14 H :    0.143699
  15 H :    0.143686
  16 H :    0.169030

  Mayer bond orders larger than 0.1
B(  0-C ,  1-O ) :   0.8401 B(  0-C ,  9-H ) :   0.9396 B(  0-C , 10-H ) :   0.9324
B(  0-C , 11-H ) :   0.9396 B(  1-O ,  2-C ) :   1.0792 B(  2-C ,  3-O ) :   1.9088
B(  2-C ,  4-N ) :   1.0893 B(  4-N ,  5-C ) :   0.8750 B(  4-N ,  7-C ) :   0.9690
B(  5-C ,  6-C ) :   0.9466 B(  5-C , 12-H ) :   0.9243 B(  5-C , 13-H ) :   0.9243
B(  6-C ,  7-C ) :   0.9369 B(  6-C , 14-H ) :   0.9134 B(  6-C , 15-H ) :   0.9134
B(  7-C ,  8-N ) :   2.0414 B(  8-N , 16-H ) :   0.8544

MP2 TOTAL ENERGY:     -454.437268064 Eh
FINAL SINGLE POINT ENERGY      -454.437268063866

DIPOLE MOMENT
-------------
                                X             Y             Z
Electronic contribution:      0.04544       0.15761       0.06502
Nuclear contribution   :      0.06355       0.03030       0.12688
                        -----------------------------------------
Total Dipole Moment    :      0.10899       0.18790       0.19190
                        -----------------------------------------
Magnitude (a.u.)       :      0.28985
Magnitude (Debye)      :      0.73674

                             ****ORCA TERMINATED NORMALLY****
TOTAL RUN TIME: 0 days 0 hours 14 minutes 11 seconds 613 msec
