                         Program Version 3.0.3 - RELEASE   -
|  1> ! RI-MP2 RIJK def2-TZVP def2-TZVP/C def2-TZVP/JK TIGHTSCF
|  2> % maxcore 2000
|  3> % mp2 density relaxed end
|  4> *xyz 0 1
|  5>  C       -0.1117158717     1.5603986072     0.1541178168
|  6>  C       -0.0235554067     0.0356967765     0.0526585944
|  7>  C        0.6920448812    -0.4404740466    -1.2180206734
|  8>  C        0.7264540340    -1.9701251872    -1.3477435333
|  9>  O       -0.6031945838    -2.4965195649    -1.3648327520
| 10>  C        1.5745837089    -2.5348254207    -2.5291263553
| 11>  C        3.0326471422    -2.0515836104    -2.4179451761
| 12>  C        1.5554987032    -4.0728363469    -2.4325669558
| 13>  C        0.9938983167    -2.1083403471    -3.8906607558
| 14>  H        0.8838079610     2.0189613954     0.1543299381
| 15>  H       -0.6671324126     1.9835604588    -0.6907976394
| 16>  H       -0.6199555240     1.8701064082     1.0727229611
| 17>  H        0.5050687032    -0.3608043108     0.9296846898
| 18>  H       -1.0263284553    -0.4030799849     0.0816775076
| 19>  H        0.1911092309    -0.0112458870    -2.0984621265
| 20>  H        1.7131561331    -0.0433206956    -1.2266544854
| 21>  H        1.1596267104    -2.3797570360    -0.4247717659
| 22>  H       -1.0762868989    -2.0669266080    -2.0855282801
| 23>  H        3.4411648527    -2.2479704858    -1.4198696663
| 24>  H        3.6631517369    -2.5807660933    -3.1404724941
| 25>  H        3.1340763960    -0.9811043281    -2.6192057984
| 26>  H        0.5311785417    -4.4513504977    -2.4423987434
| 27>  H        2.1030692126    -4.5205385137    -3.2688854889
| 28>  H        2.0285676020    -4.4126411286    -1.5041392210
| 29>  H        1.0061948989    -1.0216514004    -4.0225633212
| 30>  H        1.5806004383    -2.5426027492    -4.7069915264
| 31>  H       -0.0366505208    -2.4586352233    -4.0184903491
| 32> *
| 33>
| 34>                          ****END OF INPUT****

CARTESIAN COORDINATES (ANGSTROEM)
---------------------------------
  C     -0.111716    1.560399    0.154118
  C     -0.023555    0.035697    0.052659
  C      0.692045   -0.440474   -1.218021
  C      0.726454   -1.970125   -1.347744
  O     -0.603195   -2.496520   -1.364833
  C      1.574584   -2.534825   -2.529126
  C      3.032647   -2.051584   -2.417945
  C      1.555499   -4.072836   -2.432567
  C      0.993898   -2.108340   -3.890661
  H      0.883808    2.018961    0.154330
  H     -0.667132    1.983560   -0.690798
  H     -0.619956    1.870106    1.072723
  H      0.505069   -0.360804    0.929685
  H     -1.026328   -0.403080    0.081678
  H      0.191109   -0.011246   -2.098462
  H      1.713156   -0.043321   -1.226654
  H      1.159627   -2.379757   -0.424772
  H     -1.076287   -2.066927   -2.085528
  H      3.441165   -2.247970   -1.419870
  H      3.663152   -2.580766   -3.140472
  H      3.134076   -0.981104   -2.619206
  H      0.531179   -4.451350   -2.442399
  H      2.103069   -4.520539   -3.268885
  H      2.028568   -4.412641   -1.504139
  H      1.006195   -1.021651   -4.022563
  H      1.580600   -2.542603   -4.706992
  H     -0.036651   -2.458635   -4.018490

 Total Charge           Charge          ....    0
 Multiplicity           Mult            ....    1
 Number of Electrons    NEL             ....   74
 Basis Dimension        Dim             ....  387

ORBITAL ENERGIES
----------------

  NO   OCC          E(Eh)            E(eV)
   0   2.0000     -20.547774      -559.1333
   1   2.0000     -11.272962      -306.7529
   2   2.0000     -11.234122      -305.6960
   3   2.0000     -11.218393      -305.2680
   4   2.0000     -11.215165      -305.1802
   5   2.0000     -11.214824      -305.1709
   6   2.0000     -11.213263      -305.1284
   7   2.0000     -11.211453      -305.0791
   8   2.0000     -11.203454      -304.8615
   9   2.0000      -1.354937       -36.8697
  10   2.0000      -1.100682       -29.9511
  11   2.0000      -1.057678       -28.7809
  12   2.0000      -0.963437       -26.2165
  13   2.0000      -0.933343       -25.3975
  14   2.0000      -0.925912       -25.1953
  15   2.0000      -0.864208       -23.5163
  16   2.0000      -0.797674       -21.7058
  17   2.0000      -0.743508       -20.2319
  18   2.0000      -0.654630       -17.8134
  19   2.0000      -0.648090       -17.6354
  20   2.0000      -0.633375       -17.2350
  21   2.0000      -0.609479       -16.5848
  22   2.0000      -0.599843       -16.3226
  23   2.0000      -0.577022       -15.7016
  24   2.0000      -0.564467       -15.3599
  25   2.0000      -0.540891       -14.7184
  26   2.0000      -0.534747       -14.5512
  27   2.0000      -0.529598       -14.4111
  28   2.0000      -0.517238       -14.0748
  29   2.0000      -0.511782       -13.9263
  30   2.0000      -0.492807       -13.4099
  31   2.0000      -0.485412       -13.2087
  32   2.0000      -0.473363       -12.8809
  33   2.0000      -0.466341       -12.6898
  34   2.0000      -0.460801       -12.5390
  35   2.0000      -0.440760       -11.9937
  36   2.0000      -0.411969       -11.2102
  37   0.0000       0.126879         3.4525
  38   0.0000       0.147560         4.0153
  39   0.0000       0.155891         4.2420
  40   0.0000       0.171171         4.6578
  41   0.0000       0.183892         5.0039

MULLIKEN ATOMIC CHARGES
-----------------------
   0 C :   -0.386436
   1 C :   -0.160017
   2 C :   -0.320964
   3 C :    0.085525
   4 O :   -0.471904
   5 C :    0.154973
   6 C :   -0.443954
   7 C :   -0.395643
   8 C :   -0.478515
   9 H :    0.119646
  10 H :    0.119595
  11 H :    0.134761
  12 H :    0.103134
  13 H :    0.116551
  14 H :    0.111616
  15 H :    0.114683
  16 H :    0.091497
  17 H :    0.310022
  18 H :    0.132950
  19 H :    0.134840
  20 H :    0.133771
  21 H :    0.145413
  22 H :    0.126099
  23 H :    0.122110
  24 H :    0.139010
  25 H :    0.137566
  26 H :    0.123670
Sum of atomic charges:    0.0000000

LOEWDIN ATOMIC CHARGES
----------------------
   0 C :   -0.323245
   1 C :   -0.294138
   2 C :   -0.259425
   3 C :   -0.304071
   4 O :   -0.013078
   5 C :   -0.337425
   6 C :   -0.273238
   7 C :   -0.272958
   8 C :   -0.279073
   9 H :    0.119030
  10 H :    0.118993
  11 H :    0.120705
  12 H :    0.135317
  13 H :    0.136967
  14 H :    0.136853
  15 H :    0.142801
  16 H :    0.150470
  17 H :    0.170965
  18 H :    0.126653
  19 H :    0.127166
  20 H :    0.121854
  21 H :    0.128195
  22 H :    0.122462
  23 H :    0.124858
  24 H :    0.123065
  25 H :    0.128855
  26 H :    0.121443

  Mayer bond orders larger than 0.1
B(  0-C ,  1-C ) :   0.9138 B(  0-C ,  9-H ) :   0.9382 B(  0-C , 10-H ) :   0.9405
B(  0-C , 11-H ) :   0.9448 B(  1-C ,  2-C ) :   0.9398 B(  1-C , 12-H ) :   0.9321
B(  1-C , 13-H ) :   0.9328 B(  2-C ,  3-C ) :   0.9341 B(  2-C , 14-H ) :   0.9186
B(  2-C , 15-H ) :   0.9290 B(  3-C ,  4-O ) :   0.8883 B(  3-C ,  5-C ) :   0.8786
B(  3-C , 16-H ) :   0.9226 B(  4-O , 17-H ) :   0.8434 B(  5-C ,  6-C ) :   0.8961
B(  5-C ,  7-C ) :   0.9179 B(  5-C ,  8-C ) :   0.8667 B(  6-C , 18-H ) :   0.9353
B(  6-C , 19-H ) :   0.9338 B(  6-C , 20-H ) :   0.9356 B(  7-C , 21-H ) :   0.9309
B(  7-C , 22-H ) :   0.9375 B(  7-C , 23-H ) :   0.9308 B(  8-C , 24-H ) :   0.9377
B(  8-C , 25-H ) :   0.9354 B(  8-C , 26-H ) :   0.9395

MP2 TOTAL ENERGY:     -390.037126153 Eh
FINAL SINGLE POINT ENERGY      -390.037126152970

DIPOLE MOMENT
-------------
                                X             Y             Z
Electronic contribution:     -2.82069      -2.92893       0.95869
Nuclear contribution   :      3.03485       3.33276      -1.31610
                        -----------------------------------------
Total Dipole Moment    :      0.21416       0.40384      -0.35741
                        -----------------------------------------
Magnitude (a.u.)       :      0.58025
Magnitude (Debye)      :      1.47488

                             ****ORCA TERMINATED NORMALLY****
TOTAL RUN TIME: 0 days 0 hours 22 minutes 15 seconds 707 msec
