                         Program Version 3.0.3 - RELEASE   -
|  1> ! RI-MP2 RIJK def2-TZVP def2-TZVP/C def2-TZVP/JK TIGHTSCF
|  2> % maxcore 2000
|  3> % mp2 density relaxed end
|  4> *xyz 0 1
|  5>  C       -0.3556357889     1.3700776144    -0.2001241951
|  6>  C        0.0596046821    -0.0518470036     0.0798968243
|  7>  N        0.5583328479    -0.5322324073     1.1416781929
|  8>  O       -0.1729547272    -0.8148001392    -1.0183908390
|  9>  C        0.0868456163    -2.2307090392    -0.9275401429
| 10>  O       -1.0594326797    -2.9189686636    -0.4968123795
| 11>  C       -1.6551472773    -3.6134480129    -1.5912081087
| 12>  C       -0.6567801341    -3.5020727897    -2.7074112613
| 13>  C        0.3512544251    -2.7301339167    -2.3204992114
| 14>  H       -0.1393017261     2.0177326892     0.6510649284
| 15>  H        0.1669953332     1.7478314521    -1.0840968709
| 16>  H       -1.4273462102     1.4093157158    -0.4182527669
| 17>  H        0.6677801860     0.1928170460     1.8460718631
| 18>  H        0.8821019983    -2.3715706291    -0.1937076818
| 19>  H       -1.8416612190    -4.6510407157    -1.2835848786
| 20>  H       -2.6263366901    -3.1685828865    -1.8580970394
| 21>  H       -0.7839283353    -3.9824163763    -3.6689478484
| 22>  H        1.2217821093    -2.4357223476    -2.8901407247
| 23> *
| 24>
| 25>                          ****END OF INPUT****

CARTESIAN COORDINATES (ANGSTROEM)
---------------------------------
  C     -0.355636    1.370078   -0.200124
  C      0.059605   -0.051847    0.079897
  N      0.558333   -0.532232    1.141678
  O     -0.172955   -0.814800   -1.018391
  C      0.086846   -2.230709   -0.927540
  O     -1.059433   -2.918969   -0.496812
  C     -1.655147   -3.613448   -1.591208
  C     -0.656780   -3.502073   -2.707411
  C      0.351254   -2.730134   -2.320499
  H     -0.139302    2.017733    0.651065
  H      0.166995    1.747831   -1.084097
  H     -1.427346    1.409316   -0.418253
  H      0.667780    0.192817    1.846072
  H      0.882102   -2.371571   -0.193708
  H     -1.841661   -4.651041   -1.283585
  H     -2.626337   -3.168583   -1.858097
  H     -0.783928   -3.982416   -3.668948
  H      1.221782   -2.435722   -2.890141

 Total Charge           Charge          ....    0
 Multiplicity           Mult            ....    1
 Number of Electrons    NEL             ....   68
 Basis Dimension        Dim             ....  333

ORBITAL ENERGIES
----------------

  NO   OCC          E(Eh)            E(eV)
   0   2.0000     -20.581746      -560.0578
   1   2.0000     -20.558709      -559.4309
   2   2.0000     -15.527785      -422.5325
   3   2.0000     -11.336581      -308.4840
   4   2.0000     -11.335681      -308.4596
   5   2.0000     -11.284203      -307.0588
   6   2.0000     -11.242782      -305.9316
   7   2.0000     -11.236831      -305.7697
   8   2.0000     -11.234870      -305.7164
   9   2.0000      -1.435106       -39.0512
  10   2.0000      -1.372007       -37.3342
  11   2.0000      -1.190114       -32.3846
  12   2.0000      -1.080275       -29.3958
  13   2.0000      -1.016206       -27.6524
  14   2.0000      -0.974052       -26.5053
  15   2.0000      -0.848128       -23.0787
  16   2.0000      -0.780966       -21.2512
  17   2.0000      -0.774826       -21.0841
  18   2.0000      -0.716015       -19.4838
  19   2.0000      -0.687956       -18.7202
  20   2.0000      -0.655552       -17.8385
  21   2.0000      -0.637326       -17.3425
  22   2.0000      -0.620525       -16.8853
  23   2.0000      -0.588052       -16.0017
  24   2.0000      -0.583339       -15.8735
  25   2.0000      -0.564639       -15.3646
  26   2.0000      -0.547069       -14.8865
  27   2.0000      -0.522423       -14.2158
  28   2.0000      -0.510738       -13.8979
  29   2.0000      -0.493439       -13.4271
  30   2.0000      -0.451483       -12.2855
  31   2.0000      -0.426735       -11.6120
  32   2.0000      -0.398897       -10.8545
  33   2.0000      -0.369380       -10.0513
  34   0.0000       0.134990         3.6733
  35   0.0000       0.148495         4.0408
  36   0.0000       0.159507         4.3404
  37   0.0000       0.178422         4.8551
  38   0.0000       0.183175         4.9844

MULLIKEN ATOMIC CHARGES
-----------------------
   0 C :   -0.377004
   1 C :    0.196905
   2 N :   -0.412234
   3 O :   -0.253692
   4 C :    0.238993
   5 O :   -0.305574
   6 C :    0.003066
   7 C :   -0.171306
   8 C :   -0.188147
   9 H :    0.121831
  10 H :    0.146593
  11 H :    0.149746
  12 H :    0.214531
  13 H :    0.121768
  14 H :    0.120435
  15 H :    0.109133
  16 H :    0.142246
  17 H :    0.142710
Sum of atomic charges:   -0.0000000

LOEWDIN ATOMIC CHARGES
----------------------
   0 C :   -0.277694
   1 C :   -0.436568
   2 N :   -0.073278
   3 O :    0.255285
   4 C :   -0.342233
   5 O :    0.195166
   6 C :   -0.278916
   7 C :   -0.152714
   8 C :   -0.143695
   9 H :    0.126360
  10 H :    0.136507
  11 H :    0.137991
  12 H :    0.166015
  13 H :    0.142233
  14 H :    0.131366
  15 H :    0.129490
  16 H :    0.141669
  17 H :    0.143017

  Mayer bond orders larger than 0.1
B(  0-C ,  1-C ) :   0.9269 B(  0-C ,  9-H ) :   0.9410 B(  0-C , 10-H ) :   0.9183
B(  0-C , 11-H ) :   0.9198 B(  1-C ,  2-N ) :   1.9080 B(  1-C ,  3-O ) :   1.0596
B(  2-N , 12-H ) :   0.8592 B(  3-O ,  4-C ) :   0.8420 B(  4-C ,  5-O ) :   1.0156
B(  4-C ,  8-C ) :   0.9299 B(  4-C , 13-H ) :   0.9275 B(  5-O ,  6-C ) :   0.9252
B(  6-C ,  7-C ) :   0.9808 B(  6-C , 14-H ) :   0.9161 B(  6-C , 15-H ) :   0.9074
B(  7-C ,  8-C ) :   1.8025 B(  7-C , 16-H ) :   0.9138 B(  8-C , 17-H ) :   0.9164

MP2 TOTAL ENERGY:     -438.369505511 Eh
FINAL SINGLE POINT ENERGY      -438.369505511046

DIPOLE MOMENT
-------------
                                X             Y             Z
Electronic contribution:      0.77836      -2.90258       0.34371
Nuclear contribution   :     -0.86308       3.24852      -1.07627
                        -----------------------------------------
Total Dipole Moment    :     -0.08472       0.34595      -0.73256
                        -----------------------------------------
Magnitude (a.u.)       :      0.81455
Magnitude (Debye)      :      2.07043

                             ****ORCA TERMINATED NORMALLY****
TOTAL RUN TIME: 0 days 0 hours 16 minutes 1 seconds 486 msec
