                         Program Version 3.0.3 - RELEASE   -
|  1> ! RI-MP2 RIJK def2-TZVP def2-TZVP/C def2-TZVP/JK TIGHTSCF
|  2> % maxcore 2000
|  3> % mp2 density relaxed end
|  4> *xyz 0 1
|  5>  O       -0.1034612343    -0.0299092527    -0.0012373907
|  6>  C       -0.0286979871     1.1787101272     0.0145301325
|  7>  C        1.2330722261     1.9384723311     0.0100470273
|  8>  C        1.1741289406     3.2794455267     0.0189221112
|  9>  C        2.3801471735     4.1719317842     0.0296090665
| 10>  C        3.6740080301     3.4025314337     0.3396797628
| 11>  C        3.7136062535     2.0672904947    -0.4149960531
| 12>  C        2.5333641815     1.1731670663    -0.0116508440
| 13>  H       -0.9459839180     1.8112518267     0.0340298466
| 14>  H        0.1966114175     3.7608456007     0.0110226035
| 15>  H        2.4550579650     4.6685251040    -0.9502063979
| 16>  H        2.2284645322     4.9858072345     0.7501402864
| 17>  H        4.5439659520     4.0180713813     0.0892700548
| 18>  H        3.7263845927     3.2071594044     1.4183922016
| 19>  H        3.6703051548     2.2614928844    -1.4947716131
| 20>  H        4.6590897993     1.5482827604    -0.2274998374
| 21>  H        2.7071460373     0.7356518296     0.9811721854
| 22>  H        2.4304682834     0.3173256327    -0.6866977224
| 23> *
| 24>
| 25>                          ****END OF INPUT****

CARTESIAN COORDINATES (ANGSTROEM)
---------------------------------
  O     -0.103461   -0.029909   -0.001237
  C     -0.028698    1.178710    0.014530
  C      1.233072    1.938472    0.010047
  C      1.174129    3.279446    0.018922
  C      2.380147    4.171932    0.029609
  C      3.674008    3.402531    0.339680
  C      3.713606    2.067290   -0.414996
  C      2.533364    1.173167   -0.011651
  H     -0.945984    1.811252    0.034030
  H      0.196611    3.760846    0.011023
  H      2.455058    4.668525   -0.950206
  H      2.228465    4.985807    0.750140
  H      4.543966    4.018071    0.089270
  H      3.726385    3.207159    1.418392
  H      3.670305    2.261493   -1.494772
  H      4.659090    1.548283   -0.227500
  H      2.707146    0.735652    0.981172
  H      2.430468    0.317326   -0.686698

 Total Charge           Charge          ....    0
 Multiplicity           Mult            ....    1
 Number of Electrons    NEL             ....   60
 Basis Dimension        Dim             ....  308

ORBITAL ENERGIES
----------------

  NO   OCC          E(Eh)            E(eV)
   0   2.0000     -20.545146      -559.0619
   1   2.0000     -11.324051      -308.1431
   2   2.0000     -11.258751      -306.3662
   3   2.0000     -11.242298      -305.9185
   4   2.0000     -11.240858      -305.8793
   5   2.0000     -11.231054      -305.6125
   6   2.0000     -11.227782      -305.5235
   7   2.0000     -11.227081      -305.5044
   8   2.0000      -1.382821       -37.6285
   9   2.0000      -1.141683       -31.0668
  10   2.0000      -1.040171       -28.3045
  11   2.0000      -1.018346       -27.7106
  12   2.0000      -0.889226       -24.1971
  13   2.0000      -0.848315       -23.0838
  14   2.0000      -0.799047       -21.7432
  15   2.0000      -0.716353       -19.4929
  16   2.0000      -0.685545       -18.6546
  17   2.0000      -0.646544       -17.5933
  18   2.0000      -0.629190       -17.1211
  19   2.0000      -0.596018       -16.2185
  20   2.0000      -0.590438       -16.0666
  21   2.0000      -0.557826       -15.1792
  22   2.0000      -0.552288       -15.0285
  23   2.0000      -0.547890       -14.9088
  24   2.0000      -0.516566       -14.0565
  25   2.0000      -0.476585       -12.9685
  26   2.0000      -0.471216       -12.8224
  27   2.0000      -0.464063       -12.6278
  28   2.0000      -0.416015       -11.3203
  29   2.0000      -0.363992        -9.9047
  30   0.0000       0.094275         2.5653
  31   0.0000       0.126948         3.4544
  32   0.0000       0.154612         4.2072
  33   0.0000       0.165601         4.5062
  34   0.0000       0.170005         4.6261

MULLIKEN ATOMIC CHARGES
-----------------------
   0 O :   -0.285876
   1 C :    0.053846
   2 C :    0.020628
   3 C :   -0.167020
   4 C :   -0.184803
   5 C :   -0.224731
   6 C :   -0.209185
   7 C :   -0.228771
   8 H :    0.072291
   9 H :    0.131276
  10 H :    0.127474
  11 H :    0.134840
  12 H :    0.128700
  13 H :    0.113709
  14 H :    0.111814
  15 H :    0.130339
  16 H :    0.126083
  17 H :    0.149385
Sum of atomic charges:    0.0000000

LOEWDIN ATOMIC CHARGES
----------------------
   0 O :    0.122074
   1 C :   -0.277013
   2 C :   -0.179150
   3 C :   -0.103923
   4 C :   -0.251562
   5 C :   -0.256539
   6 C :   -0.255528
   7 C :   -0.217893
   8 H :    0.115269
   9 H :    0.147612
  10 H :    0.150598
  11 H :    0.146868
  12 H :    0.136618
  13 H :    0.140923
  14 H :    0.140775
  15 H :    0.137365
  16 H :    0.150966
  17 H :    0.152540

  Mayer bond orders larger than 0.1
B(  0-O ,  1-C ) :   1.9759 B(  1-C ,  2-C ) :   0.8843 B(  1-C ,  8-H ) :   0.9802
B(  2-C ,  3-C ) :   1.6614 B(  2-C ,  7-C ) :   0.9298 B(  2-C ,  8-H ) :  -0.1088
B(  3-C ,  4-C ) :   0.9364 B(  3-C ,  9-H ) :   0.9185 B(  4-C ,  5-C ) :   0.9452
B(  4-C , 10-H ) :   0.9093 B(  4-C , 11-H ) :   0.9258 B(  5-C ,  6-C ) :   0.9032
B(  5-C , 12-H ) :   0.9345 B(  5-C , 13-H ) :   0.9336 B(  6-C ,  7-C ) :   0.9365
B(  6-C , 14-H ) :   0.9332 B(  6-C , 15-H ) :   0.9378 B(  7-C , 16-H ) :   0.9148
B(  7-C , 17-H ) :   0.9223

MP2 TOTAL ENERGY:     -347.230378574 Eh
FINAL SINGLE POINT ENERGY      -347.230378573680

DIPOLE MOMENT
-------------
                                X             Y             Z
Electronic contribution:     -6.36628      -4.45112       0.05197
Nuclear contribution   :      6.97648       5.68314      -0.04817
                        -----------------------------------------
Total Dipole Moment    :      0.61020       1.23202       0.00379
                        -----------------------------------------
Magnitude (a.u.)       :      1.37485
Magnitude (Debye)      :      3.49460

                             ****ORCA TERMINATED NORMALLY****
TOTAL RUN TIME: 0 days 0 hours 13 minutes 36 seconds 631 msec
