                         Program Version 3.0.3 - RELEASE   -
|  1> ! RI-MP2 RIJK def2-TZVP def2-TZVP/C def2-TZVP/JK TIGHTSCF
|  2> % maxcore 2000
|  3> % mp2 density relaxed end
|  4> *xyz 0 1
|  5>  O        0.0745781868     0.0135308436    -0.6369751796
|  6>  C        0.0308737197     1.1361561519    -0.1939519234
|  7>  O        1.1081501363     1.8022318147     0.2882425430
|  8>  C        2.3436300409     1.1123019375     0.2275728282
|  9>  C        3.3333051929     1.5449274383    -0.8114037597
| 10>  C        3.5344234380     1.9073639059     0.6483581979
| 11>  C       -1.1924598704     1.9689447848    -0.0886664300
| 12>  C       -2.2330382157     1.8060073174    -1.1844865185
| 13>  C       -2.5021321587     1.2439020358     0.1707848057
| 14>  H        2.2594126675     0.0627507287     0.4788397394
| 15>  H        3.9658420684     0.7887884179    -1.2622754643
| 16>  H        3.0259939352     2.3416996217    -1.4789404346
| 17>  H        3.3587203471     2.9392828217     0.9299451706
| 18>  H        4.3112482003     1.4069130546     1.2150419679
| 19>  H       -1.0531726874     2.9505409048     0.3449312983
| 20>  H       -2.7593340429     2.7002007055    -1.4974007942
| 21>  H       -1.9840916865     1.1084980847    -1.9754391754
| 22>  H       -2.4329030946     0.1690912575     0.2889472014
| 23>  H       -3.2190130569     1.7409054132     0.8138616672
| 24> *
| 25>
| 26>                          ****END OF INPUT****

CARTESIAN COORDINATES (ANGSTROEM)
---------------------------------
  O      0.074578    0.013531   -0.636975
  C      0.030874    1.136156   -0.193952
  O      1.108150    1.802232    0.288243
  C      2.343630    1.112302    0.227573
  C      3.333305    1.544927   -0.811404
  C      3.534423    1.907364    0.648358
  C     -1.192460    1.968945   -0.088666
  C     -2.233038    1.806007   -1.184487
  C     -2.502132    1.243902    0.170785
  H      2.259413    0.062751    0.478840
  H      3.965842    0.788788   -1.262275
  H      3.025994    2.341700   -1.478940
  H      3.358720    2.939283    0.929945
  H      4.311248    1.406913    1.215042
  H     -1.053173    2.950541    0.344931
  H     -2.759334    2.700201   -1.497401
  H     -1.984092    1.108498   -1.975439
  H     -2.432903    0.169091    0.288947
  H     -3.219013    1.740905    0.813862

 Total Charge           Charge          ....    0
 Multiplicity           Mult            ....    1
 Number of Electrons    NEL             ....   68
 Basis Dimension        Dim             ....  339

ORBITAL ENERGIES
----------------

  NO   OCC          E(Eh)            E(eV)
   0   2.0000     -20.602174      -560.6137
   1   2.0000     -20.535024      -558.7864
   2   2.0000     -11.376908      -309.5814
   3   2.0000     -11.290929      -307.2418
   4   2.0000     -11.247582      -306.0623
   5   2.0000     -11.241925      -305.9083
   6   2.0000     -11.241185      -305.8882
   7   2.0000     -11.232256      -305.6452
   8   2.0000     -11.230616      -305.6006
   9   2.0000      -1.458152       -39.6783
  10   2.0000      -1.358326       -36.9619
  11   2.0000      -1.158816       -31.5330
  12   2.0000      -1.139874       -31.0175
  13   2.0000      -0.934672       -25.4337
  14   2.0000      -0.836251       -22.7556
  15   2.0000      -0.833753       -22.6876
  16   2.0000      -0.817830       -22.2543
  17   2.0000      -0.766259       -20.8510
  18   2.0000      -0.722707       -19.6659
  19   2.0000      -0.681356       -18.5406
  20   2.0000      -0.671709       -18.2781
  21   2.0000      -0.645165       -17.5558
  22   2.0000      -0.623738       -16.9728
  23   2.0000      -0.616145       -16.7662
  24   2.0000      -0.568778       -15.4772
  25   2.0000      -0.540774       -14.7152
  26   2.0000      -0.528852       -14.3908
  27   2.0000      -0.522831       -14.2269
  28   2.0000      -0.495747       -13.4900
  29   2.0000      -0.455341       -12.3905
  30   2.0000      -0.443908       -12.0793
  31   2.0000      -0.429107       -11.6766
  32   2.0000      -0.425722       -11.5845
  33   2.0000      -0.407925       -11.1002
  34   0.0000       0.155839         4.2406
  35   0.0000       0.159678         4.3451
  36   0.0000       0.163346         4.4449
  37   0.0000       0.173595         4.7238
  38   0.0000       0.177944         4.8421

MULLIKEN ATOMIC CHARGES
-----------------------
   0 O :   -0.352436
   1 C :    0.270471
   2 O :   -0.240593
   3 C :    0.022132
   4 C :   -0.256707
   5 C :   -0.240121
   6 C :   -0.075320
   7 C :   -0.260519
   8 C :   -0.260018
   9 H :    0.131235
  10 H :    0.133229
  11 H :    0.135142
  12 H :    0.138113
  13 H :    0.134388
  14 H :    0.136739
  15 H :    0.138170
  16 H :    0.154056
  17 H :    0.153764
  18 H :    0.138275
Sum of atomic charges:    0.0000000

LOEWDIN ATOMIC CHARGES
----------------------
   0 O :    0.119356
   1 C :   -0.458820
   2 O :    0.281537
   3 C :   -0.278742
   4 C :   -0.224394
   5 C :   -0.225430
   6 C :   -0.193490
   7 C :   -0.206465
   8 C :   -0.206469
   9 H :    0.142666
  10 H :    0.133502
  11 H :    0.137759
  12 H :    0.138802
  13 H :    0.133295
  14 H :    0.153797
  15 H :    0.133978
  16 H :    0.142472
  17 H :    0.142540
  18 H :    0.134104

  Mayer bond orders larger than 0.1
B(  0-O ,  1-C ) :   1.8848 B(  1-C ,  2-O ) :   1.0833 B(  1-C ,  6-C ) :   0.9836
B(  2-O ,  3-C ) :   0.8757 B(  3-C ,  4-C ) :   0.9037 B(  3-C ,  5-C ) :   0.8811
B(  3-C ,  9-H ) :   0.9336 B(  4-C ,  5-C ) :   0.9097 B(  4-C , 10-H ) :   0.9221
B(  4-C , 11-H ) :   0.9247 B(  5-C , 12-H ) :   0.9178 B(  5-C , 13-H ) :   0.9254
B(  6-C ,  7-C ) :   0.8329 B(  6-C ,  8-C ) :   0.8313 B(  6-C , 14-H ) :   0.9303
B(  7-C ,  8-C ) :   0.9264 B(  7-C , 15-H ) :   0.9293 B(  7-C , 16-H ) :   0.9229
B(  8-C , 17-H ) :   0.9230 B(  8-C , 18-H ) :   0.9290

MP2 TOTAL ENERGY:     -422.317044600 Eh
FINAL SINGLE POINT ENERGY      -422.317044599554

DIPOLE MOMENT
-------------
                                X             Y             Z
Electronic contribution:     -0.31815      -1.64485       0.52885
Nuclear contribution   :      0.35866       2.24221      -0.33412
                        -----------------------------------------
Total Dipole Moment    :      0.04052       0.59736       0.19473
                        -----------------------------------------
Magnitude (a.u.)       :      0.62961
Magnitude (Debye)      :      1.60033

                             ****ORCA TERMINATED NORMALLY****
TOTAL RUN TIME: 0 days 0 hours 20 minutes 6 seconds 741 msec
