                         Program Version 3.0.3 - RELEASE   -
|  1> ! RI-MP2 RIJK def2-TZVP def2-TZVP/C def2-TZVP/JK TIGHTSCF
|  2> % maxcore 2000
|  3> % mp2 density relaxed end
|  4> *xyz 0 1
|  5>  C       -0.0173161174     1.5759808773     0.0999559012
|  6>  C        1.5334195334     1.5782621752    -0.1089502010
|  7>  C        1.3912752187     0.1783488649    -0.7112384636
|  8>  C        2.2040615976    -1.1124684181    -0.8102913731
|  9>  C        1.2933438700    -1.2932833943    -2.0530918557
| 10>  C       -0.1061070675    -1.8546831287    -1.7086208208
| 11>  C       -0.9333086454    -0.7742828694    -0.9538478997
| 12>  C        0.0061387790     0.0228763660    -0.0422499785
| 13>  O        1.1927682876     0.1591012637    -2.1578912685
| 14>  H       -0.3989936924     1.9919957498     1.0346510827
| 15>  H       -0.5341077624     2.0507534907    -0.7377342906
| 16>  H        1.9676169137     2.3399452603    -0.7602359107
| 17>  H        2.0791596431     1.5598466775     0.8388680028
| 18>  H        3.2466665685    -0.9557166668    -1.0973737804
| 19>  H        2.1299745250    -1.8284524712     0.0125115370
| 20>  H        1.7277222591    -1.7388824653    -2.9510614662
| 21>  H       -0.6307938171    -2.1460789254    -2.6242708752
| 22>  H        0.0041560334    -2.7649126784    -1.1066749176
| 23>  H       -1.3681430268    -0.0977956584    -1.6941015778
| 24>  H       -1.7643698009    -1.2321639072    -0.4090846861
| 25>  H        0.1107634905    -0.4461292124     0.9429824919
| 26> *
| 27>
| 28>                          ****END OF INPUT****

CARTESIAN COORDINATES (ANGSTROEM)
---------------------------------
  C     -0.017316    1.575981    0.099956
  C      1.533420    1.578262   -0.108950
  C      1.391275    0.178349   -0.711238
  C      2.204062   -1.112468   -0.810291
  C      1.293344   -1.293283   -2.053092
  C     -0.106107   -1.854683   -1.708621
  C     -0.933309   -0.774283   -0.953848
  C      0.006139    0.022876   -0.042250
  O      1.192768    0.159101   -2.157891
  H     -0.398994    1.991996    1.034651
  H     -0.534108    2.050753   -0.737734
  H      1.967617    2.339945   -0.760236
  H      2.079160    1.559847    0.838868
  H      3.246667   -0.955717   -1.097374
  H      2.129975   -1.828452    0.012512
  H      1.727722   -1.738882   -2.951061
  H     -0.630794   -2.146079   -2.624271
  H      0.004156   -2.764913   -1.106675
  H     -1.368143   -0.097796   -1.694102
  H     -1.764370   -1.232164   -0.409085
  H      0.110763   -0.446129    0.942982

 Total Charge           Charge          ....    0
 Multiplicity           Mult            ....    1
 Number of Electrons    NEL             ....   68
 Basis Dimension        Dim             ....  351

ORBITAL ENERGIES
----------------

  NO   OCC          E(Eh)            E(eV)
   0   2.0000     -20.538348      -558.8769
   1   2.0000     -11.280874      -306.9682
   2   2.0000     -11.277934      -306.8882
   3   2.0000     -11.223450      -305.4056
   4   2.0000     -11.222121      -305.3694
   5   2.0000     -11.221150      -305.3430
   6   2.0000     -11.220422      -305.3232
   7   2.0000     -11.219143      -305.2884
   8   2.0000     -11.217105      -305.2330
   9   2.0000      -1.376643       -37.4603
  10   2.0000      -1.121549       -30.5189
  11   2.0000      -1.052564       -28.6417
  12   2.0000      -0.996072       -27.1045
  13   2.0000      -0.923839       -25.1389
  14   2.0000      -0.873842       -23.7785
  15   2.0000      -0.816197       -22.2099
  16   2.0000      -0.777366       -21.1532
  17   2.0000      -0.710779       -19.3413
  18   2.0000      -0.673842       -18.3362
  19   2.0000      -0.657403       -17.8888
  20   2.0000      -0.630190       -17.1483
  21   2.0000      -0.589474       -16.0404
  22   2.0000      -0.568008       -15.4563
  23   2.0000      -0.556036       -15.1305
  24   2.0000      -0.540709       -14.7134
  25   2.0000      -0.530681       -14.4406
  26   2.0000      -0.504876       -13.7384
  27   2.0000      -0.499378       -13.5888
  28   2.0000      -0.475826       -12.9479
  29   2.0000      -0.468627       -12.7520
  30   2.0000      -0.449061       -12.2196
  31   2.0000      -0.438464       -11.9312
  32   2.0000      -0.410243       -11.1633
  33   2.0000      -0.376176       -10.2363
  34   0.0000       0.137851         3.7511
  35   0.0000       0.152755         4.1567
  36   0.0000       0.161214         4.3869
  37   0.0000       0.173125         4.7110
  38   0.0000       0.187536         5.1031

MULLIKEN ATOMIC CHARGES
-----------------------
   0 C :   -0.261638
   1 C :   -0.199504
   2 C :    0.138442
   3 C :   -0.247637
   4 C :    0.103049
   5 C :   -0.257963
   6 C :   -0.270077
   7 C :   -0.055666
   8 O :   -0.335098
   9 H :    0.117105
  10 H :    0.119083
  11 H :    0.119687
  12 H :    0.117827
  13 H :    0.113808
  14 H :    0.117667
  15 H :    0.116516
  16 H :    0.118786
  17 H :    0.112752
  18 H :    0.116279
  19 H :    0.119403
  20 H :    0.097179
Sum of atomic charges:    0.0000000

LOEWDIN ATOMIC CHARGES
----------------------
   0 C :   -0.211406
   1 C :   -0.198892
   2 C :   -0.287010
   3 C :   -0.191705
   4 C :   -0.256257
   5 C :   -0.236583
   6 C :   -0.237325
   7 C :   -0.188674
   8 O :    0.177312
   9 H :    0.122224
  10 H :    0.137678
  11 H :    0.132553
  12 H :    0.140082
  13 H :    0.137213
  14 H :    0.128116
  15 H :    0.130910
  16 H :    0.137000
  17 H :    0.137456
  18 H :    0.143492
  19 H :    0.132832
  20 H :    0.150984

  Mayer bond orders larger than 0.1
B(  0-C ,  1-C ) :   0.9788 B(  0-C ,  7-C ) :   0.9401 B(  0-C ,  9-H ) :   0.9313
B(  0-C , 10-H ) :   0.9050 B(  1-C ,  2-C ) :   0.8951 B(  1-C , 11-H ) :   0.9131
B(  1-C , 12-H ) :   0.9169 B(  2-C ,  3-C ) :   0.9077 B(  2-C ,  7-C ) :   0.9063
B(  2-C ,  8-O ) :   0.9869 B(  3-C ,  4-C ) :   0.9707 B(  3-C , 13-H ) :   0.9039
B(  3-C , 14-H ) :   0.9146 B(  4-C ,  5-C ) :   0.9102 B(  4-C ,  8-O ) :   0.9491
B(  4-C , 15-H ) :   0.9190 B(  5-C ,  6-C ) :   0.9568 B(  5-C , 16-H ) :   0.9245
B(  5-C , 17-H ) :   0.9192 B(  6-C ,  7-C ) :   0.9257 B(  6-C , 18-H ) :   0.9138
B(  6-C , 19-H ) :   0.9351 B(  7-C , 20-H ) :   0.9129

MP2 TOTAL ENERGY:     -386.396917861 Eh
FINAL SINGLE POINT ENERGY      -386.396917860883

DIPOLE MOMENT
-------------
                                X             Y             Z
Electronic contribution:      2.02097       0.72555      -2.23151
Nuclear contribution   :     -2.00895      -1.16438       2.71800
                        -----------------------------------------
Total Dipole Moment    :      0.01202      -0.43884       0.48648
                        -----------------------------------------
Magnitude (a.u.)       :      0.65528
Magnitude (Debye)      :      1.66558

                             ****ORCA TERMINATED NORMALLY****
TOTAL RUN TIME: 0 days 0 hours 20 minutes 29 seconds 465 msec
