                         Program Version 3.0.3 - RELEASE   -
|  1> ! RI-MP2 RIJK def2-TZVP def2-TZVP/C def2-TZVP/JK TIGHTSCF
|  2> % maxcore 2000
|  3> % mp2 density relaxed end
|  4> *xyz 0 1
|  5>  O        0.1765919324     0.0364586611     0.1102782406
|  6>  C        0.0370285392     1.2157219265     0.0671579233
|  7>  C       -1.0542216491     2.2703303439    -0.0679995582
|  8>  O       -0.8437272965     2.9905541274     1.1885546193
|  9>  C        0.6286862829     3.0922727123     1.3670116787
| 10>  C        1.0082149746     2.4656874445     0.0476706759
| 11>  C        1.9356312285     2.3790644885    -1.1607312272
| 12>  O        0.7485012870     2.4774703371    -2.0229421361
| 13>  C       -0.0246561846     3.0492778936    -0.9345594449
| 14>  H       -2.1216025577     2.1348920299    -0.2253452954
| 15>  H        0.8946790312     4.1467444487     1.4794236187
| 16>  H        0.9205641615     2.5352509764     2.2626679854
| 17>  H        2.6018016187     3.2357629857    -1.3138379831
| 18>  H        2.4715951655     1.4387238662    -1.3105562904
| 19>  H       -0.1969258737     4.1232356181    -1.0342314166
| 20> *
| 21>
| 22>                          ****END OF INPUT****

CARTESIAN COORDINATES (ANGSTROEM)
---------------------------------
  O      0.176592    0.036459    0.110278
  C      0.037029    1.215722    0.067158
  C     -1.054222    2.270330   -0.068000
  O     -0.843727    2.990554    1.188555
  C      0.628686    3.092273    1.367012
  C      1.008215    2.465687    0.047671
  C      1.935631    2.379064   -1.160731
  O      0.748501    2.477470   -2.022942
  C     -0.024656    3.049278   -0.934559
  H     -2.121603    2.134892   -0.225345
  H      0.894679    4.146744    1.479424
  H      0.920564    2.535251    2.262668
  H      2.601802    3.235763   -1.313838
  H      2.471595    1.438724   -1.310556
  H     -0.196926    4.123236   -1.034231

 Total Charge           Charge          ....    0
 Multiplicity           Mult            ....    1
 Number of Electrons    NEL             ....   66
 Basis Dimension        Dim             ....  315

ORBITAL ENERGIES
----------------

  NO   OCC          E(Eh)            E(eV)
   0   2.0000     -20.588187      -560.2331
   1   2.0000     -20.583305      -560.1002
   2   2.0000     -20.573887      -559.8439
   3   2.0000     -11.351273      -308.8838
   4   2.0000     -11.320142      -308.0367
   5   2.0000     -11.317425      -307.9628
   6   2.0000     -11.315861      -307.9202
   7   2.0000     -11.309718      -307.7531
   8   2.0000     -11.272153      -306.7309
   9   2.0000      -1.434773       -39.0422
  10   2.0000      -1.405578       -38.2477
  11   2.0000      -1.386490       -37.7283
  12   2.0000      -1.120023       -30.4774
  13   2.0000      -1.027930       -27.9714
  14   2.0000      -0.953841       -25.9553
  15   2.0000      -0.878838       -23.9144
  16   2.0000      -0.822244       -22.3744
  17   2.0000      -0.726494       -19.7689
  18   2.0000      -0.716331       -19.4923
  19   2.0000      -0.703001       -19.1296
  20   2.0000      -0.683328       -18.5943
  21   2.0000      -0.670902       -18.2562
  22   2.0000      -0.614740       -16.7279
  23   2.0000      -0.599337       -16.3088
  24   2.0000      -0.587661       -15.9911
  25   2.0000      -0.570168       -15.5151
  26   2.0000      -0.556741       -15.1497
  27   2.0000      -0.528415       -14.3789
  28   2.0000      -0.506766       -13.7898
  29   2.0000      -0.496237       -13.5033
  30   2.0000      -0.454593       -12.3701
  31   2.0000      -0.424816       -11.5598
  32   2.0000      -0.390560       -10.6277
  33   0.0000       0.125675         3.4198
  34   0.0000       0.130364         3.5474
  35   0.0000       0.156337         4.2541
  36   0.0000       0.173499         4.7212
  37   0.0000       0.179971         4.8972

MULLIKEN ATOMIC CHARGES
-----------------------
   0 O :   -0.221140
   1 C :    0.038431
   2 C :    0.111077
   3 O :   -0.305476
   4 C :   -0.045380
   5 C :    0.002543
   6 C :   -0.020857
   7 O :   -0.310691
   8 C :   -0.036412
   9 H :    0.160384
  10 H :    0.125624
  11 H :    0.125342
  12 H :    0.118047
  13 H :    0.134968
  14 H :    0.123538
Sum of atomic charges:   -0.0000000

LOEWDIN ATOMIC CHARGES
----------------------
   0 O :    0.197811
   1 C :   -0.247410
   2 C :   -0.211689
   3 O :    0.151915
   4 C :   -0.221600
   5 C :   -0.197750
   6 C :   -0.212232
   7 O :    0.143470
   8 C :   -0.198410
   9 H :    0.137502
  10 H :    0.129431
  11 H :    0.130007
  12 H :    0.126976
  13 H :    0.131383
  14 H :    0.140595

  Mayer bond orders larger than 0.1
B(  0-O ,  1-C ) :   2.0610 B(  1-C ,  2-C ) :   0.8589 B(  1-C ,  5-C ) :   0.7354
B(  2-C ,  3-O ) :   0.8996 B(  2-C ,  8-C ) :   0.8609 B(  2-C ,  9-H ) :   0.8798
B(  3-O ,  4-C ) :   0.8944 B(  4-C ,  5-C ) :   0.9641 B(  4-C , 10-H ) :   0.9296
B(  4-C , 11-H ) :   0.9071 B(  5-C ,  6-C ) :   0.9313 B(  5-C ,  8-C ) :   0.8686
B(  6-C ,  7-O ) :   0.9023 B(  6-C , 12-H ) :   0.9237 B(  6-C , 13-H ) :   0.9052
B(  7-O ,  8-C ) :   0.9767 B(  8-C , 14-H ) :   0.9403

MP2 TOTAL ENERGY:     -456.939950849 Eh
FINAL SINGLE POINT ENERGY      -456.939950849395

DIPOLE MOMENT
-------------
                                X             Y             Z
Electronic contribution:     -2.08288      -3.08521      -0.52469
Nuclear contribution   :      2.65552       4.02628       0.75202
                        -----------------------------------------
Total Dipole Moment    :      0.57264       0.94107       0.22732
                        -----------------------------------------
Magnitude (a.u.)       :      1.12481
Magnitude (Debye)      :      2.85905

                             ****ORCA TERMINATED NORMALLY****
TOTAL RUN TIME: 0 days 0 hours 16 minutes 48 seconds 639 msec
