                         Program Version 3.0.3 - RELEASE   -
|  1> ! RI-MP2 RIJK def2-TZVP def2-TZVP/C def2-TZVP/JK TIGHTSCF
|  2> % maxcore 2000
|  3> % mp2 density relaxed end
|  4> *xyz 0 1
|  5>  C       -0.0300722093     1.5357259815    -0.1518896596
|  6>  C        1.3026925076     2.2621039556     0.1475074413
|  7>  C        2.4027882608     1.3128083000     0.5782292916
|  8>  C        2.1879532041     0.1028972450     1.4524588977
|  9>  C        0.8506427792    -0.6272605791     1.1480923448
| 10>  C        0.0632375050     0.0360985894     0.0463677405
| 11>  C        1.2723815442    -0.7943575772    -0.3038146606
| 12>  C        2.6099084193    -0.0646422114     0.0006658912
| 13>  H       -0.8271327957     1.9257457454     0.4912829599
| 14>  H       -0.3474148189     1.7351393170    -1.1817262531
| 15>  H        1.6412005475     2.8130522567    -0.7373429910
| 16>  H        1.1575122489     3.0118093609     0.9335734797
| 17>  H        3.3465476086     1.8096531974     0.7952774030
| 18>  H        2.7684263665    -0.0797693787     2.3478423132
| 19>  H        0.4171424720    -1.3638882811     1.8125365235
| 20>  H       -0.8664549183    -0.4896124948    -0.1632657520
| 21>  H        1.2119701050    -1.6788818845    -0.9250995093
| 22>  H        3.5638571634    -0.3959993921    -0.3894793009
| 23> *
| 24>
| 25>                          ****END OF INPUT****

CARTESIAN COORDINATES (ANGSTROEM)
---------------------------------
  C     -0.030072    1.535726   -0.151890
  C      1.302693    2.262104    0.147507
  C      2.402788    1.312808    0.578229
  C      2.187953    0.102897    1.452459
  C      0.850643   -0.627261    1.148092
  C      0.063238    0.036099    0.046368
  C      1.272382   -0.794358   -0.303815
  C      2.609908   -0.064642    0.000666
  H     -0.827133    1.925746    0.491283
  H     -0.347415    1.735139   -1.181726
  H      1.641201    2.813052   -0.737343
  H      1.157512    3.011809    0.933573
  H      3.346548    1.809653    0.795277
  H      2.768426   -0.079769    2.347842
  H      0.417142   -1.363888    1.812537
  H     -0.866455   -0.489612   -0.163266
  H      1.211970   -1.678882   -0.925100
  H      3.563857   -0.395999   -0.389479

 Total Charge           Charge          ....    0
 Multiplicity           Mult            ....    1
 Number of Electrons    NEL             ....   58
 Basis Dimension        Dim             ....  308

ORBITAL ENERGIES
----------------

  NO   OCC          E(Eh)            E(eV)
   0   2.0000     -11.228493      -305.5428
   1   2.0000     -11.228484      -305.5426
   2   2.0000     -11.224730      -305.4404
   3   2.0000     -11.224220      -305.4266
   4   2.0000     -11.224146      -305.4245
   5   2.0000     -11.223628      -305.4104
   6   2.0000     -11.216345      -305.2123
   7   2.0000     -11.215783      -305.1970
   8   2.0000      -1.217044       -33.1175
   9   2.0000      -1.070344       -29.1255
  10   2.0000      -1.033300       -28.1175
  11   2.0000      -0.873541       -23.7703
  12   2.0000      -0.860687       -23.4205
  13   2.0000      -0.821244       -22.3472
  14   2.0000      -0.714254       -19.4358
  15   2.0000      -0.708455       -19.2780
  16   2.0000      -0.673704       -18.3324
  17   2.0000      -0.613334       -16.6897
  18   2.0000      -0.611166       -16.6307
  19   2.0000      -0.596447       -16.2301
  20   2.0000      -0.570176       -15.5153
  21   2.0000      -0.506689       -13.7877
  22   2.0000      -0.494596       -13.4586
  23   2.0000      -0.481869       -13.1123
  24   2.0000      -0.468872       -12.7586
  25   2.0000      -0.436363       -11.8740
  26   2.0000      -0.423206       -11.5160
  27   2.0000      -0.370344       -10.0776
  28   2.0000      -0.314215        -8.5502
  29   0.0000       0.141081         3.8390
  30   0.0000       0.164221         4.4687
  31   0.0000       0.167225         4.5504
  32   0.0000       0.174294         4.7428
  33   0.0000       0.192196         5.2299

MULLIKEN ATOMIC CHARGES
-----------------------
   0 C :   -0.174173
   1 C :   -0.174172
   2 C :   -0.138850
   3 C :   -0.137204
   4 C :   -0.136364
   5 C :   -0.138850
   6 C :   -0.137204
   7 C :   -0.136364
   8 H :    0.107960
   9 H :    0.108004
  10 H :    0.107960
  11 H :    0.108004
  12 H :    0.107686
  13 H :    0.131465
  14 H :    0.131475
  15 H :    0.107686
  16 H :    0.131465
  17 H :    0.131476
Sum of atomic charges:   -0.0000000

LOEWDIN ATOMIC CHARGES
----------------------
   0 C :   -0.232644
   1 C :   -0.232644
   2 C :   -0.187628
   3 C :   -0.143160
   4 C :   -0.143246
   5 C :   -0.187628
   6 C :   -0.143160
   7 C :   -0.143246
   8 H :    0.139019
   9 H :    0.138960
  10 H :    0.139019
  11 H :    0.138960
  12 H :    0.157105
  13 H :    0.135797
  14 H :    0.135798
  15 H :    0.157105
  16 H :    0.135797
  17 H :    0.135798

  Mayer bond orders larger than 0.1
B(  0-C ,  1-C ) :   0.9880 B(  0-C ,  5-C ) :   0.9327 B(  0-C ,  8-H ) :   0.9267
B(  0-C ,  9-H ) :   0.9269 B(  1-C ,  2-C ) :   0.9327 B(  1-C , 10-H ) :   0.9267
B(  1-C , 11-H ) :   0.9269 B(  2-C ,  3-C ) :   0.8750 B(  2-C ,  7-C ) :   0.8745
B(  2-C , 12-H ) :   0.9445 B(  3-C ,  4-C ) :   0.8947 B(  3-C ,  7-C ) :   0.8758
B(  3-C , 13-H ) :   0.9274 B(  4-C ,  5-C ) :   0.8745 B(  4-C ,  6-C ) :   0.8758
B(  4-C , 14-H ) :   0.9274 B(  5-C ,  6-C ) :   0.8750 B(  5-C , 15-H ) :   0.9445
B(  6-C ,  7-C ) :   0.8947 B(  6-C , 16-H ) :   0.9274 B(  7-C , 17-H ) :   0.9274

MP2 TOTAL ENERGY:     -310.033897399 Eh
FINAL SINGLE POINT ENERGY      -310.033897399185

DIPOLE MOMENT
-------------
                                X             Y             Z
Electronic contribution:      1.07470      -2.20534       0.56642
Nuclear contribution   :     -1.06882       2.19326      -0.56331
                        -----------------------------------------
Total Dipole Moment    :      0.00589      -0.01208       0.00310
                        -----------------------------------------
Magnitude (a.u.)       :      0.01379
Magnitude (Debye)      :      0.03506

                             ****ORCA TERMINATED NORMALLY****
TOTAL RUN TIME: 0 days 0 hours 13 minutes 55 seconds 469 msec
