                         Program Version 3.0.3 - RELEASE   -
|  1> ! RI-MP2 RIJK def2-TZVP def2-TZVP/C def2-TZVP/JK TIGHTSCF
|  2> % maxcore 2000
|  3> % mp2 density relaxed end
|  4> *xyz 0 1
|  5>  N       -0.1740254502     1.4908372971     0.1257365709
|  6>  C        0.0447000074     0.1485481759    -0.0000137446
|  7>  N       -0.9084318328    -0.7400831735     0.0116928666
|  8>  H       -1.8880294695    -0.4306597703     0.0362235187
|  9>  C       -0.9002847477    -2.1181230267     0.0013201842
| 10>  C       -2.1711676613    -2.7595656960    -0.0121641290
| 11>  O       -3.2903624029    -2.2682246333    -0.0152129443
| 12>  O       -1.8991227196    -4.1080159082    -0.0182010638
| 13>  N       -0.4959473259    -4.3250548028    -0.0075855317
| 14>  C        0.0641288259    -3.1401926257     0.0051504386
| 15>  H        0.5437466656     2.0993198479    -0.2350952085
| 16>  H       -1.1124824151     1.8386573877    -0.0097148138
| 17>  H        1.0715843181    -0.1902452921    -0.0395936269
| 18>  H        1.1448105482    -3.0809525102     0.0171634235
| 19> *
| 20>
| 21>                          ****END OF INPUT****

CARTESIAN COORDINATES (ANGSTROEM)
---------------------------------
  N     -0.174025    1.490837    0.125737
  C      0.044700    0.148548   -0.000014
  N     -0.908432   -0.740083    0.011693
  H     -1.888029   -0.430660    0.036224
  C     -0.900285   -2.118123    0.001320
  C     -2.171168   -2.759566   -0.012164
  O     -3.290362   -2.268225   -0.015213
  O     -1.899123   -4.108016   -0.018201
  N     -0.495947   -4.325055   -0.007586
  C      0.064129   -3.140193    0.005150
  H      0.543747    2.099320   -0.235095
  H     -1.112482    1.838657   -0.009715
  H      1.071584   -0.190245   -0.039594
  H      1.144811   -3.080953    0.017163

 Total Charge           Charge          ....    0
 Multiplicity           Mult            ....    1
 Number of Electrons    NEL             ....   66
 Basis Dimension        Dim             ....  309

ORBITAL ENERGIES
----------------

  NO   OCC          E(Eh)            E(eV)
   0   2.0000     -20.589802      -560.2770
   1   2.0000     -20.490554      -557.5763
   2   2.0000     -15.696619      -427.1267
   3   2.0000     -15.659606      -426.1195
   4   2.0000     -15.582609      -424.0244
   5   2.0000     -11.411707      -310.5283
   6   2.0000     -11.335724      -308.4607
   7   2.0000     -11.272713      -306.7461
   8   2.0000     -11.240246      -305.8626
   9   2.0000      -1.441919       -39.2366
  10   2.0000      -1.378255       -37.5042
  11   2.0000      -1.328806       -36.1587
  12   2.0000      -1.274412       -34.6785
  13   2.0000      -1.131975       -30.8026
  14   2.0000      -1.034580       -28.1524
  15   2.0000      -0.943716       -25.6798
  16   2.0000      -0.845077       -22.9957
  17   2.0000      -0.827789       -22.5253
  18   2.0000      -0.774743       -21.0818
  19   2.0000      -0.757604       -20.6154
  20   2.0000      -0.705876       -19.2079
  21   2.0000      -0.668687       -18.1959
  22   2.0000      -0.654792       -17.8178
  23   2.0000      -0.638486       -17.3741
  24   2.0000      -0.615554       -16.7501
  25   2.0000      -0.578337       -15.7374
  26   2.0000      -0.528969       -14.3940
  27   2.0000      -0.521121       -14.1804
  28   2.0000      -0.481283       -13.0964
  29   2.0000      -0.471161       -12.8209
  30   2.0000      -0.401257       -10.9188
  31   2.0000      -0.399607       -10.8739
  32   2.0000      -0.270025        -7.3478
  33   0.0000       0.063678         1.7328
  34   0.0000       0.078414         2.1338
  35   0.0000       0.105010         2.8575
  36   0.0000       0.135076         3.6756
  37   0.0000       0.177207         4.8220

MULLIKEN ATOMIC CHARGES
-----------------------
   0 N :   -0.482498
   1 C :    0.159540
   2 N :   -0.176900
   3 H :    0.259587
   4 C :    0.010854
   5 C :    0.220375
   6 O :   -0.432828
   7 O :   -0.128621
   8 N :   -0.121281
   9 C :   -0.154860
  10 H :    0.281248
  11 H :    0.271175
  12 H :    0.167179
  13 H :    0.127029
Sum of atomic charges:   -0.0000000

LOEWDIN ATOMIC CHARGES
----------------------
   0 N :   -0.042037
   1 C :   -0.264398
   2 N :    0.255531
   3 H :    0.233666
   4 C :   -0.295135
   5 C :   -0.518938
   6 O :    0.022648
   7 O :    0.231926
   8 N :    0.024377
   9 C :   -0.295304
  10 H :    0.184436
  11 H :    0.179961
  12 H :    0.148409
  13 H :    0.134859

  Mayer bond orders larger than 0.1
B(  0-N ,  1-C ) :   1.1402 B(  0-N , 10-H ) :   0.8641 B(  0-N , 11-H ) :   0.8682
B(  1-C ,  2-N ) :   1.4237 B(  1-C , 12-H ) :   0.9204 B(  2-N ,  3-H ) :   0.8161
B(  2-N ,  4-C ) :   1.0014 B(  4-C ,  5-C ) :   1.1368 B(  4-C ,  9-C ) :   1.1901
B(  5-C ,  6-O ) :   1.8144 B(  5-C ,  7-O ) :   1.1157 B(  7-O ,  8-N ) :   0.8253
B(  8-N ,  9-C ) :   1.6643 B(  9-C , 13-H ) :   0.9375

MP2 TOTAL ENERGY:     -469.218168527 Eh
FINAL SINGLE POINT ENERGY      -469.218168527322

DIPOLE MOMENT
-------------
                                X             Y             Z
Electronic contribution:     -2.82456      -5.32098      -0.00322
Nuclear contribution   :      4.94253       9.28906      -0.25314
                        -----------------------------------------
Total Dipole Moment    :      2.11797       3.96808      -0.25636
                        -----------------------------------------
Magnitude (a.u.)       :      4.50524
Magnitude (Debye)      :     11.45141

                             ****ORCA TERMINATED NORMALLY****
TOTAL RUN TIME: 0 days 0 hours 14 minutes 0 seconds 500 msec
