                         Program Version 3.0.3 - RELEASE   -
|  1> ! RI-MP2 RIJK def2-TZVP def2-TZVP/C def2-TZVP/JK TIGHTSCF
|  2> % maxcore 2000
|  3> % mp2 density relaxed end
|  4> *xyz 0 1
|  5>  C        0.1367518731     1.5615260749    -0.0495703606
|  6>  C        0.0275982360     0.0710264167    -0.1348406237
|  7>  C       -0.9415615154    -0.7381286825     0.6104714746
|  8>  N        0.4987382771    -0.8399215510     1.0312564521
|  9>  C        1.1134512867    -1.7018986886     0.0548774775
| 10>  O        1.7604406931    -2.6878203117     0.2000152206
| 11>  C        0.7531004260    -0.7941379015    -1.1649398769
| 12>  C        0.0102649463    -1.3892155688    -2.3318174819
| 13>  O       -1.1442890495    -1.1588434524    -2.5899058681
| 14>  H        1.1739535646     1.8909543304    -0.1686734221
| 15>  H       -0.4620632863     2.0286519109    -0.8388802951
| 16>  H       -0.2285189129     1.9226509136     0.9153452200
| 17>  H       -1.5389476534    -0.2416411917     1.3679060559
| 18>  H       -1.4156515489    -1.6026025963     0.1569641331
| 19>  H        1.6900635628    -0.3498227987    -1.5233864135
| 20>  H        0.6154960607    -2.0906527431    -2.9457801019
| 21> *
| 22>
| 23>                          ****END OF INPUT****

CARTESIAN COORDINATES (ANGSTROEM)
---------------------------------
  C      0.136752    1.561526   -0.049570
  C      0.027598    0.071026   -0.134841
  C     -0.941562   -0.738129    0.610471
  N      0.498738   -0.839922    1.031256
  C      1.113451   -1.701899    0.054877
  O      1.760441   -2.687820    0.200015
  C      0.753100   -0.794138   -1.164940
  C      0.010265   -1.389216   -2.331817
  O     -1.144289   -1.158843   -2.589906
  H      1.173954    1.890954   -0.168673
  H     -0.462063    2.028652   -0.838880
  H     -0.228519    1.922651    0.915345
  H     -1.538948   -0.241641    1.367906
  H     -1.415652   -1.602603    0.156964
  H      1.690064   -0.349823   -1.523386
  H      0.615496   -2.090653   -2.945780

 Total Charge           Charge          ....    0
 Multiplicity           Mult            ....    1
 Number of Electrons    NEL             ....   66
 Basis Dimension        Dim             ....  321

ORBITAL ENERGIES
----------------

  NO   OCC          E(Eh)            E(eV)
   0   2.0000     -20.580737      -560.0303
   1   2.0000     -20.570226      -559.7443
   2   2.0000     -15.594478      -424.3473
   3   2.0000     -11.380279      -309.6731
   4   2.0000     -11.357893      -309.0640
   5   2.0000     -11.307687      -307.6978
   6   2.0000     -11.294508      -307.3392
   7   2.0000     -11.283896      -307.0504
   8   2.0000     -11.248622      -306.0906
   9   2.0000      -1.429864       -38.9086
  10   2.0000      -1.418533       -38.6003
  11   2.0000      -1.322066       -35.9753
  12   2.0000      -1.063728       -28.9455
  13   2.0000      -1.030252       -28.0346
  14   2.0000      -0.947813       -25.7913
  15   2.0000      -0.858369       -23.3574
  16   2.0000      -0.796939       -21.6858
  17   2.0000      -0.732018       -19.9192
  18   2.0000      -0.720523       -19.6064
  19   2.0000      -0.689313       -18.7572
  20   2.0000      -0.683571       -18.6009
  21   2.0000      -0.658598       -17.9214
  22   2.0000      -0.617090       -16.7919
  23   2.0000      -0.599138       -16.3034
  24   2.0000      -0.588419       -16.0117
  25   2.0000      -0.566024       -15.4023
  26   2.0000      -0.562170       -15.2974
  27   2.0000      -0.545085       -14.8325
  28   2.0000      -0.514970       -14.0131
  29   2.0000      -0.466892       -12.7048
  30   2.0000      -0.450589       -12.2611
  31   2.0000      -0.439137       -11.9495
  32   2.0000      -0.402497       -10.9525
  33   0.0000       0.104555         2.8451
  34   0.0000       0.117485         3.1969
  35   0.0000       0.146254         3.9798
  36   0.0000       0.152010         4.1364
  37   0.0000       0.173751         4.7280

MULLIKEN ATOMIC CHARGES
-----------------------
   0 C :   -0.435483
   1 C :    0.114765
   2 C :   -0.153353
   3 N :   -0.205022
   4 C :    0.165429
   5 O :   -0.222085
   6 C :   -0.068313
   7 C :    0.075033
   8 O :   -0.263399
   9 H :    0.138439
  10 H :    0.155218
  11 H :    0.147018
  12 H :    0.146442
  13 H :    0.151016
  14 H :    0.148691
  15 H :    0.105605
Sum of atomic charges:    0.0000000

LOEWDIN ATOMIC CHARGES
----------------------
   0 C :   -0.260148
   1 C :   -0.229567
   2 C :   -0.181188
   3 N :    0.163204
   4 C :   -0.364253
   5 O :    0.183817
   6 C :   -0.176481
   7 C :   -0.269777
   8 O :    0.142395
   9 H :    0.133045
  10 H :    0.139234
  11 H :    0.137987
  12 H :    0.141990
  13 H :    0.138712
  14 H :    0.180131
  15 H :    0.120900

  Mayer bond orders larger than 0.1
B(  0-C ,  1-C ) :   0.8797 B(  0-C ,  9-H ) :   0.9344 B(  0-C , 10-H ) :   0.9368
B(  0-C , 11-H ) :   0.9322 B(  1-C ,  2-C ) :   0.9770 B(  1-C ,  3-N ) :   0.7989
B(  1-C ,  6-C ) :   0.8552 B(  2-C ,  3-N ) :   0.8411 B(  2-C , 12-H ) :   0.9160
B(  2-C , 13-H ) :   0.9012 B(  3-N ,  4-C ) :   1.0011 B(  4-C ,  5-O ) :   2.0816
B(  4-C ,  6-C ) :   0.8743 B(  6-C ,  7-C ) :   0.8663 B(  6-C , 14-H ) :   0.8766
B(  7-C ,  8-O ) :   1.9916 B(  7-C , 15-H ) :   0.9403

MP2 TOTAL ENERGY:     -437.149303242 Eh
FINAL SINGLE POINT ENERGY      -437.149303241732

DIPOLE MOMENT
-------------
                                X             Y             Z
Electronic contribution:      1.60191      -6.09432      -0.80319
Nuclear contribution   :     -1.72040       7.08043       0.44970
                        -----------------------------------------
Total Dipole Moment    :     -0.11849       0.98611      -0.35350
                        -----------------------------------------
Magnitude (a.u.)       :      1.05423
Magnitude (Debye)      :      2.67965

                             ****ORCA TERMINATED NORMALLY****
TOTAL RUN TIME: 0 days 0 hours 15 minutes 57 seconds 87 msec
