                         Program Version 3.0.3 - RELEASE   -
|  1> ! RI-MP2 RIJK def2-TZVP def2-TZVP/C def2-TZVP/JK TIGHTSCF
|  2> % maxcore 2000
|  3> % mp2 density relaxed end
|  4> *xyz 0 1
|  5>  N       -0.0816691082     1.3704180577     0.1433682718
|  6>  C       -0.0607786026     0.0020398582     0.0503076239
|  7>  N       -1.0796084758    -0.8047803880     0.0343109383
|  8>  C       -0.4871838571    -2.0647839757     0.0129199389
|  9>  N       -1.3197440010    -3.1717061642    -0.0044659862
| 10>  C       -0.9168928372    -4.4781426651    -0.0314887493
| 11>  N        0.3141970099    -4.8162831216    -0.0490364033
| 12>  C        0.8621697175    -1.9573631994     0.0092396800
| 13>  O        1.1432205502    -0.5889556960     0.0349414057
| 14>  H        0.7211289958     1.8312185601    -0.2590455908
| 15>  H       -0.9630071452     1.7738267621    -0.1364910749
| 16>  H       -2.3037377555    -2.9617486343     0.0116271377
| 17>  H       -1.7699944341    -5.1659184361    -0.0362679041
| 18>  H        0.3990726305    -5.8294892561    -0.0680716287
| 19>  H        1.6853958030    -2.6408582516    -0.0114486489
| 20> *
| 21>
| 22>                          ****END OF INPUT****

CARTESIAN COORDINATES (ANGSTROEM)
---------------------------------
  N     -0.081669    1.370418    0.143368
  C     -0.060779    0.002040    0.050308
  N     -1.079608   -0.804780    0.034311
  C     -0.487184   -2.064784    0.012920
  N     -1.319744   -3.171706   -0.004466
  C     -0.916893   -4.478143   -0.031489
  N      0.314197   -4.816283   -0.049036
  C      0.862170   -1.957363    0.009240
  O      1.143221   -0.588956    0.034941
  H      0.721129    1.831219   -0.259046
  H     -0.963007    1.773827   -0.136491
  H     -2.303738   -2.961749    0.011627
  H     -1.769994   -5.165918   -0.036268
  H      0.399073   -5.829489   -0.068072
  H      1.685396   -2.640858   -0.011449

 Total Charge           Charge          ....    0
 Multiplicity           Mult            ....    1
 Number of Electrons    NEL             ....   66
 Basis Dimension        Dim             ....  315

ORBITAL ENERGIES
----------------

  NO   OCC          E(Eh)            E(eV)
   0   2.0000     -20.620210      -561.1044
   1   2.0000     -15.595784      -424.3829
   2   2.0000     -15.590613      -424.2421
   3   2.0000     -15.544742      -422.9939
   4   2.0000     -15.530897      -422.6172
   5   2.0000     -11.372119      -309.4511
   6   2.0000     -11.320690      -308.0516
   7   2.0000     -11.296504      -307.3935
   8   2.0000     -11.257117      -306.3217
   9   2.0000      -1.477071       -40.1932
  10   2.0000      -1.296445       -35.2781
  11   2.0000      -1.248075       -33.9618
  12   2.0000      -1.209471       -32.9114
  13   2.0000      -1.155381       -31.4395
  14   2.0000      -0.994715       -27.0676
  15   2.0000      -0.882256       -24.0074
  16   2.0000      -0.826494       -22.4900
  17   2.0000      -0.785653       -21.3787
  18   2.0000      -0.746928       -20.3249
  19   2.0000      -0.713240       -19.4082
  20   2.0000      -0.691138       -18.8068
  21   2.0000      -0.665752       -18.1160
  22   2.0000      -0.637014       -17.3340
  23   2.0000      -0.619268       -16.8511
  24   2.0000      -0.615756       -16.7556
  25   2.0000      -0.568467       -15.4688
  26   2.0000      -0.564993       -15.3743
  27   2.0000      -0.498821       -13.5736
  28   2.0000      -0.460594       -12.5334
  29   2.0000      -0.445830       -12.1317
  30   2.0000      -0.430503       -11.7146
  31   2.0000      -0.372998       -10.1498
  32   2.0000      -0.292009        -7.9460
  33   0.0000       0.131272         3.5721
  34   0.0000       0.136293         3.7087
  35   0.0000       0.155330         4.2267
  36   0.0000       0.169264         4.6059
  37   0.0000       0.189964         5.1692

MULLIKEN ATOMIC CHARGES
-----------------------
   0 N :   -0.505672
   1 C :    0.373999
   2 N :   -0.354811
   3 C :    0.202310
   4 N :   -0.306052
   5 C :    0.079609
   6 N :   -0.443514
   7 C :   -0.108120
   8 O :   -0.225005
   9 H :    0.266563
  10 H :    0.270678
  11 H :    0.251192
  12 H :    0.100716
  13 H :    0.215290
  14 H :    0.182816
Sum of atomic charges:   -0.0000000

LOEWDIN ATOMIC CHARGES
----------------------
   0 N :   -0.050536
   1 C :   -0.468097
   2 N :    0.094844
   3 C :   -0.323921
   4 N :    0.140840
   5 C :   -0.353042
   6 N :   -0.109798
   7 C :   -0.232366
   8 O :    0.324523
   9 H :    0.177649
  10 H :    0.181541
  11 H :    0.200169
  12 H :    0.118327
  13 H :    0.161439
  14 H :    0.138429

  Mayer bond orders larger than 0.1
B(  0-N ,  1-C ) :   1.0959 B(  0-N ,  9-H ) :   0.8669 B(  0-N , 10-H ) :   0.8681
B(  1-C ,  2-N ) :   1.6303 B(  1-C ,  8-O ) :   1.1410 B(  2-N ,  3-C ) :   1.1763
B(  3-C ,  4-N ) :   0.9741 B(  3-C ,  7-C ) :   1.6368 B(  4-N ,  5-C ) :   1.1017
B(  4-N , 11-H ) :   0.8642 B(  5-C ,  6-N ) :   1.8530 B(  5-C , 12-H ) :   0.9224
B(  6-N , 13-H ) :   0.8633 B(  7-C ,  8-O ) :   0.9492 B(  7-C , 14-H ) :   0.8947

MP2 TOTAL ENERGY:     -449.425417687 Eh
FINAL SINGLE POINT ENERGY      -449.425417686665

DIPOLE MOMENT
-------------
                                X             Y             Z
Electronic contribution:      0.48787       2.17839       0.17199
Nuclear contribution   :     -1.12018      -1.97140      -0.57034
                        -----------------------------------------
Total Dipole Moment    :     -0.63231       0.20699      -0.39835
                        -----------------------------------------
Magnitude (a.u.)       :      0.77547
Magnitude (Debye)      :      1.97108

                             ****ORCA TERMINATED NORMALLY****
TOTAL RUN TIME: 0 days 0 hours 13 minutes 3 seconds 206 msec
