                         Program Version 3.0.3 - RELEASE   -
|  1> ! RI-MP2 RIJK def2-TZVP def2-TZVP/C def2-TZVP/JK TIGHTSCF
|  2> % maxcore 2000
|  3> % mp2 density relaxed end
|  4> *xyz 0 1
|  5>  C        0.0186447021     1.5102184764     0.0844069774
|  6>  C        1.5794008859     1.5320643199    -0.0443854457
|  7>  C        1.5513175737     0.0319155357     0.1789546369
|  8>  O        2.5018167540    -0.9105417721    -0.2899811164
|  9>  C        2.2828686787    -1.7451479909     0.8797965283
| 10>  C        1.3444886355    -0.7009993180     1.5313255283
| 11>  C       -0.1769003730    -0.8573905237     1.2459408828
| 12>  C        0.0043523959    -0.0483638031    -0.0658197547
| 13>  H       -0.3446929714     1.8555013081     1.0559674764
| 14>  H       -0.5166519652     2.0537001677    -0.6955799126
| 15>  H        1.8900134349     1.7701922331    -1.0668449366
| 16>  H        2.1566328445     2.1477759780     0.6515552040
| 17>  H        1.8168701985    -2.7040680113     0.6196962961
| 18>  H        3.2238140479    -1.9328190400     1.4083733730
| 19>  H        1.6659671946    -0.3003773356     2.4933959505
| 20>  H       -0.4977811062    -1.8942150081     1.1048913322
| 21>  H       -0.8364857259    -0.3945210089     1.9862739031
| 22>  H       -0.4359642043    -0.4244040272    -0.9900527631
| 23> *
| 24>
| 25>                          ****END OF INPUT****

CARTESIAN COORDINATES (ANGSTROEM)
---------------------------------
  C      0.018645    1.510218    0.084407
  C      1.579401    1.532064   -0.044385
  C      1.551318    0.031916    0.178955
  O      2.501817   -0.910542   -0.289981
  C      2.282869   -1.745148    0.879797
  C      1.344489   -0.700999    1.531326
  C     -0.176900   -0.857391    1.245941
  C      0.004352   -0.048364   -0.065820
  H     -0.344693    1.855501    1.055967
  H     -0.516652    2.053700   -0.695580
  H      1.890013    1.770192   -1.066845
  H      2.156633    2.147776    0.651555
  H      1.816870   -2.704068    0.619696
  H      3.223814   -1.932819    1.408373
  H      1.665967   -0.300377    2.493396
  H     -0.497781   -1.894215    1.104891
  H     -0.836486   -0.394521    1.986274
  H     -0.435964   -0.424404   -0.990053

 Total Charge           Charge          ....    0
 Multiplicity           Mult            ....    1
 Number of Electrons    NEL             ....   60
 Basis Dimension        Dim             ....  308

ORBITAL ENERGIES
----------------

  NO   OCC          E(Eh)            E(eV)
   0   2.0000     -20.546714      -559.1045
   1   2.0000     -11.279101      -306.9199
   2   2.0000     -11.279046      -306.9184
   3   2.0000     -11.230185      -305.5889
   4   2.0000     -11.227576      -305.5179
   5   2.0000     -11.226427      -305.4866
   6   2.0000     -11.224396      -305.4313
   7   2.0000     -11.222369      -305.3762
   8   2.0000      -1.380846       -37.5747
   9   2.0000      -1.150319       -31.3018
  10   2.0000      -1.037618       -28.2350
  11   2.0000      -0.934903       -25.4400
  12   2.0000      -0.899526       -24.4773
  13   2.0000      -0.838940       -22.8287
  14   2.0000      -0.802240       -21.8301
  15   2.0000      -0.689204       -18.7542
  16   2.0000      -0.679590       -18.4926
  17   2.0000      -0.654404       -17.8072
  18   2.0000      -0.645989       -17.5783
  19   2.0000      -0.598292       -16.2804
  20   2.0000      -0.571909       -15.5624
  21   2.0000      -0.567817       -15.4511
  22   2.0000      -0.523723       -14.2512
  23   2.0000      -0.505106       -13.7446
  24   2.0000      -0.491857       -13.3841
  25   2.0000      -0.463126       -12.6023
  26   2.0000      -0.450408       -12.2562
  27   2.0000      -0.441241       -12.0068
  28   2.0000      -0.400703       -10.9037
  29   2.0000      -0.369183       -10.0460
  30   0.0000       0.144660         3.9364
  31   0.0000       0.155777         4.2389
  32   0.0000       0.161273         4.3885
  33   0.0000       0.168611         4.5881
  34   0.0000       0.182048         4.9538

MULLIKEN ATOMIC CHARGES
-----------------------
   0 C :   -0.259671
   1 C :   -0.211326
   2 C :    0.233944
   3 O :   -0.325186
   4 C :   -0.021499
   5 C :   -0.168764
   6 C :   -0.263115
   7 C :   -0.095697
   8 H :    0.114914
   9 H :    0.123594
  10 H :    0.119227
  11 H :    0.113443
  12 H :    0.086811
  13 H :    0.104637
  14 H :    0.110163
  15 H :    0.114707
  16 H :    0.115154
  17 H :    0.108665
Sum of atomic charges:   -0.0000000

LOEWDIN ATOMIC CHARGES
----------------------
   0 C :   -0.206274
   1 C :   -0.202680
   2 C :   -0.284582
   3 O :    0.161207
   4 C :   -0.233195
   5 C :   -0.164691
   6 C :   -0.210364
   7 C :   -0.155677
   8 H :    0.131409
   9 H :    0.129007
  10 H :    0.143759
  11 H :    0.126494
  12 H :    0.118051
  13 H :    0.118757
  14 H :    0.134869
  15 H :    0.130894
  16 H :    0.129026
  17 H :    0.133989

  Mayer bond orders larger than 0.1
B(  0-C ,  1-C ) :   0.9522 B(  0-C ,  7-C ) :   0.9032 B(  0-C ,  8-H ) :   0.9153
B(  0-C ,  9-H ) :   0.9259 B(  1-C ,  2-C ) :   0.9401 B(  1-C , 10-H ) :   0.9088
B(  1-C , 11-H ) :   0.9194 B(  2-C ,  3-O ) :   0.9980 B(  2-C ,  5-C ) :   0.9284
B(  2-C ,  7-C ) :   0.8831 B(  3-O ,  4-C ) :   0.9311 B(  4-C ,  5-C ) :   0.9724
B(  4-C , 12-H ) :   0.8942 B(  4-C , 13-H ) :   0.9160 B(  5-C ,  6-C ) :   0.9312
B(  5-C , 14-H ) :   0.8958 B(  6-C ,  7-C ) :   0.9272 B(  6-C , 15-H ) :   0.9151
B(  6-C , 16-H ) :   0.9110 B(  7-C , 17-H ) :   0.8932

MP2 TOTAL ENERGY:     -347.142525023 Eh
FINAL SINGLE POINT ENERGY      -347.142525022716

DIPOLE MOMENT
-------------
                                X             Y             Z
Electronic contribution:      2.81276      -1.57424      -1.56155
Nuclear contribution   :     -3.22250       1.66436       2.08456
                        -----------------------------------------
Total Dipole Moment    :     -0.40974       0.09012       0.52301
                        -----------------------------------------
Magnitude (a.u.)       :      0.67048
Magnitude (Debye)      :      1.70423

                             ****ORCA TERMINATED NORMALLY****
TOTAL RUN TIME: 0 days 0 hours 13 minutes 22 seconds 22 msec
