                         Program Version 3.0.3 - RELEASE   -
|  1> ! RI-MP2 RIJK def2-TZVP def2-TZVP/C def2-TZVP/JK TIGHTSCF
|  2> % maxcore 2000
|  3> % mp2 density relaxed end
|  4> *xyz 0 1
|  5>  C       -0.2333696718     1.4861136135     0.0024400469
|  6>  C        0.0730059019    -0.0234261176     0.0224723281
|  7>  C        0.7803940338    -0.5250338344    -1.1957215768
|  8>  C        2.1050284286    -0.8063368793    -1.4262192585
|  9>  N        2.3117594942    -1.2261385740    -2.7186339913
| 10>  C        1.1227955271    -1.2020498274    -3.2714069775
| 11>  N        0.1515305684    -0.7855902740    -2.4042204926
| 12>  C       -1.2610201711    -0.6776848928    -2.7026786154
| 13>  H        0.6887684116     2.0639292507    -0.1079049070
| 14>  H       -0.8932380429     1.7555965916    -0.8284928345
| 15>  H       -0.7242138202     1.7949033608     0.9309090626
| 16>  H        0.7065301087    -0.2468990023     0.8871742721
| 17>  H       -0.8589827071    -0.5820472472     0.1817360339
| 18>  H        2.9198065014    -0.7316157042    -0.7205873066
| 19>  H        0.8877172074    -1.4757924732    -4.2902640342
| 20>  H       -1.8573347818    -1.2714245785    -2.0029313376
| 21>  H       -1.6038901649     0.3608955186    -2.6588747145
| 22>  H       -1.4365916336    -1.0574381004    -3.7110100971
| 23> *
| 24>
| 25>                          ****END OF INPUT****

CARTESIAN COORDINATES (ANGSTROEM)
---------------------------------
  C     -0.233370    1.486114    0.002440
  C      0.073006   -0.023426    0.022472
  C      0.780394   -0.525034   -1.195722
  C      2.105028   -0.806337   -1.426219
  N      2.311759   -1.226139   -2.718634
  C      1.122796   -1.202050   -3.271407
  N      0.151531   -0.785590   -2.404220
  C     -1.261020   -0.677685   -2.702679
  H      0.688768    2.063929   -0.107905
  H     -0.893238    1.755597   -0.828493
  H     -0.724214    1.794903    0.930909
  H      0.706530   -0.246899    0.887174
  H     -0.858983   -0.582047    0.181736
  H      2.919807   -0.731616   -0.720587
  H      0.887717   -1.475792   -4.290264
  H     -1.857335   -1.271425   -2.002931
  H     -1.603890    0.360896   -2.658875
  H     -1.436592   -1.057438   -3.711010

 Total Charge           Charge          ....    0
 Multiplicity           Mult            ....    1
 Number of Electrons    NEL             ....   60
 Basis Dimension        Dim             ....  308

ORBITAL ENERGIES
----------------

  NO   OCC          E(Eh)            E(eV)
   0   2.0000     -15.612827      -424.8466
   1   2.0000     -15.533345      -422.6838
   2   2.0000     -11.282505      -307.0126
   3   2.0000     -11.282352      -307.0084
   4   2.0000     -11.253408      -306.2208
   5   2.0000     -11.241373      -305.8933
   6   2.0000     -11.228268      -305.5367
   7   2.0000     -11.224493      -305.4340
   8   2.0000      -1.335948       -36.3530
   9   2.0000      -1.177200       -32.0333
  10   2.0000      -1.069112       -29.0920
  11   2.0000      -0.987455       -26.8700
  12   2.0000      -0.957323       -26.0501
  13   2.0000      -0.866047       -23.5663
  14   2.0000      -0.800150       -21.7732
  15   2.0000      -0.753860       -20.5136
  16   2.0000      -0.698698       -19.0125
  17   2.0000      -0.650103       -17.6902
  18   2.0000      -0.629892       -17.1402
  19   2.0000      -0.605378       -16.4732
  20   2.0000      -0.585407       -15.9297
  21   2.0000      -0.572334       -15.5740
  22   2.0000      -0.554240       -15.0816
  23   2.0000      -0.551600       -15.0098
  24   2.0000      -0.524012       -14.2591
  25   2.0000      -0.508829       -13.8460
  26   2.0000      -0.498551       -13.5663
  27   2.0000      -0.424072       -11.5396
  28   2.0000      -0.377195       -10.2640
  29   2.0000      -0.303247        -8.2518
  30   0.0000       0.124555         3.3893
  31   0.0000       0.148592         4.0434
  32   0.0000       0.163137         4.4392
  33   0.0000       0.172485         4.6936
  34   0.0000       0.182516         4.9665

MULLIKEN ATOMIC CHARGES
-----------------------
   0 C :   -0.376254
   1 C :   -0.219634
   2 C :    0.061064
   3 C :   -0.161145
   4 N :   -0.284877
   5 C :   -0.007532
   6 N :   -0.042152
   7 C :   -0.334366
   8 H :    0.137776
   9 H :    0.113702
  10 H :    0.131805
  11 H :    0.137980
  12 H :    0.116757
  13 H :    0.128480
  14 H :    0.141667
  15 H :    0.154245
  16 H :    0.148470
  17 H :    0.154011
Sum of atomic charges:   -0.0000000

LOEWDIN ATOMIC CHARGES
----------------------
   0 C :   -0.308301
   1 C :   -0.261088
   2 C :   -0.223081
   3 C :   -0.243732
   4 N :    0.081447
   5 C :   -0.311095
   6 N :    0.239429
   7 C :   -0.268882
   8 H :    0.125142
   9 H :    0.116168
  10 H :    0.120933
  11 H :    0.152260
  12 H :    0.141641
  13 H :    0.132737
  14 H :    0.129844
  15 H :    0.124714
  16 H :    0.121248
  17 H :    0.130614

  Mayer bond orders larger than 0.1
B(  0-C ,  1-C ) :   0.9082 B(  0-C ,  8-H ) :   0.9363 B(  0-C ,  9-H ) :   0.9396
B(  0-C , 10-H ) :   0.9348 B(  1-C ,  2-C ) :   0.8857 B(  1-C , 11-H ) :   0.9464
B(  1-C , 12-H ) :   0.9337 B(  2-C ,  3-C ) :   1.4925 B(  2-C ,  6-N ) :   1.1016
B(  3-C ,  4-N ) :   1.3120 B(  3-C , 13-H ) :   0.9456 B(  4-N ,  5-C ) :   1.5663
B(  5-C ,  6-N ) :   1.1600 B(  5-C , 14-H ) :   0.9215 B(  6-N ,  7-C ) :   0.8705
B(  7-C , 15-H ) :   0.9319 B(  7-C , 16-H ) :   0.9288 B(  7-C , 17-H ) :   0.9306

MP2 TOTAL ENERGY:     -343.419312684 Eh
FINAL SINGLE POINT ENERGY      -343.419312683724

DIPOLE MOMENT
-------------
                                X             Y             Z
Electronic contribution:      5.78621      -4.34228      -4.05606
Nuclear contribution   :     -7.42813       4.70207       4.36818
                        -----------------------------------------
Total Dipole Moment    :     -1.64192       0.35980       0.31212
                        -----------------------------------------
Magnitude (a.u.)       :      1.70961
Magnitude (Debye)      :      4.34549

                             ****ORCA TERMINATED NORMALLY****
TOTAL RUN TIME: 0 days 0 hours 12 minutes 51 seconds 151 msec
