                         Program Version 3.0.3 - RELEASE   -
|  1> ! RI-MP2 RIJK def2-TZVP def2-TZVP/C def2-TZVP/JK TIGHTSCF
|  2> % maxcore 2000
|  3> % mp2 density relaxed end
|  4> *xyz 0 1
|  5>  N        0.0324553574     1.3901944475     0.1519212137
|  6>  C        0.0389947429     0.0064009784     0.0346633759
|  7>  N       -1.0804214612    -0.6833802965     0.0115475961
|  8>  O       -0.6856924784    -2.0251776251    -0.0166066515
|  9>  C        0.6529031484    -2.0814583561    -0.0260868828
| 10>  C        1.1936402433    -0.8388464742     0.0063297268
| 11>  C        2.6324453687    -0.4457907492     0.0421009336
| 12>  O        3.4138266669    -1.6257888495    -0.0292485592
| 13>  H        0.7139209648     1.8535378660    -0.4342434264
| 14>  H       -0.8910762024     1.7789803571     0.0072768022
| 15>  H        1.0953304764    -3.0640003473    -0.0507792389
| 16>  H        2.8616971782     0.2331687241    -0.7990820999
| 17>  H        2.8393448536     0.1209223805     0.9654435586
| 18>  H        4.3392733714    -1.3800058958     0.0555925618
| 19> *
| 20>
| 21>                          ****END OF INPUT****

CARTESIAN COORDINATES (ANGSTROEM)
---------------------------------
  N      0.032455    1.390194    0.151921
  C      0.038995    0.006401    0.034663
  N     -1.080421   -0.683380    0.011548
  O     -0.685692   -2.025178   -0.016607
  C      0.652903   -2.081458   -0.026087
  C      1.193640   -0.838846    0.006330
  C      2.632445   -0.445791    0.042101
  O      3.413827   -1.625789   -0.029249
  H      0.713921    1.853538   -0.434243
  H     -0.891076    1.778980    0.007277
  H      1.095330   -3.064000   -0.050779
  H      2.861697    0.233169   -0.799082
  H      2.839345    0.120922    0.965444
  H      4.339273   -1.380006    0.055593

 Total Charge           Charge          ....    0
 Multiplicity           Mult            ....    1
 Number of Electrons    NEL             ....   60
 Basis Dimension        Dim             ....  284

ORBITAL ENERGIES
----------------

  NO   OCC          E(Eh)            E(eV)
   0   2.0000     -20.628226      -561.3226
   1   2.0000     -20.576967      -559.9277
   2   2.0000     -15.595249      -424.3683
   3   2.0000     -15.583512      -424.0489
   4   2.0000     -11.312576      -307.8308
   5   2.0000     -11.306010      -307.6522
   6   2.0000     -11.305090      -307.6271
   7   2.0000     -11.236241      -305.7537
   8   2.0000      -1.477566       -40.2066
   9   2.0000      -1.382427       -37.6178
  10   2.0000      -1.249647       -34.0046
  11   2.0000      -1.112401       -30.2700
  12   2.0000      -1.083332       -29.4790
  13   2.0000      -0.945792       -25.7363
  14   2.0000      -0.819368       -22.2961
  15   2.0000      -0.797430       -21.6992
  16   2.0000      -0.731422       -19.9030
  17   2.0000      -0.699166       -19.0253
  18   2.0000      -0.685003       -18.6399
  19   2.0000      -0.662639       -18.0313
  20   2.0000      -0.636558       -17.3216
  21   2.0000      -0.626908       -17.0590
  22   2.0000      -0.583014       -15.8646
  23   2.0000      -0.564362       -15.3571
  24   2.0000      -0.525124       -14.2893
  25   2.0000      -0.514143       -13.9905
  26   2.0000      -0.475597       -12.9416
  27   2.0000      -0.466738       -12.7006
  28   2.0000      -0.366576        -9.9750
  29   2.0000      -0.354468        -9.6456
  30   0.0000       0.114195         3.1074
  31   0.0000       0.130825         3.5599
  32   0.0000       0.138431         3.7669
  33   0.0000       0.176726         4.8090
  34   0.0000       0.190462         5.1827

MULLIKEN ATOMIC CHARGES
-----------------------
   0 N :   -0.522040
   1 C :    0.155277
   2 N :   -0.149561
   3 O :   -0.116279
   4 C :    0.009716
   5 C :   -0.056700
   6 C :   -0.088541
   7 O :   -0.464917
   8 H :    0.252090
   9 H :    0.257946
  10 H :    0.169833
  11 H :    0.103451
  12 H :    0.129284
  13 H :    0.320441
Sum of atomic charges:    0.0000000

LOEWDIN ATOMIC CHARGES
----------------------
   0 N :   -0.071687
   1 C :   -0.370510
   2 N :    0.020853
   3 O :    0.267540
   4 C :   -0.233750
   5 C :   -0.189518
   6 C :   -0.307654
   7 O :   -0.033387
   8 H :    0.169806
   9 H :    0.176195
  10 H :    0.143160
  11 H :    0.122845
  12 H :    0.129499
  13 H :    0.176609

  Mayer bond orders larger than 0.1
B(  0-N ,  1-C ) :   1.0387 B(  0-N ,  8-H ) :   0.8688 B(  0-N ,  9-H ) :   0.8736
B(  1-C ,  2-N ) :   1.6146 B(  1-C ,  5-C ) :   1.1493 B(  2-N ,  3-O ) :   0.8648
B(  2-N ,  4-C ) :   0.1002 B(  3-O ,  4-C ) :   1.1276 B(  4-C ,  5-C ) :   1.5619
B(  4-C , 10-H ) :   0.9053 B(  5-C ,  6-C ) :   0.8772 B(  5-C ,  7-O ) :  -0.1072
B(  6-C ,  7-O ) :   1.0451 B(  6-C , 11-H ) :   0.9302 B(  6-C , 12-H ) :   0.9328
B(  7-O , 13-H ) :   0.8456

MP2 TOTAL ENERGY:     -415.177331517 Eh
FINAL SINGLE POINT ENERGY      -415.177331517295

DIPOLE MOMENT
-------------
                                X             Y             Z
Electronic contribution:     -4.16359      -3.00264       0.02115
Nuclear contribution   :      5.63094       3.95924      -0.33829
                        -----------------------------------------
Total Dipole Moment    :      1.46735       0.95660      -0.31714
                        -----------------------------------------
Magnitude (a.u.)       :      1.78011
Magnitude (Debye)      :      4.52467

                             ****ORCA TERMINATED NORMALLY****
TOTAL RUN TIME: 0 days 0 hours 9 minutes 50 seconds 510 msec
