                         Program Version 3.0.3 - RELEASE   -
|  1> ! RI-MP2 RIJK def2-TZVP def2-TZVP/C def2-TZVP/JK TIGHTSCF
|  2> % maxcore 2000
|  3> % mp2 density relaxed end
|  4> *xyz 0 1
|  5>  C        0.0483368909     1.5512587627     0.0464593095
|  6>  C        0.0305858968     0.0318268011    -0.0060426458
|  7>  C        1.2176747673    -0.6156235886    -0.8384489590
|  8>  C        1.8990580376    -0.7455803045     0.5024175020
|  9>  C        2.8816851635    -0.2077214916     1.2282357342
| 10>  C        2.3151376601     0.1446471240     2.5489938321
| 11>  N        2.9298649477     0.6318124338     3.5407824565
| 12>  O        0.9356118281    -0.0659346688     2.5058587508
| 13>  C        0.6297779462    -0.6945379545     1.2734643012
| 14>  H        1.0419404057     1.9301554371     0.3050692777
| 15>  H       -0.2332842000     1.9735815595    -0.9230479579
| 16>  H       -0.6555569319     1.9215906139     0.7973852959
| 17>  H       -0.9594552941    -0.3409746919    -0.2813528182
| 18>  H        0.9255296027    -1.5657905366    -1.2930712459
| 19>  H        1.7108491224     0.0098306681    -1.5847781762
| 20>  H        3.8756811624     0.0989614125     0.9376289502
| 21>  H        2.2783335428     0.8515626321     4.2952227971
| 22>  H        0.1108087819    -1.6383066784     1.4688568157
| 23> *
| 24>
| 25>                          ****END OF INPUT****

CARTESIAN COORDINATES (ANGSTROEM)
---------------------------------
  C      0.048337    1.551259    0.046459
  C      0.030586    0.031827   -0.006043
  C      1.217675   -0.615624   -0.838449
  C      1.899058   -0.745580    0.502418
  C      2.881685   -0.207721    1.228236
  C      2.315138    0.144647    2.548994
  N      2.929865    0.631812    3.540782
  O      0.935612   -0.065935    2.505859
  C      0.629778   -0.694538    1.273464
  H      1.041940    1.930155    0.305069
  H     -0.233284    1.973582   -0.923048
  H     -0.655557    1.921591    0.797385
  H     -0.959455   -0.340975   -0.281353
  H      0.925530   -1.565791   -1.293071
  H      1.710849    0.009831   -1.584778
  H      3.875681    0.098961    0.937629
  H      2.278334    0.851563    4.295223
  H      0.110809   -1.638307    1.468857

 Total Charge           Charge          ....    0
 Multiplicity           Mult            ....    1
 Number of Electrons    NEL             ....   66
 Basis Dimension        Dim             ....  333

ORBITAL ENERGIES
----------------

  NO   OCC          E(Eh)            E(eV)
   0   2.0000     -20.591943      -560.3353
   1   2.0000     -15.526224      -422.4900
   2   2.0000     -11.336036      -308.4692
   3   2.0000     -11.298425      -307.4458
   4   2.0000     -11.264158      -306.5133
   5   2.0000     -11.262831      -306.4772
   6   2.0000     -11.261255      -306.4343
   7   2.0000     -11.242959      -305.9365
   8   2.0000     -11.228451      -305.5417
   9   2.0000      -1.426374       -38.8136
  10   2.0000      -1.192966       -32.4623
  11   2.0000      -1.168831       -31.8055
  12   2.0000      -1.050121       -28.5753
  13   2.0000      -0.973340       -26.4859
  14   2.0000      -0.922463       -25.1015
  15   2.0000      -0.826280       -22.4842
  16   2.0000      -0.777541       -21.1580
  17   2.0000      -0.757501       -20.6126
  18   2.0000      -0.692522       -18.8445
  19   2.0000      -0.685341       -18.6491
  20   2.0000      -0.640887       -17.4394
  21   2.0000      -0.621454       -16.9106
  22   2.0000      -0.599969       -16.3260
  23   2.0000      -0.568402       -15.4670
  24   2.0000      -0.564595       -15.3634
  25   2.0000      -0.542534       -14.7631
  26   2.0000      -0.514209       -13.9923
  27   2.0000      -0.504870       -13.7382
  28   2.0000      -0.470567       -12.8048
  29   2.0000      -0.466884       -12.7046
  30   2.0000      -0.433109       -11.7855
  31   2.0000      -0.422379       -11.4935
  32   2.0000      -0.346879        -9.4390
  33   0.0000       0.098620         2.6836
  34   0.0000       0.129048         3.5116
  35   0.0000       0.156899         4.2694
  36   0.0000       0.166417         4.5284
  37   0.0000       0.175660         4.7800

MULLIKEN ATOMIC CHARGES
-----------------------
   0 C :   -0.452371
   1 C :   -0.029613
   2 C :   -0.194825
   3 C :   -0.055970
   4 C :   -0.224807
   5 C :    0.173128
   6 N :   -0.372791
   7 O :   -0.287178
   8 C :    0.124497
   9 H :    0.146916
  10 H :    0.139501
  11 H :    0.143438
  12 H :    0.119147
  13 H :    0.140535
  14 H :    0.135585
  15 H :    0.146592
  16 H :    0.225839
  17 H :    0.122380
Sum of atomic charges:    0.0000000

LOEWDIN ATOMIC CHARGES
----------------------
   0 C :   -0.288687
   1 C :   -0.200939
   2 C :   -0.166559
   3 C :   -0.133153
   4 C :   -0.095789
   5 C :   -0.374030
   6 N :   -0.058686
   7 O :    0.246009
   8 C :   -0.213597
   9 H :    0.132923
  10 H :    0.127282
  11 H :    0.131294
  12 H :    0.142859
  13 H :    0.143935
  14 H :    0.138483
  15 H :    0.150942
  16 H :    0.168877
  17 H :    0.148837

  Mayer bond orders larger than 0.1
B(  0-C ,  1-C ) :   0.9042 B(  0-C ,  9-H ) :   0.9274 B(  0-C , 10-H ) :   0.9359
B(  0-C , 11-H ) :   0.9360 B(  1-C ,  2-C ) :   0.8826 B(  1-C ,  8-C ) :   0.8528
B(  1-C , 12-H ) :   0.9181 B(  2-C ,  3-C ) :   0.9174 B(  2-C , 13-H ) :   0.9155
B(  2-C , 14-H ) :   0.9159 B(  3-C ,  4-C ) :   1.7255 B(  3-C ,  8-C ) :   0.9439
B(  4-C ,  5-C ) :   0.9927 B(  4-C , 15-H ) :   0.9401 B(  5-C ,  6-N ) :   2.0182
B(  5-C ,  7-O ) :   1.0320 B(  6-N , 16-H ) :   0.8556 B(  7-O ,  8-C ) :   0.9224
B(  8-C , 17-H ) :   0.9202

MP2 TOTAL ENERGY:     -401.243481240 Eh
FINAL SINGLE POINT ENERGY      -401.243481240386

DIPOLE MOMENT
-------------
                                X             Y             Z
Electronic contribution:      3.35353      -2.96027       5.58060
Nuclear contribution   :     -4.23307       2.72479      -6.79838
                        -----------------------------------------
Total Dipole Moment    :     -0.87954      -0.23548      -1.21778
                        -----------------------------------------
Magnitude (a.u.)       :      1.52054
Magnitude (Debye)      :      3.86490

                             ****ORCA TERMINATED NORMALLY****
TOTAL RUN TIME: 0 days 0 hours 18 minutes 50 seconds 212 msec
