                         Program Version 3.0.3 - RELEASE   -
|  1> ! RI-MP2 RIJK def2-TZVP def2-TZVP/C def2-TZVP/JK TIGHTSCF
|  2> % maxcore 2000
|  3> % mp2 density relaxed end
|  4> *xyz 0 1
|  5>  C       -0.0460040212     1.2790314328     0.4969479669
|  6>  C       -0.0544074837     0.0836859407    -0.4588229282
|  7>  N       -1.3324449455    -0.6052230604    -0.4884302543
|  8>  C       -1.5254548856    -1.8323072369     0.0564052795
|  9>  O       -0.6454504538    -2.5116089834     0.5622654776
| 10>  C       -2.9943041843    -2.3283146814     0.0159718080
| 11>  C       -3.0223583491    -3.7610280820    -0.5204620134
| 12>  C       -3.5544556023    -2.2473308975     1.4394952575
| 13>  O       -3.8149859425    -1.4649644967    -0.7863177528
| 14>  H        0.9303065627     1.7738529865     0.4814831171
| 15>  H       -0.8016612786     2.0203707614     0.2146861391
| 16>  H       -0.2523496161     0.9560464487     1.5214151902
| 17>  H        0.2035921267     0.4111001161    -1.4737631667
| 18>  H        0.6836607144    -0.6604433259    -0.1505556005
| 19>  H       -2.1626223978    -0.1324680320    -0.8135668165
| 20>  H       -2.3455522868    -4.3890982903     0.0607566714
| 21>  H       -4.0370282780    -4.1658916366    -0.4681617189
| 22>  H       -2.6851808777    -3.7932478179    -1.5641156279
| 23>  H       -3.5983594239    -1.2053047709     1.7694201266
| 24>  H       -4.5662123878    -2.6610296071     1.4688955919
| 25>  H       -2.9119179455    -2.8047847166     2.1239174259
| 26>  H       -3.7334524938    -1.7509350308    -1.7025126326
| 27> *
| 28>
| 29>                          ****END OF INPUT****

CARTESIAN COORDINATES (ANGSTROEM)
---------------------------------
  C     -0.046004    1.279031    0.496948
  C     -0.054407    0.083686   -0.458823
  N     -1.332445   -0.605223   -0.488430
  C     -1.525455   -1.832307    0.056405
  O     -0.645450   -2.511609    0.562265
  C     -2.994304   -2.328315    0.015972
  C     -3.022358   -3.761028   -0.520462
  C     -3.554456   -2.247331    1.439495
  O     -3.814986   -1.464964   -0.786318
  H      0.930307    1.773853    0.481483
  H     -0.801661    2.020371    0.214686
  H     -0.252350    0.956046    1.521415
  H      0.203592    0.411100   -1.473763
  H      0.683661   -0.660443   -0.150556
  H     -2.162622   -0.132468   -0.813567
  H     -2.345552   -4.389098    0.060757
  H     -4.037028   -4.165892   -0.468162
  H     -2.685181   -3.793248   -1.564116
  H     -3.598359   -1.205305    1.769420
  H     -4.566212   -2.661030    1.468896
  H     -2.911918   -2.804785    2.123917
  H     -3.733452   -1.750935   -1.702513

 Total Charge           Charge          ....    0
 Multiplicity           Mult            ....    1
 Number of Electrons    NEL             ....   72
 Basis Dimension        Dim             ....  357

ORBITAL ENERGIES
----------------

  NO   OCC          E(Eh)            E(eV)
   0   2.0000     -20.573231      -559.8261
   1   2.0000     -20.509299      -558.0864
   2   2.0000     -15.576621      -423.8614
   3   2.0000     -11.339521      -308.5641
   4   2.0000     -11.303824      -307.5927
   5   2.0000     -11.260991      -306.4272
   6   2.0000     -11.225322      -305.4565
   7   2.0000     -11.220496      -305.3252
   8   2.0000     -11.220380      -305.3221
   9   2.0000      -1.389333       -37.8057
  10   2.0000      -1.366089       -37.1732
  11   2.0000      -1.226699       -33.3802
  12   2.0000      -1.063532       -28.9402
  13   2.0000      -1.017218       -27.6799
  14   2.0000      -0.949509       -25.8375
  15   2.0000      -0.885796       -24.1037
  16   2.0000      -0.822739       -22.3879
  17   2.0000      -0.773373       -21.0445
  18   2.0000      -0.729549       -19.8520
  19   2.0000      -0.670517       -18.2457
  20   2.0000      -0.648239       -17.6395
  21   2.0000      -0.627645       -17.0791
  22   2.0000      -0.615373       -16.7452
  23   2.0000      -0.593489       -16.1497
  24   2.0000      -0.586382       -15.9563
  25   2.0000      -0.557513       -15.1707
  26   2.0000      -0.546942       -14.8831
  27   2.0000      -0.542423       -14.7601
  28   2.0000      -0.529760       -14.4155
  29   2.0000      -0.519511       -14.1366
  30   2.0000      -0.513587       -13.9754
  31   2.0000      -0.506523       -13.7832
  32   2.0000      -0.491704       -13.3799
  33   2.0000      -0.477673       -12.9981
  34   2.0000      -0.402314       -10.9475
  35   2.0000      -0.386601       -10.5199
  36   0.0000       0.121221         3.2986
  37   0.0000       0.145499         3.9592
  38   0.0000       0.163570         4.4510
  39   0.0000       0.176985         4.8160
  40   0.0000       0.185967         5.0604

MULLIKEN ATOMIC CHARGES
-----------------------
   0 C :   -0.385780
   1 C :   -0.116295
   2 N :   -0.306433
   3 C :    0.227509
   4 O :   -0.394599
   5 C :    0.212870
   6 C :   -0.438120
   7 C :   -0.382032
   8 O :   -0.497019
   9 H :    0.128999
  10 H :    0.117825
  11 H :    0.140222
  12 H :    0.119985
  13 H :    0.154677
  14 H :    0.253533
  15 H :    0.162395
  16 H :    0.144963
  17 H :    0.123652
  18 H :    0.129602
  19 H :    0.130410
  20 H :    0.152395
  21 H :    0.321241
Sum of atomic charges:    0.0000000

LOEWDIN ATOMIC CHARGES
----------------------
   0 C :   -0.319559
   1 C :   -0.301756
   2 N :    0.116562
   3 C :   -0.433691
   4 O :    0.070136
   5 C :   -0.387602
   6 C :   -0.273419
   7 C :   -0.260010
   8 O :   -0.004620
   9 H :    0.124229
  10 H :    0.118265
  11 H :    0.125138
  12 H :    0.129387
  13 H :    0.146065
  14 H :    0.188562
  15 H :    0.140805
  16 H :    0.127437
  17 H :    0.124908
  18 H :    0.129442
  19 H :    0.127660
  20 H :    0.136590
  21 H :    0.175469

  Mayer bond orders larger than 0.1
B(  0-C ,  1-C ) :   0.9230 B(  0-C ,  9-H ) :   0.9350 B(  0-C , 10-H ) :   0.9352
B(  0-C , 11-H ) :   0.9380 B(  1-C ,  2-N ) :   0.8382 B(  1-C , 12-H ) :   0.9332
B(  1-C , 13-H ) :   0.9251 B(  2-N ,  3-C ) :   1.2045 B(  2-N , 14-H ) :   0.8506
B(  3-C ,  4-O ) :   1.8893 B(  3-C ,  5-C ) :   0.8747 B(  5-C ,  6-C ) :   0.9426
B(  5-C ,  7-C ) :   0.8922 B(  5-C ,  8-O ) :   0.8993 B(  6-C , 15-H ) :   0.9239
B(  6-C , 16-H ) :   0.9397 B(  6-C , 17-H ) :   0.9207 B(  7-C , 18-H ) :   0.9285
B(  7-C , 19-H ) :   0.9341 B(  7-C , 20-H ) :   0.9321 B(  8-O , 21-H ) :   0.8401

MP2 TOTAL ENERGY:     -440.816588005 Eh
FINAL SINGLE POINT ENERGY      -440.816588005398

DIPOLE MOMENT
-------------
                                X             Y             Z
Electronic contribution:      0.06914      -2.10089      -1.79024
Nuclear contribution   :     -0.47694       2.67716       1.05231
                        -----------------------------------------
Total Dipole Moment    :     -0.40779       0.57627      -0.73793
                        -----------------------------------------
Magnitude (a.u.)       :      1.02124
Magnitude (Debye)      :      2.59577

                             ****ORCA TERMINATED NORMALLY****
TOTAL RUN TIME: 0 days 0 hours 19 minutes 6 seconds 422 msec
