                         Program Version 3.0.3 - RELEASE   -
|  1> ! RI-MP2 RIJK def2-TZVP def2-TZVP/C def2-TZVP/JK TIGHTSCF
|  2> % maxcore 2000
|  3> % mp2 density relaxed end
|  4> *xyz 0 1
|  5>  C        0.0345961458     1.5573005211    -0.0229999774
|  6>  C        0.0500242872     0.0264099610     0.0157569232
|  7>  C       -1.3516509874    -0.5773493945     0.1002065826
|  8>  C       -1.4207833119    -2.1235628603    -0.0009171940
|  9>  O       -0.2577364076    -2.6913838990     0.6004951637
| 10>  C       -2.7219285301    -2.4655421259     0.7598823991
| 11>  C       -2.8978569458    -1.3180408769     1.7445826854
| 12>  C       -1.7140340981    -0.9018774142     2.5407615729
| 13>  N       -2.0872724337    -0.1637449517     1.3182945366
| 14>  H        1.0516961506     1.9587469828    -0.0708433704
| 15>  H       -0.5114242907     1.9265451709    -0.8987070572
| 16>  H       -0.4553307293     1.9640519651     0.8654844441
| 17>  H        0.5421536926    -0.3680586677    -0.8814120519
| 18>  H        0.6440768966    -0.3258252119     0.8643988412
| 19>  H       -1.9475038651    -0.1845712658    -0.7358252552
| 20>  H       -1.4777217094    -2.4367053428    -1.0525302871
| 21>  H       -0.3354364807    -3.6489443606     0.5476079300
| 22>  H       -3.5688844826    -2.4888744851     0.0643734121
| 23>  H       -2.6655621881    -3.4492131897     1.2388750650
| 24>  H       -3.8999246918    -1.1018467608     2.1055322707
| 25>  H       -1.8583601904    -0.3375705836     3.4579907301
| 26>  H       -0.8389831199    -1.5424533102     2.5204102365
| 27> *
| 28>
| 29>                          ****END OF INPUT****

CARTESIAN COORDINATES (ANGSTROEM)
---------------------------------
  C      0.034596    1.557301   -0.023000
  C      0.050024    0.026410    0.015757
  C     -1.351651   -0.577349    0.100207
  C     -1.420783   -2.123563   -0.000917
  O     -0.257736   -2.691384    0.600495
  C     -2.721929   -2.465542    0.759882
  C     -2.897857   -1.318041    1.744583
  C     -1.714034   -0.901877    2.540762
  N     -2.087272   -0.163745    1.318295
  H      1.051696    1.958747   -0.070843
  H     -0.511424    1.926545   -0.898707
  H     -0.455331    1.964052    0.865484
  H      0.542154   -0.368059   -0.881412
  H      0.644077   -0.325825    0.864399
  H     -1.947504   -0.184571   -0.735825
  H     -1.477722   -2.436705   -1.052530
  H     -0.335436   -3.648944    0.547608
  H     -3.568884   -2.488874    0.064373
  H     -2.665562   -3.449213    1.238875
  H     -3.899925   -1.101847    2.105532
  H     -1.858360   -0.337571    3.457991
  H     -0.838983   -1.542453    2.520410

 Total Charge           Charge          ....    0
 Multiplicity           Mult            ....    1
 Number of Electrons    NEL             ....   70
 Basis Dimension        Dim             ....  357

ORBITAL ENERGIES
----------------

  NO   OCC          E(Eh)            E(eV)
   0   2.0000     -20.559183      -559.4438
   1   2.0000     -15.548031      -423.0834
   2   2.0000     -11.283101      -307.0288
   3   2.0000     -11.251495      -306.1687
   4   2.0000     -11.249052      -306.1023
   5   2.0000     -11.239820      -305.8511
   6   2.0000     -11.230548      -305.5987
   7   2.0000     -11.209556      -305.0275
   8   2.0000     -11.199909      -304.7650
   9   2.0000      -1.367373       -37.2081
  10   2.0000      -1.270593       -34.5746
  11   2.0000      -1.059630       -28.8340
  12   2.0000      -1.025591       -27.9077
  13   2.0000      -0.958489       -26.0818
  14   2.0000      -0.862335       -23.4653
  15   2.0000      -0.836491       -22.7621
  16   2.0000      -0.784049       -21.3350
  17   2.0000      -0.747996       -20.3540
  18   2.0000      -0.717385       -19.5210
  19   2.0000      -0.667150       -18.1541
  20   2.0000      -0.623644       -16.9702
  21   2.0000      -0.614580       -16.7236
  22   2.0000      -0.593323       -16.1451
  23   2.0000      -0.577609       -15.7175
  24   2.0000      -0.557525       -15.1710
  25   2.0000      -0.541306       -14.7297
  26   2.0000      -0.530551       -14.4370
  27   2.0000      -0.514846       -14.0097
  28   2.0000      -0.494159       -13.4468
  29   2.0000      -0.476128       -12.9561
  30   2.0000      -0.458598       -12.4791
  31   2.0000      -0.447418       -12.1749
  32   2.0000      -0.431124       -11.7315
  33   2.0000      -0.425011       -11.5651
  34   2.0000      -0.363564        -9.8931
  35   0.0000       0.127292         3.4638
  36   0.0000       0.155230         4.2240
  37   0.0000       0.160183         4.3588
  38   0.0000       0.173626         4.7246
  39   0.0000       0.188455         5.1281

MULLIKEN ATOMIC CHARGES
-----------------------
   0 C :   -0.388325
   1 C :   -0.193212
   2 C :   -0.035772
   3 C :    0.087960
   4 O :   -0.469946
   5 C :   -0.286570
   6 C :    0.003598
   7 C :   -0.225827
   8 N :   -0.237715
   9 H :    0.128350
  10 H :    0.113442
  11 H :    0.143970
  12 H :    0.107370
  13 H :    0.117710
  14 H :    0.093523
  15 H :    0.098827
  16 H :    0.311911
  17 H :    0.118441
  18 H :    0.117501
  19 H :    0.120259
  20 H :    0.122854
  21 H :    0.151651
Sum of atomic charges:   -0.0000000

LOEWDIN ATOMIC CHARGES
----------------------
   0 C :   -0.317280
   1 C :   -0.268829
   2 C :   -0.262277
   3 C :   -0.311310
   4 O :   -0.020302
   5 C :   -0.233121
   6 C :   -0.249797
   7 C :   -0.243102
   8 N :    0.126366
   9 H :    0.118596
  10 H :    0.119105
  11 H :    0.125355
  12 H :    0.140791
  13 H :    0.141184
  14 H :    0.155116
  15 H :    0.132525
  16 H :    0.172518
  17 H :    0.143634
  18 H :    0.138301
  19 H :    0.136579
  20 H :    0.124287
  21 H :    0.131661

  Mayer bond orders larger than 0.1
B(  0-C ,  1-C ) :   0.9174 B(  0-C ,  9-H ) :   0.9424 B(  0-C , 10-H ) :   0.9367
B(  0-C , 11-H ) :   0.9374 B(  1-C ,  2-C ) :   0.9446 B(  1-C , 12-H ) :   0.9369
B(  1-C , 13-H ) :   0.9202 B(  2-C ,  3-C ) :   0.8851 B(  2-C ,  8-N ) :   0.9361
B(  2-C , 14-H ) :   0.9251 B(  3-C ,  4-O ) :   0.9652 B(  3-C ,  5-C ) :   0.9402
B(  3-C , 15-H ) :   0.9351 B(  4-O , 16-H ) :   0.8448 B(  5-C ,  6-C ) :   0.9499
B(  5-C , 17-H ) :   0.9192 B(  5-C , 18-H ) :   0.9196 B(  6-C ,  7-C ) :   0.9286
B(  6-C ,  8-N ) :   0.8969 B(  6-C , 19-H ) :   0.9258 B(  7-C ,  8-N ) :   0.8686
B(  7-C , 20-H ) :   0.9285 B(  7-C , 21-H ) :   0.9087

MP2 TOTAL ENERGY:     -403.649560654 Eh
FINAL SINGLE POINT ENERGY      -403.649560653758

DIPOLE MOMENT
-------------
                                X             Y             Z
Electronic contribution:     -2.09915      -3.51975       1.57698
Nuclear contribution   :      1.86019       2.56721      -1.85491
                        -----------------------------------------
Total Dipole Moment    :     -0.23896      -0.95253      -0.27792
                        -----------------------------------------
Magnitude (a.u.)       :      1.02062
Magnitude (Debye)      :      2.59421

                             ****ORCA TERMINATED NORMALLY****
TOTAL RUN TIME: 0 days 0 hours 32 minutes 19 seconds 935 msec
