                         Program Version 3.0.3 - RELEASE   -
|  1> ! RI-MP2 RIJK def2-TZVP def2-TZVP/C def2-TZVP/JK TIGHTSCF
|  2> % maxcore 2000
|  3> % mp2 density relaxed end
|  4> *xyz 0 1
|  5>  C        0.1038965040     1.5552532786    -0.0992362807
|  6>  C        0.1651517063     0.0313482191     0.0140304135
|  7>  C        0.6394550961    -0.4746082713     1.3988289096
|  8>  C       -0.2718344031    -0.0500463778     2.4643412187
|  9>  C       -1.0407786194     0.2802820150     3.3283631281
| 10>  C        0.7972850744    -1.9927025625     1.3988156958
| 11>  C        2.0621994744    -2.6375396908     0.8826991741
| 12>  C        1.7102003363    -2.7295207697     2.3497583868
| 13>  C        2.5443056542    -2.0316477490     3.4027761783
| 14>  H        1.0904166395     2.0045577512     0.0622597659
| 15>  H       -0.2414685329     1.8600988391    -1.0918182804
| 16>  H       -0.5801143498     1.9769941570     0.6429556736
| 17>  H       -0.8214802330    -0.3992161706    -0.1947550490
| 18>  H        0.8515058825    -0.3756574614    -0.7373938592
| 19>  H        1.6205708152    -0.0205033337     1.5931156393
| 20>  H       -1.7089183670     0.5762855214     4.0986382642
| 21>  H       -0.1308393097    -2.5056402489     1.1590034790
| 22>  H        1.9854466361    -3.5207988165     0.2579673966
| 23>  H        2.8828955733    -1.9777301469     0.6141810015
| 24>  H        1.3275379629    -3.6942478719     2.6738082998
| 25>  H        2.9834560777    -1.1014101017     3.0305255133
| 26>  H        1.9452907145    -1.7842773506     4.2854204032
| 27>  H        3.3716929577    -2.6730665982     3.7255407079
| 28> *
| 29>
| 30>                          ****END OF INPUT****

CARTESIAN COORDINATES (ANGSTROEM)
---------------------------------
  C      0.103897    1.555253   -0.099236
  C      0.165152    0.031348    0.014030
  C      0.639455   -0.474608    1.398829
  C     -0.271834   -0.050046    2.464341
  C     -1.040779    0.280282    3.328363
  C      0.797285   -1.992703    1.398816
  C      2.062199   -2.637540    0.882699
  C      1.710200   -2.729521    2.349758
  C      2.544306   -2.031648    3.402776
  H      1.090417    2.004558    0.062260
  H     -0.241469    1.860099   -1.091818
  H     -0.580114    1.976994    0.642956
  H     -0.821480   -0.399216   -0.194755
  H      0.851506   -0.375657   -0.737394
  H      1.620571   -0.020503    1.593116
  H     -1.708918    0.576286    4.098638
  H     -0.130839   -2.505640    1.159003
  H      1.985447   -3.520799    0.257967
  H      2.882896   -1.977730    0.614181
  H      1.327538   -3.694248    2.673808
  H      2.983456   -1.101410    3.030526
  H      1.945291   -1.784277    4.285420
  H      3.371693   -2.673067    3.725541

 Total Charge           Charge          ....    0
 Multiplicity           Mult            ....    1
 Number of Electrons    NEL             ....   68
 Basis Dimension        Dim             ....  363

ORBITAL ENERGIES
----------------

  NO   OCC          E(Eh)            E(eV)
   0   2.0000     -11.254158      -306.2412
   1   2.0000     -11.231852      -305.6342
   2   2.0000     -11.229764      -305.5774
   3   2.0000     -11.227123      -305.5056
   4   2.0000     -11.225678      -305.4662
   5   2.0000     -11.222011      -305.3665
   6   2.0000     -11.214655      -305.1663
   7   2.0000     -11.214568      -305.1639
   8   2.0000     -11.211025      -305.0675
   9   2.0000      -1.157483       -31.4967
  10   2.0000      -1.081847       -29.4385
  11   2.0000      -1.010903       -27.5081
  12   2.0000      -0.967151       -26.3175
  13   2.0000      -0.939808       -25.5735
  14   2.0000      -0.827736       -22.5238
  15   2.0000      -0.801699       -21.8153
  16   2.0000      -0.766015       -20.8443
  17   2.0000      -0.713963       -19.4279
  18   2.0000      -0.676930       -18.4202
  19   2.0000      -0.637185       -17.3387
  20   2.0000      -0.619450       -16.8561
  21   2.0000      -0.590977       -16.0813
  22   2.0000      -0.567385       -15.4393
  23   2.0000      -0.559834       -15.2338
  24   2.0000      -0.542446       -14.7607
  25   2.0000      -0.528190       -14.3728
  26   2.0000      -0.501263       -13.6401
  27   2.0000      -0.494716       -13.4619
  28   2.0000      -0.484157       -13.1746
  29   2.0000      -0.478920       -13.0321
  30   2.0000      -0.414712       -11.2849
  31   2.0000      -0.398710       -10.8494
  32   2.0000      -0.378064       -10.2876
  33   2.0000      -0.376136       -10.2352
  34   0.0000       0.132913         3.6168
  35   0.0000       0.150971         4.1081
  36   0.0000       0.160336         4.3630
  37   0.0000       0.164686         4.4813
  38   0.0000       0.175419         4.7734

MULLIKEN ATOMIC CHARGES
-----------------------
   0 C :   -0.401505
   1 C :   -0.183396
   2 C :   -0.176651
   3 C :   -0.027574
   4 C :   -0.180399
   5 C :   -0.083234
   6 C :   -0.280751
   7 C :   -0.061751
   8 C :   -0.399099
   9 H :    0.119184
  10 H :    0.133946
  11 H :    0.144177
  12 H :    0.111215
  13 H :    0.119861
  14 H :    0.103184
  15 H :    0.185290
  16 H :    0.117923
  17 H :    0.132112
  18 H :    0.119841
  19 H :    0.114180
  20 H :    0.119168
  21 H :    0.138314
  22 H :    0.135966
Sum of atomic charges:   -0.0000000

LOEWDIN ATOMIC CHARGES
----------------------
   0 C :   -0.314548
   1 C :   -0.250140
   2 C :   -0.230816
   3 C :   -0.079930
   4 C :   -0.106255
   5 C :   -0.178049
   6 C :   -0.209825
   7 C :   -0.228833
   8 C :   -0.293455
   9 H :    0.120652
  10 H :    0.121526
  11 H :    0.127054
  12 H :    0.141108
  13 H :    0.140580
  14 H :    0.171350
  15 H :    0.125474
  16 H :    0.153865
  17 H :    0.130074
  18 H :    0.134997
  19 H :    0.147977
  20 H :    0.123203
  21 H :    0.128352
  22 H :    0.125638

  Mayer bond orders larger than 0.1
B(  0-C ,  1-C ) :   0.9229 B(  0-C ,  9-H ) :   0.9373 B(  0-C , 10-H ) :   0.9410
B(  0-C , 11-H ) :   0.9360 B(  1-C ,  2-C ) :   0.9105 B(  1-C , 12-H ) :   0.9230
B(  1-C , 13-H ) :   0.9335 B(  2-C ,  3-C ) :   1.1095 B(  2-C ,  5-C ) :   0.8986
B(  2-C , 14-H ) :   0.9374 B(  3-C ,  4-C ) :   2.6036 B(  4-C , 15-H ) :   0.9000
B(  5-C ,  6-C ) :   0.8744 B(  5-C ,  7-C ) :   0.8879 B(  5-C , 16-H ) :   0.9190
B(  6-C ,  7-C ) :   0.9047 B(  6-C , 17-H ) :   0.9268 B(  6-C , 18-H ) :   0.9194
B(  7-C ,  8-C ) :   0.9092 B(  7-C , 19-H ) :   0.9294 B(  8-C , 20-H ) :   0.9373
B(  8-C , 21-H ) :   0.9379 B(  8-C , 22-H ) :   0.9364

MP2 TOTAL ENERGY:     -350.459394176 Eh
FINAL SINGLE POINT ENERGY      -350.459394176362

DIPOLE MOMENT
-------------
                                X             Y             Z
Electronic contribution:     -3.30543      -0.85069       2.72018
Nuclear contribution   :      3.43422       0.73552      -2.84823
                        -----------------------------------------
Total Dipole Moment    :      0.12879      -0.11517      -0.12805
                        -----------------------------------------
Magnitude (a.u.)       :      0.21505
Magnitude (Debye)      :      0.54662

                             ****ORCA TERMINATED NORMALLY****
TOTAL RUN TIME: 0 days 0 hours 20 minutes 30 seconds 529 msec
