                         Program Version 3.0.3 - RELEASE   -
|  1> ! RI-MP2 RIJK def2-TZVP def2-TZVP/C def2-TZVP/JK TIGHTSCF
|  2> % maxcore 2000
|  3> % mp2 density relaxed end
|  4> *xyz 0 1
|  5>  C        0.0018594581     1.4987477828    -0.0429070801
|  6>  C        0.0777505439     0.0075712696     0.0111940209
|  7>  C        0.3640358647    -1.0160253962    -1.0269208261
|  8>  C        0.5056912387    -2.0672971488     0.1148835596
|  9>  C       -1.0339096437    -2.0675054852     0.2098646590
| 10>  C       -1.3991381659    -1.8166216466     1.6678543727
| 11>  O       -0.2630816141    -1.1212697217     2.2142867481
| 12>  C        0.6179819822    -0.8968959419     1.1329018765
| 13>  N       -1.0517570412    -0.7895693178    -0.6037537087
| 14>  H        0.9960145164     1.9475380176     0.0569260165
| 15>  H       -0.4339347950     1.8267378459    -0.9906161373
| 16>  H       -0.6262707448     1.8816434500     0.7689758567
| 17>  H        0.7076149251    -0.9522903704    -2.0499275435
| 18>  H        1.1328991150    -2.9535546373     0.1686323355
| 19>  H       -1.5928726996    -2.8546658681    -0.2964173955
| 20>  H       -2.2998385416    -1.1944018496     1.7459962519
| 21>  H       -1.5581434265    -2.7425816857     2.2347072649
| 22>  H        1.6078970483    -0.6393166966     1.5105897489
| 23> *
| 24>
| 25>                          ****END OF INPUT****

CARTESIAN COORDINATES (ANGSTROEM)
---------------------------------
  C      0.001859    1.498748   -0.042907
  C      0.077751    0.007571    0.011194
  C      0.364036   -1.016025   -1.026921
  C      0.505691   -2.067297    0.114884
  C     -1.033910   -2.067505    0.209865
  C     -1.399138   -1.816622    1.667854
  O     -0.263082   -1.121270    2.214287
  C      0.617982   -0.896896    1.132902
  N     -1.051757   -0.789569   -0.603754
  H      0.996015    1.947538    0.056926
  H     -0.433935    1.826738   -0.990616
  H     -0.626271    1.881643    0.768976
  H      0.707615   -0.952290   -2.049928
  H      1.132899   -2.953555    0.168632
  H     -1.592873   -2.854666   -0.296417
  H     -2.299839   -1.194402    1.745996
  H     -1.558143   -2.742582    2.234707
  H      1.607897   -0.639317    1.510590

 Total Charge           Charge          ....    0
 Multiplicity           Mult            ....    1
 Number of Electrons    NEL             ....   66
 Basis Dimension        Dim             ....  333

ORBITAL ENERGIES
----------------

  NO   OCC          E(Eh)            E(eV)
   0   2.0000     -20.554350      -559.3123
   1   2.0000     -15.562435      -423.4754
   2   2.0000     -11.287278      -307.1425
   3   2.0000     -11.273789      -306.7754
   4   2.0000     -11.265629      -306.5533
   5   2.0000     -11.264617      -306.5258
   6   2.0000     -11.264608      -306.5256
   7   2.0000     -11.243108      -305.9405
   8   2.0000     -11.222033      -305.3670
   9   2.0000      -1.390676       -37.8422
  10   2.0000      -1.303755       -35.4770
  11   2.0000      -1.045962       -28.4621
  12   2.0000      -1.016118       -27.6500
  13   2.0000      -0.972665       -26.4676
  14   2.0000      -0.883194       -24.0329
  15   2.0000      -0.860446       -23.4139
  16   2.0000      -0.755453       -20.5569
  17   2.0000      -0.717519       -19.5247
  18   2.0000      -0.685550       -18.6548
  19   2.0000      -0.675995       -18.3948
  20   2.0000      -0.652517       -17.7559
  21   2.0000      -0.597849       -16.2683
  22   2.0000      -0.584054       -15.8929
  23   2.0000      -0.562932       -15.3182
  24   2.0000      -0.546332       -14.8665
  25   2.0000      -0.532630       -14.4936
  26   2.0000      -0.527497       -14.3539
  27   2.0000      -0.503493       -13.7007
  28   2.0000      -0.477710       -12.9991
  29   2.0000      -0.436399       -11.8750
  30   2.0000      -0.421204       -11.4615
  31   2.0000      -0.390594       -10.6286
  32   2.0000      -0.365410        -9.9433
  33   0.0000       0.146600         3.9892
  34   0.0000       0.155493         4.2312
  35   0.0000       0.169874         4.6225
  36   0.0000       0.174030         4.7356
  37   0.0000       0.194075         5.2811

MULLIKEN ATOMIC CHARGES
-----------------------
   0 C :   -0.448905
   1 C :    0.089428
   2 C :   -0.184615
   3 C :   -0.067783
   4 C :   -0.040111
   5 C :   -0.059209
   6 O :   -0.324343
   7 C :    0.085845
   8 N :   -0.232935
   9 H :    0.130440
  10 H :    0.147575
  11 H :    0.143751
  12 H :    0.147401
  13 H :    0.144668
  14 H :    0.128874
  15 H :    0.107252
  16 H :    0.108838
  17 H :    0.123828
Sum of atomic charges:   -0.0000000

LOEWDIN ATOMIC CHARGES
----------------------
   0 C :   -0.271027
   1 C :   -0.240053
   2 C :   -0.151065
   3 C :   -0.139798
   4 C :   -0.225646
   5 C :   -0.264362
   6 O :    0.164773
   7 C :   -0.242546
   8 N :    0.158720
   9 H :    0.129079
  10 H :    0.136228
  11 H :    0.134674
  12 H :    0.131451
  13 H :    0.133255
  14 H :    0.144622
  15 H :    0.129955
  16 H :    0.125240
  17 H :    0.146500

  Mayer bond orders larger than 0.1
B(  0-C ,  1-C ) :   0.8782 B(  0-C ,  9-H ) :   0.9397 B(  0-C , 10-H ) :   0.9414
B(  0-C , 11-H ) :   0.9404 B(  1-C ,  2-C ) :   0.8538 B(  1-C ,  7-C ) :   0.8567
B(  1-C ,  8-N ) :   0.8153 B(  2-C ,  3-C ) :   0.9223 B(  2-C ,  8-N ) :   0.9249
B(  2-C , 12-H ) :   0.8964 B(  3-C ,  4-C ) :   0.9332 B(  3-C ,  7-C ) :   0.9399
B(  3-C , 13-H ) :   0.9127 B(  4-C ,  5-C ) :   0.9905 B(  4-C ,  8-N ) :   0.9214
B(  4-C , 14-H ) :   0.9079 B(  5-C ,  6-O ) :   0.9332 B(  5-C , 15-H ) :   0.9070
B(  5-C , 16-H ) :   0.9237 B(  6-O ,  7-C ) :   0.9870 B(  7-C , 17-H ) :   0.9239

MP2 TOTAL ENERGY:     -401.203250017 Eh
FINAL SINGLE POINT ENERGY      -401.203250017174

DIPOLE MOMENT
-------------
                                X             Y             Z
Electronic contribution:      0.22617      -2.63468       0.52458
Nuclear contribution   :      0.21097       2.28419      -0.79414
                        -----------------------------------------
Total Dipole Moment    :      0.43714      -0.35049      -0.26957
                        -----------------------------------------
Magnitude (a.u.)       :      0.62177
Magnitude (Debye)      :      1.58042

                             ****ORCA TERMINATED NORMALLY****
TOTAL RUN TIME: 0 days 0 hours 20 minutes 29 seconds 607 msec
