                         Program Version 3.0.3 - RELEASE   -
|  1> ! RI-MP2 RIJK def2-TZVP def2-TZVP/C def2-TZVP/JK TIGHTSCF
|  2> % maxcore 2000
|  3> % mp2 density relaxed end
|  4> *xyz 0 1
|  5>  N       -0.0634142603     1.1969091120     0.4249859409
|  6>  C        0.0091954274    -0.0044992513     0.0200936287
|  7>  N        1.1027262768    -0.7414742780    -0.4205881424
|  8>  C        0.7886268693    -2.0939083554    -0.8676919768
|  9>  C        1.5627445267    -3.1227446064    -0.1563571468
| 10>  N        2.2003023871    -3.9237541041     0.3780811493
| 11>  C       -0.7206253939    -2.2020084066    -0.6112525159
| 12>  O       -1.0514450775    -2.0671456830     0.7575731860
| 13>  C       -1.1802380037    -0.9090742771    -0.0918484171
| 14>  H        0.8473304355     1.6599507669     0.4166437233
| 15>  H        2.0399492335    -0.5057000814    -0.1356816623
| 16>  H        0.9833749767    -2.2143623866    -1.9428107212
| 17>  H       -1.3172757975    -2.8840409913    -1.2075271327
| 18>  H       -2.1761409899    -0.5017710278    -0.2148656628
| 19> *
| 20>
| 21>                          ****END OF INPUT****

CARTESIAN COORDINATES (ANGSTROEM)
---------------------------------
  N     -0.063414    1.196909    0.424986
  C      0.009195   -0.004499    0.020094
  N      1.102726   -0.741474   -0.420588
  C      0.788627   -2.093908   -0.867692
  C      1.562745   -3.122745   -0.156357
  N      2.200302   -3.923754    0.378081
  C     -0.720625   -2.202008   -0.611253
  O     -1.051445   -2.067146    0.757573
  C     -1.180238   -0.909074   -0.091848
  H      0.847330    1.659951    0.416644
  H      2.039949   -0.505700   -0.135682
  H      0.983375   -2.214362   -1.942811
  H     -1.317276   -2.884041   -1.207527
  H     -2.176141   -0.501771   -0.214866

 Total Charge           Charge          ....    0
 Multiplicity           Mult            ....    1
 Number of Electrons    NEL             ....   64
 Basis Dimension        Dim             ....  309

ORBITAL ENERGIES
----------------

  NO   OCC          E(Eh)            E(eV)
   0   2.0000     -20.610168      -560.8312
   1   2.0000     -15.613785      -424.8727
   2   2.0000     -15.591567      -424.2681
   3   2.0000     -15.550903      -423.1616
   4   2.0000     -11.352614      -308.9203
   5   2.0000     -11.343469      -308.6715
   6   2.0000     -11.336142      -308.4721
   7   2.0000     -11.324877      -308.1656
   8   2.0000     -11.290707      -307.2358
   9   2.0000      -1.463614       -39.8269
  10   2.0000      -1.307020       -35.5658
  11   2.0000      -1.237625       -33.6775
  12   2.0000      -1.195474       -32.5305
  13   2.0000      -1.046028       -28.4639
  14   2.0000      -0.997514       -27.1437
  15   2.0000      -0.883748       -24.0480
  16   2.0000      -0.829581       -22.5740
  17   2.0000      -0.763989       -20.7892
  18   2.0000      -0.740829       -20.1590
  19   2.0000      -0.703649       -19.1473
  20   2.0000      -0.673304       -18.3215
  21   2.0000      -0.655593       -17.8396
  22   2.0000      -0.601879       -16.3780
  23   2.0000      -0.597038       -16.2462
  24   2.0000      -0.577568       -15.7164
  25   2.0000      -0.529287       -14.4026
  26   2.0000      -0.507092       -13.7987
  27   2.0000      -0.496376       -13.5071
  28   2.0000      -0.483751       -13.1635
  29   2.0000      -0.464228       -12.6323
  30   2.0000      -0.441323       -12.0090
  31   2.0000      -0.391670       -10.6579
  32   0.0000       0.112695         3.0666
  33   0.0000       0.126433         3.4404
  34   0.0000       0.142917         3.8890
  35   0.0000       0.155469         4.2305
  36   0.0000       0.156896         4.2694

MULLIKEN ATOMIC CHARGES
-----------------------
   0 N :   -0.357024
   1 C :    0.059246
   2 N :   -0.342045
   3 C :    0.180258
   4 C :   -0.218715
   5 N :   -0.043020
   6 C :    0.012821
   7 O :   -0.297650
   8 C :    0.081312
   9 H :    0.209031
  10 H :    0.251835
  11 H :    0.147322
  12 H :    0.161721
  13 H :    0.154909
Sum of atomic charges:   -0.0000000

LOEWDIN ATOMIC CHARGES
----------------------
   0 N :   -0.054697
   1 C :   -0.364635
   2 N :    0.129576
   3 C :   -0.243058
   4 C :   -0.163168
   5 N :    0.082046
   6 C :   -0.225122
   7 O :    0.208375
   8 C :   -0.186000
   9 H :    0.161834
  10 H :    0.186869
  11 H :    0.172433
  12 H :    0.145447
  13 H :    0.150100

  Mayer bond orders larger than 0.1
B(  0-N ,  1-C ) :   2.0409 B(  0-N ,  9-H ) :   0.8561 B(  1-C ,  2-N ) :   1.1235
B(  1-C ,  8-C ) :   0.8948 B(  2-N ,  3-C ) :   0.9055 B(  2-N , 10-H ) :   0.8688
B(  3-C ,  4-C ) :   0.9188 B(  3-C ,  6-C ) :   0.8851 B(  3-C , 11-H ) :   0.9055
B(  4-C ,  5-N ) :   2.8429 B(  6-C ,  7-O ) :   0.9478 B(  6-C ,  8-C ) :   0.9474
B(  6-C , 12-H ) :   0.9141 B(  7-O ,  8-C ) :   0.8655 B(  8-C , 13-H ) :   0.9350

MP2 TOTAL ENERGY:     -432.138412096 Eh
FINAL SINGLE POINT ENERGY      -432.138412095648

DIPOLE MOMENT
-------------
                                X             Y             Z
Electronic contribution:      0.97039      -2.50827       1.20348
Nuclear contribution   :     -0.96542       2.92164      -2.64496
                        -----------------------------------------
Total Dipole Moment    :      0.00497       0.41337      -1.44148
                        -----------------------------------------
Magnitude (a.u.)       :      1.49959
Magnitude (Debye)      :      3.81165

                             ****ORCA TERMINATED NORMALLY****
TOTAL RUN TIME: 0 days 0 hours 14 minutes 13 seconds 311 msec
