                         Program Version 3.0.3 - RELEASE   -
|  1> ! RI-MP2 RIJK def2-TZVP def2-TZVP/C def2-TZVP/JK TIGHTSCF
|  2> % maxcore 2000
|  3> % mp2 density relaxed end
|  4> *xyz 0 1
|  5>  C        0.0453560165     1.5980592018     0.0399414779
|  6>  C        0.0646496362     0.0866980641     0.0624898648
|  7>  C        1.3016818098    -0.7802490759    -0.2694074627
|  8>  C        2.4969960533    -0.1765343797     0.4081511201
|  9>  O        3.6217414399     0.1024336810     0.1474045799
| 10>  O        1.8678852906    -0.0572526447     1.6440377560
| 11>  C        0.6894944367    -0.7521659661     1.1202919751
| 12>  C        0.0880912270    -1.8005316182     1.9929882630
| 13>  H        0.9171848562     2.0153027100     0.5477032031
| 14>  H        0.0309311858     1.9715976658    -0.9883726333
| 15>  H       -0.8498048964     1.9730330879     0.5471198063
| 16>  H       -0.8287627449    -0.3800583319    -0.3519733210
| 17>  H        1.3103121435    -1.5314115611    -1.0461910688
| 18>  H       -0.3449980434    -1.3503316699     2.8925116752
| 19>  H       -0.7091980998    -2.3250424075     1.4590516275
| 20>  H        0.8428011390    -2.5286824157     2.3038656568
| 21> *
| 22>
| 23>                          ****END OF INPUT****

CARTESIAN COORDINATES (ANGSTROEM)
---------------------------------
  C      0.045356    1.598059    0.039941
  C      0.064650    0.086698    0.062490
  C      1.301682   -0.780249   -0.269407
  C      2.496996   -0.176534    0.408151
  O      3.621741    0.102434    0.147405
  O      1.867885   -0.057253    1.644038
  C      0.689494   -0.752166    1.120292
  C      0.088091   -1.800532    1.992988
  H      0.917185    2.015303    0.547703
  H      0.030931    1.971598   -0.988373
  H     -0.849805    1.973033    0.547120
  H     -0.828763   -0.380058   -0.351973
  H      1.310312   -1.531412   -1.046191
  H     -0.344998   -1.350332    2.892512
  H     -0.709198   -2.325042    1.459052
  H      0.842801   -2.528682    2.303866

 Total Charge           Charge          ....    0
 Multiplicity           Mult            ....    1
 Number of Electrons    NEL             ....   60
 Basis Dimension        Dim             ....  296

ORBITAL ENERGIES
----------------

  NO   OCC          E(Eh)            E(eV)
   0   2.0000     -20.595905      -560.4431
   1   2.0000     -20.551975      -559.2477
   2   2.0000     -11.385217      -309.8075
   3   2.0000     -11.324808      -308.1637
   4   2.0000     -11.274325      -306.7900
   5   2.0000     -11.263314      -306.4904
   6   2.0000     -11.247502      -306.0601
   7   2.0000     -11.233650      -305.6832
   8   2.0000      -1.464046       -39.8387
   9   2.0000      -1.381082       -37.5811
  10   2.0000      -1.161392       -31.6031
  11   2.0000      -1.021806       -27.8047
  12   2.0000      -0.991985       -26.9933
  13   2.0000      -0.880079       -23.9482
  14   2.0000      -0.792742       -21.5716
  15   2.0000      -0.750072       -20.4105
  16   2.0000      -0.693648       -18.8751
  17   2.0000      -0.684491       -18.6259
  18   2.0000      -0.665733       -18.1155
  19   2.0000      -0.608629       -16.5616
  20   2.0000      -0.589728       -16.0473
  21   2.0000      -0.583960       -15.8904
  22   2.0000      -0.578429       -15.7399
  23   2.0000      -0.569961       -15.5094
  24   2.0000      -0.547738       -14.9047
  25   2.0000      -0.528602       -14.3840
  26   2.0000      -0.498339       -13.5605
  27   2.0000      -0.449253       -12.2248
  28   2.0000      -0.427642       -11.6367
  29   2.0000      -0.410932       -11.1820
  30   0.0000       0.121214         3.2984
  31   0.0000       0.151733         4.1289
  32   0.0000       0.154790         4.2120
  33   0.0000       0.168123         4.5749
  34   0.0000       0.182071         4.9544

MULLIKEN ATOMIC CHARGES
-----------------------
   0 C :   -0.392118
   1 C :   -0.113422
   2 C :   -0.209407
   3 C :    0.249929
   4 O :   -0.255798
   5 O :   -0.268569
   6 C :    0.218143
   7 C :   -0.388357
   8 H :    0.161324
   9 H :    0.139228
  10 H :    0.136047
  11 H :    0.126891
  12 H :    0.161559
  13 H :    0.150209
  14 H :    0.136501
  15 H :    0.147840
Sum of atomic charges:    0.0000000

LOEWDIN ATOMIC CHARGES
----------------------
   0 C :   -0.282981
   1 C :   -0.178299
   2 C :   -0.121644
   3 C :   -0.431962
   4 O :    0.162781
   5 O :    0.251760
   6 C :   -0.256559
   7 C :   -0.261494
   8 H :    0.136349
   9 H :    0.130147
  10 H :    0.129545
  11 H :    0.162560
  12 H :    0.147365
  13 H :    0.138073
  14 H :    0.137408
  15 H :    0.136952

  Mayer bond orders larger than 0.1
B(  0-C ,  1-C ) :   0.9104 B(  0-C ,  8-H ) :   0.9302 B(  0-C ,  9-H ) :   0.9325
B(  0-C , 10-H ) :   0.9324 B(  1-C ,  2-C ) :   0.8229 B(  1-C ,  6-C ) :   0.9147
B(  1-C , 11-H ) :   0.9189 B(  2-C ,  3-C ) :   0.9543 B(  2-C ,  6-C ) :   0.7954
B(  2-C , 12-H ) :   0.9017 B(  3-C ,  4-O ) :   2.0624 B(  3-C ,  5-O ) :   1.0381
B(  5-O ,  6-C ) :   0.8911 B(  6-C ,  7-C ) :   0.8894 B(  7-C , 13-H ) :   0.9337
B(  7-C , 14-H ) :   0.9310 B(  7-C , 15-H ) :   0.9300

MP2 TOTAL ENERGY:     -383.109781146 Eh
FINAL SINGLE POINT ENERGY      -383.109781146236

DIPOLE MOMENT
-------------
                                X             Y             Z
Electronic contribution:      7.60072      -0.14607      -0.28004
Nuclear contribution   :     -9.28262      -0.45142       0.06174
                        -----------------------------------------
Total Dipole Moment    :     -1.68190      -0.59749      -0.21831
                        -----------------------------------------
Magnitude (a.u.)       :      1.79818
Magnitude (Debye)      :      4.57061

                             ****ORCA TERMINATED NORMALLY****
TOTAL RUN TIME: 0 days 0 hours 13 minutes 7 seconds 952 msec
