                         Program Version 3.0.3 - RELEASE   -
|  1> ! RI-MP2 RIJK def2-TZVP def2-TZVP/C def2-TZVP/JK TIGHTSCF
|  2> % maxcore 2000
|  3> % mp2 density relaxed end
|  4> *xyz 0 1
|  5>  C        0.0236277854     1.6173547303     0.1239882293
|  6>  C        0.0129979901     0.0866292599     0.0619396510
|  7>  C       -1.3947256830    -0.5373518757    -0.0505635437
|  8>  C       -2.1157675173    -0.1669700986    -1.3328549765
|  9>  C       -2.5908055121    -1.1284897536    -2.1261514974
| 10>  C       -2.3950642414    -2.5704424831    -1.7087542078
| 11>  C       -2.7614398737    -2.6833608494    -0.1959362705
| 12>  C       -1.3544242549    -2.0772950710     0.0776305273
| 13>  C       -0.9120203481    -2.7444469822    -1.2601293604
| 14>  H        1.0400868407     1.9955822487     0.2713205850
| 15>  H       -0.3613155345     2.0662879372    -0.7968747332
| 16>  H       -0.5902839386     1.9844266343     0.9544705191
| 17>  H        0.6289239556    -0.2508945738    -0.7804692132
| 18>  H        0.4879294940    -0.3103127630     0.9688754253
| 19>  H       -1.9809185592    -0.1470908381     0.7979875453
| 20>  H       -2.2393040374     0.8837258371    -1.5775272459
| 21>  H       -3.1162108922    -0.9034768250    -3.0495578010
| 22>  H       -2.8236091789    -3.2853495266    -2.4127865614
| 23>  H       -3.6398220104    -2.1331955548     0.1519897993
| 24>  H       -2.8191498878    -3.7242519722     0.1351801652
| 25>  H       -0.8368059016    -2.3759989244     0.9935572062
| 26>  H       -0.6531871081    -3.7958716883    -1.1070052601
| 27>  H       -0.1427659466    -2.2586173279    -1.8647421419
| 28> *
| 29>
| 30>                          ****END OF INPUT****

CARTESIAN COORDINATES (ANGSTROEM)
---------------------------------
  C      0.023628    1.617355    0.123988
  C      0.012998    0.086629    0.061940
  C     -1.394726   -0.537352   -0.050564
  C     -2.115768   -0.166970   -1.332855
  C     -2.590806   -1.128490   -2.126151
  C     -2.395064   -2.570442   -1.708754
  C     -2.761440   -2.683361   -0.195936
  C     -1.354424   -2.077295    0.077631
  C     -0.912020   -2.744447   -1.260129
  H      1.040087    1.995582    0.271321
  H     -0.361316    2.066288   -0.796875
  H     -0.590284    1.984427    0.954471
  H      0.628924   -0.250895   -0.780469
  H      0.487929   -0.310313    0.968875
  H     -1.980919   -0.147091    0.797988
  H     -2.239304    0.883726   -1.577527
  H     -3.116211   -0.903477   -3.049558
  H     -2.823609   -3.285350   -2.412787
  H     -3.639822   -2.133196    0.151990
  H     -2.819150   -3.724252    0.135180
  H     -0.836806   -2.375999    0.993557
  H     -0.653187   -3.795872   -1.107005
  H     -0.142766   -2.258617   -1.864742

 Total Charge           Charge          ....    0
 Multiplicity           Mult            ....    1
 Number of Electrons    NEL             ....   68
 Basis Dimension        Dim             ....  363

ORBITAL ENERGIES
----------------

  NO   OCC          E(Eh)            E(eV)
   0   2.0000     -11.227078      -305.5043
   1   2.0000     -11.225947      -305.4736
   2   2.0000     -11.224806      -305.4425
   3   2.0000     -11.218572      -305.2729
   4   2.0000     -11.217044      -305.2313
   5   2.0000     -11.216634      -305.2201
   6   2.0000     -11.216506      -305.2166
   7   2.0000     -11.214414      -305.1597
   8   2.0000     -11.211160      -305.0712
   9   2.0000      -1.167125       -31.7591
  10   2.0000      -1.059213       -28.8227
  11   2.0000      -1.014832       -27.6150
  12   2.0000      -0.959177       -26.1005
  13   2.0000      -0.891516       -24.2594
  14   2.0000      -0.847955       -23.0740
  15   2.0000      -0.788800       -21.4644
  16   2.0000      -0.783556       -21.3216
  17   2.0000      -0.691176       -18.8078
  18   2.0000      -0.673929       -18.3386
  19   2.0000      -0.624478       -16.9929
  20   2.0000      -0.606307       -16.4984
  21   2.0000      -0.573781       -15.6134
  22   2.0000      -0.571292       -15.5457
  23   2.0000      -0.556161       -15.1339
  24   2.0000      -0.536459       -14.5978
  25   2.0000      -0.528812       -14.3897
  26   2.0000      -0.504292       -13.7225
  27   2.0000      -0.486285       -13.2325
  28   2.0000      -0.474273       -12.9056
  29   2.0000      -0.471631       -12.8337
  30   2.0000      -0.429533       -11.6882
  31   2.0000      -0.423176       -11.5152
  32   2.0000      -0.413027       -11.2390
  33   2.0000      -0.333816        -9.0836
  34   0.0000       0.134189         3.6515
  35   0.0000       0.150176         4.0865
  36   0.0000       0.159172         4.3313
  37   0.0000       0.166706         4.5363
  38   0.0000       0.174221         4.7408

MULLIKEN ATOMIC CHARGES
-----------------------
   0 C :   -0.409656
   1 C :   -0.191326
   2 C :   -0.084139
   3 C :   -0.184109
   4 C :   -0.303759
   5 C :    0.113701
   6 C :   -0.294831
   7 C :    0.050035
   8 C :   -0.321590
   9 H :    0.135256
  10 H :    0.127215
  11 H :    0.124612
  12 H :    0.110250
  13 H :    0.107111
  14 H :    0.096347
  15 H :    0.119713
  16 H :    0.115854
  17 H :    0.117653
  18 H :    0.113698
  19 H :    0.117527
  20 H :    0.107405
  21 H :    0.117088
  22 H :    0.115945
Sum of atomic charges:   -0.0000000

LOEWDIN ATOMIC CHARGES
----------------------
   0 C :   -0.319411
   1 C :   -0.264103
   2 C :   -0.222893
   3 C :   -0.142785
   4 C :   -0.142201
   5 C :   -0.206292
   6 C :   -0.190451
   7 C :   -0.191371
   8 C :   -0.192061
   9 H :    0.121405
  10 H :    0.119237
  11 H :    0.120786
  12 H :    0.137331
  13 H :    0.137563
  14 H :    0.160354
  15 H :    0.139835
  16 H :    0.139010
  17 H :    0.135232
  18 H :    0.128442
  19 H :    0.134643
  20 H :    0.136375
  21 H :    0.135178
  22 H :    0.126175

  Mayer bond orders larger than 0.1
B(  0-C ,  1-C ) :   0.9182 B(  0-C ,  9-H ) :   0.9418 B(  0-C , 10-H ) :   0.9403
B(  0-C , 11-H ) :   0.9392 B(  1-C ,  2-C ) :   0.8816 B(  1-C , 12-H ) :   0.9253
B(  1-C , 13-H ) :   0.9363 B(  2-C ,  3-C ) :   0.9379 B(  2-C ,  7-C ) :   0.9019
B(  2-C , 14-H ) :   0.9113 B(  3-C ,  4-C ) :   1.7911 B(  3-C , 15-H ) :   0.9357
B(  4-C ,  5-C ) :   0.8892 B(  4-C , 16-H ) :   0.9357 B(  5-C ,  6-C ) :   0.8899
B(  5-C ,  8-C ) :   0.8826 B(  5-C , 17-H ) :   0.9272 B(  6-C ,  7-C ) :   0.8980
B(  6-C , 18-H ) :   0.9244 B(  6-C , 19-H ) :   0.9241 B(  7-C ,  8-C ) :   0.8889
B(  7-C , 20-H ) :   0.9294 B(  8-C , 21-H ) :   0.9218 B(  8-C , 22-H ) :   0.9247

MP2 TOTAL ENERGY:     -350.507341345 Eh
FINAL SINGLE POINT ENERGY      -350.507341344998

DIPOLE MOMENT
-------------
                                X             Y             Z
Electronic contribution:     -3.20733      -3.06866      -2.11513
Nuclear contribution   :      3.26486       3.00273       2.20475
                        -----------------------------------------
Total Dipole Moment    :      0.05753      -0.06593       0.08962
                        -----------------------------------------
Magnitude (a.u.)       :      0.12525
Magnitude (Debye)      :      0.31837

                             ****ORCA TERMINATED NORMALLY****
TOTAL RUN TIME: 0 days 0 hours 34 minutes 41 seconds 724 msec
