                         Program Version 3.0.3 - RELEASE   -
|  1> ! RI-MP2 RIJK def2-TZVP def2-TZVP/C def2-TZVP/JK TIGHTSCF
|  2> % maxcore 2000
|  3> % mp2 density relaxed end
|  4> *xyz 0 1
|  5>  C        0.0986998013     1.4764797121     0.1668607578
|  6>  C        0.0887363466    -0.0426835913    -0.0005367997
|  7>  O       -1.2366506841    -0.5575173388     0.0329331224
|  8>  C        0.6748335029    -0.5478161972    -1.3468899669
|  9>  C       -0.0416601047     0.0497137099    -2.5845644454
| 10>  C        2.1849409106    -0.2599356278    -1.4778074941
| 11>  O        2.8446876407     0.3354942523    -0.6716597026
| 12>  C        0.5639379284    -2.0146795482    -1.4010098938
| 13>  N        0.5465885563    -3.1679789946    -1.4751560955
| 14>  H        1.1140015883     1.8735909725     0.1233552168
| 15>  H       -0.5213284528     1.9628984660    -0.5906477719
| 16>  H       -0.3179438194     1.7290934283     1.1482365531
| 17>  H        0.6970054893    -0.4911336088     0.7975059434
| 18>  H       -1.6209921745    -0.3448236310     0.8889288294
| 19>  H        0.1336728680     1.1263581639    -2.6441243190
| 20>  H        0.3247566555    -0.4133563681    -3.5040036907
| 21>  H       -1.1136997670    -0.1337455044    -2.5015221176
| 22>  H        2.6253102447    -0.6589935248    -2.4163512655
| 23> *
| 24>
| 25>                          ****END OF INPUT****

CARTESIAN COORDINATES (ANGSTROEM)
---------------------------------
  C      0.098700    1.476480    0.166861
  C      0.088736   -0.042684   -0.000537
  O     -1.236651   -0.557517    0.032933
  C      0.674834   -0.547816   -1.346890
  C     -0.041660    0.049714   -2.584564
  C      2.184941   -0.259936   -1.477807
  O      2.844688    0.335494   -0.671660
  C      0.563938   -2.014680   -1.401010
  N      0.546589   -3.167979   -1.475156
  H      1.114002    1.873591    0.123355
  H     -0.521328    1.962898   -0.590648
  H     -0.317944    1.729093    1.148237
  H      0.697005   -0.491134    0.797506
  H     -1.620992   -0.344824    0.888929
  H      0.133673    1.126358   -2.644124
  H      0.324757   -0.413356   -3.504004
  H     -1.113700   -0.133746   -2.501522
  H      2.625310   -0.658994   -2.416351

 Total Charge           Charge          ....    0
 Multiplicity           Mult            ....    1
 Number of Electrons    NEL             ....   68
 Basis Dimension        Dim             ....  333

ORBITAL ENERGIES
----------------

  NO   OCC          E(Eh)            E(eV)
   0   2.0000     -20.587911      -560.2256
   1   2.0000     -20.577803      -559.9505
   2   2.0000     -15.578097      -423.9016
   3   2.0000     -11.364056      -309.2317
   4   2.0000     -11.316097      -307.9267
   5   2.0000     -11.310749      -307.7811
   6   2.0000     -11.279928      -306.9424
   7   2.0000     -11.257339      -306.3278
   8   2.0000     -11.234790      -305.7142
   9   2.0000      -1.429971       -38.9115
  10   2.0000      -1.388345       -37.7788
  11   2.0000      -1.228454       -33.4279
  12   2.0000      -1.130671       -30.7671
  13   2.0000      -1.020617       -27.7724
  14   2.0000      -0.946821       -25.7643
  15   2.0000      -0.881640       -23.9907
  16   2.0000      -0.810149       -22.0453
  17   2.0000      -0.742707       -20.2101
  18   2.0000      -0.723883       -19.6979
  19   2.0000      -0.678578       -18.4650
  20   2.0000      -0.644485       -17.5373
  21   2.0000      -0.639243       -17.3947
  22   2.0000      -0.607100       -16.5200
  23   2.0000      -0.593700       -16.1554
  24   2.0000      -0.580550       -15.7976
  25   2.0000      -0.568330       -15.4650
  26   2.0000      -0.554550       -15.0901
  27   2.0000      -0.541059       -14.7230
  28   2.0000      -0.537183       -14.6175
  29   2.0000      -0.512551       -13.9472
  30   2.0000      -0.483825       -13.1656
  31   2.0000      -0.468014       -12.7353
  32   2.0000      -0.459327       -12.4989
  33   2.0000      -0.436277       -11.8717
  34   0.0000       0.100970         2.7475
  35   0.0000       0.119404         3.2492
  36   0.0000       0.140481         3.8227
  37   0.0000       0.150954         4.1077
  38   0.0000       0.173941         4.7332

MULLIKEN ATOMIC CHARGES
-----------------------
   0 C :   -0.456658
   1 C :    0.080750
   2 O :   -0.463726
   3 C :    0.292402
   4 C :   -0.488694
   5 C :    0.074709
   6 O :   -0.248815
   7 C :   -0.228999
   8 N :   -0.039750
   9 H :    0.163577
  10 H :    0.144927
  11 H :    0.133101
  12 H :    0.107393
  13 H :    0.318962
  14 H :    0.157384
  15 H :    0.158712
  16 H :    0.181544
  17 H :    0.113182
Sum of atomic charges:    0.0000000

LOEWDIN ATOMIC CHARGES
----------------------
   0 C :   -0.295036
   1 C :   -0.317249
   2 O :    0.000228
   3 C :   -0.269301
   4 C :   -0.235117
   5 C :   -0.229652
   6 O :    0.162608
   7 C :   -0.150344
   8 N :    0.078234
   9 H :    0.133888
  10 H :    0.126180
  11 H :    0.126459
  12 H :    0.148348
  13 H :    0.179229
  14 H :    0.132145
  15 H :    0.135712
  16 H :    0.144149
  17 H :    0.129518

  Mayer bond orders larger than 0.1
B(  0-C ,  1-C ) :   0.9038 B(  0-C ,  9-H ) :   0.9265 B(  0-C , 10-H ) :   0.9371
B(  0-C , 11-H ) :   0.9307 B(  1-C ,  2-O ) :   0.9927 B(  1-C ,  3-C ) :   0.8521
B(  1-C , 12-H ) :   0.9147 B(  2-O , 13-H ) :   0.8420 B(  3-C ,  4-C ) :   0.8720
B(  3-C ,  5-C ) :   0.8001 B(  3-C ,  7-C ) :   0.8884 B(  4-C , 14-H ) :   0.9296
B(  4-C , 15-H ) :   0.9208 B(  4-C , 16-H ) :   0.9260 B(  5-C ,  6-O ) :   1.9834
B(  5-C , 17-H ) :   0.9367 B(  7-C ,  8-N ) :   2.8715

MP2 TOTAL ENERGY:     -438.388404752 Eh
FINAL SINGLE POINT ENERGY      -438.388404752405

DIPOLE MOMENT
-------------
                                X             Y             Z
Electronic contribution:      3.49662      -6.85238       0.27148
Nuclear contribution   :     -3.90809       8.29756      -0.21274
                        -----------------------------------------
Total Dipole Moment    :     -0.41147       1.44517       0.05873
                        -----------------------------------------
Magnitude (a.u.)       :      1.50376
Magnitude (Debye)      :      3.82225

                             ****ORCA TERMINATED NORMALLY****
TOTAL RUN TIME: 0 days 0 hours 19 minutes 46 seconds 782 msec
