                         Program Version 3.0.3 - RELEASE   -
|  1> ! RI-MP2 RIJK def2-TZVP def2-TZVP/C def2-TZVP/JK TIGHTSCF
|  2> % maxcore 2000
|  3> % mp2 density relaxed end
|  4> *xyz 0 1
|  5>  O        0.0457635630     1.4138722568     0.0694700448
|  6>  C        0.0932102501     0.0096912878     0.0488148374
|  7>  C        0.1346486596    -0.6581919386     1.4889897805
|  8>  C       -1.3688284011    -0.7242043430     1.3668510819
|  9>  C       -2.4798575929    -0.2718680427     1.9461736206
| 10>  C       -3.4894620673     0.1276138210     0.8895056171
| 11>  C       -2.6342635221     0.2326870601    -0.4099279449
| 12>  O       -2.9441449892     0.8079317126    -1.4137964954
| 13>  C       -1.3531427226    -0.5735983120    -0.1255381544
| 14>  H        0.9128512279     1.7426021015     0.3274034393
| 15>  H        0.8435079537    -0.3645280979    -0.6594459703
| 16>  H        0.6339284604    -1.6322044559     1.4518671487
| 17>  H        0.5576774550    -0.0600977841     2.3009745263
| 18>  H       -2.6104245288    -0.0469990522     2.9985154468
| 19>  H       -4.2923346738    -0.6038628616     0.7200147797
| 20>  H       -3.9823232555     1.0833823690     1.0992088559
| 21>  H       -1.3427541766    -1.4885000905    -0.7280715639
| 22> *
| 23>
| 24>                          ****END OF INPUT****

CARTESIAN COORDINATES (ANGSTROEM)
---------------------------------
  O      0.045764    1.413872    0.069470
  C      0.093210    0.009691    0.048815
  C      0.134649   -0.658192    1.488990
  C     -1.368828   -0.724204    1.366851
  C     -2.479858   -0.271868    1.946174
  C     -3.489462    0.127614    0.889506
  C     -2.634264    0.232687   -0.409928
  O     -2.944145    0.807932   -1.413796
  C     -1.353143   -0.573598   -0.125538
  H      0.912851    1.742602    0.327403
  H      0.843508   -0.364528   -0.659446
  H      0.633928   -1.632204    1.451867
  H      0.557677   -0.060098    2.300975
  H     -2.610425   -0.046999    2.998515
  H     -4.292335   -0.603863    0.720015
  H     -3.982323    1.083382    1.099209
  H     -1.342754   -1.488500   -0.728072

 Total Charge           Charge          ....    0
 Multiplicity           Mult            ....    1
 Number of Electrons    NEL             ....   66
 Basis Dimension        Dim             ....  327

ORBITAL ENERGIES
----------------

  NO   OCC          E(Eh)            E(eV)
   0   2.0000     -20.570862      -559.7616
   1   2.0000     -20.544131      -559.0342
   2   2.0000     -11.330148      -308.3090
   3   2.0000     -11.308807      -307.7283
   4   2.0000     -11.249126      -306.1043
   5   2.0000     -11.242498      -305.9239
   6   2.0000     -11.240891      -305.8802
   7   2.0000     -11.240254      -305.8629
   8   2.0000     -11.235318      -305.7285
   9   2.0000      -1.390168       -37.8284
  10   2.0000      -1.380398       -37.5625
  11   2.0000      -1.174323       -31.9549
  12   2.0000      -1.057513       -28.7764
  13   2.0000      -0.955712       -26.0063
  14   2.0000      -0.913677       -24.8624
  15   2.0000      -0.845010       -22.9939
  16   2.0000      -0.748715       -20.3736
  17   2.0000      -0.736916       -20.0525
  18   2.0000      -0.701560       -19.0904
  19   2.0000      -0.666009       -18.1230
  20   2.0000      -0.642740       -17.4899
  21   2.0000      -0.617856       -16.8127
  22   2.0000      -0.596962       -16.2442
  23   2.0000      -0.589812       -16.0496
  24   2.0000      -0.569995       -15.5103
  25   2.0000      -0.560358       -15.2481
  26   2.0000      -0.532945       -14.5022
  27   2.0000      -0.508331       -13.8324
  28   2.0000      -0.486221       -13.2307
  29   2.0000      -0.467380       -12.7181
  30   2.0000      -0.438508       -11.9324
  31   2.0000      -0.390405       -10.6235
  32   2.0000      -0.349763        -9.5175
  33   0.0000       0.120624         3.2823
  34   0.0000       0.131643         3.5822
  35   0.0000       0.146512         3.9868
  36   0.0000       0.152304         4.1444
  37   0.0000       0.162109         4.4112

MULLIKEN ATOMIC CHARGES
-----------------------
   0 O :   -0.440550
   1 C :   -0.008380
   2 C :   -0.191589
   3 C :   -0.032816
   4 C :   -0.245531
   5 C :   -0.170260
   6 C :    0.117503
   7 O :   -0.248235
   8 C :    0.006875
   9 H :    0.317668
  10 H :    0.100724
  11 H :    0.126380
  12 H :    0.123368
  13 H :    0.134033
  14 H :    0.137540
  15 H :    0.136670
  16 H :    0.136601
Sum of atomic charges:   -0.0000000

LOEWDIN ATOMIC CHARGES
----------------------
   0 O :    0.003686
   1 C :   -0.277002
   2 C :   -0.185631
   3 C :   -0.151723
   4 C :   -0.135384
   5 C :   -0.205579
   6 C :   -0.265208
   7 O :    0.171406
   8 C :   -0.135688
   9 H :    0.179967
  10 H :    0.123505
  11 H :    0.141963
  12 H :    0.131548
  13 H :    0.137720
  14 H :    0.151892
  15 H :    0.149369
  16 H :    0.165158

  Mayer bond orders larger than 0.1
B(  0-O ,  1-C ) :   1.0869 B(  0-O ,  9-H ) :   0.8411 B(  1-C ,  2-C ) :   0.8928
B(  1-C ,  8-C ) :   0.8484 B(  1-C , 10-H ) :   0.9482 B(  2-C ,  3-C ) :   0.9031
B(  2-C , 11-H ) :   0.9094 B(  2-C , 12-H ) :   0.9084 B(  3-C ,  4-C ) :   1.7375
B(  3-C ,  8-C ) :   0.9046 B(  4-C ,  5-C ) :   0.9197 B(  4-C , 13-H ) :   0.9118
B(  5-C ,  6-C ) :   0.9202 B(  5-C ,  8-C ) :  -0.1056 B(  5-C , 14-H ) :   0.8910
B(  5-C , 15-H ) :   0.9082 B(  6-C ,  7-O ) :   2.0695 B(  6-C ,  8-C ) :   0.8373
B(  8-C , 16-H ) :   0.8911

MP2 TOTAL ENERGY:     -421.102232268 Eh
FINAL SINGLE POINT ENERGY      -421.102232268419

DIPOLE MOMENT
-------------
                                X             Y             Z
Electronic contribution:     -1.76161       1.41534      -3.17027
Nuclear contribution   :      2.72410      -1.97194       4.07765
                        -----------------------------------------
Total Dipole Moment    :      0.96249      -0.55661       0.90739
                        -----------------------------------------
Magnitude (a.u.)       :      1.43511
Magnitude (Debye)      :      3.64777

                             ****ORCA TERMINATED NORMALLY****
TOTAL RUN TIME: 0 days 0 hours 16 minutes 18 seconds 378 msec
