                         Program Version 3.0.3 - RELEASE   -
|  1> ! RI-MP2 RIJK def2-TZVP def2-TZVP/C def2-TZVP/JK TIGHTSCF
|  2> % maxcore 2000
|  3> % mp2 density relaxed end
|  4> *xyz 0 1
|  5>  O        0.3058458173     0.0467690853    -0.5574191764
|  6>  C        0.1021281203     1.1698045305    -0.1687896201
|  7>  C       -1.3067223013     1.6318670991     0.2194399316
|  8>  C       -1.4936474224     2.8358709397     1.0999153547
|  9>  C       -0.6627171240     3.3217182706     2.0365069197
| 10>  C        0.6936886641     2.8752121487     2.3249290577
| 11>  C        1.5485554690     2.3782940684     1.4184279490
| 12>  C        1.2088009919     2.2148252339    -0.0397389249
| 13>  H       -1.8291627043     1.8047901973    -0.7332253699
| 14>  H       -1.8110040869     0.7599056574     0.6551089096
| 15>  H       -2.4654090375     3.3143351079     0.9987416722
| 16>  H       -1.0350481471     4.1328408845     2.6597244984
| 17>  H        1.0391046228     3.0076266453     3.3476587444
| 18>  H        2.5336097992     2.0495871294     1.7345354203
| 19>  H        2.0713779126     1.8869017355    -0.6210569916
| 20>  H        0.8307773563     3.1654510564    -0.4407125547
| 21> *
| 22>
| 23>                          ****END OF INPUT****

CARTESIAN COORDINATES (ANGSTROEM)
---------------------------------
  O      0.305846    0.046769   -0.557419
  C      0.102128    1.169805   -0.168790
  C     -1.306722    1.631867    0.219440
  C     -1.493647    2.835871    1.099915
  C     -0.662717    3.321718    2.036507
  C      0.693689    2.875212    2.324929
  C      1.548555    2.378294    1.418428
  C      1.208801    2.214825   -0.039739
  H     -1.829163    1.804790   -0.733225
  H     -1.811004    0.759906    0.655109
  H     -2.465409    3.314335    0.998742
  H     -1.035048    4.132841    2.659724
  H      1.039105    3.007627    3.347659
  H      2.533610    2.049587    1.734535
  H      2.071378    1.886902   -0.621057
  H      0.830777    3.165451   -0.440713

 Total Charge           Charge          ....    0
 Multiplicity           Mult            ....    1
 Number of Electrons    NEL             ....   58
 Basis Dimension        Dim             ....  296

ORBITAL ENERGIES
----------------

  NO   OCC          E(Eh)            E(eV)
   0   2.0000     -20.543046      -559.0047
   1   2.0000     -11.334145      -308.4178
   2   2.0000     -11.250897      -306.1525
   3   2.0000     -11.249129      -306.1044
   4   2.0000     -11.247741      -306.0666
   5   2.0000     -11.243542      -305.9523
   6   2.0000     -11.243051      -305.9390
   7   2.0000     -11.241978      -305.9098
   8   2.0000      -1.390350       -37.8333
   9   2.0000      -1.133366       -30.8405
  10   2.0000      -1.056485       -28.7484
  11   2.0000      -1.024658       -27.8824
  12   2.0000      -0.929265       -25.2866
  13   2.0000      -0.842054       -22.9134
  14   2.0000      -0.733947       -19.9717
  15   2.0000      -0.717723       -19.5302
  16   2.0000      -0.694445       -18.8968
  17   2.0000      -0.645416       -17.5627
  18   2.0000      -0.624040       -16.9810
  19   2.0000      -0.618428       -16.8283
  20   2.0000      -0.600024       -16.3275
  21   2.0000      -0.581569       -15.8253
  22   2.0000      -0.546505       -14.8711
  23   2.0000      -0.517410       -14.0795
  24   2.0000      -0.505668       -13.7599
  25   2.0000      -0.484924       -13.1955
  26   2.0000      -0.439114       -11.9489
  27   2.0000      -0.399342       -10.8667
  28   2.0000      -0.330255        -8.9867
  29   0.0000       0.096824         2.6347
  30   0.0000       0.129677         3.5287
  31   0.0000       0.153942         4.1890
  32   0.0000       0.158801         4.3212
  33   0.0000       0.166853         4.5403

MULLIKEN ATOMIC CHARGES
-----------------------
   0 O :   -0.278250
   1 C :    0.175380
   2 C :   -0.195412
   3 C :   -0.210769
   4 C :   -0.116466
   5 C :   -0.124688
   6 C :   -0.207741
   7 C :   -0.142812
   8 H :    0.149438
   9 H :    0.155203
  10 H :    0.128652
  11 H :    0.126982
  12 H :    0.128604
  13 H :    0.137972
  14 H :    0.139572
  15 H :    0.134335
Sum of atomic charges:   -0.0000000

LOEWDIN ATOMIC CHARGES
----------------------
   0 O :    0.152583
   1 C :   -0.314545
   2 C :   -0.222010
   3 C :   -0.161005
   4 C :   -0.167125
   5 C :   -0.165910
   6 C :   -0.146014
   7 C :   -0.215018
   8 H :    0.166223
   9 H :    0.167238
  10 H :    0.147221
  11 H :    0.150946
  12 H :    0.150293
  13 H :    0.146630
  14 H :    0.149354
  15 H :    0.161139

  Mayer bond orders larger than 0.1
B(  0-O ,  1-C ) :   2.0237 B(  1-C ,  2-C ) :   0.9224 B(  1-C ,  7-C ) :   0.8772
B(  2-C ,  3-C ) :   0.9005 B(  2-C ,  8-H ) :   0.9072 B(  2-C ,  9-H ) :   0.8960
B(  3-C ,  4-C ) :   1.7403 B(  3-C , 10-H ) :   0.9225 B(  4-C ,  5-C ) :   0.9999
B(  4-C , 11-H ) :   0.9232 B(  5-C ,  6-C ) :   1.7342 B(  5-C , 12-H ) :   0.9238
B(  6-C ,  7-C ) :   0.9124 B(  6-C , 13-H ) :   0.9218 B(  7-C , 14-H ) :   0.9231
B(  7-C , 15-H ) :   0.9013

MP2 TOTAL ENERGY:     -346.013026345 Eh
FINAL SINGLE POINT ENERGY      -346.013026345068

DIPOLE MOMENT
-------------
                                X             Y             Z
Electronic contribution:      0.75286      -2.76616      -1.13518
Nuclear contribution   :     -0.98893       3.69432       1.45448
                        -----------------------------------------
Total Dipole Moment    :     -0.23607       0.92816       0.31930
                        -----------------------------------------
Magnitude (a.u.)       :      1.00953
Magnitude (Debye)      :      2.56603

                             ****ORCA TERMINATED NORMALLY****
TOTAL RUN TIME: 0 days 0 hours 11 minutes 41 seconds 70 msec
