                         Program Version 3.0.3 - RELEASE   -
|  1> ! RI-MP2 RIJK def2-TZVP def2-TZVP/C def2-TZVP/JK TIGHTSCF
|  2> % maxcore 2000
|  3> % mp2 density relaxed end
|  4> *xyz 0 1
|  5>  C        0.0220127002     1.3776697288    -0.0533805023
|  6>  N       -0.0898846899    -0.0466777448     0.1604080324
|  7>  C       -1.4013987696    -0.6123129191     0.0386748433
|  8>  C       -1.6973402397    -1.4328349393    -1.2061748965
|  9>  C       -1.3830341942    -2.1142781864     0.0963242126
| 10>  O       -0.1138668218    -2.6945206892     0.2438562078
| 11>  C        0.6267043011    -2.0953568497     1.2742878965
| 12>  C        1.9070601477    -1.3988994720     0.9064645358
| 13>  C        0.6649228781    -0.5928589292     1.2498039225
| 14>  H        1.0784134589     1.6604803450    -0.1061460201
| 15>  H       -0.4519650210     1.6460718688    -1.0031457699
| 16>  H       -0.4507953638     1.9825587874     0.7435650703
| 17>  H       -2.2290633334    -0.0869898681     0.5222329430
| 18>  H       -2.7170320688    -1.4832954098    -1.5726754030
| 19>  H       -0.9188601375    -1.4506607621    -1.9594936990
| 20>  H       -2.1789347778    -2.6365406383     0.6237735048
| 21>  H        0.5626476574    -2.6107291353     2.2306909153
| 22>  H        2.7256408071    -1.4320528048     1.6174264462
| 23>  H        2.1842559023    -1.4214444207    -0.1406708123
| 24>  H        0.6399937447    -0.0599776910     2.2038675727
| 25> *
| 26>
| 27>                          ****END OF INPUT****

CARTESIAN COORDINATES (ANGSTROEM)
---------------------------------
  C      0.022013    1.377670   -0.053381
  N     -0.089885   -0.046678    0.160408
  C     -1.401399   -0.612313    0.038675
  C     -1.697340   -1.432835   -1.206175
  C     -1.383034   -2.114278    0.096324
  O     -0.113867   -2.694521    0.243856
  C      0.626704   -2.095357    1.274288
  C      1.907060   -1.398899    0.906465
  C      0.664923   -0.592859    1.249804
  H      1.078413    1.660480   -0.106146
  H     -0.451965    1.646072   -1.003146
  H     -0.450795    1.982559    0.743565
  H     -2.229063   -0.086990    0.522233
  H     -2.717032   -1.483295   -1.572675
  H     -0.918860   -1.450661   -1.959494
  H     -2.178935   -2.636541    0.623774
  H      0.562648   -2.610729    2.230691
  H      2.725641   -1.432053    1.617426
  H      2.184256   -1.421444   -0.140671
  H      0.639994   -0.059978    2.203868

 Total Charge           Charge          ....    0
 Multiplicity           Mult            ....    1
 Number of Electrons    NEL             ....   68
 Basis Dimension        Dim             ....  345

ORBITAL ENERGIES
----------------

  NO   OCC          E(Eh)            E(eV)
   0   2.0000     -20.560373      -559.4762
   1   2.0000     -15.548250      -423.0894
   2   2.0000     -11.278159      -306.8943
   3   2.0000     -11.278141      -306.8938
   4   2.0000     -11.255990      -306.2911
   5   2.0000     -11.255975      -306.2907
   6   2.0000     -11.246518      -306.0333
   7   2.0000     -11.221315      -305.3475
   8   2.0000     -11.221314      -305.3475
   9   2.0000      -1.390272       -37.8312
  10   2.0000      -1.240164       -33.7466
  11   2.0000      -1.142970       -31.1018
  12   2.0000      -1.074484       -29.2382
  13   2.0000      -0.919496       -25.0208
  14   2.0000      -0.860363       -23.4117
  15   2.0000      -0.817783       -22.2530
  16   2.0000      -0.811524       -22.0827
  17   2.0000      -0.721566       -19.6348
  18   2.0000      -0.714322       -19.4377
  19   2.0000      -0.697463       -18.9789
  20   2.0000      -0.652804       -17.7637
  21   2.0000      -0.626602       -17.0507
  22   2.0000      -0.589504       -16.0412
  23   2.0000      -0.582439       -15.8490
  24   2.0000      -0.568978       -15.4827
  25   2.0000      -0.551411       -15.0047
  26   2.0000      -0.540069       -14.6960
  27   2.0000      -0.519813       -14.1448
  28   2.0000      -0.511547       -13.9199
  29   2.0000      -0.430162       -11.7053
  30   2.0000      -0.417771       -11.3681
  31   2.0000      -0.411380       -11.1942
  32   2.0000      -0.397676       -10.8213
  33   2.0000      -0.332593        -9.0503
  34   0.0000       0.143237         3.8977
  35   0.0000       0.158273         4.3068
  36   0.0000       0.161905         4.4057
  37   0.0000       0.175281         4.7696
  38   0.0000       0.196620         5.3503

MULLIKEN ATOMIC CHARGES
-----------------------
   0 C :   -0.348188
   1 N :   -0.153517
   2 C :   -0.058587
   3 C :   -0.266324
   4 C :    0.053214
   5 O :   -0.295881
   6 C :    0.053213
   7 C :   -0.266324
   8 C :   -0.058586
   9 H :    0.141967
  10 H :    0.141967
  11 H :    0.111862
  12 H :    0.097018
  13 H :    0.127006
  14 H :    0.142440
  15 H :    0.106129
  16 H :    0.106129
  17 H :    0.127006
  18 H :    0.142440
  19 H :    0.097018
Sum of atomic charges:    0.0000000

LOEWDIN ATOMIC CHARGES
----------------------
   0 C :   -0.317038
   1 N :    0.117476
   2 C :   -0.244496
   3 C :   -0.205583
   4 C :   -0.275290
   5 O :    0.224182
   6 C :   -0.275290
   7 C :   -0.205583
   8 C :   -0.244496
   9 H :    0.121642
  10 H :    0.121642
  11 H :    0.102899
  12 H :    0.133352
  13 H :    0.131845
  14 H :    0.142242
  15 H :    0.132529
  16 H :    0.132529
  17 H :    0.131845
  18 H :    0.142242
  19 H :    0.133352

  Mayer bond orders larger than 0.1
B(  0-C ,  1-N ) :   0.9204 B(  0-C ,  9-H ) :   0.9359 B(  0-C , 10-H ) :   0.9359
B(  0-C , 11-H ) :   0.9324 B(  1-N ,  2-C ) :   0.9711 B(  1-N ,  8-C ) :   0.9711
B(  2-C ,  3-C ) :   0.8723 B(  2-C ,  4-C ) :   0.8826 B(  2-C , 12-H ) :   0.9193
B(  3-C ,  4-C ) :   0.8857 B(  3-C , 13-H ) :   0.9235 B(  3-C , 14-H ) :   0.9213
B(  4-C ,  5-O ) :   0.9803 B(  4-C , 15-H ) :   0.9489 B(  5-O ,  6-C ) :   0.9803
B(  6-C ,  7-C ) :   0.8857 B(  6-C ,  8-C ) :   0.8826 B(  6-C , 16-H ) :   0.9489
B(  7-C ,  8-C ) :   0.8723 B(  7-C , 17-H ) :   0.9235 B(  7-C , 18-H ) :   0.9213
B(  8-C , 19-H ) :   0.9193

MP2 TOTAL ENERGY:     -402.397782600 Eh
FINAL SINGLE POINT ENERGY      -402.397782600237

DIPOLE MOMENT
-------------
                                X             Y             Z
Electronic contribution:     -0.23239      -4.80112       0.47360
Nuclear contribution   :      0.00262       5.35294      -0.09045
                        -----------------------------------------
Total Dipole Moment    :     -0.22977       0.55182       0.38315
                        -----------------------------------------
Magnitude (a.u.)       :      0.71000
Magnitude (Debye)      :      1.80467

                             ****ORCA TERMINATED NORMALLY****
TOTAL RUN TIME: 0 days 0 hours 18 minutes 16 seconds 134 msec
