                         Program Version 3.0.3 - RELEASE   -
|  1> ! RI-MP2 RIJK def2-TZVP def2-TZVP/C def2-TZVP/JK TIGHTSCF
|  2> % maxcore 2000
|  3> % mp2 density relaxed end
|  4> *xyz 0 1
|  5>  C        0.1674077875     1.3200112493    -0.2239170704
|  6>  O        0.1138092382    -0.0931244736    -0.1140388680
|  7>  C       -1.1748993882    -0.6104474417    -0.0411612922
|  8>  O       -1.8875284869    -0.3977488966    -1.2694998538
|  9>  C       -1.7566340567    -1.4948410797    -2.0916004936
| 10>  N       -2.2240872754    -1.5671731263    -3.2599244212
| 11>  C       -0.9983249527    -2.5751729544    -1.3560159856
| 12>  C       -1.1085247398    -2.1390020700     0.1143383883
| 13>  C       -0.0158767228    -2.6493446646     1.0476378722
| 14>  H        1.2227292366     1.5989243792    -0.2184816556
| 15>  H       -0.2977115229     1.6672520494    -1.1531551943
| 16>  H       -0.3365835256     1.8021535649     0.6267203370
| 17>  H       -1.7560732188    -0.0955984207     0.7361994067
| 18>  H       -2.6850950518    -0.6918836479    -3.5156142670
| 19>  H       -1.4120232383    -3.5608205432    -1.5705437668
| 20>  H        0.0473888593    -2.5683012128    -1.6833480955
| 21>  H       -2.0891289429    -2.4506953859     0.4935825249
| 22>  H        0.9701775047    -2.3289535759     0.7041673452
| 23>  H       -0.1562469254    -2.2733576764     2.0663083140
| 24>  H       -0.0312549382    -3.7427169029     1.0909901159
| 25> *
| 26>
| 27>                          ****END OF INPUT****

CARTESIAN COORDINATES (ANGSTROEM)
---------------------------------
  C      0.167408    1.320011   -0.223917
  O      0.113809   -0.093124   -0.114039
  C     -1.174899   -0.610447   -0.041161
  O     -1.887528   -0.397749   -1.269500
  C     -1.756634   -1.494841   -2.091600
  N     -2.224087   -1.567173   -3.259924
  C     -0.998325   -2.575173   -1.356016
  C     -1.108525   -2.139002    0.114338
  C     -0.015877   -2.649345    1.047638
  H      1.222729    1.598924   -0.218482
  H     -0.297712    1.667252   -1.153155
  H     -0.336584    1.802154    0.626720
  H     -1.756073   -0.095598    0.736199
  H     -2.685095   -0.691884   -3.515614
  H     -1.412023   -3.560821   -1.570544
  H      0.047389   -2.568301   -1.683348
  H     -2.089129   -2.450695    0.493583
  H      0.970178   -2.328954    0.704167
  H     -0.156247   -2.273358    2.066308
  H     -0.031255   -3.742717    1.090990

 Total Charge           Charge          ....    0
 Multiplicity           Mult            ....    1
 Number of Electrons    NEL             ....   70
 Basis Dimension        Dim             ....  345

ORBITAL ENERGIES
----------------

  NO   OCC          E(Eh)            E(eV)
   0   2.0000     -20.591623      -560.3265
   1   2.0000     -20.574795      -559.8686
   2   2.0000     -15.527493      -422.5246
   3   2.0000     -11.348439      -308.8067
   4   2.0000     -11.332866      -308.3830
   5   2.0000     -11.280580      -306.9602
   6   2.0000     -11.247716      -306.0659
   7   2.0000     -11.238795      -305.8232
   8   2.0000     -11.224495      -305.4340
   9   2.0000      -1.449998       -39.4565
  10   2.0000      -1.378714       -37.5167
  11   2.0000      -1.190425       -32.3931
  12   2.0000      -1.100168       -29.9371
  13   2.0000      -0.983487       -26.7620
  14   2.0000      -0.959604       -26.1122
  15   2.0000      -0.901655       -24.5353
  16   2.0000      -0.810261       -22.0483
  17   2.0000      -0.764406       -20.8005
  18   2.0000      -0.720676       -19.6106
  19   2.0000      -0.699920       -19.0458
  20   2.0000      -0.675772       -18.3887
  21   2.0000      -0.649731       -17.6801
  22   2.0000      -0.612611       -16.6700
  23   2.0000      -0.604281       -16.4433
  24   2.0000      -0.591154       -16.0861
  25   2.0000      -0.570273       -15.5179
  26   2.0000      -0.543031       -14.7766
  27   2.0000      -0.533135       -14.5073
  28   2.0000      -0.519561       -14.1380
  29   2.0000      -0.509796       -13.8723
  30   2.0000      -0.484005       -13.1704
  31   2.0000      -0.470567       -12.8048
  32   2.0000      -0.458717       -12.4823
  33   2.0000      -0.426320       -11.6008
  34   2.0000      -0.398277       -10.8377
  35   0.0000       0.130738         3.5576
  36   0.0000       0.153192         4.1686
  37   0.0000       0.161943         4.4067
  38   0.0000       0.168027         4.5723
  39   0.0000       0.178008         4.8439

MULLIKEN ATOMIC CHARGES
-----------------------
   0 C :   -0.232437
   1 O :   -0.293724
   2 C :    0.174813
   3 O :   -0.267686
   4 C :    0.100294
   5 N :   -0.360009
   6 C :   -0.195699
   7 C :   -0.013567
   8 C :   -0.420520
   9 H :    0.143191
  10 H :    0.141832
  11 H :    0.112524
  12 H :    0.090668
  13 H :    0.221093
  14 H :    0.143235
  15 H :    0.133412
  16 H :    0.107740
  17 H :    0.147028
  18 H :    0.129896
  19 H :    0.137915
Sum of atomic charges:    0.0000000

LOEWDIN ATOMIC CHARGES
----------------------
   0 C :   -0.341371
   1 O :    0.175442
   2 C :   -0.363600
   3 O :    0.240761
   4 C :   -0.394353
   5 N :   -0.059444
   6 C :   -0.193569
   7 C :   -0.251528
   8 C :   -0.289969
   9 H :    0.114873
  10 H :    0.108896
  11 H :    0.104451
  12 H :    0.130613
  13 H :    0.167497
  14 H :    0.151064
  15 H :    0.158320
  16 H :    0.160087
  17 H :    0.129298
  18 H :    0.126157
  19 H :    0.126377

  Mayer bond orders larger than 0.1
B(  0-C ,  1-O ) :   0.8906 B(  0-C ,  9-H ) :   0.9378 B(  0-C , 10-H ) :   0.9372
B(  0-C , 11-H ) :   0.9341 B(  1-O ,  2-C ) :   1.0413 B(  2-C ,  3-O ) :   0.9118
B(  2-C ,  7-C ) :   0.9174 B(  2-C , 12-H ) :   0.9292 B(  3-O ,  4-C ) :   1.0539
B(  4-C ,  5-N ) :   2.0947 B(  4-C ,  6-C ) :   0.9229 B(  5-N , 13-H ) :   0.8558
B(  6-C ,  7-C ) :   0.9416 B(  6-C , 14-H ) :   0.9172 B(  6-C , 15-H ) :   0.9039
B(  7-C ,  8-C ) :   0.9125 B(  7-C , 16-H ) :   0.9216 B(  8-C , 17-H ) :   0.9311
B(  8-C , 18-H ) :   0.9387 B(  8-C , 19-H ) :   0.9373

MP2 TOTAL ENERGY:     -439.591121963 Eh
FINAL SINGLE POINT ENERGY      -439.591121962778

DIPOLE MOMENT
-------------
                                X             Y             Z
Electronic contribution:     -3.61741       1.03792      -4.67664
Nuclear contribution   :      3.84678      -0.61992       5.77574
                        -----------------------------------------
Total Dipole Moment    :      0.22937       0.41800       1.09910
                        -----------------------------------------
Magnitude (a.u.)       :      1.19807
Magnitude (Debye)      :      3.04524

                             ****ORCA TERMINATED NORMALLY****
TOTAL RUN TIME: 0 days 0 hours 29 minutes 18 seconds 726 msec
