                         Program Version 3.0.3 - RELEASE   -
|  1> ! RI-MP2 RIJK def2-TZVP def2-TZVP/C def2-TZVP/JK TIGHTSCF
|  2> % maxcore 2000
|  3> % mp2 density relaxed end
|  4> *xyz 0 1
|  5>  C        0.0905084615     1.5486877599     0.0728989557
|  6>  N        0.0060137660     0.1081974141    -0.0532449506
|  7>  C        0.3914390689    -0.5964706712     0.9324812859
|  8>  N        0.3597804535    -1.9693888510     0.9328925352
|  9>  C       -0.0796766994    -2.7689339133    -0.1020193386
| 10>  N       -0.0971323788    -4.0903656591    -0.0717687777
| 11>  C       -0.6052002265    -4.3895751815    -1.3023900773
| 12>  N       -0.8953830519    -3.3563138260    -2.0717168177
| 13>  N       -0.5472108737    -2.3073113729    -1.2749675842
| 14>  H        0.7274092033     1.9546480428    -0.7213752047
| 15>  H       -0.9035151516     1.9920943804    -0.0560636789
| 16>  H        0.4935718361     1.8813346965     1.0422858051
| 17>  H        0.7826277044    -0.1810805110     1.8691506986
| 18>  H        0.6809460330    -2.4686971695     1.7460258574
| 19>  H       -0.7638193610    -5.4044466657    -1.6348751384
| 20>  H       -0.6298846740    -1.3333593926    -1.5324761497
| 21> *
| 22>
| 23>                          ****END OF INPUT****

CARTESIAN COORDINATES (ANGSTROEM)
---------------------------------
  C      0.090508    1.548688    0.072899
  N      0.006014    0.108197   -0.053245
  C      0.391439   -0.596471    0.932481
  N      0.359780   -1.969389    0.932893
  C     -0.079677   -2.768934   -0.102019
  N     -0.097132   -4.090366   -0.071769
  C     -0.605200   -4.389575   -1.302390
  N     -0.895383   -3.356314   -2.071717
  N     -0.547211   -2.307311   -1.274968
  H      0.727409    1.954648   -0.721375
  H     -0.903515    1.992094   -0.056064
  H      0.493572    1.881335    1.042286
  H      0.782628   -0.181081    1.869151
  H      0.680946   -2.468697    1.746026
  H     -0.763819   -5.404447   -1.634875
  H     -0.629885   -1.333359   -1.532476

 Total Charge           Charge          ....    0
 Multiplicity           Mult            ....    1
 Number of Electrons    NEL             ....   66
 Basis Dimension        Dim             ....  321

ORBITAL ENERGIES
----------------

  NO   OCC          E(Eh)            E(eV)
   0   2.0000     -15.627992      -425.2593
   1   2.0000     -15.623475      -425.1364
   2   2.0000     -15.578488      -423.9122
   3   2.0000     -15.564044      -423.5192
   4   2.0000     -15.544472      -422.9866
   5   2.0000     -11.353098      -308.9335
   6   2.0000     -11.343197      -308.6641
   7   2.0000     -11.279577      -306.9329
   8   2.0000     -11.262621      -306.4715
   9   2.0000      -1.407148       -38.2904
  10   2.0000      -1.312274       -35.7088
  11   2.0000      -1.222871       -33.2760
  12   2.0000      -1.181205       -32.1422
  13   2.0000      -1.093132       -29.7456
  14   2.0000      -0.968195       -26.3459
  15   2.0000      -0.880760       -23.9667
  16   2.0000      -0.837213       -22.7817
  17   2.0000      -0.820140       -22.3171
  18   2.0000      -0.741237       -20.1701
  19   2.0000      -0.723455       -19.6862
  20   2.0000      -0.659795       -17.9539
  21   2.0000      -0.651692       -17.7334
  22   2.0000      -0.636366       -17.3164
  23   2.0000      -0.606563       -16.5054
  24   2.0000      -0.591775       -16.1030
  25   2.0000      -0.563751       -15.3405
  26   2.0000      -0.548317       -14.9205
  27   2.0000      -0.497547       -13.5389
  28   2.0000      -0.441659       -12.0181
  29   2.0000      -0.436520       -11.8783
  30   2.0000      -0.424627       -11.5547
  31   2.0000      -0.397626       -10.8200
  32   2.0000      -0.331805        -9.0289
  33   0.0000       0.125789         3.4229
  34   0.0000       0.131186         3.5698
  35   0.0000       0.143592         3.9073
  36   0.0000       0.167033         4.5452
  37   0.0000       0.187775         5.1096

MULLIKEN ATOMIC CHARGES
-----------------------
   0 C :   -0.279790
   1 N :   -0.341708
   2 C :    0.132049
   3 N :   -0.309412
   4 C :    0.285650
   5 N :   -0.331962
   6 C :    0.029204
   7 N :   -0.256115
   8 N :   -0.102038
   9 H :    0.142465
  10 H :    0.142462
  11 H :    0.099606
  12 H :    0.105418
  13 H :    0.267003
  14 H :    0.138218
  15 H :    0.278950
Sum of atomic charges:   -0.0000000

LOEWDIN ATOMIC CHARGES
----------------------
   0 C :   -0.336346
   1 N :    0.025736
   2 C :   -0.308033
   3 N :    0.145075
   4 C :   -0.398178
   5 N :    0.074768
   6 C :   -0.351850
   7 N :    0.012336
   8 N :    0.141043
   9 H :    0.118656
  10 H :    0.118655
  11 H :    0.106166
  12 H :    0.125843
  13 H :    0.207346
  14 H :    0.129499
  15 H :    0.189283

  Mayer bond orders larger than 0.1
B(  0-C ,  1-N ) :   0.8904 B(  0-C ,  9-H ) :   0.9325 B(  0-C , 10-H ) :   0.9325
B(  0-C , 11-H ) :   0.9308 B(  1-N ,  2-C ) :   1.6980 B(  2-C ,  3-N ) :   1.0910
B(  2-C , 12-H ) :   0.9129 B(  3-N ,  4-C ) :   0.9991 B(  3-N , 13-H ) :   0.8593
B(  4-C ,  5-N ) :   1.5269 B(  4-C ,  8-N ) :   1.2721 B(  5-N ,  6-C ) :   1.2938
B(  6-C ,  7-N ) :   1.5397 B(  6-C , 14-H ) :   0.9381 B(  7-N ,  8-N ) :   1.0065
B(  8-N , 15-H ) :   0.8223

MP2 TOTAL ENERGY:     -429.555493377 Eh
FINAL SINGLE POINT ENERGY      -429.555493377341

DIPOLE MOMENT
-------------
                                X             Y             Z
Electronic contribution:     -0.85089      -7.99577      -1.63791
Nuclear contribution   :      1.33138       9.28840       2.74347
                        -----------------------------------------
Total Dipole Moment    :      0.48049       1.29263       1.10556
                        -----------------------------------------
Magnitude (a.u.)       :      1.76749
Magnitude (Debye)      :      4.49261

                             ****ORCA TERMINATED NORMALLY****
TOTAL RUN TIME: 0 days 0 hours 14 minutes 43 seconds 862 msec
