                         Program Version 3.0.3 - RELEASE   -
|  1> ! RI-MP2 RIJK def2-TZVP def2-TZVP/C def2-TZVP/JK TIGHTSCF
|  2> % maxcore 2000
|  3> % mp2 density relaxed end
|  4> *xyz 0 1
|  5>  N        0.4037740900    -1.1567320936     0.8905767296
|  6>  C        0.2942852078    -0.0857353462     0.4732036478
|  7>  C        0.0907114224     1.2788211188    -0.0365103832
|  8>  C       -0.9732852475     2.0092128546     0.8161749487
|  9>  O       -1.3623454622     3.2024063774     0.1784837931
| 10>  C       -0.6525880773     4.3765799184     0.5496550627
| 11>  C        0.8813740052     4.2661164603     0.4393780205
| 12>  C        1.3663842171     3.2340870982    -0.5830415324
| 13>  O        1.3521059491     1.9083939688    -0.0557955777
| 14>  H       -0.3199453069     1.2071169921    -1.0574448911
| 15>  H       -1.8603804342     1.3707079813     0.8886822039
| 16>  H       -0.5862949686     2.1783677164     1.8300134185
| 17>  H       -1.0278421708     5.1411182604    -0.1368906957
| 18>  H       -0.9336192751     4.6821910598     1.5686509522
| 19>  H        1.2823694474     5.2527978406     0.1790779534
| 20>  H        1.3253324397     3.9941827301     1.4026875671
| 21>  H        0.7836595502     3.2843606065    -1.5140099302
| 22>  H        2.4155298137     3.4207423063    -0.8269186670
| 23> *
| 24>
| 25>                          ****END OF INPUT****

CARTESIAN COORDINATES (ANGSTROEM)
---------------------------------
  N      0.403774   -1.156732    0.890577
  C      0.294285   -0.085735    0.473204
  C      0.090711    1.278821   -0.036510
  C     -0.973285    2.009213    0.816175
  O     -1.362345    3.202406    0.178484
  C     -0.652588    4.376580    0.549655
  C      0.881374    4.266116    0.439378
  C      1.366384    3.234087   -0.583042
  O      1.352106    1.908394   -0.055796
  H     -0.319945    1.207117   -1.057445
  H     -1.860380    1.370708    0.888682
  H     -0.586295    2.178368    1.830013
  H     -1.027842    5.141118   -0.136891
  H     -0.933619    4.682191    1.568651
  H      1.282369    5.252798    0.179078
  H      1.325332    3.994183    1.402688
  H      0.783660    3.284361   -1.514010
  H      2.415530    3.420742   -0.826919

 Total Charge           Charge          ....    0
 Multiplicity           Mult            ....    1
 Number of Electrons    NEL             ....   68
 Basis Dimension        Dim             ....  333

ORBITAL ENERGIES
----------------

  NO   OCC          E(Eh)            E(eV)
   0   2.0000     -20.585384      -560.1568
   1   2.0000     -20.577990      -559.9556
   2   2.0000     -15.576683      -423.8631
   3   2.0000     -11.340003      -308.5772
   4   2.0000     -11.306046      -307.6531
   5   2.0000     -11.298400      -307.4451
   6   2.0000     -11.295669      -307.3708
   7   2.0000     -11.275193      -306.8136
   8   2.0000     -11.243897      -305.9620
   9   2.0000      -1.417010       -38.5588
  10   2.0000      -1.390932       -37.8492
  11   2.0000      -1.222314       -33.2609
  12   2.0000      -1.094295       -29.7773
  13   2.0000      -1.024091       -27.8669
  14   2.0000      -0.972186       -26.4545
  15   2.0000      -0.865652       -23.5556
  16   2.0000      -0.819207       -22.2918
  17   2.0000      -0.751285       -20.4435
  18   2.0000      -0.715652       -19.4739
  19   2.0000      -0.688711       -18.7408
  20   2.0000      -0.678886       -18.4734
  21   2.0000      -0.635327       -17.2881
  22   2.0000      -0.622055       -16.9270
  23   2.0000      -0.614098       -16.7105
  24   2.0000      -0.573923       -15.6172
  25   2.0000      -0.566268       -15.4089
  26   2.0000      -0.552954       -15.0466
  27   2.0000      -0.534067       -14.5327
  28   2.0000      -0.500496       -13.6192
  29   2.0000      -0.480377       -13.0717
  30   2.0000      -0.473701       -12.8901
  31   2.0000      -0.472992       -12.8708
  32   2.0000      -0.454318       -12.3626
  33   2.0000      -0.429163       -11.6781
  34   0.0000       0.127969         3.4822
  35   0.0000       0.140880         3.8335
  36   0.0000       0.151455         4.1213
  37   0.0000       0.169538         4.6134
  38   0.0000       0.173028         4.7083

MULLIKEN ATOMIC CHARGES
-----------------------
   0 N :   -0.052126
   1 C :   -0.160744
   2 C :    0.134179
   3 C :   -0.065220
   4 O :   -0.311064
   5 C :   -0.083285
   6 C :   -0.240023
   7 C :   -0.080372
   8 O :   -0.281857
   9 H :    0.116817
  10 H :    0.143089
  11 H :    0.124047
  12 H :    0.126361
  13 H :    0.116149
  14 H :    0.128897
  15 H :    0.128138
  16 H :    0.114362
  17 H :    0.142652
Sum of atomic charges:   -0.0000000

LOEWDIN ATOMIC CHARGES
----------------------
   0 N :    0.075994
   1 C :   -0.156703
   2 C :   -0.326356
   3 C :   -0.287420
   4 O :    0.159288
   5 C :   -0.319313
   6 C :   -0.281347
   7 C :   -0.301389
   8 O :    0.190649
   9 H :    0.162445
  10 H :    0.142188
  11 H :    0.134501
  12 H :    0.131899
  13 H :    0.123193
  14 H :    0.146592
  15 H :    0.142839
  16 H :    0.128069
  17 H :    0.134870

  Mayer bond orders larger than 0.1
B(  0-N ,  1-C ) :   2.8564 B(  1-C ,  2-C ) :   0.8956 B(  2-C ,  3-C ) :   0.9011
B(  2-C ,  8-O ) :   1.0165 B(  2-C ,  9-H ) :   0.9211 B(  3-C ,  4-O ) :   0.9253
B(  3-C , 10-H ) :   0.9117 B(  3-C , 11-H ) :   0.9309 B(  4-O ,  5-C ) :   0.9215
B(  5-C ,  6-C ) :   0.9133 B(  5-C , 12-H ) :   0.9342 B(  5-C , 13-H ) :   0.9475
B(  6-C ,  7-C ) :   0.9140 B(  6-C , 14-H ) :   0.9118 B(  6-C , 15-H ) :   0.9263
B(  7-C ,  8-O ) :   0.9016 B(  7-C , 16-H ) :   0.9344 B(  7-C , 17-H ) :   0.9283

MP2 TOTAL ENERGY:     -438.362849626 Eh
FINAL SINGLE POINT ENERGY      -438.362849626235

DIPOLE MOMENT
-------------
                                X             Y             Z
Electronic contribution:      0.07192      -8.39058      -0.03418
Nuclear contribution   :     -0.23104      10.21076      -0.25205
                        -----------------------------------------
Total Dipole Moment    :     -0.15912       1.82018      -0.28623
                        -----------------------------------------
Magnitude (a.u.)       :      1.84941
Magnitude (Debye)      :      4.70083

                             ****ORCA TERMINATED NORMALLY****
TOTAL RUN TIME: 0 days 0 hours 18 minutes 2 seconds 404 msec
