                         Program Version 3.0.3 - RELEASE   -
|  1> ! RI-MP2 RIJK def2-TZVP def2-TZVP/C def2-TZVP/JK TIGHTSCF
|  2> % maxcore 2000
|  3> % mp2 density relaxed end
|  4> *xyz 0 1
|  5>  C        0.0556172500     1.5755716191    -0.1356943690
|  6>  C        0.0202260670     0.0496049418    -0.0177971165
|  7>  C        0.7180535385    -0.4672476347     1.2438202705
|  8>  C        0.6798020822    -2.0038235627     1.3573674678
|  9>  C        1.3661699417    -2.5223722784     2.5750035560
| 10>  C        0.9380220605    -3.1687022174     3.6950814978
| 11>  C        2.1250395844    -3.3491410442     4.4524457622
| 12>  N        3.1789526319    -2.8578045496     3.8501288011
| 13>  O        2.6972923514    -2.3296174237     2.6525847338
| 14>  H        1.0860679787     1.9458108667    -0.1685200496
| 15>  H       -0.4500749660     1.9164459541    -1.0443057528
| 16>  H       -0.4385296668     2.0505060818     0.7190022632
| 17>  H       -1.0223888481    -0.2955389071    -0.0235741720
| 18>  H        0.4927744261    -0.3985709330    -0.9018822168
| 19>  H        1.7630193762    -0.1361548283     1.2538966988
| 20>  H        0.2474998568    -0.0302885671     2.1337418622
| 21>  H       -0.3575294160    -2.3539007270     1.3745116456
| 22>  H        1.1488273024    -2.4434614133     0.4678801566
| 23>  H       -0.0665203881    -3.4707271880     3.9394560147
| 24>  H        2.2479848173    -3.8226463090     5.4165686763
| 25> *
| 26>
| 27>                          ****END OF INPUT****

CARTESIAN COORDINATES (ANGSTROEM)
---------------------------------
  C      0.055617    1.575572   -0.135694
  C      0.020226    0.049605   -0.017797
  C      0.718054   -0.467248    1.243820
  C      0.679802   -2.003824    1.357367
  C      1.366170   -2.522372    2.575004
  C      0.938022   -3.168702    3.695081
  C      2.125040   -3.349141    4.452446
  N      3.178953   -2.857805    3.850129
  O      2.697292   -2.329617    2.652585
  H      1.086068    1.945811   -0.168520
  H     -0.450075    1.916446   -1.044306
  H     -0.438530    2.050506    0.719002
  H     -1.022389   -0.295539   -0.023574
  H      0.492774   -0.398571   -0.901882
  H      1.763019   -0.136155    1.253897
  H      0.247500   -0.030289    2.133742
  H     -0.357529   -2.353901    1.374512
  H      1.148827   -2.443461    0.467880
  H     -0.066520   -3.470727    3.939456
  H      2.247985   -3.822646    5.416569

 Total Charge           Charge          ....    0
 Multiplicity           Mult            ....    1
 Number of Electrons    NEL             ....   68
 Basis Dimension        Dim             ....  345

ORBITAL ENERGIES
----------------

  NO   OCC          E(Eh)            E(eV)
   0   2.0000     -20.636027      -561.5348
   1   2.0000     -15.614563      -424.8939
   2   2.0000     -11.314876      -307.8934
   3   2.0000     -11.275469      -306.8211
   4   2.0000     -11.248917      -306.0986
   5   2.0000     -11.232192      -305.6435
   6   2.0000     -11.230459      -305.5963
   7   2.0000     -11.228302      -305.5376
   8   2.0000     -11.218137      -305.2610
   9   2.0000      -1.486276       -40.4436
  10   2.0000      -1.162089       -31.6220
  11   2.0000      -1.103993       -30.0412
  12   2.0000      -1.062493       -28.9119
  13   2.0000      -0.993852       -27.0441
  14   2.0000      -0.892343       -24.2819
  15   2.0000      -0.823566       -22.4104
  16   2.0000      -0.806636       -21.9497
  17   2.0000      -0.785873       -21.3847
  18   2.0000      -0.699767       -19.0416
  19   2.0000      -0.659202       -17.9378
  20   2.0000      -0.650297       -17.6955
  21   2.0000      -0.614890       -16.7320
  22   2.0000      -0.595021       -16.1914
  23   2.0000      -0.586525       -15.9602
  24   2.0000      -0.571816       -15.5599
  25   2.0000      -0.557988       -15.1836
  26   2.0000      -0.536816       -14.6075
  27   2.0000      -0.513553       -13.9745
  28   2.0000      -0.486706       -13.2440
  29   2.0000      -0.479683       -13.0528
  30   2.0000      -0.475926       -12.9506
  31   2.0000      -0.468990       -12.7619
  32   2.0000      -0.422602       -11.4996
  33   2.0000      -0.353067        -9.6074
  34   0.0000       0.121739         3.3127
  35   0.0000       0.136633         3.7180
  36   0.0000       0.150140         4.0855
  37   0.0000       0.169000         4.5987
  38   0.0000       0.177156         4.8207

MULLIKEN ATOMIC CHARGES
-----------------------
   0 C :   -0.383553
   1 C :   -0.189344
   2 C :   -0.245628
   3 C :   -0.257740
   4 C :    0.203876
   5 C :   -0.220490
   6 C :   -0.081615
   7 N :   -0.126276
   8 O :   -0.111202
   9 H :    0.126316
  10 H :    0.134545
  11 H :    0.123340
  12 H :    0.104336
  13 H :    0.108978
  14 H :    0.131883
  15 H :    0.116717
  16 H :    0.133814
  17 H :    0.136691
  18 H :    0.148329
  19 H :    0.147022
Sum of atomic charges:    0.0000000

LOEWDIN ATOMIC CHARGES
----------------------
   0 C :   -0.319524
   1 C :   -0.297240
   2 C :   -0.260195
   3 C :   -0.228940
   4 C :   -0.273518
   5 C :   -0.180160
   6 C :   -0.273885
   7 N :    0.030759
   8 O :    0.293176
   9 H :    0.121726
  10 H :    0.121166
  11 H :    0.120848
  12 H :    0.134228
  13 H :    0.135452
  14 H :    0.142601
  15 H :    0.139707
  16 H :    0.152362
  17 H :    0.153495
  18 H :    0.146901
  19 H :    0.141041

  Mayer bond orders larger than 0.1
B(  0-C ,  1-C ) :   0.9254 B(  0-C ,  9-H ) :   0.9392 B(  0-C , 10-H ) :   0.9420
B(  0-C , 11-H ) :   0.9391 B(  1-C ,  2-C ) :   0.9251 B(  1-C , 12-H ) :   0.9302
B(  1-C , 13-H ) :   0.9340 B(  2-C ,  3-C ) :   0.9208 B(  2-C , 14-H ) :   0.9318
B(  2-C , 15-H ) :   0.9263 B(  3-C ,  4-C ) :   0.9103 B(  3-C , 16-H ) :   0.9401
B(  3-C , 17-H ) :   0.9176 B(  4-C ,  5-C ) :   1.5089 B(  4-C ,  8-O ) :   1.1080
B(  5-C ,  6-C ) :   1.2331 B(  5-C , 18-H ) :   0.9154 B(  6-C ,  7-N ) :   1.5965
B(  6-C , 19-H ) :   0.9272 B(  7-N ,  8-O ) :   0.8868

MP2 TOTAL ENERGY:     -402.455766443 Eh
FINAL SINGLE POINT ENERGY      -402.455766442787

DIPOLE MOMENT
-------------
                                X             Y             Z
Electronic contribution:      7.84656     -10.13870       9.48572
Nuclear contribution   :     -9.06658      10.12741      -9.71171
                        -----------------------------------------
Total Dipole Moment    :     -1.22002      -0.01129      -0.22599
                        -----------------------------------------
Magnitude (a.u.)       :      1.24082
Magnitude (Debye)      :      3.15393

                             ****ORCA TERMINATED NORMALLY****
TOTAL RUN TIME: 0 days 0 hours 21 minutes 4 seconds 66 msec
