                         Program Version 3.0.3 - RELEASE   -
|  1> ! RI-MP2 RIJK def2-TZVP def2-TZVP/C def2-TZVP/JK TIGHTSCF
|  2> % maxcore 2000
|  3> % mp2 density relaxed end
|  4> *xyz 0 1
|  5>  C        0.3480184707     1.5561404337    -0.2062809401
|  6>  C        0.1198503707     0.0488554493    -0.1204081503
|  7>  O        0.7115645897    -0.6354075162    -1.2224111103
|  8>  C        0.6102849087    -0.5307043567     1.2271548677
|  9>  O       -0.0496322129     0.1109704300     2.3186902406
| 10>  C        0.5495305944    -2.0708688302     1.3210182482
| 11>  C        1.3313226420    -2.5752578191     2.5399372879
| 12>  C       -0.8918328284    -2.6074761598     1.3386138108
| 13>  O       -0.9520270578    -4.0261605883     1.3164302871
| 14>  H        1.4217103791     1.7824925506    -0.1646664216
| 15>  H       -0.0497073678     1.9507205101    -1.1450084901
| 16>  H       -0.1276967514     2.0688691786     0.6324910334
| 17>  H       -0.9553228542    -0.1526916835    -0.2187797414
| 18>  H        1.6286073418    -0.3456347549    -1.2864438498
| 19>  H        1.6637598820    -0.2370703017     1.3427200102
| 20>  H       -0.9927954872    -0.0715869900     2.2488914278
| 21>  H        1.0202429595    -2.4477832099     0.4036773888
| 22>  H        1.2065212633    -3.6546179005     2.6524596343
| 23>  H        2.4001744792    -2.3571781403     2.4440349527
| 24>  H        0.9702214762    -2.0879250585     3.4512070127
| 25>  H       -1.3909832083    -2.3177070298     2.2713249359
| 26>  H       -1.4735421025    -2.1852450979     0.5052321923
| 27>  H       -0.5613343167    -4.3185940250     0.4863809333
| 28> *
| 29>
| 30>                          ****END OF INPUT****

CARTESIAN COORDINATES (ANGSTROEM)
---------------------------------
  C      0.348018    1.556140   -0.206281
  C      0.119850    0.048855   -0.120408
  O      0.711565   -0.635408   -1.222411
  C      0.610285   -0.530704    1.227155
  O     -0.049632    0.110970    2.318690
  C      0.549531   -2.070869    1.321018
  C      1.331323   -2.575258    2.539937
  C     -0.891833   -2.607476    1.338614
  O     -0.952027   -4.026161    1.316430
  H      1.421710    1.782493   -0.164666
  H     -0.049707    1.950721   -1.145008
  H     -0.127697    2.068869    0.632491
  H     -0.955323   -0.152692   -0.218780
  H      1.628607   -0.345635   -1.286444
  H      1.663760   -0.237070    1.342720
  H     -0.992795   -0.071587    2.248891
  H      1.020243   -2.447783    0.403677
  H      1.206521   -3.654618    2.652460
  H      2.400174   -2.357178    2.444035
  H      0.970221   -2.087925    3.451207
  H     -1.390983   -2.317707    2.271325
  H     -1.473542   -2.185245    0.505232
  H     -0.561334   -4.318594    0.486381

 Total Charge           Charge          ....    0
 Multiplicity           Mult            ....    1
 Number of Electrons    NEL             ....   74
 Basis Dimension        Dim             ....  363

ORBITAL ENERGIES
----------------

  NO   OCC          E(Eh)            E(eV)
   0   2.0000     -20.565387      -559.6126
   1   2.0000     -20.563580      -559.5635
   2   2.0000     -20.555975      -559.3565
   3   2.0000     -11.288523      -307.1763
   4   2.0000     -11.285040      -307.0815
   5   2.0000     -11.276384      -306.8460
   6   2.0000     -11.228032      -305.5303
   7   2.0000     -11.222085      -305.3685
   8   2.0000     -11.206549      -304.9457
   9   2.0000      -1.377554       -37.4851
  10   2.0000      -1.363792       -37.1107
  11   2.0000      -1.359760       -37.0010
  12   2.0000      -1.075814       -29.2744
  13   2.0000      -1.026202       -27.9244
  14   2.0000      -0.926698       -25.2167
  15   2.0000      -0.919817       -25.0295
  16   2.0000      -0.836598       -22.7650
  17   2.0000      -0.792153       -21.5556
  18   2.0000      -0.695943       -18.9376
  19   2.0000      -0.682779       -18.5793
  20   2.0000      -0.667994       -18.1770
  21   2.0000      -0.658801       -17.9269
  22   2.0000      -0.642006       -17.4699
  23   2.0000      -0.620024       -16.8717
  24   2.0000      -0.585970       -15.9451
  25   2.0000      -0.569327       -15.4922
  26   2.0000      -0.560658       -15.2563
  27   2.0000      -0.554446       -15.0873
  28   2.0000      -0.532629       -14.4936
  29   2.0000      -0.523642       -14.2490
  30   2.0000      -0.517338       -14.0775
  31   2.0000      -0.511023       -13.9056
  32   2.0000      -0.491352       -13.3704
  33   2.0000      -0.470097       -12.7920
  34   2.0000      -0.464937       -12.6516
  35   2.0000      -0.429165       -11.6782
  36   2.0000      -0.417934       -11.3726
  37   0.0000       0.127228         3.4621
  38   0.0000       0.135068         3.6754
  39   0.0000       0.144352         3.9280
  40   0.0000       0.165652         4.5076
  41   0.0000       0.180500         4.9117

MULLIKEN ATOMIC CHARGES
-----------------------
   0 C :   -0.378295
   1 C :    0.068922
   2 O :   -0.480316
   3 C :   -0.002670
   4 O :   -0.475172
   5 C :   -0.000346
   6 C :   -0.384344
   7 C :   -0.105817
   8 O :   -0.470802
   9 H :    0.112776
  10 H :    0.148204
  11 H :    0.141588
  12 H :    0.085418
  13 H :    0.315251
  14 H :    0.084400
  15 H :    0.314799
  16 H :    0.083300
  17 H :    0.147521
  18 H :    0.122362
  19 H :    0.135025
  20 H :    0.102312
  21 H :    0.120548
  22 H :    0.315336
Sum of atomic charges:    0.0000000

LOEWDIN ATOMIC CHARGES
----------------------
   0 C :   -0.303310
   1 C :   -0.365157
   2 O :   -0.019296
   3 C :   -0.313474
   4 O :   -0.008747
   5 C :   -0.288825
   6 C :   -0.294352
   7 C :   -0.331107
   8 O :   -0.044987
   9 H :    0.122046
  10 H :    0.125682
  11 H :    0.131215
  12 H :    0.140450
  13 H :    0.175606
  14 H :    0.149203
  15 H :    0.173588
  16 H :    0.155368
  17 H :    0.126977
  18 H :    0.120720
  19 H :    0.127667
  20 H :    0.127416
  21 H :    0.118491
  22 H :    0.174827

  Mayer bond orders larger than 0.1
B(  0-C ,  1-C ) :   0.9538 B(  0-C ,  9-H ) :   0.9184 B(  0-C , 10-H ) :   0.9436
B(  0-C , 11-H ) :   0.9279 B(  1-C ,  2-O ) :   0.9017 B(  1-C ,  3-C ) :   0.9463
B(  1-C , 12-H ) :   0.9036 B(  2-O , 13-H ) :   0.8412 B(  3-C ,  4-O ) :   0.8987
B(  3-C ,  5-C ) :   0.8783 B(  3-C , 14-H ) :   0.9058 B(  4-O , 15-H ) :   0.8417
B(  5-C ,  6-C ) :   0.8930 B(  5-C ,  7-C ) :   0.8892 B(  5-C , 16-H ) :   0.9055
B(  6-C , 17-H ) :   0.9358 B(  6-C , 18-H ) :   0.9378 B(  6-C , 19-H ) :   0.9300
B(  7-C ,  8-O ) :   0.9242 B(  7-C , 20-H ) :   0.9210 B(  7-C , 21-H ) :   0.9383
B(  8-O , 22-H ) :   0.8458

MP2 TOTAL ENERGY:     -461.835495887 Eh
FINAL SINGLE POINT ENERGY      -461.835495886530

DIPOLE MOMENT
-------------
                                X             Y             Z
Electronic contribution:     -1.72026      -1.85038      -1.03984
Nuclear contribution   :      2.00718       2.31147       0.48026
                        -----------------------------------------
Total Dipole Moment    :      0.28693       0.46109      -0.55957
                        -----------------------------------------
Magnitude (a.u.)       :      0.77978
Magnitude (Debye)      :      1.98204

                             ****ORCA TERMINATED NORMALLY****
TOTAL RUN TIME: 0 days 0 hours 17 minutes 58 seconds 25 msec
