                         Program Version 3.0.3 - RELEASE   -
|  1> ! RI-MP2 RIJK def2-TZVP def2-TZVP/C def2-TZVP/JK TIGHTSCF
|  2> % maxcore 2000
|  3> % mp2 density relaxed end
|  4> *xyz 0 1
|  5>  C        0.1731803601     1.4979163322     0.0550137593
|  6>  C        0.0145246882    -0.0153367135     0.0005215682
|  7>  C       -1.4420027356    -0.4278856921    -0.1855560572
|  8>  O       -1.8760501871     0.0198420875    -1.4615982310
|  9>  C        0.9530610433    -0.7942927817    -0.9883180698
| 10>  C        1.4660337704    -1.6844215814     0.1762657765
| 11>  C        2.6814250596    -1.1110991953     0.9193429125
| 12>  O        1.8423200074    -0.2405594198     1.7175503214
| 13>  C        0.6409619978    -0.8249266565     1.1745221358
| 14>  H        1.2102138985     1.7672554407     0.2674525403
| 15>  H       -0.1277165466     1.9453669936    -0.8962377526
| 16>  H       -0.4519182075     1.9314553749     0.8447788476
| 17>  H       -1.5328601133    -1.5244067069    -0.1027385415
| 18>  H       -2.0497166220     0.0133602790     0.6216888585
| 19>  H       -2.7879951372    -0.2581445545    -1.5856673006
| 20>  H        0.4096000903    -1.3224960209    -1.7737613821
| 21>  H        1.7289115675    -0.1848675893    -1.4603595590
| 22>  H        1.3876291761    -2.7657481938     0.0749741658
| 23>  H        3.2147613633    -1.8315160723     1.5533971264
| 24>  H        3.4106165592    -0.5530616426     0.3183193082
| 25>  H       -0.0235801323    -1.2008978773     1.9605753034
| 26> *
| 27>
| 28>                          ****END OF INPUT****

CARTESIAN COORDINATES (ANGSTROEM)
---------------------------------
  C      0.173180    1.497916    0.055014
  C      0.014525   -0.015337    0.000522
  C     -1.442003   -0.427886   -0.185556
  O     -1.876050    0.019842   -1.461598
  C      0.953061   -0.794293   -0.988318
  C      1.466034   -1.684422    0.176266
  C      2.681425   -1.111099    0.919343
  O      1.842320   -0.240559    1.717550
  C      0.640962   -0.824927    1.174522
  H      1.210214    1.767255    0.267453
  H     -0.127717    1.945367   -0.896238
  H     -0.451918    1.931455    0.844779
  H     -1.532860   -1.524407   -0.102739
  H     -2.049717    0.013360    0.621689
  H     -2.787995   -0.258145   -1.585667
  H      0.409600   -1.322496   -1.773761
  H      1.728912   -0.184868   -1.460360
  H      1.387629   -2.765748    0.074974
  H      3.214761   -1.831516    1.553397
  H      3.410617   -0.553062    0.318319
  H     -0.023580   -1.200898    1.960575

 Total Charge           Charge          ....    0
 Multiplicity           Mult            ....    1
 Number of Electrons    NEL             ....   70
 Basis Dimension        Dim             ....  351

ORBITAL ENERGIES
----------------

  NO   OCC          E(Eh)            E(eV)
   0   2.0000     -20.559157      -559.4431
   1   2.0000     -20.544812      -559.0528
   2   2.0000     -11.278533      -306.9045
   3   2.0000     -11.277649      -306.8804
   4   2.0000     -11.276317      -306.8442
   5   2.0000     -11.231542      -305.6258
   6   2.0000     -11.230634      -305.6011
   7   2.0000     -11.219270      -305.2918
   8   2.0000     -11.201058      -304.7963
   9   2.0000      -1.377177       -37.4749
  10   2.0000      -1.363510       -37.1030
  11   2.0000      -1.121854       -30.5272
  12   2.0000      -1.010711       -27.5028
  13   2.0000      -0.928438       -25.2641
  14   2.0000      -0.916862       -24.9491
  15   2.0000      -0.882842       -24.0234
  16   2.0000      -0.782023       -21.2799
  17   2.0000      -0.712709       -19.3938
  18   2.0000      -0.704636       -19.1741
  19   2.0000      -0.681717       -18.5505
  20   2.0000      -0.648818       -17.6552
  21   2.0000      -0.638274       -17.3683
  22   2.0000      -0.604624       -16.4527
  23   2.0000      -0.588733       -16.0202
  24   2.0000      -0.563660       -15.3380
  25   2.0000      -0.547437       -14.8965
  26   2.0000      -0.542197       -14.7539
  27   2.0000      -0.534355       -14.5405
  28   2.0000      -0.487327       -13.2608
  29   2.0000      -0.474075       -12.9002
  30   2.0000      -0.458449       -12.4750
  31   2.0000      -0.445403       -12.1200
  32   2.0000      -0.442532       -12.0419
  33   2.0000      -0.407959       -11.1011
  34   2.0000      -0.392102       -10.6696
  35   0.0000       0.128428         3.4947
  36   0.0000       0.153648         4.1810
  37   0.0000       0.161937         4.4065
  38   0.0000       0.166023         4.5177
  39   0.0000       0.185028         5.0349

MULLIKEN ATOMIC CHARGES
-----------------------
   0 C :   -0.435441
   1 C :    0.159795
   2 C :   -0.141514
   3 O :   -0.466737
   4 C :   -0.281153
   5 C :   -0.160756
   6 C :   -0.040784
   7 O :   -0.352597
   8 C :    0.100015
   9 H :    0.144693
  10 H :    0.149428
  11 H :    0.117020
  12 H :    0.105115
  13 H :    0.107019
  14 H :    0.316266
  15 H :    0.137613
  16 H :    0.112875
  17 H :    0.123324
  18 H :    0.099948
  19 H :    0.096995
  20 H :    0.108877
Sum of atomic charges:    0.0000000

LOEWDIN ATOMIC CHARGES
----------------------
   0 C :   -0.270153
   1 C :   -0.271192
   2 C :   -0.311069
   3 O :   -0.038357
   4 C :   -0.171924
   5 C :   -0.193567
   6 C :   -0.251871
   7 O :    0.138762
   8 C :   -0.202750
   9 H :    0.129324
  10 H :    0.131317
  11 H :    0.126453
  12 H :    0.122319
  13 H :    0.121465
  14 H :    0.173087
  15 H :    0.137133
  16 H :    0.134761
  17 H :    0.134009
  18 H :    0.118245
  19 H :    0.116996
  20 H :    0.127014

  Mayer bond orders larger than 0.1
B(  0-C ,  1-C ) :   0.9007 B(  0-C ,  9-H ) :   0.9297 B(  0-C , 10-H ) :   0.9358
B(  0-C , 11-H ) :   0.9326 B(  1-C ,  2-C ) :   0.8959 B(  1-C ,  4-C ) :   0.8917
B(  1-C ,  8-C ) :   0.8586 B(  2-C ,  3-O ) :   1.0378 B(  2-C , 12-H ) :   0.9222
B(  2-C , 13-H ) :   0.9285 B(  3-O , 14-H ) :   0.8469 B(  4-C ,  5-C ) :   0.9173
B(  4-C , 15-H ) :   0.9123 B(  4-C , 16-H ) :   0.9084 B(  5-C ,  6-C ) :   0.9826
B(  5-C ,  8-C ) :   0.9187 B(  5-C , 17-H ) :   0.9145 B(  6-C ,  7-O ) :   0.9278
B(  6-C , 18-H ) :   0.9205 B(  6-C , 19-H ) :   0.9099 B(  7-O ,  8-C ) :   0.9190
B(  8-C , 20-H ) :   0.9380

MP2 TOTAL ENERGY:     -423.484693564 Eh
FINAL SINGLE POINT ENERGY      -423.484693564435

DIPOLE MOMENT
-------------
                                X             Y             Z
Electronic contribution:      0.43674      -1.24189       1.53617
Nuclear contribution   :     -0.97228       0.47814      -1.72603
                        -----------------------------------------
Total Dipole Moment    :     -0.53554      -0.76375      -0.18986
                        -----------------------------------------
Magnitude (a.u.)       :      0.95193
Magnitude (Debye)      :      2.41961

                             ****ORCA TERMINATED NORMALLY****
TOTAL RUN TIME: 0 days 0 hours 18 minutes 50 seconds 733 msec
