                         Program Version 3.0.3 - RELEASE   -
|  1> ! RI-MP2 RIJK def2-TZVP def2-TZVP/C def2-TZVP/JK TIGHTSCF
|  2> % maxcore 2000
|  3> % mp2 density relaxed end
|  4> *xyz 0 1
|  5>  C       -0.0289067045     1.5278745538     0.0541184395
|  6>  C        0.0083802749     0.0187830486     0.0352640158
|  7>  C        0.9383717698    -0.7966309452    -0.9180462708
|  8>  C        0.6988057964    -1.9549856623     0.1028284246
|  9>  C        0.6412284409    -0.8205674958     1.1898843131
| 10>  C       -0.7877583626    -2.1703295238    -0.0607643183
| 11>  O       -1.4583174932    -3.1675312169     0.0127207551
| 12>  C       -1.3233417576    -0.7219331375    -0.1934513296
| 13>  O       -2.2941743733    -0.4407470141     0.7913483024
| 14>  H        0.9652893432     1.9470165652     0.2408159064
| 15>  H       -0.3887275516     1.9250425356    -0.9019412675
| 16>  H       -0.7046749936     1.8845468719     0.8376583168
| 17>  H        0.6255059370    -0.9455634840    -1.9563117965
| 18>  H        1.9696000433    -0.4378251701    -0.8848485389
| 19>  H        1.3360200147    -2.8321694340     0.1880164805
| 20>  H        1.6431969281    -0.4741504532     1.4539432986
| 21>  H        0.0424483561    -0.9899315495     2.0870613862
| 22>  H       -1.7175189527    -0.5327399190    -1.2053850204
| 23>  H       -2.8533406753    -1.2248349299     0.8620845831
| 24> *
| 25>
| 26>                          ****END OF INPUT****

CARTESIAN COORDINATES (ANGSTROEM)
---------------------------------
  C     -0.028907    1.527875    0.054118
  C      0.008380    0.018783    0.035264
  C      0.938372   -0.796631   -0.918046
  C      0.698806   -1.954986    0.102828
  C      0.641228   -0.820567    1.189884
  C     -0.787758   -2.170330   -0.060764
  O     -1.458317   -3.167531    0.012721
  C     -1.323342   -0.721933   -0.193451
  O     -2.294174   -0.440747    0.791348
  H      0.965289    1.947017    0.240816
  H     -0.388728    1.925043   -0.901941
  H     -0.704675    1.884547    0.837658
  H      0.625506   -0.945563   -1.956312
  H      1.969600   -0.437825   -0.884849
  H      1.336020   -2.832169    0.188016
  H      1.643197   -0.474150    1.453943
  H      0.042448   -0.989932    2.087061
  H     -1.717519   -0.532740   -1.205385
  H     -2.853341   -1.224835    0.862085

 Total Charge           Charge          ....    0
 Multiplicity           Mult            ....    1
 Number of Electrons    NEL             ....   68
 Basis Dimension        Dim             ....  339

ORBITAL ENERGIES
----------------

  NO   OCC          E(Eh)            E(eV)
   0   2.0000     -20.567355      -559.6662
   1   2.0000     -20.555271      -559.3374
   2   2.0000     -11.332826      -308.3819
   3   2.0000     -11.292954      -307.2969
   4   2.0000     -11.256126      -306.2947
   5   2.0000     -11.254335      -306.2460
   6   2.0000     -11.248331      -306.0826
   7   2.0000     -11.245136      -305.9957
   8   2.0000     -11.223485      -305.4066
   9   2.0000      -1.403964       -38.2038
  10   2.0000      -1.369725       -37.2721
  11   2.0000      -1.202909       -32.7328
  12   2.0000      -1.010599       -27.4998
  13   2.0000      -0.962590       -26.1934
  14   2.0000      -0.920318       -25.0431
  15   2.0000      -0.885744       -24.1023
  16   2.0000      -0.759020       -20.6540
  17   2.0000      -0.752986       -20.4898
  18   2.0000      -0.693400       -18.8684
  19   2.0000      -0.671333       -18.2679
  20   2.0000      -0.666454       -18.1351
  21   2.0000      -0.627882       -17.0855
  22   2.0000      -0.594242       -16.1701
  23   2.0000      -0.586073       -15.9479
  24   2.0000      -0.569654       -15.5011
  25   2.0000      -0.550979       -14.9929
  26   2.0000      -0.549800       -14.9608
  27   2.0000      -0.529409       -14.4060
  28   2.0000      -0.524024       -14.2594
  29   2.0000      -0.469915       -12.7870
  30   2.0000      -0.466172       -12.6852
  31   2.0000      -0.453790       -12.3483
  32   2.0000      -0.444465       -12.0945
  33   2.0000      -0.391098       -10.6423
  34   0.0000       0.129425         3.5218
  35   0.0000       0.139561         3.7976
  36   0.0000       0.156863         4.2685
  37   0.0000       0.160651         4.3715
  38   0.0000       0.170734         4.6459

MULLIKEN ATOMIC CHARGES
-----------------------
   0 C :   -0.398752
   1 C :    0.122378
   2 C :   -0.305109
   3 C :    0.001934
   4 C :   -0.296207
   5 C :    0.060519
   6 O :   -0.270281
   7 C :    0.044148
   8 O :   -0.479045
   9 H :    0.129101
  10 H :    0.132126
  11 H :    0.155961
  12 H :    0.132565
  13 H :    0.128506
  14 H :    0.139804
  15 H :    0.127612
  16 H :    0.138172
  17 H :    0.104977
  18 H :    0.331592
Sum of atomic charges:    0.0000000

LOEWDIN ATOMIC CHARGES
----------------------
   0 C :   -0.269735
   1 C :   -0.247440
   2 C :   -0.161396
   3 C :   -0.165264
   4 C :   -0.154372
   5 C :   -0.290852
   6 O :    0.150581
   7 C :   -0.273072
   8 O :   -0.004182
   9 H :    0.126871
  10 H :    0.130353
  11 H :    0.136420
  12 H :    0.131720
  13 H :    0.143893
  14 H :    0.139765
  15 H :    0.142297
  16 H :    0.135616
  17 H :    0.143071
  18 H :    0.185725

  Mayer bond orders larger than 0.1
B(  0-C ,  1-C ) :   0.8577 B(  0-C ,  9-H ) :   0.9400 B(  0-C , 10-H ) :   0.9358
B(  0-C , 11-H ) :   0.9424 B(  1-C ,  2-C ) :   0.8750 B(  1-C ,  4-C ) :   0.8807
B(  1-C ,  7-C ) :   0.8536 B(  1-C ,  8-O ) :  -0.1053 B(  2-C ,  3-C ) :   0.8804
B(  2-C , 12-H ) :   0.9224 B(  2-C , 13-H ) :   0.9106 B(  3-C ,  4-C ) :   0.8997
B(  3-C ,  5-C ) :   0.8438 B(  3-C ,  7-C ) :  -0.1412 B(  3-C , 14-H ) :   0.9095
B(  4-C , 15-H ) :   0.9169 B(  4-C , 16-H ) :   0.9142 B(  5-C ,  6-O ) :   2.0459
B(  5-C ,  7-C ) :   0.8877 B(  7-C ,  8-O ) :   1.0298 B(  7-C , 17-H ) :   0.9404
B(  8-O , 18-H ) :   0.8279

MP2 TOTAL ENERGY:     -422.337572537 Eh
FINAL SINGLE POINT ENERGY      -422.337572537308

DIPOLE MOMENT
-------------
                                X             Y             Z
Electronic contribution:     -4.32374      -6.67641       0.26876
Nuclear contribution   :      5.08380       7.20949      -0.51353
                        -----------------------------------------
Total Dipole Moment    :      0.76007       0.53308      -0.24477
                        -----------------------------------------
Magnitude (a.u.)       :      0.96010
Magnitude (Debye)      :      2.44037

                             ****ORCA TERMINATED NORMALLY****
TOTAL RUN TIME: 0 days 0 hours 21 minutes 15 seconds 912 msec
