                         Program Version 3.0.3 - RELEASE   -
|  1> ! RI-MP2 RIJK def2-TZVP def2-TZVP/C def2-TZVP/JK TIGHTSCF
|  2> % maxcore 2000
|  3> % mp2 density relaxed end
|  4> *xyz 0 1
|  5>  C        0.3761959032     1.6081342814    -0.1393096011
|  6>  C       -0.0244778189     0.1331460898     0.0359755354
|  7>  C        0.4072754252    -0.7800051094    -1.1494993451
|  8>  C        1.6733033069    -1.5399320462    -0.6694112138
|  9>  C        1.6071826896    -1.4028453807     0.8263410805
| 10>  C        0.6845637877    -0.5100252652     1.2140205299
| 11>  C        0.4173507805    -0.1723659989     2.6133186725
| 12>  O       -0.3930532666     0.6524530446     2.9789716186
| 13>  H        1.4546438155     1.7074655717    -0.3073021718
| 14>  H       -0.1410916617     2.0475794457    -0.9984068903
| 15>  H        0.1141012717     2.1846710284     0.7511986820
| 16>  H       -1.1092629041     0.0976706732     0.1832142018
| 17>  H       -0.3854737498    -1.5017430969    -1.3678576494
| 18>  H        0.5837288849    -0.2091766695    -2.0649284323
| 19>  H        1.6913173995    -2.5864381924    -0.9941780278
| 20>  H        2.6029087463    -1.0926554393    -1.0493474545
| 21>  H        2.2554459800    -1.9507153569     1.5040000413
| 22>  H        1.0229964601    -0.7460085693     3.3512077541
| 23> *
| 24>
| 25>                          ****END OF INPUT****

CARTESIAN COORDINATES (ANGSTROEM)
---------------------------------
  C      0.376196    1.608134   -0.139310
  C     -0.024478    0.133146    0.035976
  C      0.407275   -0.780005   -1.149499
  C      1.673303   -1.539932   -0.669411
  C      1.607183   -1.402845    0.826341
  C      0.684564   -0.510025    1.214021
  C      0.417351   -0.172366    2.613319
  O     -0.393053    0.652453    2.978972
  H      1.454644    1.707466   -0.307302
  H     -0.141092    2.047579   -0.998407
  H      0.114101    2.184671    0.751199
  H     -1.109263    0.097671    0.183214
  H     -0.385474   -1.501743   -1.367858
  H      0.583729   -0.209177   -2.064928
  H      1.691317   -2.586438   -0.994178
  H      2.602909   -1.092655   -1.049347
  H      2.255446   -1.950715    1.504000
  H      1.022996   -0.746009    3.351208

 Total Charge           Charge          ....    0
 Multiplicity           Mult            ....    1
 Number of Electrons    NEL             ....   60
 Basis Dimension        Dim             ....  308

ORBITAL ENERGIES
----------------

  NO   OCC          E(Eh)            E(eV)
   0   2.0000     -20.548107      -559.1424
   1   2.0000     -11.327781      -308.2446
   2   2.0000     -11.258959      -306.3718
   3   2.0000     -11.241284      -305.8909
   4   2.0000     -11.237657      -305.7922
   5   2.0000     -11.235997      -305.7470
   6   2.0000     -11.229696      -305.5756
   7   2.0000     -11.212090      -305.0965
   8   2.0000      -1.384426       -37.6721
   9   2.0000      -1.156542       -31.4711
  10   2.0000      -1.017440       -27.6860
  11   2.0000      -1.004600       -27.3366
  12   2.0000      -0.902834       -24.5674
  13   2.0000      -0.844925       -22.9916
  14   2.0000      -0.790115       -21.5001
  15   2.0000      -0.725471       -19.7411
  16   2.0000      -0.692912       -18.8551
  17   2.0000      -0.643120       -17.5002
  18   2.0000      -0.640561       -17.4306
  19   2.0000      -0.583338       -15.8734
  20   2.0000      -0.568180       -15.4610
  21   2.0000      -0.561700       -15.2846
  22   2.0000      -0.538989       -14.6666
  23   2.0000      -0.529389       -14.4054
  24   2.0000      -0.505013       -13.7421
  25   2.0000      -0.491386       -13.3713
  26   2.0000      -0.480130       -13.0650
  27   2.0000      -0.467848       -12.7308
  28   2.0000      -0.418920       -11.3994
  29   2.0000      -0.362338        -9.8597
  30   0.0000       0.088196         2.3999
  31   0.0000       0.131240         3.5712
  32   0.0000       0.156781         4.2662
  33   0.0000       0.163737         4.4555
  34   0.0000       0.172102         4.6831

MULLIKEN ATOMIC CHARGES
-----------------------
   0 C :   -0.453911
   1 C :    0.032987
   2 C :   -0.251782
   3 C :   -0.193385
   4 C :   -0.156647
   5 C :    0.006532
   6 C :    0.051717
   7 O :   -0.287923
   8 H :    0.122624
   9 H :    0.131260
  10 H :    0.158411
  11 H :    0.110460
  12 H :    0.123250
  13 H :    0.128973
  14 H :    0.131448
  15 H :    0.126743
  16 H :    0.139849
  17 H :    0.079397
Sum of atomic charges:    0.0000000

LOEWDIN ATOMIC CHARGES
----------------------
   0 C :   -0.285046
   1 C :   -0.219237
   2 C :   -0.211111
   3 C :   -0.237877
   4 C :   -0.089567
   5 C :   -0.158165
   6 C :   -0.274168
   7 O :    0.122720
   8 H :    0.123412
   9 H :    0.122711
  10 H :    0.130019
  11 H :    0.157261
  12 H :    0.138633
  13 H :    0.135574
  14 H :    0.140422
  15 H :    0.145130
  16 H :    0.142477
  17 H :    0.116813

  Mayer bond orders larger than 0.1
B(  0-C ,  1-C ) :   0.8801 B(  0-C ,  8-H ) :   0.9335 B(  0-C ,  9-H ) :   0.9351
B(  0-C , 10-H ) :   0.9375 B(  1-C ,  2-C ) :   0.8948 B(  1-C ,  5-C ) :   0.8861
B(  1-C , 11-H ) :   0.9270 B(  2-C ,  3-C ) :   0.9538 B(  2-C , 12-H ) :   0.9330
B(  2-C , 13-H ) :   0.9411 B(  3-C ,  4-C ) :   0.9398 B(  3-C , 14-H ) :   0.9299
B(  3-C , 15-H ) :   0.9057 B(  4-C ,  5-C ) :   1.6542 B(  4-C , 16-H ) :   0.9159
B(  5-C ,  6-C ) :   0.8888 B(  5-C , 17-H ) :  -0.1046 B(  6-C ,  7-O ) :   1.9626
B(  6-C , 17-H ) :   0.9819

MP2 TOTAL ENERGY:     -347.223988740 Eh
FINAL SINGLE POINT ENERGY      -347.223988739831

DIPOLE MOMENT
-------------
                                X             Y             Z
Electronic contribution:     -1.46116      -0.81893       6.86703
Nuclear contribution   :      2.15656       0.10211      -7.66575
                        -----------------------------------------
Total Dipole Moment    :      0.69540      -0.71683      -0.79871
                        -----------------------------------------
Magnitude (a.u.)       :      1.27881
Magnitude (Debye)      :      3.25049

                             ****ORCA TERMINATED NORMALLY****
TOTAL RUN TIME: 0 days 0 hours 13 minutes 8 seconds 37 msec
