                         Program Version 3.0.3 - RELEASE   -
|  1> ! RI-MP2 RIJK def2-TZVP def2-TZVP/C def2-TZVP/JK TIGHTSCF
|  2> % maxcore 2000
|  3> % mp2 density relaxed end
|  4> *xyz 0 1
|  5>  O       -0.0920534304     1.4263868466     0.0163268864
|  6>  C        0.0051114537     0.0494567801    -0.0247026286
|  7>  C       -0.1740936061    -0.8240012963     1.1984479127
|  8>  C       -1.1292379382    -0.9760300425     0.0419156070
|  9>  O       -2.4927285092    -0.8644836650     0.2303550905
| 10>  C       -0.4718029523    -1.7690926882    -1.0705662010
| 11>  C       -0.5349279970    -3.2218263382    -1.3199626138
| 12>  N       -1.1853165265    -2.2576852845    -2.2443487004
| 13>  C        0.6792412552    -0.7417815707    -1.1605062264
| 14>  H        0.6179233665     1.7705353779     0.5691227545
| 15>  H        0.5361733686    -1.6052752569     1.4615377082
| 16>  H       -0.6219675230    -0.2994677603     2.0375559523
| 17>  H       -2.8417987838    -0.2651670709    -0.4393691401
| 18>  H        0.3174222716    -3.7451826716    -1.7447418784
| 19>  H       -1.1655574339    -3.8256123740    -0.6719175812
| 20>  H       -2.1861888313    -2.2403161499    -2.0501551372
| 21>  H        0.6488518135    -0.2038184126    -2.1110064855
| 22>  H        1.6932320625    -1.1097715832    -0.9721106289
| 23> *
| 24>
| 25>                          ****END OF INPUT****

CARTESIAN COORDINATES (ANGSTROEM)
---------------------------------
  O     -0.092053    1.426387    0.016327
  C      0.005111    0.049457   -0.024703
  C     -0.174094   -0.824001    1.198448
  C     -1.129238   -0.976030    0.041916
  O     -2.492729   -0.864484    0.230355
  C     -0.471803   -1.769093   -1.070566
  C     -0.534928   -3.221826   -1.319963
  N     -1.185317   -2.257685   -2.244349
  C      0.679241   -0.741782   -1.160506
  H      0.617923    1.770535    0.569123
  H      0.536173   -1.605275    1.461538
  H     -0.621968   -0.299468    2.037556
  H     -2.841799   -0.265167   -0.439369
  H      0.317422   -3.745183   -1.744742
  H     -1.165557   -3.825612   -0.671918
  H     -2.186189   -2.240316   -2.050155
  H      0.648852   -0.203818   -2.111006
  H      1.693232   -1.109772   -0.972111

 Total Charge           Charge          ....    0
 Multiplicity           Mult            ....    1
 Number of Electrons    NEL             ....   68
 Basis Dimension        Dim             ....  333

ORBITAL ENERGIES
----------------

  NO   OCC          E(Eh)            E(eV)
   0   2.0000     -20.579846      -560.0061
   1   2.0000     -20.577223      -559.9347
   2   2.0000     -15.557828      -423.3500
   3   2.0000     -11.296623      -307.3967
   4   2.0000     -11.293903      -307.3227
   5   2.0000     -11.269067      -306.6469
   6   2.0000     -11.253027      -306.2104
   7   2.0000     -11.234245      -305.6994
   8   2.0000     -11.231507      -305.6249
   9   2.0000      -1.397360       -38.0241
  10   2.0000      -1.380967       -37.5780
  11   2.0000      -1.265495       -34.4359
  12   2.0000      -1.167353       -31.7653
  13   2.0000      -0.979329       -26.6489
  14   2.0000      -0.887960       -24.1626
  15   2.0000      -0.858468       -23.3601
  16   2.0000      -0.811819       -22.0907
  17   2.0000      -0.758816       -20.6484
  18   2.0000      -0.732059       -19.9203
  19   2.0000      -0.691290       -18.8110
  20   2.0000      -0.658585       -17.9210
  21   2.0000      -0.628184       -17.0938
  22   2.0000      -0.618640       -16.8340
  23   2.0000      -0.599964       -16.3258
  24   2.0000      -0.593914       -16.1612
  25   2.0000      -0.548881       -14.9358
  26   2.0000      -0.536247       -14.5920
  27   2.0000      -0.531280       -14.4569
  28   2.0000      -0.488383       -13.2896
  29   2.0000      -0.476820       -12.9749
  30   2.0000      -0.458427       -12.4744
  31   2.0000      -0.409966       -11.1557
  32   2.0000      -0.391207       -10.6453
  33   2.0000      -0.361048        -9.8246
  34   0.0000       0.125094         3.4040
  35   0.0000       0.143787         3.9126
  36   0.0000       0.159869         4.3503
  37   0.0000       0.179665         4.8889
  38   0.0000       0.183769         5.0006

MULLIKEN ATOMIC CHARGES
-----------------------
   0 O :   -0.443626
   1 C :    0.094645
   2 C :   -0.267453
   3 C :    0.123947
   4 O :   -0.459166
   5 C :    0.041971
   6 C :   -0.220094
   7 N :   -0.375633
   8 C :   -0.126056
   9 H :    0.332804
  10 H :    0.130845
  11 H :    0.130845
  12 H :    0.340402
  13 H :    0.122404
  14 H :    0.134296
  15 H :    0.216875
  16 H :    0.107767
  17 H :    0.115229
Sum of atomic charges:   -0.0000000

LOEWDIN ATOMIC CHARGES
----------------------
   0 O :    0.031683
   1 C :   -0.316669
   2 C :   -0.168327
   3 C :   -0.297453
   4 O :    0.040874
   5 C :   -0.262490
   6 C :   -0.238792
   7 N :    0.005129
   8 C :   -0.151363
   9 H :    0.187638
  10 H :    0.132093
  11 H :    0.148748
  12 H :    0.192587
  13 H :    0.126580
  14 H :    0.126450
  15 H :    0.166105
  16 H :    0.147037
  17 H :    0.130173

  Mayer bond orders larger than 0.1
B(  0-O ,  1-C ) :   1.0919 B(  0-O ,  9-H ) :   0.8328 B(  1-C ,  2-C ) :   0.9241
B(  1-C ,  3-C ) :   0.7935 B(  1-C ,  8-C ) :   0.9683 B(  2-C ,  3-C ) :   0.8694
B(  2-C , 10-H ) :   0.9008 B(  2-C , 11-H ) :   0.9154 B(  3-C ,  4-O ) :   1.0851
B(  3-C ,  5-C ) :   0.8970 B(  4-O , 12-H ) :   0.8303 B(  5-C ,  6-C ) :   0.9147
B(  5-C ,  7-N ) :   0.9159 B(  5-C ,  8-C ) :   0.8982 B(  6-C ,  7-N ) :   0.9565
B(  6-C , 13-H ) :   0.9164 B(  6-C , 14-H ) :   0.9184 B(  7-N , 15-H ) :   0.8696
B(  8-C , 16-H ) :   0.8803 B(  8-C , 17-H ) :   0.8904

MP2 TOTAL ENERGY:     -438.297802306 Eh
FINAL SINGLE POINT ENERGY      -438.297802306106

DIPOLE MOMENT
-------------
                                X             Y             Z
Electronic contribution:     -2.09102       2.65486       0.23316
Nuclear contribution   :      2.50776      -2.53790       0.27995
                        -----------------------------------------
Total Dipole Moment    :      0.41673       0.11697       0.51311
                        -----------------------------------------
Magnitude (a.u.)       :      0.67129
Magnitude (Debye)      :      1.70628

                             ****ORCA TERMINATED NORMALLY****
TOTAL RUN TIME: 0 days 0 hours 14 minutes 37 seconds 250 msec
