                         Program Version 3.0.3 - RELEASE   -
|  1> ! RI-MP2 RIJK def2-TZVP def2-TZVP/C def2-TZVP/JK TIGHTSCF
|  2> % maxcore 2000
|  3> % mp2 density relaxed end
|  4> *xyz 0 1
|  5>  C       -0.2306117318     1.5343003903    -0.0203897338
|  6>  C       -0.0196528450     0.0183668409    -0.0105159625
|  7>  C        0.7278644033    -0.4904839790    -1.2474844514
|  8>  C        0.9137653054    -2.0127856765    -1.2504508891
|  9>  O       -0.3617072532    -2.6612556859    -1.1999377547
| 10>  C       -0.4918067051    -3.5902621971    -2.2722479337
| 11>  C        0.7778339652    -3.4560399772    -3.0593938710
| 12>  C        1.5875854016    -2.5690744767    -2.4874149081
| 13>  C        2.9593671946    -2.1510950879    -2.9100807034
| 14>  H        0.7247415258     2.0705844077    -0.0561242193
| 15>  H       -0.8157872721     1.8471843389    -0.8924815695
| 16>  H       -0.7653273036     1.8679717734     0.8745696671
| 17>  H        0.5384693134    -0.2696497457     0.8906463198
| 18>  H       -0.9846939032    -0.4954193272     0.0493265174
| 19>  H        0.1852034656    -0.2045899823    -2.1581231613
| 20>  H        1.7168944686    -0.0152282752    -1.3019676539
| 21>  H        1.4869166481    -2.2904081042    -0.3459830894
| 22>  H       -0.6311042036    -4.6089186531    -1.8736859199
| 23>  H       -1.3910463935    -3.3525043441    -2.8622282850
| 24>  H        0.9827779726    -4.0280898422    -3.9563998730
| 25>  H        3.2894508866    -2.7028375997    -3.7939018247
| 26>  H        3.0004088907    -1.0806170509    -3.1441423893
| 27>  H        3.6888776995    -2.3238270164    -2.1085665312
| 28> *
| 29>
| 30>                          ****END OF INPUT****

CARTESIAN COORDINATES (ANGSTROEM)
---------------------------------
  C     -0.230612    1.534300   -0.020390
  C     -0.019653    0.018367   -0.010516
  C      0.727864   -0.490484   -1.247484
  C      0.913765   -2.012786   -1.250451
  O     -0.361707   -2.661256   -1.199938
  C     -0.491807   -3.590262   -2.272248
  C      0.777834   -3.456040   -3.059394
  C      1.587585   -2.569074   -2.487415
  C      2.959367   -2.151095   -2.910081
  H      0.724742    2.070584   -0.056124
  H     -0.815787    1.847184   -0.892482
  H     -0.765327    1.867972    0.874570
  H      0.538469   -0.269650    0.890646
  H     -0.984694   -0.495419    0.049327
  H      0.185203   -0.204590   -2.158123
  H      1.716894   -0.015228   -1.301968
  H      1.486917   -2.290408   -0.345983
  H     -0.631104   -4.608919   -1.873686
  H     -1.391046   -3.352504   -2.862228
  H      0.982778   -4.028090   -3.956400
  H      3.289451   -2.702838   -3.793902
  H      3.000409   -1.080617   -3.144142
  H      3.688878   -2.323827   -2.108567

 Total Charge           Charge          ....    0
 Multiplicity           Mult            ....    1
 Number of Electrons    NEL             ....   70
 Basis Dimension        Dim             ....  363

ORBITAL ENERGIES
----------------

  NO   OCC          E(Eh)            E(eV)
   0   2.0000     -20.543402      -559.0144
   1   2.0000     -11.276808      -306.8575
   2   2.0000     -11.272614      -306.7434
   3   2.0000     -11.234045      -305.6939
   4   2.0000     -11.229676      -305.5750
   5   2.0000     -11.221134      -305.3426
   6   2.0000     -11.215312      -305.1842
   7   2.0000     -11.211137      -305.0706
   8   2.0000     -11.207738      -304.9781
   9   2.0000      -1.369893       -37.2767
  10   2.0000      -1.092453       -29.7272
  11   2.0000      -1.063277       -28.9332
  12   2.0000      -0.998032       -27.1578
  13   2.0000      -0.954680       -25.9782
  14   2.0000      -0.897711       -24.4280
  15   2.0000      -0.822207       -22.3734
  16   2.0000      -0.776910       -21.1408
  17   2.0000      -0.735517       -20.0144
  18   2.0000      -0.671410       -18.2700
  19   2.0000      -0.653566       -17.7844
  20   2.0000      -0.621683       -16.9169
  21   2.0000      -0.594337       -16.1727
  22   2.0000      -0.581318       -15.8185
  23   2.0000      -0.576621       -15.6907
  24   2.0000      -0.566326       -15.4105
  25   2.0000      -0.543598       -14.7921
  26   2.0000      -0.536489       -14.5986
  27   2.0000      -0.520096       -14.1525
  28   2.0000      -0.505680       -13.7602
  29   2.0000      -0.484463       -13.1829
  30   2.0000      -0.477168       -12.9844
  31   2.0000      -0.461205       -12.5500
  32   2.0000      -0.448418       -12.2021
  33   2.0000      -0.422260       -11.4903
  34   2.0000      -0.339015        -9.2251
  35   0.0000       0.135318         3.6822
  36   0.0000       0.152072         4.1381
  37   0.0000       0.158872         4.3231
  38   0.0000       0.163986         4.4623
  39   0.0000       0.179412         4.8821

MULLIKEN ATOMIC CHARGES
-----------------------
   0 C :   -0.383900
   1 C :   -0.185595
   2 C :   -0.267748
   3 C :    0.145368
   4 O :   -0.340174
   5 C :    0.021810
   6 C :   -0.220849
   7 C :    0.005932
   8 C :   -0.443091
   9 H :    0.116779
  10 H :    0.122567
  11 H :    0.132817
  12 H :    0.098233
  13 H :    0.129328
  14 H :    0.112968
  15 H :    0.100746
  16 H :    0.088147
  17 H :    0.101568
  18 H :    0.102309
  19 H :    0.129389
  20 H :    0.141029
  21 H :    0.149462
  22 H :    0.142903
Sum of atomic charges:   -0.0000000

LOEWDIN ATOMIC CHARGES
----------------------
   0 C :   -0.322966
   1 C :   -0.293899
   2 C :   -0.246752
   3 C :   -0.266170
   4 O :    0.171711
   5 C :   -0.288228
   6 C :   -0.148630
   7 C :   -0.178339
   8 C :   -0.270211
   9 H :    0.118197
  10 H :    0.120030
  11 H :    0.120220
  12 H :    0.133989
  13 H :    0.140379
  14 H :    0.141753
  15 H :    0.139367
  16 H :    0.143807
  17 H :    0.124154
  18 H :    0.124292
  19 H :    0.139922
  20 H :    0.131973
  21 H :    0.132024
  22 H :    0.133376

  Mayer bond orders larger than 0.1
B(  0-C ,  1-C ) :   0.9131 B(  0-C ,  9-H ) :   0.9386 B(  0-C , 10-H ) :   0.9405
B(  0-C , 11-H ) :   0.9442 B(  1-C ,  2-C ) :   0.9342 B(  1-C , 12-H ) :   0.9294
B(  1-C , 13-H ) :   0.9360 B(  2-C ,  3-C ) :   0.9016 B(  2-C , 14-H ) :   0.9251
B(  2-C , 15-H ) :   0.9256 B(  3-C ,  4-O ) :   0.9163 B(  3-C ,  7-C ) :   0.9285
B(  3-C , 16-H ) :   0.9049 B(  4-O ,  5-C ) :   0.9391 B(  5-C ,  6-C ) :   0.9813
B(  5-C , 17-H ) :   0.9200 B(  5-C , 18-H ) :   0.9108 B(  6-C ,  7-C ) :   1.7687
B(  6-C , 19-H ) :   0.9142 B(  7-C ,  8-C ) :   0.8793 B(  8-C , 20-H ) :   0.9433
B(  8-C , 21-H ) :   0.9321 B(  8-C , 22-H ) :   0.9330

MP2 TOTAL ENERGY:     -387.622929341 Eh
FINAL SINGLE POINT ENERGY      -387.622929341149

DIPOLE MOMENT
-------------
                                X             Y             Z
Electronic contribution:     -1.50333      -7.38840      -1.77405
Nuclear contribution   :      1.99408       7.32643       1.34596
                        -----------------------------------------
Total Dipole Moment    :      0.49075      -0.06197      -0.42809
                        -----------------------------------------
Magnitude (a.u.)       :      0.65417
Magnitude (Debye)      :      1.66276

                             ****ORCA TERMINATED NORMALLY****
TOTAL RUN TIME: 0 days 0 hours 19 minutes 46 seconds 96 msec
