                         Program Version 3.0.3 - RELEASE   -
|  1> ! RI-MP2 RIJK def2-TZVP def2-TZVP/C def2-TZVP/JK TIGHTSCF
|  2> % maxcore 2000
|  3> % mp2 density relaxed end
|  4> *xyz 0 1
|  5>  C       -0.0192605439     1.5527463858     0.0121420753
|  6>  C        0.0195938062     0.0225550063     0.0119209065
|  7>  C        0.7594641161    -0.5490050070     1.2248903633
|  8>  C        0.8106756726    -2.0658195566     1.2374408150
|  9>  O        1.5377157526    -2.5029145029     0.1104875414
| 10>  C        1.6277549065    -3.9195794090     0.0538377815
| 11>  C        2.2636985504    -4.4638435625     1.3346053603
| 12>  C        1.5004237466    -3.8947447671     2.5326601563
| 13>  O        1.4153066901    -2.4794055065     2.4416078455
| 14>  H        0.9921425489     1.9738418030    -0.0037934462
| 15>  H       -0.5533320701     1.9373864643    -0.8623332329
| 16>  H       -0.5221370957     1.9386386161     0.9061340978
| 17>  H       -1.0062954039    -0.3695176897    -0.0061805036
| 18>  H        0.5025450265    -0.3402184042    -0.9013372275
| 19>  H        1.7922513609    -0.1827971031     1.2523316101
| 20>  H        0.2793337074    -0.2278983113     2.1560991359
| 21>  H       -0.2092842658    -2.5012220681     1.1868472948
| 22>  H        0.6219053762    -4.3536445521    -0.0816627451
| 23>  H        2.2208407486    -4.1593323955    -0.8326599766
| 24>  H        2.2381899200    -5.5592974871     1.3446186905
| 25>  H        3.3094604131    -4.1432375990     1.3848096125
| 26>  H        0.4860532476    -4.3287451219     2.5728191505
| 27>  H        1.9996758489    -4.1168435618     3.4794701346
| 28> *
| 29>
| 30>                          ****END OF INPUT****

CARTESIAN COORDINATES (ANGSTROEM)
---------------------------------
  C     -0.019261    1.552746    0.012142
  C      0.019594    0.022555    0.011921
  C      0.759464   -0.549005    1.224890
  C      0.810676   -2.065820    1.237441
  O      1.537716   -2.502915    0.110488
  C      1.627755   -3.919579    0.053838
  C      2.263699   -4.463844    1.334605
  C      1.500424   -3.894745    2.532660
  O      1.415307   -2.479406    2.441608
  H      0.992143    1.973842   -0.003793
  H     -0.553332    1.937386   -0.862333
  H     -0.522137    1.938639    0.906134
  H     -1.006295   -0.369518   -0.006181
  H      0.502545   -0.340218   -0.901337
  H      1.792251   -0.182797    1.252332
  H      0.279334   -0.227898    2.156099
  H     -0.209284   -2.501222    1.186847
  H      0.621905   -4.353645   -0.081663
  H      2.220841   -4.159332   -0.832660
  H      2.238190   -5.559297    1.344619
  H      3.309460   -4.143238    1.384810
  H      0.486053   -4.328745    2.572819
  H      1.999676   -4.116844    3.479470

 Total Charge           Charge          ....    0
 Multiplicity           Mult            ....    1
 Number of Electrons    NEL             ....   72
 Basis Dimension        Dim             ....  363

ORBITAL ENERGIES
----------------

  NO   OCC          E(Eh)            E(eV)
   0   2.0000     -20.555957      -559.3560
   1   2.0000     -20.555717      -559.3495
   2   2.0000     -11.325004      -308.1690
   3   2.0000     -11.278784      -306.9113
   4   2.0000     -11.278507      -306.9038
   5   2.0000     -11.226758      -305.4956
   6   2.0000     -11.213690      -305.1400
   7   2.0000     -11.212166      -305.0986
   8   2.0000     -11.208234      -304.9915
   9   2.0000      -1.418991       -38.6127
  10   2.0000      -1.340662       -36.4813
  11   2.0000      -1.082884       -29.4668
  12   2.0000      -1.042329       -28.3632
  13   2.0000      -0.958749       -26.0889
  14   2.0000      -0.915210       -24.9041
  15   2.0000      -0.861756       -23.4496
  16   2.0000      -0.796583       -21.6761
  17   2.0000      -0.792458       -21.5639
  18   2.0000      -0.682939       -18.5837
  19   2.0000      -0.673374       -18.3234
  20   2.0000      -0.658502       -17.9188
  21   2.0000      -0.628034       -17.0897
  22   2.0000      -0.618344       -16.8260
  23   2.0000      -0.606603       -16.5065
  24   2.0000      -0.575212       -15.6523
  25   2.0000      -0.564374       -15.3574
  26   2.0000      -0.547628       -14.9017
  27   2.0000      -0.525126       -14.2894
  28   2.0000      -0.508579       -13.8391
  29   2.0000      -0.498754       -13.5718
  30   2.0000      -0.479890       -13.0585
  31   2.0000      -0.470780       -12.8106
  32   2.0000      -0.465428       -12.6649
  33   2.0000      -0.453984       -12.3535
  34   2.0000      -0.428112       -11.6495
  35   2.0000      -0.422596       -11.4994
  36   0.0000       0.142664         3.8821
  37   0.0000       0.147744         4.0203
  38   0.0000       0.159211         4.3324
  39   0.0000       0.178357         4.8533
  40   0.0000       0.187472         5.1014

MULLIKEN ATOMIC CHARGES
-----------------------
   0 C :   -0.385836
   1 C :   -0.212118
   2 C :   -0.176029
   3 C :    0.140169
   4 O :   -0.287444
   5 C :   -0.076577
   6 C :   -0.196281
   7 C :   -0.081535
   8 O :   -0.282719
   9 H :    0.124584
  10 H :    0.132168
  11 H :    0.120090
  12 H :    0.097192
  13 H :    0.126711
  14 H :    0.110668
  15 H :    0.118576
  16 H :    0.058005
  17 H :    0.093355
  18 H :    0.129691
  19 H :    0.113683
  20 H :    0.109359
  21 H :    0.094563
  22 H :    0.129724
Sum of atomic charges:    0.0000000

LOEWDIN ATOMIC CHARGES
----------------------
   0 C :   -0.321276
   1 C :   -0.293569
   2 C :   -0.245657
   3 C :   -0.414070
   4 O :    0.181644
   5 C :   -0.316967
   6 C :   -0.278738
   7 C :   -0.317440
   8 O :    0.179738
   9 H :    0.120882
  10 H :    0.119992
  11 H :    0.119336
  12 H :    0.133336
  13 H :    0.138944
  14 H :    0.146038
  15 H :    0.144919
  16 H :    0.122997
  17 H :    0.120228
  18 H :    0.129240
  19 H :    0.140137
  20 H :    0.140835
  21 H :    0.120112
  22 H :    0.129339

  Mayer bond orders larger than 0.1
B(  0-C ,  1-C ) :   0.9158 B(  0-C ,  9-H ) :   0.9405 B(  0-C , 10-H ) :   0.9444
B(  0-C , 11-H ) :   0.9385 B(  1-C ,  2-C ) :   0.9283 B(  1-C , 12-H ) :   0.9306
B(  1-C , 13-H ) :   0.9309 B(  2-C ,  3-C ) :   0.9398 B(  2-C , 14-H ) :   0.9173
B(  2-C , 15-H ) :   0.9290 B(  3-C ,  4-O ) :   0.9804 B(  3-C ,  8-O ) :   1.0153
B(  3-C , 16-H ) :   0.9290 B(  4-O ,  5-C ) :   0.9203 B(  5-C ,  6-C ) :   0.9425
B(  5-C , 17-H ) :   0.9349 B(  5-C , 18-H ) :   0.9311 B(  6-C ,  7-C ) :   0.9388
B(  6-C , 19-H ) :   0.9201 B(  6-C , 20-H ) :   0.9125 B(  7-C ,  8-O ) :   0.9210
B(  7-C , 21-H ) :   0.9367 B(  7-C , 22-H ) :   0.9311

MP2 TOTAL ENERGY:     -424.738019043 Eh
FINAL SINGLE POINT ENERGY      -424.738019042602

DIPOLE MOMENT
-------------
                                X             Y             Z
Electronic contribution:      2.80374      -4.42114       2.12829
Nuclear contribution   :     -3.02788       3.72896      -2.17644
                        -----------------------------------------
Total Dipole Moment    :     -0.22414      -0.69218      -0.04816
                        -----------------------------------------
Magnitude (a.u.)       :      0.72916
Magnitude (Debye)      :      1.85337

                             ****ORCA TERMINATED NORMALLY****
TOTAL RUN TIME: 0 days 0 hours 17 minutes 25 seconds 390 msec
