                         Program Version 3.0.3 - RELEASE   -
|  1> ! RI-MP2 RIJK def2-TZVP def2-TZVP/C def2-TZVP/JK TIGHTSCF
|  2> % maxcore 2000
|  3> % mp2 density relaxed end
|  4> *xyz 0 1
|  5>  C       -0.0873939506     1.5517479139    -0.0010947342
|  6>  C        0.0424618652     0.0291477134    -0.0114252647
|  7>  C        0.8065388208    -0.5175353074    -1.2323695307
|  8>  O        0.8299409798    -1.9322131061    -1.2268697067
|  9>  C        1.6367649941    -2.4589074107    -0.1952698861
| 10>  C        1.2429786954    -1.9609822080     1.1950200316
| 11>  O        1.4119143535    -2.6107120618     2.1930031654
| 12>  C        0.6673656178    -0.5125069156     1.2673802385
| 13>  O        0.7588447204     0.1098253917     2.2946370331
| 14>  H        0.8980112850     2.0287551368    -0.0094298479
| 15>  H       -0.6448808874     1.8995439133    -0.8754113846
| 16>  H       -0.6037709473     1.8851113369     0.9007677040
| 17>  H       -0.9573618630    -0.4310158965    -0.0592425101
| 18>  H        0.3039898081    -0.2176889136    -2.1556694908
| 19>  H        1.8318420529    -0.1103786354    -1.2584039922
| 20>  H        1.5558124246    -3.5478846618    -0.2249473282
| 21>  H        2.6996169808    -2.1927037991    -0.3474106662
| 22> *
| 23>
| 24>                          ****END OF INPUT****

CARTESIAN COORDINATES (ANGSTROEM)
---------------------------------
  C     -0.087394    1.551748   -0.001095
  C      0.042462    0.029148   -0.011425
  C      0.806539   -0.517535   -1.232370
  O      0.829941   -1.932213   -1.226870
  C      1.636765   -2.458907   -0.195270
  C      1.242979   -1.960982    1.195020
  O      1.411914   -2.610712    2.193003
  C      0.667366   -0.512507    1.267380
  O      0.758845    0.109825    2.294637
  H      0.898011    2.028755   -0.009430
  H     -0.644881    1.899544   -0.875411
  H     -0.603771    1.885111    0.900768
  H     -0.957362   -0.431016   -0.059243
  H      0.303990   -0.217689   -2.155669
  H      1.831842   -0.110379   -1.258404
  H      1.555812   -3.547885   -0.224947
  H      2.699617   -2.192704   -0.347411

 Total Charge           Charge          ....    0
 Multiplicity           Mult            ....    1
 Number of Electrons    NEL             ....   68
 Basis Dimension        Dim             ....  327

ORBITAL ENERGIES
----------------

  NO   OCC          E(Eh)            E(eV)
   0   2.0000     -20.591710      -560.3289
   1   2.0000     -20.580608      -560.0268
   2   2.0000     -20.577831      -559.9512
   3   2.0000     -11.354115      -308.9612
   4   2.0000     -11.352545      -308.9185
   5   2.0000     -11.312453      -307.8275
   6   2.0000     -11.309114      -307.7366
   7   2.0000     -11.266504      -306.5771
   8   2.0000     -11.237828      -305.7969
   9   2.0000      -1.435121       -39.0516
  10   2.0000      -1.412900       -38.4470
  11   2.0000      -1.402936       -38.1758
  12   2.0000      -1.104713       -30.0608
  13   2.0000      -1.029544       -28.0153
  14   2.0000      -0.959362       -26.1056
  15   2.0000      -0.888605       -24.1802
  16   2.0000      -0.840487       -22.8708
  17   2.0000      -0.747774       -20.3480
  18   2.0000      -0.709789       -19.3143
  19   2.0000      -0.703314       -19.1382
  20   2.0000      -0.676278       -18.4025
  21   2.0000      -0.670788       -18.2531
  22   2.0000      -0.638053       -17.3623
  23   2.0000      -0.619189       -16.8490
  24   2.0000      -0.597418       -16.2566
  25   2.0000      -0.565873       -15.3982
  26   2.0000      -0.560276       -15.2459
  27   2.0000      -0.553146       -15.0519
  28   2.0000      -0.534842       -14.5538
  29   2.0000      -0.516776       -14.0622
  30   2.0000      -0.503952       -13.7132
  31   2.0000      -0.486890       -13.2490
  32   2.0000      -0.451447       -12.2845
  33   2.0000      -0.402929       -10.9643
  34   0.0000       0.060384         1.6431
  35   0.0000       0.124040         3.3753
  36   0.0000       0.143332         3.9003
  37   0.0000       0.156083         4.2472
  38   0.0000       0.171007         4.6533

MULLIKEN ATOMIC CHARGES
-----------------------
   0 C :   -0.412966
   1 C :   -0.023100
   2 C :   -0.094844
   3 O :   -0.299254
   4 C :   -0.061480
   5 C :    0.127198
   6 O :   -0.228888
   7 C :    0.141859
   8 O :   -0.236221
   9 H :    0.132120
  10 H :    0.140772
  11 H :    0.160741
  12 H :    0.120697
  13 H :    0.139945
  14 H :    0.113997
  15 H :    0.157044
  16 H :    0.122380
Sum of atomic charges:    0.0000000

LOEWDIN ATOMIC CHARGES
----------------------
   0 C :   -0.280973
   1 C :   -0.262202
   2 C :   -0.288068
   3 O :    0.165593
   4 C :   -0.289269
   5 C :   -0.288341
   6 O :    0.199515
   7 C :   -0.271689
   8 O :    0.200687
   9 H :    0.129297
  10 H :    0.126940
  11 H :    0.135362
  12 H :    0.174848
  13 H :    0.137305
  14 H :    0.126825
  15 H :    0.145625
  16 H :    0.138542

  Mayer bond orders larger than 0.1
B(  0-C ,  1-C ) :   0.9105 B(  0-C ,  9-H ) :   0.9262 B(  0-C , 10-H ) :   0.9388
B(  0-C , 11-H ) :   0.9279 B(  1-C ,  2-C ) :   0.8948 B(  1-C ,  7-C ) :   0.8599
B(  1-C , 12-H ) :   0.8841 B(  2-C ,  3-O ) :   0.9115 B(  2-C , 13-H ) :   0.9217
B(  2-C , 14-H ) :   0.9329 B(  3-O ,  4-C ) :   0.9284 B(  4-C ,  5-C ) :   0.8658
B(  4-C , 15-H ) :   0.9150 B(  4-C , 16-H ) :   0.9181 B(  5-C ,  6-O ) :   2.0064
B(  5-C ,  7-C ) :   0.8894 B(  7-C ,  8-O ) :   1.9909

MP2 TOTAL ENERGY:     -458.244536896 Eh
FINAL SINGLE POINT ENERGY      -458.244536896382

DIPOLE MOMENT
-------------
                                X             Y             Z
Electronic contribution:      1.32142      -5.79126       5.92396
Nuclear contribution   :     -1.36684       6.24884      -7.29054
                        -----------------------------------------
Total Dipole Moment    :     -0.04542       0.45758      -1.36658
                        -----------------------------------------
Magnitude (a.u.)       :      1.44187
Magnitude (Debye)      :      3.66494

                             ****ORCA TERMINATED NORMALLY****
TOTAL RUN TIME: 0 days 0 hours 17 minutes 24 seconds 573 msec
