                         Program Version 3.0.3 - RELEASE   -
|  1> ! RI-MP2 RIJK def2-TZVP def2-TZVP/C def2-TZVP/JK TIGHTSCF
|  2> % maxcore 2000
|  3> % mp2 density relaxed end
|  4> *xyz 0 1
|  5>  C       -0.0409385137     1.5692175896     0.1608908409
|  6>  C        0.0868018446     0.0821248597     0.0573924406
|  7>  N       -0.8618325474    -0.8654341413     0.6871527169
|  8>  C        0.5886936377    -0.9362955221     1.0081088400
|  9>  C        1.3006095003    -1.6906013650    -0.1661437857
| 10>  O        0.3268115400    -2.0427025790    -1.1522775657
| 11>  C        0.8125952186    -0.6989804056    -1.1270683685
| 12>  C        1.3742928051    -0.1035749878    -2.3758516040
| 13>  H        0.8954030203     2.0707310000    -0.1076061409
| 14>  H       -0.8250666047     1.9515322481    -0.5034699381
| 15>  H       -0.2942386399     1.8678642204     1.1840601380
| 16>  H       -1.2983561865    -0.3598379140     1.4602237571
| 17>  H        0.9614135674    -0.8249623240     2.0181497953
| 18>  H        2.2166739389    -2.2681047810    -0.1221735547
| 19>  H        0.5729027737     0.1895324512    -3.0637357230
| 20>  H        1.9706212389     0.7877758248    -2.1552931348
| 21>  H        2.0109589469    -0.8314700540    -2.8857801333
| 22> *
| 23>
| 24>                          ****END OF INPUT****

CARTESIAN COORDINATES (ANGSTROEM)
---------------------------------
  C     -0.040939    1.569218    0.160891
  C      0.086802    0.082125    0.057392
  N     -0.861833   -0.865434    0.687153
  C      0.588694   -0.936296    1.008109
  C      1.300610   -1.690601   -0.166144
  O      0.326812   -2.042703   -1.152278
  C      0.812595   -0.698980   -1.127068
  C      1.374293   -0.103575   -2.375852
  H      0.895403    2.070731   -0.107606
  H     -0.825067    1.951532   -0.503470
  H     -0.294239    1.867864    1.184060
  H     -1.298356   -0.359838    1.460224
  H      0.961414   -0.824962    2.018150
  H      2.216674   -2.268105   -0.122174
  H      0.572903    0.189532   -3.063736
  H      1.970621    0.787776   -2.155293
  H      2.010959   -0.831470   -2.885780

 Total Charge           Charge          ....    0
 Multiplicity           Mult            ....    1
 Number of Electrons    NEL             ....   60
 Basis Dimension        Dim             ....  302

ORBITAL ENERGIES
----------------

  NO   OCC          E(Eh)            E(eV)
   0   2.0000     -20.559329      -559.4478
   1   2.0000     -15.560025      -423.4098
   2   2.0000     -11.290602      -307.2329
   3   2.0000     -11.283256      -307.0330
   4   2.0000     -11.270947      -306.6981
   5   2.0000     -11.263149      -306.4859
   6   2.0000     -11.236644      -305.7646
   7   2.0000     -11.230142      -305.5877
   8   2.0000      -1.417826       -38.5810
   9   2.0000      -1.260675       -34.3047
  10   2.0000      -1.029444       -28.0126
  11   2.0000      -0.989513       -26.9260
  12   2.0000      -0.972367       -26.4595
  13   2.0000      -0.843735       -22.9592
  14   2.0000      -0.808361       -21.9966
  15   2.0000      -0.722463       -19.6592
  16   2.0000      -0.695963       -18.9381
  17   2.0000      -0.650458       -17.6999
  18   2.0000      -0.623514       -16.9667
  19   2.0000      -0.598861       -16.2958
  20   2.0000      -0.576061       -15.6754
  21   2.0000      -0.567859       -15.4522
  22   2.0000      -0.562565       -15.3082
  23   2.0000      -0.532244       -14.4831
  24   2.0000      -0.524488       -14.2720
  25   2.0000      -0.478472       -13.0199
  26   2.0000      -0.457582       -12.4515
  27   2.0000      -0.449864       -12.2414
  28   2.0000      -0.393270       -10.7014
  29   2.0000      -0.341825        -9.3015
  30   0.0000       0.127865         3.4794
  31   0.0000       0.151436         4.1208
  32   0.0000       0.170118         4.6292
  33   0.0000       0.183401         4.9906
  34   0.0000       0.189287         5.1508

MULLIKEN ATOMIC CHARGES
-----------------------
   0 C :   -0.387006
   1 C :    0.123480
   2 N :   -0.349493
   3 C :   -0.126275
   4 C :    0.005954
   5 O :   -0.294269
   6 C :    0.114931
   7 C :   -0.423143
   8 H :    0.134846
   9 H :    0.148935
  10 H :    0.129411
  11 H :    0.211331
  12 H :    0.144513
  13 H :    0.139764
  14 H :    0.145482
  15 H :    0.132166
  16 H :    0.149372
Sum of atomic charges:   -0.0000000

LOEWDIN ATOMIC CHARGES
----------------------
   0 C :   -0.280181
   1 C :   -0.248554
   2 N :    0.030000
   3 C :   -0.204307
   4 C :   -0.208040
   5 O :    0.214096
   6 C :   -0.263239
   7 C :   -0.271110
   8 H :    0.131791
   9 H :    0.132633
  10 H :    0.130866
  11 H :    0.172028
  12 H :    0.130119
  13 H :    0.130112
  14 H :    0.134764
  15 H :    0.131613
  16 H :    0.137410

  Mayer bond orders larger than 0.1
B(  0-C ,  1-C ) :   0.8704 B(  0-C ,  8-H ) :   0.9298 B(  0-C ,  9-H ) :   0.9530
B(  0-C , 10-H ) :   0.9316 B(  1-C ,  2-N ) :   0.9099 B(  1-C ,  3-C ) :   0.9287
B(  1-C ,  6-C ) :   0.8860 B(  2-N ,  3-C ) :   1.0194 B(  2-N , 11-H ) :   0.8616
B(  3-C ,  4-C ) :   0.8307 B(  3-C , 12-H ) :   0.9107 B(  4-C ,  5-O ) :   0.9272
B(  4-C ,  6-C ) :   0.9938 B(  4-C , 13-H ) :   0.9213 B(  5-O ,  6-C ) :   0.9369
B(  6-C ,  7-C ) :   0.8639 B(  7-C , 14-H ) :   0.9451 B(  7-C , 15-H ) :   0.9402
B(  7-C , 16-H ) :   0.9376

MP2 TOTAL ENERGY:     -363.145440441 Eh
FINAL SINGLE POINT ENERGY      -363.145440441220

DIPOLE MOMENT
-------------
                                X             Y             Z
Electronic contribution:     -1.33003      -6.11781       1.17157
Nuclear contribution   :      2.10055       7.22837      -0.70504
                        -----------------------------------------
Total Dipole Moment    :      0.77052       1.11056       0.46653
                        -----------------------------------------
Magnitude (a.u.)       :      1.42992
Magnitude (Debye)      :      3.63458

                             ****ORCA TERMINATED NORMALLY****
TOTAL RUN TIME: 0 days 0 hours 13 minutes 32 seconds 708 msec
