                         Program Version 3.0.3 - RELEASE   -
|  1> ! RI-MP2 RIJK def2-TZVP def2-TZVP/C def2-TZVP/JK TIGHTSCF
|  2> % maxcore 2000
|  3> % mp2 density relaxed end
|  4> *xyz 0 1
|  5>  C        0.0115885543     1.6285739728     0.0315842674
|  6>  C       -0.0877549012     0.1286707466     0.2831717369
|  7>  O        0.0638051264    -0.0698691719     1.6788719471
|  8>  C       -1.4242928300    -0.4503463336    -0.2181496344
|  9>  C       -1.4534087355    -1.9733193995    -0.1814990554
| 10>  O       -1.2011530495    -2.5389778957     1.1431012252
| 11>  C       -2.4859558294    -3.1926901832     1.2269559074
| 12>  C       -2.8294836485    -2.6583387534    -0.1708518454
| 13>  O       -3.7579081075    -2.7255605606    -0.9140135465
| 14>  H        0.9431886562     2.0123260784     0.4557607765
| 15>  H       -0.0029247976     1.8510699536    -1.0395951833
| 16>  H       -0.8208532214     2.1524323558     0.5122389136
| 17>  H        0.7293391244    -0.3743838898    -0.2661090803
| 18>  H       -0.1897272188    -0.9818272086     1.8735084883
| 19>  H       -2.2326842425    -0.0407526725     0.3992121998
| 20>  H       -1.6078743603    -0.1424059807    -1.2543947268
| 21>  H       -0.7535901933    -2.3976583224    -0.9146090343
| 22>  H       -2.4020339821    -4.2830806910     1.3064420245
| 23>  H       -3.1106717038    -2.8115821642     2.0436475295
| 24> *
| 25>
| 26>                          ****END OF INPUT****

CARTESIAN COORDINATES (ANGSTROEM)
---------------------------------
  C      0.011589    1.628574    0.031584
  C     -0.087755    0.128671    0.283172
  O      0.063805   -0.069869    1.678872
  C     -1.424293   -0.450346   -0.218150
  C     -1.453409   -1.973319   -0.181499
  O     -1.201153   -2.538978    1.143101
  C     -2.485956   -3.192690    1.226956
  C     -2.829484   -2.658339   -0.170852
  O     -3.757908   -2.725561   -0.914014
  H      0.943189    2.012326    0.455761
  H     -0.002925    1.851070   -1.039595
  H     -0.820853    2.152432    0.512239
  H      0.729339   -0.374384   -0.266109
  H     -0.189727   -0.981827    1.873508
  H     -2.232684   -0.040753    0.399212
  H     -1.607874   -0.142406   -1.254395
  H     -0.753590   -2.397658   -0.914609
  H     -2.402034   -4.283081    1.306442
  H     -3.110672   -2.811582    2.043648

 Total Charge           Charge          ....    0
 Multiplicity           Mult            ....    1
 Number of Electrons    NEL             ....   70
 Basis Dimension        Dim             ....  339

ORBITAL ENERGIES
----------------

  NO   OCC          E(Eh)            E(eV)
   0   2.0000     -20.588181      -560.2329
   1   2.0000     -20.582651      -560.0824
   2   2.0000     -20.542664      -558.9943
   3   2.0000     -11.357921      -309.0647
   4   2.0000     -11.315318      -307.9055
   5   2.0000     -11.312987      -307.8420
   6   2.0000     -11.286956      -307.1337
   7   2.0000     -11.245120      -305.9953
   8   2.0000     -11.215581      -305.1915
   9   2.0000      -1.435783       -39.0696
  10   2.0000      -1.406309       -38.2676
  11   2.0000      -1.353914       -36.8419
  12   2.0000      -1.076558       -29.2946
  13   2.0000      -1.002267       -27.2731
  14   2.0000      -0.992457       -27.0061
  15   2.0000      -0.906892       -24.6778
  16   2.0000      -0.807903       -21.9842
  17   2.0000      -0.757756       -20.6196
  18   2.0000      -0.709164       -19.2973
  19   2.0000      -0.700458       -19.0604
  20   2.0000      -0.686326       -18.6759
  21   2.0000      -0.676479       -18.4079
  22   2.0000      -0.633637       -17.2421
  23   2.0000      -0.613477       -16.6936
  24   2.0000      -0.587542       -15.9878
  25   2.0000      -0.556358       -15.1393
  26   2.0000      -0.551546       -15.0083
  27   2.0000      -0.543993       -14.8028
  28   2.0000      -0.538009       -14.6400
  29   2.0000      -0.534083       -14.5331
  30   2.0000      -0.519390       -14.1333
  31   2.0000      -0.489214       -13.3122
  32   2.0000      -0.450761       -12.2658
  33   2.0000      -0.438078       -11.9207
  34   2.0000      -0.418050       -11.3757
  35   0.0000       0.112595         3.0639
  36   0.0000       0.133226         3.6253
  37   0.0000       0.147259         4.0071
  38   0.0000       0.158249         4.3062
  39   0.0000       0.166392         4.5278

MULLIKEN ATOMIC CHARGES
-----------------------
   0 C :   -0.373216
   1 C :    0.133696
   2 O :   -0.480021
   3 C :   -0.337029
   4 C :    0.154532
   5 O :   -0.378784
   6 C :   -0.039293
   7 C :    0.105315
   8 O :   -0.232257
   9 H :    0.143463
  10 H :    0.119368
  11 H :    0.124980
  12 H :    0.074156
  13 H :    0.328355
  14 H :    0.130382
  15 H :    0.128912
  16 H :    0.127699
  17 H :    0.135123
  18 H :    0.134622
Sum of atomic charges:   -0.0000000

LOEWDIN ATOMIC CHARGES
----------------------
   0 C :   -0.293178
   1 C :   -0.377911
   2 O :   -0.021171
   3 C :   -0.231801
   4 C :   -0.243706
   5 O :    0.122735
   6 C :   -0.239177
   7 C :   -0.300897
   8 O :    0.184547
   9 H :    0.129197
  10 H :    0.123020
  11 H :    0.125978
  12 H :    0.133593
  13 H :    0.168579
  14 H :    0.148779
  15 H :    0.155105
  16 H :    0.149559
  17 H :    0.133411
  18 H :    0.133340

  Mayer bond orders larger than 0.1
B(  0-C ,  1-C ) :   0.9120 B(  0-C ,  9-H ) :   0.9385 B(  0-C , 10-H ) :   0.9363
B(  0-C , 11-H ) :   0.9335 B(  1-C ,  2-O ) :   0.9651 B(  1-C ,  3-C ) :   0.9055
B(  1-C , 12-H ) :   0.9336 B(  2-O , 13-H ) :   0.8169 B(  3-C ,  4-C ) :   0.9439
B(  3-C , 14-H ) :   0.9179 B(  3-C , 15-H ) :   0.9162 B(  4-C ,  5-O ) :   0.8429
B(  4-C ,  7-C ) :   0.8517 B(  4-C , 16-H ) :   0.8873 B(  5-O ,  6-C ) :   0.9245
B(  6-C ,  7-C ) :   0.9452 B(  6-C , 17-H ) :   0.9022 B(  6-C , 18-H ) :   0.9034
B(  7-C ,  8-O ) :   2.0578

MP2 TOTAL ENERGY:     -459.422516444 Eh
FINAL SINGLE POINT ENERGY      -459.422516444089

DIPOLE MOMENT
-------------
                                X             Y             Z
Electronic contribution:     -4.66691      -7.81084       0.08956
Nuclear contribution   :      4.62007       7.43284      -0.33166
                        -----------------------------------------
Total Dipole Moment    :     -0.04684      -0.37800      -0.24210
                        -----------------------------------------
Magnitude (a.u.)       :      0.45132
Magnitude (Debye)      :      1.14717

                             ****ORCA TERMINATED NORMALLY****
TOTAL RUN TIME: 0 days 0 hours 18 minutes 12 seconds 463 msec
