                         Program Version 3.0.3 - RELEASE   -
|  1> ! RI-MP2 RIJK def2-TZVP def2-TZVP/C def2-TZVP/JK TIGHTSCF
|  2> % maxcore 2000
|  3> % mp2 density relaxed end
|  4> *xyz 0 1
|  5>  O       -0.0935762078     1.3371899117     0.0441239504
|  6>  N        0.0425945948    -0.0611336633     0.0113982981
|  7>  C       -1.1025535159    -0.6320615015    -0.0343040574
|  8>  C       -2.4622724555    -0.0905509245    -0.0304589064
|  9>  C       -3.3205611420    -1.1233222284     0.0172813587
| 10>  N       -2.7008873516    -2.4054356483     0.1117425965
| 11>  C       -2.0062155127    -2.7715810471    -1.1453371160
| 12>  C       -1.2551387268    -2.1188992392    -0.0283634172
| 13>  H        0.8227481473     1.6283051294     0.0943231256
| 14>  H       -2.7042618303     0.9597771822    -0.0733313097
| 15>  H       -4.4026870905    -1.0918573658    -0.0098104507
| 16>  H       -1.8772815229    -3.8372868797    -1.3075715737
| 17>  H       -2.2339159934    -2.1797958512    -2.0269128465
| 18>  H       -0.5745206227    -2.7182517844     0.5653237684
| 19> *
| 20>
| 21>                          ****END OF INPUT****

CARTESIAN COORDINATES (ANGSTROEM)
---------------------------------
  O     -0.093576    1.337190    0.044124
  N      0.042595   -0.061134    0.011398
  C     -1.102554   -0.632062   -0.034304
  C     -2.462272   -0.090551   -0.030459
  C     -3.320561   -1.123322    0.017281
  N     -2.700887   -2.405436    0.111743
  C     -2.006216   -2.771581   -1.145337
  C     -1.255139   -2.118899   -0.028363
  H      0.822748    1.628305    0.094323
  H     -2.704262    0.959777   -0.073331
  H     -4.402687   -1.091857   -0.009810
  H     -1.877282   -3.837287   -1.307572
  H     -2.233916   -2.179796   -2.026913
  H     -0.574521   -2.718252    0.565324

 Total Charge           Charge          ....    0
 Multiplicity           Mult            ....    1
 Number of Electrons    NEL             ....   58
 Basis Dimension        Dim             ....  284

ORBITAL ENERGIES
----------------

  NO   OCC          E(Eh)            E(eV)
   0   2.0000     -20.588716      -560.2474
   1   2.0000     -15.611038      -424.7979
   2   2.0000     -15.587712      -424.1632
   3   2.0000     -11.289707      -307.2085
   4   2.0000     -11.286691      -307.1265
   5   2.0000     -11.283416      -307.0374
   6   2.0000     -11.280273      -306.9518
   7   2.0000     -11.238783      -305.8228
   8   2.0000      -1.415100       -38.5068
   9   2.0000      -1.319806       -35.9138
  10   2.0000      -1.156274       -31.4638
  11   2.0000      -1.065278       -28.9877
  12   2.0000      -0.953954       -25.9584
  13   2.0000      -0.880606       -23.9625
  14   2.0000      -0.791742       -21.5444
  15   2.0000      -0.764100       -20.7922
  16   2.0000      -0.704186       -19.1619
  17   2.0000      -0.680575       -18.5194
  18   2.0000      -0.654698       -17.8152
  19   2.0000      -0.619196       -16.8492
  20   2.0000      -0.601415       -16.3653
  21   2.0000      -0.588597       -16.0165
  22   2.0000      -0.539825       -14.6894
  23   2.0000      -0.518795       -14.1171
  24   2.0000      -0.513023       -13.9601
  25   2.0000      -0.442048       -12.0287
  26   2.0000      -0.436383       -11.8746
  27   2.0000      -0.417675       -11.3655
  28   2.0000      -0.327148        -8.9021
  29   0.0000       0.095812         2.6072
  30   0.0000       0.155184         4.2228
  31   0.0000       0.160252         4.3607
  32   0.0000       0.174426         4.7464
  33   0.0000       0.180725         4.9178

MULLIKEN ATOMIC CHARGES
-----------------------
   0 O :   -0.366503
   1 N :   -0.096337
   2 C :    0.064488
   3 C :   -0.200883
   4 C :   -0.050754
   5 N :   -0.202936
   6 C :   -0.141995
   7 C :   -0.063808
   8 H :    0.337531
   9 H :    0.154598
  10 H :    0.139536
  11 H :    0.136767
  12 H :    0.141292
  13 H :    0.149003
Sum of atomic charges:    0.0000000

LOEWDIN ATOMIC CHARGES
----------------------
   0 O :   -0.075586
   1 N :    0.021806
   2 C :   -0.279420
   3 C :   -0.134713
   4 C :   -0.167726
   5 N :    0.142928
   6 C :   -0.201683
   7 C :   -0.181149
   8 H :    0.170029
   9 H :    0.149531
  10 H :    0.139289
  11 H :    0.130672
  12 H :    0.133682
  13 H :    0.152342

  Mayer bond orders larger than 0.1
B(  0-O ,  1-N ) :   0.8014 B(  0-O ,  8-H ) :   0.8438 B(  1-N ,  2-C ) :   1.8037
B(  2-C ,  3-C ) :   1.0267 B(  2-C ,  7-C ) :   0.9894 B(  3-C ,  4-C ) :   1.6534
B(  3-C ,  9-H ) :   0.9128 B(  4-C ,  5-N ) :   1.0080 B(  4-C , 10-H ) :   0.9356
B(  5-N ,  6-C ) :   0.8406 B(  5-N ,  7-C ) :   0.9161 B(  6-C ,  7-C ) :   0.9040
B(  6-C , 11-H ) :   0.9243 B(  6-C , 12-H ) :   0.9071 B(  7-C , 13-H ) :   0.9048

MP2 TOTAL ENERGY:     -378.013925102 Eh
FINAL SINGLE POINT ENERGY      -378.013925102128

DIPOLE MOMENT
-------------
                                X             Y             Z
Electronic contribution:      1.39443       1.59552       1.39448
Nuclear contribution   :     -1.49227      -1.57997      -1.81497
                        -----------------------------------------
Total Dipole Moment    :     -0.09783       0.01554      -0.42049
                        -----------------------------------------
Magnitude (a.u.)       :      0.43200
Magnitude (Debye)      :      1.09806

                             ****ORCA TERMINATED NORMALLY****
TOTAL RUN TIME: 0 days 0 hours 10 minutes 37 seconds 473 msec
