                         Program Version 3.0.3 - RELEASE   -
|  1> ! RI-MP2 RIJK def2-TZVP def2-TZVP/C def2-TZVP/JK TIGHTSCF
|  2> % maxcore 2000
|  3> % mp2 density relaxed end
|  4> *xyz 0 1
|  5>  O        0.1381307487     1.3734411226    -0.5353877208
|  6>  C        0.1070624572     0.0359992895    -0.1317728959
|  7>  C       -1.2742838432    -0.6900704603    -0.0733927222
|  8>  C       -1.8094660307    -1.4621014868    -1.3433828353
|  9>  C       -1.3065111927    -1.2105537697    -2.7774663688
| 10>  C        0.1081574384    -0.7456852268    -2.4516555127
| 11>  C        0.4141280938    -1.0659445772    -1.1785596120
| 12>  C       -0.6588157459    -1.9771836516    -0.5612562270
| 13>  H        0.9032718929     1.7994306308    -0.1393333646
| 14>  H        0.5949873745    -0.0926349922     0.8450615414
| 15>  H       -1.9551802952    -0.5841834718     0.7682282685
| 16>  H       -2.8084114236    -1.8652326309    -1.1833346348
| 17>  H       -1.4228509112    -2.1207409648    -3.3832307181
| 18>  H       -1.8238074672    -0.4032899097    -3.3097701604
| 19>  H        0.4993865461     0.1514472919    -2.9203039473
| 20>  H       -0.5220332518    -2.9174237229    -0.0450536900
| 21> *
| 22>
| 23>                          ****END OF INPUT****

CARTESIAN COORDINATES (ANGSTROEM)
---------------------------------
  O      0.138131    1.373441   -0.535388
  C      0.107062    0.035999   -0.131773
  C     -1.274284   -0.690070   -0.073393
  C     -1.809466   -1.462101   -1.343383
  C     -1.306511   -1.210554   -2.777466
  C      0.108157   -0.745685   -2.451656
  C      0.414128   -1.065945   -1.178560
  C     -0.658816   -1.977184   -0.561256
  H      0.903272    1.799431   -0.139333
  H      0.594987   -0.092635    0.845062
  H     -1.955180   -0.584183    0.768228
  H     -2.808411   -1.865233   -1.183335
  H     -1.422851   -2.120741   -3.383231
  H     -1.823807   -0.403290   -3.309770
  H      0.499387    0.151447   -2.920304
  H     -0.522033   -2.917424   -0.045054

 Total Charge           Charge          ....    0
 Multiplicity           Mult            ....    1
 Number of Electrons    NEL             ....   58
 Basis Dimension        Dim             ....  296

ORBITAL ENERGIES
----------------

  NO   OCC          E(Eh)            E(eV)
   0   2.0000     -20.563017      -559.5481
   1   2.0000     -11.309865      -307.7571
   2   2.0000     -11.246143      -306.0231
   3   2.0000     -11.242160      -305.9147
   4   2.0000     -11.235829      -305.7424
   5   2.0000     -11.229944      -305.5823
   6   2.0000     -11.226636      -305.4923
   7   2.0000     -11.224906      -305.4452
   8   2.0000      -1.375375       -37.4259
   9   2.0000      -1.218283       -33.1512
  10   2.0000      -1.030025       -28.0284
  11   2.0000      -0.993716       -27.0404
  12   2.0000      -0.884881       -24.0788
  13   2.0000      -0.799892       -21.7662
  14   2.0000      -0.766685       -20.8625
  15   2.0000      -0.717342       -19.5199
  16   2.0000      -0.706170       -19.2159
  17   2.0000      -0.652920       -17.7669
  18   2.0000      -0.647486       -17.6190
  19   2.0000      -0.588806       -16.0222
  20   2.0000      -0.571531       -15.5522
  21   2.0000      -0.541824       -14.7438
  22   2.0000      -0.511939       -13.9306
  23   2.0000      -0.500966       -13.6320
  24   2.0000      -0.482483       -13.1290
  25   2.0000      -0.428846       -11.6695
  26   2.0000      -0.406659       -11.0658
  27   2.0000      -0.397519       -10.8171
  28   2.0000      -0.310879        -8.4595
  29   0.0000       0.102042         2.7767
  30   0.0000       0.135467         3.6863
  31   0.0000       0.158248         4.3062
  32   0.0000       0.170601         4.6423
  33   0.0000       0.186950         5.0872

MULLIKEN ATOMIC CHARGES
-----------------------
   0 O :   -0.446764
   1 C :   -0.011962
   2 C :   -0.118264
   3 C :   -0.174167
   4 C :   -0.155697
   5 C :   -0.181721
   6 C :    0.094643
   7 C :   -0.175851
   8 H :    0.324187
   9 H :    0.098070
  10 H :    0.128680
  11 H :    0.116759
  12 H :    0.119533
  13 H :    0.118598
  14 H :    0.118957
  15 H :    0.144999
Sum of atomic charges:    0.0000000

LOEWDIN ATOMIC CHARGES
----------------------
   0 O :    0.004691
   1 C :   -0.283668
   2 C :   -0.124549
   3 C :   -0.161124
   4 C :   -0.218936
   5 C :   -0.109831
   6 C :   -0.126581
   7 C :   -0.139394
   8 H :    0.178444
   9 H :    0.137458
  10 H :    0.138546
  11 H :    0.146999
  12 H :    0.140073
  13 H :    0.142463
  14 H :    0.137989
  15 H :    0.137420

  Mayer bond orders larger than 0.1
B(  0-O ,  1-C ) :   1.1658 B(  0-O ,  6-C ) :  -0.1082 B(  0-O ,  8-H ) :   0.8388
B(  1-C ,  2-C ) :   0.9102 B(  1-C ,  6-C ) :   0.8983 B(  1-C ,  9-H ) :   0.9344
B(  2-C ,  3-C ) :   0.8471 B(  2-C ,  7-C ) :   0.8389 B(  2-C , 10-H ) :   0.9127
B(  3-C ,  4-C ) :   0.9549 B(  3-C ,  7-C ) :   0.9127 B(  3-C , 11-H ) :   0.9213
B(  4-C ,  5-C ) :   0.9756 B(  4-C , 12-H ) :   0.8965 B(  4-C , 13-H ) :   0.9154
B(  5-C ,  6-C ) :   1.6890 B(  5-C , 14-H ) :   0.9094 B(  6-C ,  7-C ) :   0.8843
B(  7-C , 15-H ) :   0.9056

MP2 TOTAL ENERGY:     -345.893764403 Eh
FINAL SINGLE POINT ENERGY      -345.893764403051

DIPOLE MOMENT
-------------
                                X             Y             Z
Electronic contribution:      2.13811       0.79931       0.91224
Nuclear contribution   :     -2.13259      -0.80123      -0.42986
                        -----------------------------------------
Total Dipole Moment    :      0.00552      -0.00192       0.48238
                        -----------------------------------------
Magnitude (a.u.)       :      0.48241
Magnitude (Debye)      :      1.22620

                             ****ORCA TERMINATED NORMALLY****
TOTAL RUN TIME: 0 days 0 hours 14 minutes 5 seconds 401 msec
