                         Program Version 3.0.3 - RELEASE   -
|  1> ! RI-MP2 RIJK def2-TZVP def2-TZVP/C def2-TZVP/JK TIGHTSCF
|  2> % maxcore 2000
|  3> % mp2 density relaxed end
|  4> *xyz 0 1
|  5>  O        0.0203135939    -0.0006101759    -0.0310086671
|  6>  C       -0.0161655633     1.1967015271    -0.0099523149
|  7>  C       -1.2484245839     2.1275866571     0.0263982901
|  8>  C       -0.5390263334     3.4916862551     0.0928491187
|  9>  C        0.1529882996     3.6400157934     1.4583598237
| 10>  O        1.2241520886     2.6845104351     1.3477301707
| 11>  C        1.1500362076     2.2069501516     0.0012139856
| 12>  O        0.6210356672     3.2721265451    -0.7479837147
| 13>  H       -1.8199564746     2.0223738103    -0.8998539032
| 14>  H       -1.9022890393     1.8970499937     0.8705210889
| 15>  H       -1.0962916708     4.3556003068    -0.2627867781
| 16>  H        0.5674681219     4.6428215729     1.6051290469
| 17>  H       -0.4932290787     3.3816322591     2.3029682630
| 18>  H        2.1236906152     1.8779955786    -0.3545015096
| 19> *
| 20>
| 21>                          ****END OF INPUT****

CARTESIAN COORDINATES (ANGSTROEM)
---------------------------------
  O      0.020314   -0.000610   -0.031009
  C     -0.016166    1.196702   -0.009952
  C     -1.248425    2.127587    0.026398
  C     -0.539026    3.491686    0.092849
  C      0.152988    3.640016    1.458360
  O      1.224152    2.684510    1.347730
  C      1.150036    2.206950    0.001214
  O      0.621036    3.272127   -0.747984
  H     -1.819956    2.022374   -0.899854
  H     -1.902289    1.897050    0.870521
  H     -1.096292    4.355600   -0.262787
  H      0.567468    4.642822    1.605129
  H     -0.493229    3.381632    2.302968
  H      2.123691    1.877996   -0.354502

 Total Charge           Charge          ....    0
 Multiplicity           Mult            ....    1
 Number of Electrons    NEL             ....   60
 Basis Dimension        Dim             ....  284

ORBITAL ENERGIES
----------------

  NO   OCC          E(Eh)            E(eV)
   0   2.0000     -20.592598      -560.3531
   1   2.0000     -20.584227      -560.1253
   2   2.0000     -20.565135      -559.6058
   3   2.0000     -11.354179      -308.9629
   4   2.0000     -11.344376      -308.6962
   5   2.0000     -11.315762      -307.9175
   6   2.0000     -11.300653      -307.5064
   7   2.0000     -11.257550      -306.3335
   8   2.0000      -1.473465       -40.0950
   9   2.0000      -1.405248       -38.2387
  10   2.0000      -1.352526       -36.8041
  11   2.0000      -1.081944       -29.4412
  12   2.0000      -1.027716       -27.9656
  13   2.0000      -0.894220       -24.3330
  14   2.0000      -0.845321       -23.0023
  15   2.0000      -0.786670       -21.4064
  16   2.0000      -0.740810       -20.1585
  17   2.0000      -0.706838       -19.2340
  18   2.0000      -0.668904       -18.2018
  19   2.0000      -0.638036       -17.3618
  20   2.0000      -0.621409       -16.9094
  21   2.0000      -0.597675       -16.2636
  22   2.0000      -0.583781       -15.8855
  23   2.0000      -0.578064       -15.7299
  24   2.0000      -0.536702       -14.6044
  25   2.0000      -0.535093       -14.5606
  26   2.0000      -0.512267       -13.9395
  27   2.0000      -0.497569       -13.5395
  28   2.0000      -0.458106       -12.4657
  29   2.0000      -0.399659       -10.8753
  30   0.0000       0.127448         3.4680
  31   0.0000       0.130877         3.5613
  32   0.0000       0.166051         4.5185
  33   0.0000       0.173347         4.7170
  34   0.0000       0.182022         4.9531

MULLIKEN ATOMIC CHARGES
-----------------------
   0 O :   -0.251872
   1 C :    0.103595
   2 C :   -0.224856
   3 C :    0.017300
   4 C :   -0.053328
   5 O :   -0.315422
   6 C :    0.208318
   7 O :   -0.296672
   8 H :    0.148185
   9 H :    0.142041
  10 H :    0.147306
  11 H :    0.117643
  12 H :    0.111173
  13 H :    0.146589
Sum of atomic charges:   -0.0000000

LOEWDIN ATOMIC CHARGES
----------------------
   0 O :    0.170418
   1 C :   -0.292947
   2 C :   -0.205538
   3 C :   -0.280562
   4 C :   -0.266051
   5 O :    0.167752
   6 C :   -0.352615
   7 O :    0.210351
   8 H :    0.156099
   9 H :    0.150272
  10 H :    0.144380
  11 H :    0.126530
  12 H :    0.128782
  13 H :    0.143129

  Mayer bond orders larger than 0.1
B(  0-O ,  1-C ) :   2.0290 B(  1-C ,  2-C ) :   0.9092 B(  1-C ,  6-C ) :   0.8824
B(  2-C ,  3-C ) :   0.9422 B(  2-C ,  8-H ) :   0.8902 B(  2-C ,  9-H ) :   0.9070
B(  3-C ,  4-C ) :   0.9557 B(  3-C ,  7-O ) :   0.8843 B(  3-C , 10-H ) :   0.9056
B(  4-C ,  5-O ) :   0.9236 B(  4-C , 11-H ) :   0.9305 B(  4-C , 12-H ) :   0.9096
B(  5-O ,  6-C ) :   0.9270 B(  6-C ,  7-O ) :   0.9979 B(  6-C , 13-H ) :   0.8993

MP2 TOTAL ENERGY:     -419.029130239 Eh
FINAL SINGLE POINT ENERGY      -419.029130239255

DIPOLE MOMENT
-------------
                                X             Y             Z
Electronic contribution:      2.71003      -2.89411      -1.38905
Nuclear contribution   :     -3.48474       3.92989       1.51537
                        -----------------------------------------
Total Dipole Moment    :     -0.77471       1.03578       0.12632
                        -----------------------------------------
Magnitude (a.u.)       :      1.29961
Magnitude (Debye)      :      3.30333

                             ****ORCA TERMINATED NORMALLY****
TOTAL RUN TIME: 0 days 0 hours 11 minutes 4 seconds 845 msec
