                         Program Version 3.0.3 - RELEASE   -
|  1> ! RI-MP2 RIJK def2-TZVP def2-TZVP/C def2-TZVP/JK TIGHTSCF
|  2> % maxcore 2000
|  3> % mp2 density relaxed end
|  4> *xyz 0 1
|  5>  C        0.3106828350     1.7693664799    -0.0803600811
|  6>  C        0.0408149461     0.2763983913    -0.1789642051
|  7>  C        0.5720730001    -0.3937236583    -1.4943117774
|  8>  N        1.7593022367    -0.8720913067    -0.7272762401
|  9>  C        1.0598198592    -0.6584363500     0.5576136457
| 10>  C        1.8807432297    -0.0881805077     1.6257173096
| 11>  N        2.5082571113     0.3667665810     2.4831131453
| 12>  C       -0.2823713821    -1.4413992481    -2.0329024011
| 13>  C       -0.9704157116    -2.3289560064    -2.4642631813
| 14>  H        1.3520428407     2.0001768029    -0.3233032943
| 15>  H       -0.3348121222     2.3168644292    -0.7743851869
| 16>  H        0.1116526555     2.1368920220     0.9305811991
| 17>  H       -0.9994000908     0.0442096872     0.0492990387
| 18>  H        0.8458445044     0.3128644815    -2.2859058275
| 19>  H        2.0356537047    -1.8303000390    -0.9132095952
| 20>  H        0.5571869035    -1.5506713523     0.9533697840
| 21>  H       -1.5806935303    -3.1052691464    -2.8558687826
| 22> *
| 23>
| 24>                          ****END OF INPUT****

CARTESIAN COORDINATES (ANGSTROEM)
---------------------------------
  C      0.310683    1.769366   -0.080360
  C      0.040815    0.276398   -0.178964
  C      0.572073   -0.393724   -1.494312
  N      1.759302   -0.872091   -0.727276
  C      1.059820   -0.658436    0.557614
  C      1.880743   -0.088181    1.625717
  N      2.508257    0.366767    2.483113
  C     -0.282371   -1.441399   -2.032902
  C     -0.970416   -2.328956   -2.464263
  H      1.352043    2.000177   -0.323303
  H     -0.334812    2.316864   -0.774385
  H      0.111653    2.136892    0.930581
  H     -0.999400    0.044210    0.049299
  H      0.845845    0.312864   -2.285906
  H      2.035654   -1.830300   -0.913210
  H      0.557187   -1.550671    0.953370
  H     -1.580694   -3.105269   -2.855869

 Total Charge           Charge          ....    0
 Multiplicity           Mult            ....    1
 Number of Electrons    NEL             ....   64
 Basis Dimension        Dim             ....  327

ORBITAL ENERGIES
----------------

  NO   OCC          E(Eh)            E(eV)
   0   2.0000     -15.580910      -423.9781
   1   2.0000     -15.571743      -423.7287
   2   2.0000     -11.316690      -307.9428
   3   2.0000     -11.306025      -307.6526
   4   2.0000     -11.271589      -306.7155
   5   2.0000     -11.271042      -306.7006
   6   2.0000     -11.252326      -306.1914
   7   2.0000     -11.245541      -306.0067
   8   2.0000     -11.234442      -305.7047
   9   2.0000      -1.280661       -34.8486
  10   2.0000      -1.214888       -33.0588
  11   2.0000      -1.064544       -28.9677
  12   2.0000      -1.054362       -28.6906
  13   2.0000      -0.985817       -26.8254
  14   2.0000      -0.931900       -25.3583
  15   2.0000      -0.829117       -22.5614
  16   2.0000      -0.759761       -20.6741
  17   2.0000      -0.722015       -19.6470
  18   2.0000      -0.703533       -19.1441
  19   2.0000      -0.645080       -17.5535
  20   2.0000      -0.624985       -17.0067
  21   2.0000      -0.592635       -16.1264
  22   2.0000      -0.584784       -15.9128
  23   2.0000      -0.553920       -15.0729
  24   2.0000      -0.532725       -14.4962
  25   2.0000      -0.513228       -13.9657
  26   2.0000      -0.508232       -13.8297
  27   2.0000      -0.466463       -12.6931
  28   2.0000      -0.452241       -12.3061
  29   2.0000      -0.434590       -11.8258
  30   2.0000      -0.408019       -11.1028
  31   2.0000      -0.394039       -10.7224
  32   0.0000       0.119521         3.2523
  33   0.0000       0.126579         3.4444
  34   0.0000       0.146931         3.9982
  35   0.0000       0.155080         4.2199
  36   0.0000       0.162833         4.4309

MULLIKEN ATOMIC CHARGES
-----------------------
   0 C :   -0.459084
   1 C :   -0.004162
   2 C :   -0.073862
   3 N :   -0.338773
   4 C :    0.060719
   5 C :   -0.193563
   6 N :   -0.049974
   7 C :   -0.096249
   8 C :   -0.136853
   9 H :    0.161033
  10 H :    0.143568
  11 H :    0.151218
  12 H :    0.134878
  13 H :    0.136446
  14 H :    0.221244
  15 H :    0.145714
  16 H :    0.197699
Sum of atomic charges:   -0.0000000

LOEWDIN ATOMIC CHARGES
----------------------
   0 C :   -0.283793
   1 C :   -0.180303
   2 C :   -0.230812
   3 N :    0.053714
   4 C :   -0.244927
   5 C :   -0.168358
   6 N :    0.068803
   7 C :   -0.098112
   8 C :   -0.085159
   9 H :    0.137087
  10 H :    0.129858
  11 H :    0.133372
  12 H :    0.151342
  13 H :    0.158778
  14 H :    0.166392
  15 H :    0.162476
  16 H :    0.129642

  Mayer bond orders larger than 0.1
B(  0-C ,  1-C ) :   0.9041 B(  0-C ,  9-H ) :   0.9349 B(  0-C , 10-H ) :   0.9337
B(  0-C , 11-H ) :   0.9316 B(  1-C ,  2-C ) :   0.8355 B(  1-C ,  4-C ) :   0.9055
B(  1-C , 12-H ) :   0.9190 B(  2-C ,  3-N ) :   0.9417 B(  2-C ,  7-C ) :   1.1751
B(  2-C , 13-H ) :   0.9238 B(  3-N ,  4-C ) :   0.9954 B(  3-N , 14-H ) :   0.8808
B(  4-C ,  5-C ) :   0.9073 B(  4-C , 15-H ) :   0.9063 B(  5-C ,  6-N ) :   2.8674
B(  7-C ,  8-C ) :   2.5667 B(  8-C , 16-H ) :   0.8968

MP2 TOTAL ENERGY:     -380.142814063 Eh
FINAL SINGLE POINT ENERGY      -380.142814063099

DIPOLE MOMENT
-------------
                                X             Y             Z
Electronic contribution:      2.72699      -3.50319       1.99588
Nuclear contribution   :     -3.93862       2.87680      -3.04032
                        -----------------------------------------
Total Dipole Moment    :     -1.21163      -0.62639      -1.04444
                        -----------------------------------------
Magnitude (a.u.)       :      1.71792
Magnitude (Debye)      :      4.36661

                             ****ORCA TERMINATED NORMALLY****
TOTAL RUN TIME: 0 days 0 hours 15 minutes 40 seconds 239 msec
