                         Program Version 3.0.3 - RELEASE   -
|  1> ! RI-MP2 RIJK def2-TZVP def2-TZVP/C def2-TZVP/JK TIGHTSCF
|  2> % maxcore 2000
|  3> % mp2 density relaxed end
|  4> *xyz 0 1
|  5>  C       -0.0244935688     1.5019912693    -0.0216010161
|  6>  C       -0.0662152592    -0.0110034312    -0.2065965272
|  7>  N       -1.3688955296    -0.5368448697     0.1767206355
|  8>  C       -1.6523544341    -1.8722548799     0.0545052186
|  9>  N       -2.8642434419    -2.3973608438    -0.0081632200
| 10>  C       -2.6144682014    -3.7439072159    -0.0647550753
| 11>  C       -3.7042142984    -4.7592288822    -0.1428893997
| 12>  N       -1.3380844919    -4.0798369775    -0.0482554630
| 13>  N       -0.7219349803    -2.8534391371     0.0249338997
| 14>  H        0.9623532031     1.8915286782    -0.2842180461
| 15>  H       -0.7600671551     1.9958813490    -0.6660782458
| 16>  H       -0.2415677811     1.7723772344     1.0155567644
| 17>  H        0.1897283781    -0.2713975754    -1.2467124075
| 18>  H        0.6962076904    -0.4724827605     0.4349521778
| 19>  H       -2.1620778155     0.0373863835    -0.0712185708
| 20>  H       -4.3240826460    -4.5946655503    -1.0301143062
| 21>  H       -3.2795800252    -5.7635095455    -0.1868350346
| 22>  H       -4.3625498082    -4.6881151532     0.7289070342
| 23>  H        0.2799824951    -2.7978356321     0.0674173620
| 24> *
| 25>
| 26>                          ****END OF INPUT****

CARTESIAN COORDINATES (ANGSTROEM)
---------------------------------
  C     -0.024494    1.501991   -0.021601
  C     -0.066215   -0.011003   -0.206597
  N     -1.368896   -0.536845    0.176721
  C     -1.652354   -1.872255    0.054505
  N     -2.864243   -2.397361   -0.008163
  C     -2.614468   -3.743907   -0.064755
  C     -3.704214   -4.759229   -0.142889
  N     -1.338084   -4.079837   -0.048255
  N     -0.721935   -2.853439    0.024934
  H      0.962353    1.891529   -0.284218
  H     -0.760067    1.995881   -0.666078
  H     -0.241568    1.772377    1.015557
  H      0.189728   -0.271398   -1.246712
  H      0.696208   -0.472483    0.434952
  H     -2.162078    0.037386   -0.071219
  H     -4.324083   -4.594666   -1.030114
  H     -3.279580   -5.763510   -0.186835
  H     -4.362550   -4.688115    0.728907
  H      0.279982   -2.797836    0.067417

 Total Charge           Charge          ....    0
 Multiplicity           Mult            ....    1
 Number of Electrons    NEL             ....   68
 Basis Dimension        Dim             ....  339

ORBITAL ENERGIES
----------------

  NO   OCC          E(Eh)            E(eV)
   0   2.0000     -15.623534      -425.1380
   1   2.0000     -15.587024      -424.1445
   2   2.0000     -15.565831      -423.5678
   3   2.0000     -15.529305      -422.5739
   4   2.0000     -11.344963      -308.7121
   5   2.0000     -11.284339      -307.0625
   6   2.0000     -11.280906      -306.9691
   7   2.0000     -11.239150      -305.8328
   8   2.0000     -11.216142      -305.2068
   9   2.0000      -1.393917       -37.9304
  10   2.0000      -1.258458       -34.2444
  11   2.0000      -1.177084       -32.0301
  12   2.0000      -1.098271       -29.8855
  13   2.0000      -1.024920       -27.8895
  14   2.0000      -0.968332       -26.3496
  15   2.0000      -0.874965       -23.8090
  16   2.0000      -0.833618       -22.6839
  17   2.0000      -0.769767       -20.9464
  18   2.0000      -0.747542       -20.3416
  19   2.0000      -0.676778       -18.4161
  20   2.0000      -0.656489       -17.8640
  21   2.0000      -0.635467       -17.2919
  22   2.0000      -0.622670       -16.9437
  23   2.0000      -0.565744       -15.3947
  24   2.0000      -0.559891       -15.2354
  25   2.0000      -0.545721       -14.8498
  26   2.0000      -0.537431       -14.6242
  27   2.0000      -0.531324       -14.4581
  28   2.0000      -0.526615       -14.3299
  29   2.0000      -0.487642       -13.2694
  30   2.0000      -0.457531       -12.4500
  31   2.0000      -0.428816       -11.6687
  32   2.0000      -0.393723       -10.7138
  33   2.0000      -0.324665        -8.8346
  34   0.0000       0.119148         3.2422
  35   0.0000       0.140563         3.8249
  36   0.0000       0.162427         4.4199
  37   0.0000       0.171229         4.6594
  38   0.0000       0.182218         4.9584

MULLIKEN ATOMIC CHARGES
-----------------------
   0 C :   -0.403675
   1 C :   -0.112151
   2 N :   -0.324824
   3 C :    0.283792
   4 N :   -0.342981
   5 C :    0.174703
   6 C :   -0.430386
   7 N :   -0.243781
   8 N :   -0.168358
   9 H :    0.138404
  10 H :    0.132330
  11 H :    0.143413
  12 H :    0.121454
  13 H :    0.105706
  14 H :    0.245635
  15 H :    0.138455
  16 H :    0.146967
  17 H :    0.139960
  18 H :    0.255337
Sum of atomic charges:    0.0000000

LOEWDIN ATOMIC CHARGES
----------------------
   0 C :   -0.314235
   1 C :   -0.318787
   2 N :    0.073020
   3 C :   -0.417588
   4 N :    0.090689
   5 C :   -0.391102
   6 C :   -0.275924
   7 N :    0.022902
   8 N :    0.120110
   9 H :    0.127957
  10 H :    0.123519
  11 H :    0.126874
  12 H :    0.123865
  13 H :    0.128852
  14 H :    0.196311
  15 H :    0.132808
  16 H :    0.133693
  17 H :    0.133252
  18 H :    0.183785

  Mayer bond orders larger than 0.1
B(  0-C ,  1-C ) :   0.9394 B(  0-C ,  9-H ) :   0.9357 B(  0-C , 10-H ) :   0.9372
B(  0-C , 11-H ) :   0.9350 B(  1-C ,  2-N ) :   0.9000 B(  1-C , 12-H ) :   0.9205
B(  1-C , 13-H ) :   0.9215 B(  2-N ,  3-C ) :   1.1310 B(  2-N , 14-H ) :   0.8624
B(  3-C ,  4-N ) :   1.5327 B(  3-C ,  8-N ) :   1.2133 B(  4-N ,  5-C ) :   1.2802
B(  5-C ,  6-C ) :   0.8745 B(  5-C ,  7-N ) :   1.6464 B(  6-C , 15-H ) :   0.9324
B(  6-C , 16-H ) :   0.9543 B(  6-C , 17-H ) :   0.9335 B(  7-N ,  8-N ) :   0.9882
B(  8-N , 18-H ) :   0.8630

MP2 TOTAL ENERGY:     -414.717409284 Eh
FINAL SINGLE POINT ENERGY      -414.717409283794

DIPOLE MOMENT
-------------
                                X             Y             Z
Electronic contribution:     -1.52942      -5.89786       0.66946
Nuclear contribution   :      2.53202       7.07621      -0.87818
                        -----------------------------------------
Total Dipole Moment    :      1.00260       1.17835      -0.20872
                        -----------------------------------------
Magnitude (a.u.)       :      1.56118
Magnitude (Debye)      :      3.96820

                             ****ORCA TERMINATED NORMALLY****
TOTAL RUN TIME: 0 days 0 hours 18 minutes 10 seconds 905 msec
