                         Program Version 3.0.3 - RELEASE   -
|  1> ! RI-MP2 RIJK def2-TZVP def2-TZVP/C def2-TZVP/JK TIGHTSCF
|  2> % maxcore 2000
|  3> % mp2 density relaxed end
|  4> *xyz 0 1
|  5>  C       -0.0599534732     1.4406718432     0.0199231831
|  6>  N        0.0388349715    -0.0058510797    -0.0337733916
|  7>  C        0.1771959054    -0.7848221767    -1.1425357496
|  8>  C        0.1603677109    -2.0898971888    -0.7093019154
|  9>  C        0.0041957804    -1.9959644494     0.6947678325
| 10>  C       -0.0645297727    -3.1189510956     1.6411176110
| 11>  O       -0.1909993575    -3.0306316434     2.8385046341
| 12>  N       -0.0709103806    -0.7158814430     1.0893006907
| 13>  H        0.4652447280     1.8706665639    -0.8347705554
| 14>  H       -1.1064642976     1.7600124462     0.0004477207
| 15>  H        0.4001760970     1.7837077380     0.9466414151
| 16>  H        0.2767046465    -0.3501396396    -2.1244301407
| 17>  H        0.2565727988    -2.9818619252    -1.3073891304
| 18>  H        0.0124723030    -4.1111449397     1.1397534759
| 19> *
| 20>
| 21>                          ****END OF INPUT****

CARTESIAN COORDINATES (ANGSTROEM)
---------------------------------
  C     -0.059953    1.440672    0.019923
  N      0.038835   -0.005851   -0.033773
  C      0.177196   -0.784822   -1.142536
  C      0.160368   -2.089897   -0.709302
  C      0.004196   -1.995964    0.694768
  C     -0.064530   -3.118951    1.641118
  O     -0.190999   -3.030632    2.838505
  N     -0.070910   -0.715881    1.089301
  H      0.465245    1.870667   -0.834771
  H     -1.106464    1.760012    0.000448
  H      0.400176    1.783708    0.946641
  H      0.276705   -0.350140   -2.124430
  H      0.256573   -2.981862   -1.307389
  H      0.012472   -4.111145    1.139753

 Total Charge           Charge          ....    0
 Multiplicity           Mult            ....    1
 Number of Electrons    NEL             ....   58
 Basis Dimension        Dim             ....  284

ORBITAL ENERGIES
----------------

  NO   OCC          E(Eh)            E(eV)
   0   2.0000     -20.547795      -559.1339
   1   2.0000     -15.665098      -426.2690
   2   2.0000     -15.607187      -424.6932
   3   2.0000     -11.329799      -308.2995
   4   2.0000     -11.287467      -307.1476
   5   2.0000     -11.287301      -307.1431
   6   2.0000     -11.266164      -306.5679
   7   2.0000     -11.242136      -305.9141
   8   2.0000      -1.404436       -38.2167
   9   2.0000      -1.382831       -37.6288
  10   2.0000      -1.142668       -31.0936
  11   2.0000      -1.078951       -29.3598
  12   2.0000      -0.984637       -26.7933
  13   2.0000      -0.880769       -23.9670
  14   2.0000      -0.822987       -22.3946
  15   2.0000      -0.761450       -20.7201
  16   2.0000      -0.721615       -19.6361
  17   2.0000      -0.669906       -18.2291
  18   2.0000      -0.650825       -17.7098
  19   2.0000      -0.639154       -17.3923
  20   2.0000      -0.610613       -16.6156
  21   2.0000      -0.584712       -15.9108
  22   2.0000      -0.575148       -15.6506
  23   2.0000      -0.571546       -15.5525
  24   2.0000      -0.522715       -14.2238
  25   2.0000      -0.476925       -12.9778
  26   2.0000      -0.425439       -11.5768
  27   2.0000      -0.366618        -9.9762
  28   2.0000      -0.360774        -9.8172
  29   0.0000       0.089324         2.4306
  30   0.0000       0.130974         3.5640
  31   0.0000       0.147342         4.0094
  32   0.0000       0.159704         4.3458
  33   0.0000       0.172616         4.6971

MULLIKEN ATOMIC CHARGES
-----------------------
   0 C :   -0.315997
   1 N :    0.147075
   2 C :   -0.124497
   3 C :   -0.202511
   4 C :    0.117407
   5 C :    0.008330
   6 O :   -0.259080
   7 N :   -0.243037
   8 H :    0.147769
   9 H :    0.157575
  10 H :    0.175589
  11 H :    0.159265
  12 H :    0.154675
  13 H :    0.077437
Sum of atomic charges:    0.0000000

LOEWDIN ATOMIC CHARGES
----------------------
   0 C :   -0.264990
   1 N :    0.184532
   2 C :   -0.211890
   3 C :   -0.162423
   4 C :   -0.286084
   5 C :   -0.281559
   6 O :    0.136102
   7 N :    0.096413
   8 H :    0.126760
   9 H :    0.126944
  10 H :    0.134321
  11 H :    0.140501
  12 H :    0.146876
  13 H :    0.114499

  Mayer bond orders larger than 0.1
B(  0-C ,  1-N ) :   0.8601 B(  0-C ,  8-H ) :   0.9293 B(  0-C ,  9-H ) :   0.9251
B(  0-C , 10-H ) :   0.9278 B(  1-N ,  2-C ) :   1.1928 B(  1-N ,  7-N ) :   1.0352
B(  2-C ,  3-C ) :   1.4386 B(  2-C , 11-H ) :   0.9045 B(  3-C ,  4-C ) :   1.2467
B(  3-C , 12-H ) :   0.9066 B(  4-C ,  5-C ) :   0.8290 B(  4-C ,  7-N ) :   1.4271
B(  4-C , 13-H ) :  -0.1281 B(  5-C ,  6-O ) :   2.0362 B(  5-C , 13-H ) :   1.0034

MP2 TOTAL ENERGY:     -378.110165947 Eh
FINAL SINGLE POINT ENERGY      -378.110165946883

DIPOLE MOMENT
-------------
                                X             Y             Z
Electronic contribution:     -0.14005      -4.20217       3.32608
Nuclear contribution   :      0.31307       5.20149      -5.28660
                        -----------------------------------------
Total Dipole Moment    :      0.17302       0.99932      -1.96053
                        -----------------------------------------
Magnitude (a.u.)       :      2.20731
Magnitude (Debye)      :      5.61055

                             ****ORCA TERMINATED NORMALLY****
TOTAL RUN TIME: 0 days 0 hours 10 minutes 14 seconds 853 msec
