                         Program Version 3.0.3 - RELEASE   -
|  1> ! RI-MP2 RIJK def2-TZVP def2-TZVP/C def2-TZVP/JK TIGHTSCF
|  2> % maxcore 2000
|  3> % mp2 density relaxed end
|  4> *xyz 0 1
|  5>  C       -0.1109467296     1.1766017418    -0.6649091068
|  6>  C       -0.0247925608    -0.1800690602     0.0267393878
|  7>  O        0.4220089399    -0.0288977169     1.3891181194
|  8>  C       -1.3382080895    -0.9705902479    -0.0457131376
|  9>  C       -1.2331309523    -2.3744944908     0.5660788576
| 10>  O       -0.9815966644    -2.3418026330     1.9551689827
| 11>  C       -2.5374750690    -3.1832244341     0.4152859182
| 12>  C       -2.8905083159    -3.4488781158    -0.9748156393
| 13>  N       -3.1519070754    -3.6409560078    -2.0841945250
| 14>  H        0.8361638829     1.7139970795    -0.5675734148
| 15>  H       -0.3378456043     1.0602586146    -1.7287578893
| 16>  H       -0.9047395353     1.7910188294    -0.2216059254
| 17>  H        0.7693753716    -0.7734994258    -0.4425673296
| 18>  H       -0.1428328495     0.6306230965     1.8096277532
| 19>  H       -2.1304172893    -0.4118454033     0.4731096560
| 20>  H       -1.6375778429    -1.0575960879    -1.0967899400
| 21>  H       -0.4344554643    -2.9230416802     0.0366947737
| 22>  H       -0.3052650974    -1.6595511293     2.0904254453
| 23>  H       -2.4169305530    -4.1315927339     0.9485166200
| 24>  H       -3.3559969913    -2.6429108050     0.9037073939
| 25> *
| 26>
| 27>                          ****END OF INPUT****

CARTESIAN COORDINATES (ANGSTROEM)
---------------------------------
  C     -0.110947    1.176602   -0.664909
  C     -0.024793   -0.180069    0.026739
  O      0.422009   -0.028898    1.389118
  C     -1.338208   -0.970590   -0.045713
  C     -1.233131   -2.374494    0.566079
  O     -0.981597   -2.341803    1.955169
  C     -2.537475   -3.183224    0.415286
  C     -2.890508   -3.448878   -0.974816
  N     -3.151907   -3.640956   -2.084195
  H      0.836164    1.713997   -0.567573
  H     -0.337846    1.060259   -1.728758
  H     -0.904740    1.791019   -0.221606
  H      0.769375   -0.773499   -0.442567
  H     -0.142833    0.630623    1.809628
  H     -2.130417   -0.411845    0.473110
  H     -1.637578   -1.057596   -1.096790
  H     -0.434455   -2.923042    0.036695
  H     -0.305265   -1.659551    2.090425
  H     -2.416931   -4.131593    0.948517
  H     -3.355997   -2.642911    0.903707

 Total Charge           Charge          ....    0
 Multiplicity           Mult            ....    1
 Number of Electrons    NEL             ....   70
 Basis Dimension        Dim             ....  345

ORBITAL ENERGIES
----------------

  NO   OCC          E(Eh)            E(eV)
   0   2.0000     -20.584215      -560.1250
   1   2.0000     -20.557524      -559.3987
   2   2.0000     -15.569931      -423.6794
   3   2.0000     -11.306962      -307.6781
   4   2.0000     -11.305589      -307.6407
   5   2.0000     -11.277306      -306.8711
   6   2.0000     -11.274530      -306.7956
   7   2.0000     -11.243714      -305.9570
   8   2.0000     -11.237562      -305.7896
   9   2.0000      -1.392244       -37.8849
  10   2.0000      -1.367699       -37.2170
  11   2.0000      -1.220082       -33.2001
  12   2.0000      -1.095391       -29.8071
  13   2.0000      -1.051699       -28.6182
  14   2.0000      -0.975199       -26.5365
  15   2.0000      -0.863711       -23.5028
  16   2.0000      -0.830173       -22.5902
  17   2.0000      -0.738655       -20.0998
  18   2.0000      -0.696523       -18.9534
  19   2.0000      -0.669248       -18.2112
  20   2.0000      -0.660662       -17.9775
  21   2.0000      -0.643112       -17.5000
  22   2.0000      -0.629288       -17.1238
  23   2.0000      -0.597420       -16.2566
  24   2.0000      -0.587542       -15.9878
  25   2.0000      -0.565745       -15.3947
  26   2.0000      -0.554522       -15.0893
  27   2.0000      -0.552823       -15.0431
  28   2.0000      -0.536005       -14.5854
  29   2.0000      -0.521901       -14.2016
  30   2.0000      -0.497044       -13.5253
  31   2.0000      -0.470805       -12.8112
  32   2.0000      -0.460043       -12.5184
  33   2.0000      -0.448461       -12.2033
  34   2.0000      -0.442661       -12.0454
  35   0.0000       0.116719         3.1761
  36   0.0000       0.138631         3.7723
  37   0.0000       0.144293         3.9264
  38   0.0000       0.163284         4.4432
  39   0.0000       0.175940         4.7876

MULLIKEN ATOMIC CHARGES
-----------------------
   0 C :   -0.400003
   1 C :    0.111834
   2 O :   -0.507170
   3 C :   -0.351283
   4 C :    0.118325
   5 O :   -0.478221
   6 C :   -0.079549
   7 C :   -0.219203
   8 N :   -0.065394
   9 H :    0.155968
  10 H :    0.139622
  11 H :    0.122574
  12 H :    0.106369
  13 H :    0.325138
  14 H :    0.118294
  15 H :    0.145975
  16 H :    0.091807
  17 H :    0.337839
  18 H :    0.172177
  19 H :    0.154902
Sum of atomic charges:    0.0000000

LOEWDIN ATOMIC CHARGES
----------------------
   0 C :   -0.301009
   1 C :   -0.359522
   2 O :   -0.031821
   3 C :   -0.241954
   4 C :   -0.344546
   5 O :   -0.015676
   6 C :   -0.223819
   7 C :   -0.196097
   8 N :    0.054048
   9 H :    0.129121
  10 H :    0.131463
  11 H :    0.123579
  12 H :    0.148601
  13 H :    0.177841
  14 H :    0.143491
  15 H :    0.157516
  16 H :    0.141617
  17 H :    0.170369
  18 H :    0.170340
  19 H :    0.166456

  Mayer bond orders larger than 0.1
B(  0-C ,  1-C ) :   0.9476 B(  0-C ,  9-H ) :   0.9418 B(  0-C , 10-H ) :   0.9327
B(  0-C , 11-H ) :   0.9187 B(  1-C ,  2-O ) :   0.8340 B(  1-C ,  3-C ) :   0.9355
B(  1-C , 12-H ) :   0.9260 B(  2-O , 13-H ) :   0.8356 B(  3-C ,  4-C ) :   0.9186
B(  3-C , 14-H ) :   0.9128 B(  3-C , 15-H ) :   0.9116 B(  4-C ,  5-O ) :   1.0101
B(  4-C ,  6-C ) :   0.8759 B(  4-C , 16-H ) :   0.9345 B(  5-O , 17-H ) :   0.7998
B(  6-C ,  7-C ) :   0.8943 B(  6-C , 18-H ) :   0.9078 B(  6-C , 19-H ) :   0.9099
B(  7-C ,  8-N ) :   2.8647

MP2 TOTAL ENERGY:     -439.596786398 Eh
FINAL SINGLE POINT ENERGY      -439.596786398310

DIPOLE MOMENT
-------------
                                X             Y             Z
Electronic contribution:     -3.08234      -7.21427      -0.00612
Nuclear contribution   :      3.43985       8.51703       0.63137
                        -----------------------------------------
Total Dipole Moment    :      0.35751       1.30276       0.62525
                        -----------------------------------------
Magnitude (a.u.)       :      1.48861
Magnitude (Debye)      :      3.78373

                             ****ORCA TERMINATED NORMALLY****
TOTAL RUN TIME: 0 days 0 hours 20 minutes 20 seconds 335 msec
