                         Program Version 3.0.3 - RELEASE   -
|  1> ! RI-MP2 RIJK def2-TZVP def2-TZVP/C def2-TZVP/JK TIGHTSCF
|  2> % maxcore 2000
|  3> % mp2 density relaxed end
|  4> *xyz 0 1
|  5>  C        0.0098701378     1.5450946866     0.0949922414
|  6>  C        1.5638464225     1.5402844561    -0.0887141088
|  7>  C        1.5258971013     0.0230895114     0.0381812487
|  8>  O        2.4042921715    -0.7870751410    -0.7436482262
|  9>  C        2.6541538734    -1.8767386380     0.0366602394
| 10>  N        2.1899944648    -1.9414312199     1.2158776735
| 11>  C        1.4476199174    -0.6893965204     1.4219821756
| 12>  C       -0.1003563639    -0.8062282902     1.2820012329
| 13>  C       -0.0343170371    -0.0111901538    -0.0517711810
| 14>  H       -0.3236581870     1.9008298645     1.0731608024
| 15>  H       -0.5352697166     2.0934691546    -0.6747240207
| 16>  H        1.8539214130     1.8478573452    -1.0969542335
| 17>  H        2.1718371850     2.0892061499     0.6361014767
| 18>  H        3.2689340352    -2.6329514099    -0.4391269260
| 19>  H        1.8189207784    -0.1703752543     2.3111323851
| 20>  H       -0.4137639358    -1.8458297527     1.1632157152
| 21>  H       -0.6908439526    -0.3471748063     2.0801123514
| 22>  H       -0.5772661972    -0.3941508017    -0.9160500559
| 23> *
| 24>
| 25>                          ****END OF INPUT****

CARTESIAN COORDINATES (ANGSTROEM)
---------------------------------
  C      0.009870    1.545095    0.094992
  C      1.563846    1.540284   -0.088714
  C      1.525897    0.023090    0.038181
  O      2.404292   -0.787075   -0.743648
  C      2.654154   -1.876739    0.036660
  N      2.189994   -1.941431    1.215878
  C      1.447620   -0.689397    1.421982
  C     -0.100356   -0.806228    1.282001
  C     -0.034317   -0.011190   -0.051771
  H     -0.323658    1.900830    1.073161
  H     -0.535270    2.093469   -0.674724
  H      1.853921    1.847857   -1.096954
  H      2.171837    2.089206    0.636101
  H      3.268934   -2.632951   -0.439127
  H      1.818921   -0.170375    2.311132
  H     -0.413764   -1.845830    1.163216
  H     -0.690844   -0.347175    2.080112
  H     -0.577266   -0.394151   -0.916050

 Total Charge           Charge          ....    0
 Multiplicity           Mult            ....    1
 Number of Electrons    NEL             ....   66
 Basis Dimension        Dim             ....  333

ORBITAL ENERGIES
----------------

  NO   OCC          E(Eh)            E(eV)
   0   2.0000     -20.595159      -560.4228
   1   2.0000     -15.548636      -423.0999
   2   2.0000     -11.331430      -308.3439
   3   2.0000     -11.290069      -307.2184
   4   2.0000     -11.261238      -306.4339
   5   2.0000     -11.233973      -305.6919
   6   2.0000     -11.233436      -305.6773
   7   2.0000     -11.232011      -305.6386
   8   2.0000     -11.226963      -305.5012
   9   2.0000      -1.438230       -39.1362
  10   2.0000      -1.216827       -33.1115
  11   2.0000      -1.163435       -31.6587
  12   2.0000      -1.018344       -27.7105
  13   2.0000      -0.944663       -25.7056
  14   2.0000      -0.860320       -23.4105
  15   2.0000      -0.843547       -22.9541
  16   2.0000      -0.800869       -21.7927
  17   2.0000      -0.730691       -19.8831
  18   2.0000      -0.702433       -19.1142
  19   2.0000      -0.659172       -17.9370
  20   2.0000      -0.645993       -17.5784
  21   2.0000      -0.626343       -17.0437
  22   2.0000      -0.597623       -16.2621
  23   2.0000      -0.584216       -15.8973
  24   2.0000      -0.545595       -14.8464
  25   2.0000      -0.515002       -14.0139
  26   2.0000      -0.494738       -13.4625
  27   2.0000      -0.490418       -13.3450
  28   2.0000      -0.471561       -12.8318
  29   2.0000      -0.463477       -12.6119
  30   2.0000      -0.433152       -11.7867
  31   2.0000      -0.405755       -11.0412
  32   2.0000      -0.366109        -9.9623
  33   0.0000       0.140575         3.8252
  34   0.0000       0.155164         4.2222
  35   0.0000       0.157680         4.2907
  36   0.0000       0.170509         4.6398
  37   0.0000       0.175664         4.7801

MULLIKEN ATOMIC CHARGES
-----------------------
   0 C :   -0.240859
   1 C :   -0.264753
   2 C :    0.241607
   3 O :   -0.269692
   4 C :    0.090824
   5 N :   -0.281741
   6 C :    0.014330
   7 C :   -0.290579
   8 C :   -0.104047
   9 H :    0.119897
  10 H :    0.123717
  11 H :    0.124644
  12 H :    0.121143
  13 H :    0.142814
  14 H :    0.108820
  15 H :    0.133307
  16 H :    0.115526
  17 H :    0.115042
Sum of atomic charges:   -0.0000000

LOEWDIN ATOMIC CHARGES
----------------------
   0 C :   -0.205541
   1 C :   -0.198706
   2 C :   -0.254494
   3 O :    0.252454
   4 C :   -0.330410
   5 N :    0.085090
   6 C :   -0.206824
   7 C :   -0.196106
   8 C :   -0.156323
   9 H :    0.131861
  10 H :    0.130406
  11 H :    0.143328
  12 H :    0.129046
  13 H :    0.133003
  14 H :    0.138869
  15 H :    0.139446
  16 H :    0.128778
  17 H :    0.136122

  Mayer bond orders larger than 0.1
B(  0-C ,  1-C ) :   0.9619 B(  0-C ,  8-C ) :   0.9108 B(  0-C ,  9-H ) :   0.9195
B(  0-C , 10-H ) :   0.9244 B(  1-C ,  2-C ) :   0.9306 B(  1-C , 11-H ) :   0.9068
B(  1-C , 12-H ) :   0.9207 B(  2-C ,  3-O ) :   0.8927 B(  2-C ,  6-C ) :   0.9512
B(  2-C ,  8-C ) :   0.8944 B(  3-O ,  4-C ) :   1.0512 B(  4-C ,  5-N ) :   1.8232
B(  4-C , 13-H ) :   0.9247 B(  5-N ,  6-C ) :   0.9358 B(  6-C ,  7-C ) :   0.9092
B(  6-C , 14-H ) :   0.9189 B(  7-C ,  8-C ) :   0.9104 B(  7-C , 15-H ) :   0.9189
B(  7-C , 16-H ) :   0.9137 B(  8-C , 17-H ) :   0.8906

MP2 TOTAL ENERGY:     -401.241874728 Eh
FINAL SINGLE POINT ENERGY      -401.241874727546

DIPOLE MOMENT
-------------
                                X             Y             Z
Electronic contribution:      4.46548      -4.53716      -1.22436
Nuclear contribution   :     -4.82634       5.14683       0.98119
                        -----------------------------------------
Total Dipole Moment    :     -0.36086       0.60967      -0.24317
                        -----------------------------------------
Magnitude (a.u.)       :      0.74903
Magnitude (Debye)      :      1.90389

                             ****ORCA TERMINATED NORMALLY****
TOTAL RUN TIME: 0 days 0 hours 18 minutes 49 seconds 407 msec
