                         Program Version 3.0.3 - RELEASE   -
|  1> ! RI-MP2 RIJK def2-TZVP def2-TZVP/C def2-TZVP/JK TIGHTSCF
|  2> % maxcore 2000
|  3> % mp2 density relaxed end
|  4> *xyz 0 1
|  5>  O        0.0408920742     1.3995751713    -0.1742251090
|  6>  C        0.1506477105     0.0104689516     0.0932502828
|  7>  C       -1.2256075583    -0.6335043619     0.0869365231
|  8>  N       -1.9438708320    -0.5999945736    -1.2351430342
|  9>  C       -1.6078979755    -1.9161904521    -1.9075118871
| 10>  C       -0.6886542080    -2.7433359275    -1.0123996544
| 11>  C       -1.4941290457    -2.1516860411     0.1630717020
| 12>  O       -1.5100431881    -2.8707547711     1.3387259425
| 13>  C       -2.6731039983    -1.8453611807    -0.8848545369
| 14>  H       -0.5047231958     1.4820018037    -0.9656184004
| 15>  H        0.8161209672    -0.4791794247    -0.6322039154
| 16>  H        0.6119839479    -0.0862745659     1.0824654614
| 17>  H       -1.8672317302    -0.0939023629     0.7962189328
| 18>  H       -1.6951824414    -1.9302549436    -2.9853699882
| 19>  H       -0.9102388376    -3.8080109975    -1.1213725123
| 20>  H        0.3928246513    -2.5842769125    -1.0362648194
| 21>  H       -1.9794426350    -2.3601592020     2.0077412172
| 22>  H       -3.7489586352    -1.9609139996    -0.9083890645
| 23> *
| 24>
| 25>                          ****END OF INPUT****

CARTESIAN COORDINATES (ANGSTROEM)
---------------------------------
  O      0.040892    1.399575   -0.174225
  C      0.150648    0.010469    0.093250
  C     -1.225608   -0.633504    0.086937
  N     -1.943871   -0.599995   -1.235143
  C     -1.607898   -1.916190   -1.907512
  C     -0.688654   -2.743336   -1.012400
  C     -1.494129   -2.151686    0.163072
  O     -1.510043   -2.870755    1.338726
  C     -2.673104   -1.845361   -0.884855
  H     -0.504723    1.482002   -0.965618
  H      0.816121   -0.479179   -0.632204
  H      0.611984   -0.086275    1.082465
  H     -1.867232   -0.093902    0.796219
  H     -1.695182   -1.930255   -2.985370
  H     -0.910239   -3.808011   -1.121373
  H      0.392825   -2.584277   -1.036265
  H     -1.979443   -2.360159    2.007741
  H     -3.748959   -1.960914   -0.908389

 Total Charge           Charge          ....    0
 Multiplicity           Mult            ....    1
 Number of Electrons    NEL             ....   68
 Basis Dimension        Dim             ....  333

ORBITAL ENERGIES
----------------

  NO   OCC          E(Eh)            E(eV)
   0   2.0000     -20.584123      -560.1225
   1   2.0000     -20.551940      -559.2467
   2   2.0000     -15.573422      -423.7744
   3   2.0000     -11.314247      -307.8763
   4   2.0000     -11.275601      -306.8247
   5   2.0000     -11.272791      -306.7482
   6   2.0000     -11.269908      -306.6698
   7   2.0000     -11.266140      -306.5672
   8   2.0000     -11.240016      -305.8564
   9   2.0000      -1.399902       -38.0933
  10   2.0000      -1.358674       -36.9714
  11   2.0000      -1.318317       -35.8732
  12   2.0000      -1.040526       -28.3142
  13   2.0000      -1.021588       -27.7988
  14   2.0000      -0.913727       -24.8638
  15   2.0000      -0.866827       -23.5876
  16   2.0000      -0.780459       -21.2374
  17   2.0000      -0.765751       -20.8371
  18   2.0000      -0.738462       -20.0946
  19   2.0000      -0.691770       -18.8240
  20   2.0000      -0.670066       -18.2334
  21   2.0000      -0.637899       -17.3581
  22   2.0000      -0.610452       -16.6112
  23   2.0000      -0.596201       -16.2235
  24   2.0000      -0.579847       -15.7785
  25   2.0000      -0.561238       -15.2721
  26   2.0000      -0.535292       -14.5660
  27   2.0000      -0.523473       -14.2444
  28   2.0000      -0.509139       -13.8544
  29   2.0000      -0.468653       -12.7527
  30   2.0000      -0.438974       -11.9451
  31   2.0000      -0.434862       -11.8332
  32   2.0000      -0.405936       -11.0461
  33   2.0000      -0.382647       -10.4124
  34   0.0000       0.125072         3.4034
  35   0.0000       0.151631         4.1261
  36   0.0000       0.161841         4.4039
  37   0.0000       0.170653         4.6437
  38   0.0000       0.187162         5.0929

MULLIKEN ATOMIC CHARGES
-----------------------
   0 O :   -0.475293
   1 C :   -0.007752
   2 C :   -0.093644
   3 N :   -0.262436
   4 C :   -0.075375
   5 C :   -0.225442
   6 C :    0.250189
   7 O :   -0.441976
   8 C :   -0.190955
   9 H :    0.328372
  10 H :    0.100843
  11 H :    0.112906
  12 H :    0.107548
  13 H :    0.141324
  14 H :    0.128208
  15 H :    0.120269
  16 H :    0.327928
  17 H :    0.155286
Sum of atomic charges:   -0.0000000

LOEWDIN ATOMIC CHARGES
----------------------
   0 O :   -0.045665
   1 C :   -0.324037
   2 C :   -0.251644
   3 N :    0.130468
   4 C :   -0.203956
   5 C :   -0.184311
   6 C :   -0.321191
   7 O :    0.040109
   8 C :   -0.154727
   9 H :    0.179076
  10 H :    0.120118
  11 H :    0.132722
  12 H :    0.153826
  13 H :    0.135464
  14 H :    0.150460
  15 H :    0.125686
  16 H :    0.186653
  17 H :    0.130950

  Mayer bond orders larger than 0.1
B(  0-O ,  1-C ) :   0.9194 B(  0-O ,  9-H ) :   0.8342 B(  1-C ,  2-C ) :   0.9527
B(  1-C , 10-H ) :   0.9174 B(  1-C , 11-H ) :   0.9259 B(  2-C ,  3-N ) :   0.9122
B(  2-C ,  6-C ) :   0.9315 B(  2-C , 12-H ) :   0.9120 B(  3-N ,  4-C ) :   0.8218
B(  3-N ,  8-C ) :   0.9352 B(  4-C ,  5-C ) :   0.9055 B(  4-C ,  8-C ) :   0.8706
B(  4-C , 13-H ) :   0.9376 B(  5-C ,  6-C ) :   0.9294 B(  5-C , 14-H ) :   0.9022
B(  5-C , 15-H ) :   0.9285 B(  6-C ,  7-O ) :   1.0444 B(  6-C ,  8-C ) :   0.8629
B(  7-O , 16-H ) :   0.8331 B(  8-C , 17-H ) :   0.8904

MP2 TOTAL ENERGY:     -438.297294822 Eh
FINAL SINGLE POINT ENERGY      -438.297294821620

DIPOLE MOMENT
-------------
                                X             Y             Z
Electronic contribution:     -2.07405       0.10978       0.61308
Nuclear contribution   :      1.65070      -0.75790      -0.58296
                        -----------------------------------------
Total Dipole Moment    :     -0.42335      -0.64812       0.03012
                        -----------------------------------------
Magnitude (a.u.)       :      0.77472
Magnitude (Debye)      :      1.96918

                             ****ORCA TERMINATED NORMALLY****
TOTAL RUN TIME: 0 days 0 hours 17 minutes 58 seconds 92 msec
