                         Program Version 3.0.3 - RELEASE   -
|  1> ! RI-MP2 RIJK def2-TZVP def2-TZVP/C def2-TZVP/JK TIGHTSCF
|  2> % maxcore 2000
|  3> % mp2 density relaxed end
|  4> *xyz 0 1
|  5>  C       -0.0993752205     1.3399815783    -0.0329441537
|  6>  C        1.3019649641     1.9473168549     0.1118027699
|  7>  C        2.1433454327     0.7422178036     0.5777367897
|  8>  C        2.1781624006     0.5207676063     2.0794707912
|  9>  O        0.8742155340     0.3774948663     2.6660911809
| 10>  C        1.6445211069    -0.8062582694     2.4146953145
| 11>  C        1.2435707260    -1.5320504431     1.1487461235
| 12>  C        1.3632513663    -0.4855839725     0.0062031484
| 13>  O        0.1064320889    -0.0057659251    -0.4579453327
| 14>  H       -0.6317219478     1.3642503112     0.9247472466
| 15>  H       -0.7099622777     1.8364830574    -0.7934307814
| 16>  H        1.6654100770     2.3070771419    -0.8557076116
| 17>  H        1.3272560569     2.7822512585     0.8169390402
| 18>  H        3.1685624660     0.7875730997     0.1983131792
| 19>  H        2.9060251064     1.0419760727     2.6975477900
| 20>  H        1.9450510380    -1.3552062195     3.3041737845
| 21>  H        1.9246673002    -2.3738687240     0.9781309414
| 22>  H        0.2255285963    -1.9287793715     1.1938681342
| 23>  H        1.8683343758    -0.9301588354    -0.8583357047
| 24> *
| 25>
| 26>                          ****END OF INPUT****

CARTESIAN COORDINATES (ANGSTROEM)
---------------------------------
  C     -0.099375    1.339982   -0.032944
  C      1.301965    1.947317    0.111803
  C      2.143345    0.742218    0.577737
  C      2.178162    0.520768    2.079471
  O      0.874216    0.377495    2.666091
  C      1.644521   -0.806258    2.414695
  C      1.243571   -1.532050    1.148746
  C      1.363251   -0.485584    0.006203
  O      0.106432   -0.005766   -0.457945
  H     -0.631722    1.364250    0.924747
  H     -0.709962    1.836483   -0.793431
  H      1.665410    2.307077   -0.855708
  H      1.327256    2.782251    0.816939
  H      3.168562    0.787573    0.198313
  H      2.906025    1.041976    2.697548
  H      1.945051   -1.355206    3.304174
  H      1.924667   -2.373869    0.978131
  H      0.225529   -1.928779    1.193868
  H      1.868334   -0.930159   -0.858336

 Total Charge           Charge          ....    0
 Multiplicity           Mult            ....    1
 Number of Electrons    NEL             ....   68
 Basis Dimension        Dim             ....  339

ORBITAL ENERGIES
----------------

  NO   OCC          E(Eh)            E(eV)
   0   2.0000     -20.565401      -559.6130
   1   2.0000     -20.542521      -558.9904
   2   2.0000     -11.285004      -307.0806
   3   2.0000     -11.284106      -307.0561
   4   2.0000     -11.279556      -306.9323
   5   2.0000     -11.261648      -306.4450
   6   2.0000     -11.238308      -305.8099
   7   2.0000     -11.226713      -305.4944
   8   2.0000     -11.225308      -305.4562
   9   2.0000      -1.413354       -38.4593
  10   2.0000      -1.366538       -37.1854
  11   2.0000      -1.086322       -29.5603
  12   2.0000      -1.042949       -28.3801
  13   2.0000      -0.954175       -25.9644
  14   2.0000      -0.914709       -24.8905
  15   2.0000      -0.821902       -22.3651
  16   2.0000      -0.784619       -21.3506
  17   2.0000      -0.771175       -20.9847
  18   2.0000      -0.720191       -19.5974
  19   2.0000      -0.670805       -18.2535
  20   2.0000      -0.651229       -17.7208
  21   2.0000      -0.611644       -16.6437
  22   2.0000      -0.599481       -16.3127
  23   2.0000      -0.587856       -15.9964
  24   2.0000      -0.547707       -14.9039
  25   2.0000      -0.544654       -14.8208
  26   2.0000      -0.526483       -14.3263
  27   2.0000      -0.501863       -13.6564
  28   2.0000      -0.497771       -13.5450
  29   2.0000      -0.477172       -12.9845
  30   2.0000      -0.464432       -12.6378
  31   2.0000      -0.430837       -11.7237
  32   2.0000      -0.418509       -11.3882
  33   2.0000      -0.401217       -10.9177
  34   0.0000       0.136984         3.7275
  35   0.0000       0.156273         4.2524
  36   0.0000       0.172055         4.6818
  37   0.0000       0.174894         4.7591
  38   0.0000       0.192492         5.2380

MULLIKEN ATOMIC CHARGES
-----------------------
   0 C :   -0.035643
   1 C :   -0.265836
   2 C :   -0.010890
   3 C :   -0.026910
   4 O :   -0.335208
   5 C :   -0.031232
   6 C :   -0.185835
   7 C :    0.067348
   8 O :   -0.329611
   9 H :    0.105014
  10 H :    0.108449
  11 H :    0.118043
  12 H :    0.121740
  13 H :    0.112846
  14 H :    0.130607
  15 H :    0.122605
  16 H :    0.110233
  17 H :    0.124788
  18 H :    0.099492
Sum of atomic charges:    0.0000000

LOEWDIN ATOMIC CHARGES
----------------------
   0 C :   -0.303366
   1 C :   -0.234762
   2 C :   -0.204324
   3 C :   -0.238298
   4 O :    0.170435
   5 C :   -0.258905
   6 C :   -0.217887
   7 C :   -0.256378
   8 O :    0.164510
   9 H :    0.121991
  10 H :    0.122154
  11 H :    0.138076
  12 H :    0.141705
  13 H :    0.155632
  14 H :    0.135148
  15 H :    0.134116
  16 H :    0.143382
  17 H :    0.149097
  18 H :    0.137675

  Mayer bond orders larger than 0.1
B(  0-C ,  1-C ) :   0.9768 B(  0-C ,  8-O ) :   0.9329 B(  0-C ,  9-H ) :   0.9158
B(  0-C , 10-H ) :   0.9254 B(  1-C ,  2-C ) :   0.8846 B(  1-C , 11-H ) :   0.9241
B(  1-C , 12-H ) :   0.9166 B(  2-C ,  3-C ) :   0.9162 B(  2-C ,  7-C ) :   0.9437
B(  2-C , 13-H ) :   0.9058 B(  3-C ,  4-O ) :   0.8887 B(  3-C ,  5-C ) :   0.9555
B(  3-C , 14-H ) :   0.9208 B(  4-O ,  5-C ) :   0.9140 B(  5-C ,  6-C ) :   0.9492
B(  5-C , 15-H ) :   0.9259 B(  6-C ,  7-C ) :   0.9341 B(  6-C , 16-H ) :   0.9099
B(  6-C , 17-H ) :   0.8973 B(  7-C ,  8-O ) :   0.9513 B(  7-C , 18-H ) :   0.9246

MP2 TOTAL ENERGY:     -422.324107328 Eh
FINAL SINGLE POINT ENERGY      -422.324107328492

DIPOLE MOMENT
-------------
                                X             Y             Z
Electronic contribution:     -0.94301      -1.02991       1.70653
Nuclear contribution   :      1.89833       1.06260      -1.68900
                        -----------------------------------------
Total Dipole Moment    :      0.95531       0.03270       0.01752
                        -----------------------------------------
Magnitude (a.u.)       :      0.95603
Magnitude (Debye)      :      2.43004

                             ****ORCA TERMINATED NORMALLY****
TOTAL RUN TIME: 0 days 0 hours 17 minutes 56 seconds 257 msec
