                         Program Version 3.0.3 - RELEASE   -
|  1> ! RI-MP2 RIJK def2-TZVP def2-TZVP/C def2-TZVP/JK TIGHTSCF
|  2> % maxcore 2000
|  3> % mp2 density relaxed end
|  4> *xyz 0 1
|  5>  O       -0.0549455661     1.3812873697    -0.3594040209
|  6>  C       -0.0439009833     0.0421334449     0.0989566950
|  7>  C       -1.4124028624    -0.5722061520     0.0599650573
|  8>  O       -2.3362279140     0.1271727807     0.8748885284
|  9>  C       -3.3810140066    -0.7866276843     1.2362243245
| 10>  C       -3.2161524590    -1.9281101781     0.2454468736
| 11>  O       -3.3876141703    -1.3509683942    -1.0879403011
| 12>  C       -1.9706484904    -1.2270267607    -1.1940331966
| 13>  C       -1.6856800202    -2.0482961481     0.0435101225
| 14>  H       -0.7460823585     1.8349063786     0.1365182256
| 15>  H        0.6331372396    -0.5141665784    -0.5578997995
| 16>  H        0.3512067752    -0.0278103897     1.1249773261
| 17>  H       -3.2613319711    -1.1222591798     2.2777427269
| 18>  H       -4.3454541724    -0.2834099914     1.1227003449
| 19>  H       -3.8283230352    -2.8167718853     0.4006060926
| 20>  H       -1.5258446767    -1.1967153969    -2.1822292980
| 21>  H       -1.0246066486    -2.8725140049     0.2755974787
| 22> *
| 23>
| 24>                          ****END OF INPUT****

CARTESIAN COORDINATES (ANGSTROEM)
---------------------------------
  O     -0.054946    1.381287   -0.359404
  C     -0.043901    0.042133    0.098957
  C     -1.412403   -0.572206    0.059965
  O     -2.336228    0.127173    0.874889
  C     -3.381014   -0.786628    1.236224
  C     -3.216152   -1.928110    0.245447
  O     -3.387614   -1.350968   -1.087940
  C     -1.970648   -1.227027   -1.194033
  C     -1.685680   -2.048296    0.043510
  H     -0.746082    1.834906    0.136518
  H      0.633137   -0.514167   -0.557900
  H      0.351207   -0.027810    1.124977
  H     -3.261332   -1.122259    2.277743
  H     -4.345454   -0.283410    1.122700
  H     -3.828323   -2.816772    0.400606
  H     -1.525845   -1.196715   -2.182229
  H     -1.024607   -2.872514    0.275597

 Total Charge           Charge          ....    0
 Multiplicity           Mult            ....    1
 Number of Electrons    NEL             ....   68
 Basis Dimension        Dim             ....  327

ORBITAL ENERGIES
----------------

  NO   OCC          E(Eh)            E(eV)
   0   2.0000     -20.569634      -559.7282
   1   2.0000     -20.563429      -559.5593
   2   2.0000     -20.555625      -559.3470
   3   2.0000     -11.305774      -307.6458
   4   2.0000     -11.298909      -307.4589
   5   2.0000     -11.298258      -307.4412
   6   2.0000     -11.287994      -307.1619
   7   2.0000     -11.287370      -307.1449
   8   2.0000     -11.248938      -306.0992
   9   2.0000      -1.432071       -38.9686
  10   2.0000      -1.371339       -37.3160
  11   2.0000      -1.355392       -36.8821
  12   2.0000      -1.127157       -30.6715
  13   2.0000      -1.029300       -28.0087
  14   2.0000      -0.946484       -25.7551
  15   2.0000      -0.875484       -23.8231
  16   2.0000      -0.795866       -21.6566
  17   2.0000      -0.758457       -20.6387
  18   2.0000      -0.741525       -20.1779
  19   2.0000      -0.692711       -18.8496
  20   2.0000      -0.674959       -18.3666
  21   2.0000      -0.648586       -17.6489
  22   2.0000      -0.638537       -17.3755
  23   2.0000      -0.605551       -16.4779
  24   2.0000      -0.590908       -16.0794
  25   2.0000      -0.571420       -15.5491
  26   2.0000      -0.550668       -14.9844
  27   2.0000      -0.524428       -14.2704
  28   2.0000      -0.511016       -13.9055
  29   2.0000      -0.484310       -13.1787
  30   2.0000      -0.467847       -12.7308
  31   2.0000      -0.458728       -12.4826
  32   2.0000      -0.411134       -11.1875
  33   2.0000      -0.369786       -10.0624
  34   0.0000       0.142448         3.8762
  35   0.0000       0.155006         4.2179
  36   0.0000       0.166254         4.5240
  37   0.0000       0.172067         4.6822
  38   0.0000       0.187438         5.1005

MULLIKEN ATOMIC CHARGES
-----------------------
   0 O :   -0.467737
   1 C :   -0.020200
   2 C :    0.170397
   3 O :   -0.342209
   4 C :   -0.035691
   5 C :    0.056572
   6 O :   -0.318721
   7 C :    0.008087
   8 C :   -0.247277
   9 H :    0.329624
  10 H :    0.108164
  11 H :    0.105419
  12 H :    0.094402
  13 H :    0.122225
  14 H :    0.138547
  15 H :    0.142029
  16 H :    0.156371
Sum of atomic charges:   -0.0000000

LOEWDIN ATOMIC CHARGES
----------------------
   0 O :   -0.038684
   1 C :   -0.303154
   2 C :   -0.312546
   3 O :    0.189922
   4 C :   -0.265152
   5 C :   -0.226993
   6 O :    0.171192
   7 C :   -0.202746
   8 C :   -0.133714
   9 H :    0.181031
  10 H :    0.138932
  11 H :    0.126564
  12 H :    0.124981
  13 H :    0.134108
  14 H :    0.140791
  15 H :    0.136873
  16 H :    0.138596

  Mayer bond orders larger than 0.1
B(  0-O ,  1-C ) :   0.9469 B(  0-O ,  9-H ) :   0.8352 B(  1-C ,  2-C ) :   0.9439
B(  1-C , 10-H ) :   0.9198 B(  1-C , 11-H ) :   0.9196 B(  2-C ,  3-O ) :   0.9222
B(  2-C ,  7-C ) :   0.8540 B(  2-C ,  8-C ) :   0.8522 B(  3-O ,  4-C ) :   0.9459
B(  4-C ,  5-C ) :   0.9883 B(  4-C , 12-H ) :   0.9141 B(  4-C , 13-H ) :   0.9085
B(  5-C ,  6-O ) :   0.8937 B(  5-C ,  8-C ) :   0.9122 B(  5-C , 14-H ) :   0.9041
B(  6-O ,  7-C ) :   0.9497 B(  7-C ,  8-C ) :   0.8862 B(  7-C , 15-H ) :   0.9160
B(  8-C , 16-H ) :   0.8969

MP2 TOTAL ENERGY:     -458.171436845 Eh
FINAL SINGLE POINT ENERGY      -458.171436845302

DIPOLE MOMENT
-------------
                                X             Y             Z
Electronic contribution:     -1.58544       0.70031      -1.74377
Nuclear contribution   :      1.56897      -1.68195       2.46745
                        -----------------------------------------
Total Dipole Moment    :     -0.01647      -0.98164       0.72368
                        -----------------------------------------
Magnitude (a.u.)       :      1.21967
Magnitude (Debye)      :      3.10015

                             ****ORCA TERMINATED NORMALLY****
TOTAL RUN TIME: 0 days 0 hours 15 minutes 5 seconds 256 msec
