                         Program Version 3.0.3 - RELEASE   -
|  1> ! RI-MP2 RIJK def2-TZVP def2-TZVP/C def2-TZVP/JK TIGHTSCF
|  2> % maxcore 2000
|  3> % mp2 density relaxed end
|  4> *xyz 0 1
|  5>  C        0.1962569856     1.7119816642     0.1836978753
|  6>  C        0.1127703698     0.1721250101     0.0833725401
|  7>  C        0.9271423741    -0.4732214313     1.2273182621
|  8>  C       -1.3406478728    -0.3273399831     0.0520619939
|  9>  C       -2.2077968272     0.0486997356     1.2535653554
| 10>  N       -3.5333821810    -0.2236287676     1.0763199399
| 11>  O       -1.7908106287     0.5400190123     2.2879093005
| 12>  C        0.7954621819    -0.2221291218    -1.2198884472
| 13>  O        0.2851622617    -0.8136399759    -2.1368433645
| 14>  H        1.2346606129     2.0511953884     0.1033892205
| 15>  H       -0.3775923916     2.1938594204    -0.6153380114
| 16>  H       -0.2021407759     2.0376495242     1.1457129094
| 17>  H        0.5095140825    -0.1679965904     2.1873670342
| 18>  H        0.8989021927    -1.5666148783     1.1651186875
| 19>  H        1.9761036629    -0.1605646683     1.1825145925
| 20>  H       -1.8267911605     0.0311114090    -0.8623000386
| 21>  H       -1.3446489994    -1.4211064319    -0.0346015993
| 22>  H       -3.8871579814    -0.6675364879     0.2472945762
| 23>  H       -4.1602039653    -0.0611658730     1.8470596079
| 24>  H        1.8644833397     0.0942659453    -1.2683546546
| 25> *
| 26>
| 27>                          ****END OF INPUT****

CARTESIAN COORDINATES (ANGSTROEM)
---------------------------------
  C      0.196257    1.711982    0.183698
  C      0.112770    0.172125    0.083373
  C      0.927142   -0.473221    1.227318
  C     -1.340648   -0.327340    0.052062
  C     -2.207797    0.048700    1.253565
  N     -3.533382   -0.223629    1.076320
  O     -1.790811    0.540019    2.287909
  C      0.795462   -0.222129   -1.219888
  O      0.285162   -0.813640   -2.136843
  H      1.234661    2.051195    0.103389
  H     -0.377592    2.193859   -0.615338
  H     -0.202141    2.037650    1.145713
  H      0.509514   -0.167997    2.187367
  H      0.898902   -1.566615    1.165119
  H      1.976104   -0.160565    1.182515
  H     -1.826791    0.031111   -0.862300
  H     -1.344649   -1.421106   -0.034602
  H     -3.887158   -0.667536    0.247295
  H     -4.160204   -0.061166    1.847060
  H      1.864483    0.094266   -1.268355

 Total Charge           Charge          ....    0
 Multiplicity           Mult            ....    1
 Number of Electrons    NEL             ....   70
 Basis Dimension        Dim             ....  345

ORBITAL ENERGIES
----------------

  NO   OCC          E(Eh)            E(eV)
   0   2.0000     -20.559481      -559.4519
   1   2.0000     -20.522615      -558.4488
   2   2.0000     -15.586206      -424.1222
   3   2.0000     -11.358627      -309.0840
   4   2.0000     -11.330992      -308.3320
   5   2.0000     -11.258403      -306.3567
   6   2.0000     -11.246400      -306.0301
   7   2.0000     -11.224902      -305.4451
   8   2.0000     -11.222863      -305.3896
   9   2.0000      -1.399578       -38.0845
  10   2.0000      -1.387561       -37.7574
  11   2.0000      -1.215151       -33.0660
  12   2.0000      -1.118708       -30.4416
  13   2.0000      -0.986320       -26.8391
  14   2.0000      -0.942985       -25.6599
  15   2.0000      -0.876386       -23.8477
  16   2.0000      -0.812931       -22.1210
  17   2.0000      -0.755254       -20.5515
  18   2.0000      -0.709635       -19.3101
  19   2.0000      -0.687772       -18.7152
  20   2.0000      -0.659703       -17.9514
  21   2.0000      -0.640754       -17.4358
  22   2.0000      -0.635495       -17.2927
  23   2.0000      -0.598755       -16.2930
  24   2.0000      -0.585317       -15.9273
  25   2.0000      -0.579214       -15.7612
  26   2.0000      -0.546101       -14.8602
  27   2.0000      -0.541319       -14.7300
  28   2.0000      -0.522097       -14.2070
  29   2.0000      -0.518923       -14.1206
  30   2.0000      -0.486184       -13.2297
  31   2.0000      -0.475126       -12.9288
  32   2.0000      -0.433272       -11.7899
  33   2.0000      -0.420692       -11.4476
  34   2.0000      -0.410332       -11.1657
  35   0.0000       0.120544         3.2802
  36   0.0000       0.133007         3.6193
  37   0.0000       0.144014         3.9188
  38   0.0000       0.167512         4.5582
  39   0.0000       0.170862         4.6494

MULLIKEN ATOMIC CHARGES
-----------------------
   0 C :   -0.459634
   1 C :    0.173316
   2 C :   -0.458892
   3 C :   -0.328219
   4 C :    0.316801
   5 N :   -0.480607
   6 O :   -0.370716
   7 C :    0.075601
   8 O :   -0.268498
   9 H :    0.131871
  10 H :    0.134876
  11 H :    0.178446
  12 H :    0.182170
  13 H :    0.132803
  14 H :    0.130752
  15 H :    0.151795
  16 H :    0.152061
  17 H :    0.261940
  18 H :    0.259503
  19 H :    0.084631
Sum of atomic charges:    0.0000000

LOEWDIN ATOMIC CHARGES
----------------------
   0 C :   -0.259421
   1 C :   -0.322012
   2 C :   -0.260282
   3 C :   -0.197191
   4 C :   -0.466669
   5 N :   -0.019318
   6 O :    0.077640
   7 C :   -0.255349
   8 O :    0.135152
   9 H :    0.127307
  10 H :    0.127975
  11 H :    0.138284
  12 H :    0.138632
  13 H :    0.127370
  14 H :    0.126554
  15 H :    0.157212
  16 H :    0.160798
  17 H :    0.171362
  18 H :    0.173163
  19 H :    0.118791

  Mayer bond orders larger than 0.1
B(  0-C ,  1-C ) :   0.8877 B(  0-C ,  9-H ) :   0.9248 B(  0-C , 10-H ) :   0.9296
B(  0-C , 11-H ) :   0.9263 B(  1-C ,  2-C ) :   0.8935 B(  1-C ,  3-C ) :   0.9131
B(  1-C ,  7-C ) :   0.8308 B(  2-C , 12-H ) :   0.9249 B(  2-C , 13-H ) :   0.9289
B(  2-C , 14-H ) :   0.9252 B(  3-C ,  4-C ) :   0.8958 B(  3-C , 15-H ) :   0.9035
B(  3-C , 16-H ) :   0.8950 B(  4-C ,  5-N ) :   1.1795 B(  4-C ,  6-O ) :   1.9148
B(  5-N , 17-H ) :   0.8713 B(  5-N , 18-H ) :   0.8579 B(  7-C ,  8-O ) :   2.0026
B(  7-C , 19-H ) :   0.9544

MP2 TOTAL ENERGY:     -439.619956564 Eh
FINAL SINGLE POINT ENERGY      -439.619956563964

DIPOLE MOMENT
-------------
                                X             Y             Z
Electronic contribution:     -3.35921      -1.85063      -1.52210
Nuclear contribution   :      2.76131       1.74645       1.45483
                        -----------------------------------------
Total Dipole Moment    :     -0.59790      -0.10418      -0.06727
                        -----------------------------------------
Magnitude (a.u.)       :      0.61062
Magnitude (Debye)      :      1.55208

                             ****ORCA TERMINATED NORMALLY****
TOTAL RUN TIME: 0 days 0 hours 20 minutes 14 seconds 652 msec
