                         Program Version 3.0.3 - RELEASE   -
|  1> ! RI-MP2 RIJK def2-TZVP def2-TZVP/C def2-TZVP/JK TIGHTSCF
|  2> % maxcore 2000
|  3> % mp2 density relaxed end
|  4> *xyz 0 1
|  5>  C        0.8072440995     0.8721973958     0.4267857639
|  6>  C       -0.3904089467     0.1751283334    -0.1973050777
|  7>  O       -1.5052192555     0.3378045040     0.2497300625
|  8>  C       -0.1970839314    -0.6675804107    -1.4465409387
|  9>  C       -1.1629565511    -0.2266151510    -2.5387456082
| 10>  C        1.1675008263    -1.2044874642    -1.8235759683
| 11>  C        0.1370439582    -2.1535213571    -1.2571899136
| 12>  C        0.3343032320    -2.6844641950     0.1538692013
| 13>  C       -0.4958912869    -3.1879049247    -2.1718863177
| 14>  H        1.2896354429     1.5154693354    -0.3184208231
| 15>  H        0.4709901412     1.4723639570     1.2731122580
| 16>  H        1.5683444409     0.1621023552     0.7636489063
| 17>  H       -0.9878147140     0.8227941939    -2.8023840000
| 18>  H       -1.0469273762    -0.8139871447    -3.4510032626
| 19>  H       -2.1954353621    -0.3124921526    -2.1912823521
| 20>  H        1.3960246825    -1.2711272208    -2.8832599897
| 21>  H        2.0252666682    -0.9502494923    -1.2095117868
| 22>  H        0.8442204566    -1.9735194517     0.8078246756
| 23>  H       -0.6279148280    -2.9273950840     0.6183661901
| 24>  H        0.9357822439    -3.6006007176     0.1337447893
| 25>  H        0.0985825352    -4.1090827064    -2.1572898874
| 26>  H       -1.5080065201    -3.4447190615    -1.8385881222
| 27>  H       -0.5577045653    -2.8585038105    -3.2106581489
| 28> *
| 29>
| 30>                          ****END OF INPUT****

CARTESIAN COORDINATES (ANGSTROEM)
---------------------------------
  C      0.807244    0.872197    0.426786
  C     -0.390409    0.175128   -0.197305
  O     -1.505219    0.337805    0.249730
  C     -0.197084   -0.667580   -1.446541
  C     -1.162957   -0.226615   -2.538746
  C      1.167501   -1.204487   -1.823576
  C      0.137044   -2.153521   -1.257190
  C      0.334303   -2.684464    0.153869
  C     -0.495891   -3.187905   -2.171886
  H      1.289635    1.515469   -0.318421
  H      0.470990    1.472364    1.273112
  H      1.568344    0.162102    0.763649
  H     -0.987815    0.822794   -2.802384
  H     -1.046927   -0.813987   -3.451003
  H     -2.195435   -0.312492   -2.191282
  H      1.396025   -1.271127   -2.883260
  H      2.025267   -0.950249   -1.209512
  H      0.844220   -1.973519    0.807825
  H     -0.627915   -2.927395    0.618366
  H      0.935782   -3.600601    0.133745
  H      0.098583   -4.109083   -2.157290
  H     -1.508007   -3.444719   -1.838588
  H     -0.557705   -2.858504   -3.210658

 Total Charge           Charge          ....    0
 Multiplicity           Mult            ....    1
 Number of Electrons    NEL             ....   70
 Basis Dimension        Dim             ....  363

ORBITAL ENERGIES
----------------

  NO   OCC          E(Eh)            E(eV)
   0   2.0000     -20.537400      -558.8511
   1   2.0000     -11.326839      -308.2190
   2   2.0000     -11.250200      -306.1335
   3   2.0000     -11.245244      -305.9986
   4   2.0000     -11.231958      -305.6371
   5   2.0000     -11.229998      -305.5838
   6   2.0000     -11.222264      -305.3733
   7   2.0000     -11.220748      -305.3321
   8   2.0000     -11.219145      -305.2885
   9   2.0000      -1.382308       -37.6145
  10   2.0000      -1.171442       -31.8766
  11   2.0000      -1.020451       -27.7679
  12   2.0000      -0.996573       -27.1181
  13   2.0000      -0.953586       -25.9484
  14   2.0000      -0.938399       -25.5351
  15   2.0000      -0.842557       -22.9272
  16   2.0000      -0.768421       -20.9098
  17   2.0000      -0.695030       -18.9127
  18   2.0000      -0.665820       -18.1179
  19   2.0000      -0.641809       -17.4645
  20   2.0000      -0.622312       -16.9340
  21   2.0000      -0.600605       -16.3433
  22   2.0000      -0.587729       -15.9929
  23   2.0000      -0.580411       -15.7938
  24   2.0000      -0.565489       -15.3877
  25   2.0000      -0.553656       -15.0657
  26   2.0000      -0.542968       -14.7749
  27   2.0000      -0.537415       -14.6238
  28   2.0000      -0.531007       -14.4494
  29   2.0000      -0.524505       -14.2725
  30   2.0000      -0.490318       -13.3422
  31   2.0000      -0.483058       -13.1447
  32   2.0000      -0.422663       -11.5013
  33   2.0000      -0.402352       -10.9486
  34   2.0000      -0.382416       -10.4061
  35   0.0000       0.126102         3.4314
  36   0.0000       0.148290         4.0352
  37   0.0000       0.153805         4.1852
  38   0.0000       0.164993         4.4897
  39   0.0000       0.180933         4.9234

MULLIKEN ATOMIC CHARGES
-----------------------
   0 C :   -0.420753
   1 C :    0.149152
   2 O :   -0.285457
   3 C :    0.106056
   4 C :   -0.398607
   5 C :   -0.315446
   6 C :    0.042336
   7 C :   -0.381917
   8 C :   -0.397637
   9 H :    0.152745
  10 H :    0.153840
  11 H :    0.136624
  12 H :    0.132066
  13 H :    0.122314
  14 H :    0.156274
  15 H :    0.129585
  16 H :    0.130300
  17 H :    0.116936
  18 H :    0.142980
  19 H :    0.133343
  20 H :    0.133466
  21 H :    0.138853
  22 H :    0.122946
Sum of atomic charges:   -0.0000000

LOEWDIN ATOMIC CHARGES
----------------------
   0 C :   -0.278176
   1 C :   -0.309926
   2 O :    0.154332
   3 C :   -0.203863
   4 C :   -0.256907
   5 C :   -0.170000
   6 C :   -0.247633
   7 C :   -0.260085
   8 C :   -0.262660
   9 H :    0.139219
  10 H :    0.132996
  11 H :    0.129532
  12 H :    0.129319
  13 H :    0.124103
  14 H :    0.135458
  15 H :    0.137686
  16 H :    0.135253
  17 H :    0.126152
  18 H :    0.132701
  19 H :    0.128214
  20 H :    0.129434
  21 H :    0.130569
  22 H :    0.124281

  Mayer bond orders larger than 0.1
B(  0-C ,  1-C ) :   0.9302 B(  0-C ,  9-H ) :   0.9158 B(  0-C , 10-H ) :   0.9385
B(  0-C , 11-H ) :   0.9135 B(  1-C ,  2-O ) :   2.0115 B(  1-C ,  3-C ) :   0.8450
B(  3-C ,  4-C ) :   0.8949 B(  3-C ,  5-C ) :   0.8633 B(  3-C ,  6-C ) :   0.8297
B(  4-C , 12-H ) :   0.9329 B(  4-C , 13-H ) :   0.9340 B(  4-C , 14-H ) :   0.9354
B(  5-C ,  6-C ) :   0.8981 B(  5-C , 15-H ) :   0.9195 B(  5-C , 16-H ) :   0.9174
B(  6-C ,  7-C ) :   0.9180 B(  6-C ,  8-C ) :   0.9163 B(  7-C , 17-H ) :   0.9264
B(  7-C , 18-H ) :   0.9365 B(  7-C , 19-H ) :   0.9346 B(  8-C , 20-H ) :   0.9363
B(  8-C , 21-H ) :   0.9387 B(  8-C , 22-H ) :   0.9329

MP2 TOTAL ENERGY:     -387.627133181 Eh
FINAL SINGLE POINT ENERGY      -387.627133180949

DIPOLE MOMENT
-------------
                                X             Y             Z
Electronic contribution:     -2.77194       4.14360       2.61844
Nuclear contribution   :      3.65752      -4.43552      -3.04962
                        -----------------------------------------
Total Dipole Moment    :      0.88558      -0.29192      -0.43118
                        -----------------------------------------
Magnitude (a.u.)       :      1.02732
Magnitude (Debye)      :      2.61124

                             ****ORCA TERMINATED NORMALLY****
TOTAL RUN TIME: 0 days 0 hours 25 minutes 6 seconds 47 msec
