                         Program Version 3.0.3 - RELEASE   -
|  1> ! RI-MP2 RIJK def2-TZVP def2-TZVP/C def2-TZVP/JK TIGHTSCF
|  2> % maxcore 2000
|  3> % mp2 density relaxed end
|  4> *xyz 0 1
|  5>  C       -0.4660532230     1.0459724184    -0.2321174600
|  6>  O        0.4317711320    -0.0011087722     0.0744802346
|  7>  C        0.9201295793    -0.6428360101    -1.0626836386
|  8>  C        1.5630670410    -1.9795984598    -0.8590472067
|  9>  C        0.2369811318    -1.8881756860    -1.5698064279
| 10>  C       -1.1197436562    -2.3988755714    -1.0750926910
| 11>  C       -1.6111823062    -2.3713967531    -2.5517317936
| 12>  C       -0.1336688891    -2.2170948892    -3.0290168205
| 13>  C        0.1702047902    -1.2119062553    -4.1301636464
| 14>  H        0.0213339902     1.8332736132    -0.8278218650
| 15>  H       -1.3435649236     0.6873722528    -0.7892609759
| 16>  H       -0.7969173859     1.4762909555     0.7161851453
| 17>  H        1.3674997650     0.0312896223    -1.7962596577
| 18>  H        2.4583625535    -2.2092486789    -1.4292118359
| 19>  H        1.5524774615    -2.3739776727     0.1524146691
| 20>  H       -1.0638120338    -3.4140951634    -0.6692080656
| 21>  H       -1.6493785709    -1.7704386319    -0.3553587590
| 22>  H       -2.1597753519    -3.2448146852    -2.9116495879
| 23>  H       -2.2002692763    -1.4759957088    -2.7733164657
| 24>  H        0.2762639149    -3.1974891151    -3.3032950065
| 25>  H       -0.2364213769    -0.2241400657    -3.8863892010
| 26>  H        1.2486385788    -1.0997335526    -4.2920727181
| 27>  H       -0.2726980244    -1.5297460206    -5.0805208659
| 28> *
| 29>
| 30>                          ****END OF INPUT****

CARTESIAN COORDINATES (ANGSTROEM)
---------------------------------
  C     -0.466053    1.045972   -0.232117
  O      0.431771   -0.001109    0.074480
  C      0.920130   -0.642836   -1.062684
  C      1.563067   -1.979598   -0.859047
  C      0.236981   -1.888176   -1.569806
  C     -1.119744   -2.398876   -1.075093
  C     -1.611182   -2.371397   -2.551732
  C     -0.133669   -2.217095   -3.029017
  C      0.170205   -1.211906   -4.130164
  H      0.021334    1.833274   -0.827822
  H     -1.343565    0.687372   -0.789261
  H     -0.796917    1.476291    0.716185
  H      1.367500    0.031290   -1.796260
  H      2.458363   -2.209249   -1.429212
  H      1.552477   -2.373978    0.152415
  H     -1.063812   -3.414095   -0.669208
  H     -1.649379   -1.770439   -0.355359
  H     -2.159775   -3.244815   -2.911650
  H     -2.200269   -1.475996   -2.773316
  H      0.276264   -3.197489   -3.303295
  H     -0.236421   -0.224140   -3.886389
  H      1.248639   -1.099734   -4.292073
  H     -0.272698   -1.529746   -5.080521

 Total Charge           Charge          ....    0
 Multiplicity           Mult            ....    1
 Number of Electrons    NEL             ....   70
 Basis Dimension        Dim             ....  363

ORBITAL ENERGIES
----------------

  NO   OCC          E(Eh)            E(eV)
   0   2.0000     -20.556961      -559.3833
   1   2.0000     -11.274280      -306.7887
   2   2.0000     -11.270192      -306.6775
   3   2.0000     -11.226984      -305.5018
   4   2.0000     -11.226419      -305.4864
   5   2.0000     -11.217567      -305.2455
   6   2.0000     -11.216776      -305.2240
   7   2.0000     -11.215400      -305.1866
   8   2.0000     -11.214056      -305.1500
   9   2.0000      -1.379252       -37.5314
  10   2.0000      -1.158888       -31.5350
  11   2.0000      -1.069938       -29.1145
  12   2.0000      -0.980917       -26.6921
  13   2.0000      -0.927359       -25.2347
  14   2.0000      -0.850380       -23.1400
  15   2.0000      -0.828848       -22.5541
  16   2.0000      -0.808157       -21.9911
  17   2.0000      -0.721354       -19.6290
  18   2.0000      -0.677137       -18.4258
  19   2.0000      -0.659632       -17.9495
  20   2.0000      -0.632003       -17.1977
  21   2.0000      -0.620063       -16.8728
  22   2.0000      -0.596837       -16.2408
  23   2.0000      -0.574836       -15.6421
  24   2.0000      -0.562579       -15.3086
  25   2.0000      -0.551381       -15.0039
  26   2.0000      -0.511945       -13.9307
  27   2.0000      -0.509285       -13.8583
  28   2.0000      -0.502216       -13.6660
  29   2.0000      -0.484519       -13.1844
  30   2.0000      -0.460618       -12.5341
  31   2.0000      -0.454992       -12.3810
  32   2.0000      -0.427685       -11.6379
  33   2.0000      -0.387329       -10.5398
  34   2.0000      -0.369764       -10.0618
  35   0.0000       0.133042         3.6203
  36   0.0000       0.150646         4.0993
  37   0.0000       0.157531         4.2866
  38   0.0000       0.168711         4.5909
  39   0.0000       0.189180         5.1478

MULLIKEN ATOMIC CHARGES
-----------------------
   0 C :   -0.219304
   1 O :   -0.294420
   2 C :   -0.014832
   3 C :   -0.263753
   4 C :   -0.009590
   5 C :   -0.204280
   6 C :   -0.269191
   7 C :    0.054312
   8 C :   -0.451198
   9 H :    0.115290
  10 H :    0.112033
  11 H :    0.142002
  12 H :    0.098179
  13 H :    0.128282
  14 H :    0.130076
  15 H :    0.114384
  16 H :    0.123776
  17 H :    0.116754
  18 H :    0.108368
  19 H :    0.089655
  20 H :    0.125810
  21 H :    0.131294
  22 H :    0.136353
Sum of atomic charges:    0.0000000

LOEWDIN ATOMIC CHARGES
----------------------
   0 C :   -0.351810
   1 O :    0.171540
   2 C :   -0.284104
   3 C :   -0.188527
   4 C :   -0.196249
   5 C :   -0.194735
   6 C :   -0.210192
   7 C :   -0.216996
   8 C :   -0.301552
   9 H :    0.102666
  10 H :    0.101659
  11 H :    0.113797
  12 H :    0.135035
  13 H :    0.135303
  14 H :    0.143332
  15 H :    0.135388
  16 H :    0.128924
  17 H :    0.122899
  18 H :    0.131912
  19 H :    0.150540
  20 H :    0.122374
  21 H :    0.123326
  22 H :    0.125470

  Mayer bond orders larger than 0.1
B(  0-C ,  1-O ) :   0.9003 B(  0-C ,  9-H ) :   0.9356 B(  0-C , 10-H ) :   0.9347
B(  0-C , 11-H ) :   0.9402 B(  1-O ,  2-C ) :   1.0341 B(  2-C ,  3-C ) :   0.9270
B(  2-C ,  4-C ) :   0.8452 B(  2-C , 12-H ) :   0.9442 B(  3-C ,  4-C ) :   0.8600
B(  3-C , 13-H ) :   0.9140 B(  3-C , 14-H ) :   0.9119 B(  4-C ,  5-C ) :   0.8872
B(  4-C ,  7-C ) :   0.8523 B(  5-C ,  6-C ) :   0.9509 B(  5-C , 15-H ) :   0.9192
B(  5-C , 16-H ) :   0.9262 B(  6-C ,  7-C ) :   0.9402 B(  6-C , 17-H ) :   0.9290
B(  6-C , 18-H ) :   0.9177 B(  7-C ,  8-C ) :   0.8800 B(  7-C , 19-H ) :   0.9145
B(  8-C , 20-H ) :   0.9393 B(  8-C , 21-H ) :   0.9412 B(  8-C , 22-H ) :   0.9379

MP2 TOTAL ENERGY:     -387.571755577 Eh
FINAL SINGLE POINT ENERGY      -387.571755577234

DIPOLE MOMENT
-------------
                                X             Y             Z
Electronic contribution:      2.29722      -0.73514       4.21545
Nuclear contribution   :     -2.49376       0.84252      -4.66424
                        -----------------------------------------
Total Dipole Moment    :     -0.19654       0.10738      -0.44879
                        -----------------------------------------
Magnitude (a.u.)       :      0.50157
Magnitude (Debye)      :      1.27490

                             ****ORCA TERMINATED NORMALLY****
TOTAL RUN TIME: 0 days 0 hours 32 minutes 36 seconds 375 msec
