                         Program Version 3.0.3 - RELEASE   -
|  1> ! RI-MP2 RIJK def2-TZVP def2-TZVP/C def2-TZVP/JK TIGHTSCF
|  2> % maxcore 2000
|  3> % mp2 density relaxed end
|  4> *xyz 0 1
|  5>  C       -0.1383696027     1.5358960269     0.1031668409
|  6>  C        0.0547916443     0.0472593258    -0.0762860320
|  7>  C        0.6279315103    -0.6631073101    -1.2383420166
|  8>  N        1.3243127925    -0.6876662289     0.1217229801
|  9>  C        2.4242089083     0.1494632322    -0.4693085957
| 10>  C        1.8228123914     0.0271726361    -1.9142679957
| 11>  N        2.4850417445    -0.9019405166    -2.8248873185
| 12>  C        1.5760677435     1.2786404377    -2.6406302387
| 13>  N        1.4070675186     2.2853166974    -3.1830203859
| 14>  H        0.5757474308     2.1507071739    -0.4447287038
| 15>  H       -1.1367863135     1.8135975061    -0.2486183673
| 16>  H       -0.0749514072     1.7939848223     1.1656547681
| 17>  H       -0.7441836586    -0.5285183293     0.3895218851
| 18>  H        0.1758614132    -1.5464458765    -1.6800741884
| 19>  H        2.5227626884     1.1487725221    -0.0384836956
| 20>  H        3.3798464927    -0.3734467967    -0.3929570573
| 21>  H        3.3747089346    -0.5198923012    -3.1336634001
| 22>  H        2.6818048989    -1.7689628513    -2.3320451588
| 23> *
| 24>
| 25>                          ****END OF INPUT****

CARTESIAN COORDINATES (ANGSTROEM)
---------------------------------
  C     -0.138370    1.535896    0.103167
  C      0.054792    0.047259   -0.076286
  C      0.627932   -0.663107   -1.238342
  N      1.324313   -0.687666    0.121723
  C      2.424209    0.149463   -0.469309
  C      1.822812    0.027173   -1.914268
  N      2.485042   -0.901941   -2.824887
  C      1.576068    1.278640   -2.640630
  N      1.407068    2.285317   -3.183020
  H      0.575747    2.150707   -0.444729
  H     -1.136786    1.813598   -0.248618
  H     -0.074951    1.793985    1.165655
  H     -0.744184   -0.528518    0.389522
  H      0.175861   -1.546446   -1.680074
  H      2.522763    1.148773   -0.038484
  H      3.379846   -0.373447   -0.392957
  H      3.374709   -0.519892   -3.133663
  H      2.681805   -1.768963   -2.332045

 Total Charge           Charge          ....    0
 Multiplicity           Mult            ....    1
 Number of Electrons    NEL             ....   66
 Basis Dimension        Dim             ....  333

ORBITAL ENERGIES
----------------

  NO   OCC          E(Eh)            E(eV)
   0   2.0000     -15.580904      -423.9780
   1   2.0000     -15.577225      -423.8778
   2   2.0000     -15.576380      -423.8549
   3   2.0000     -11.328767      -308.2714
   4   2.0000     -11.286162      -307.1121
   5   2.0000     -11.283346      -307.0354
   6   2.0000     -11.281598      -306.9879
   7   2.0000     -11.276121      -306.8388
   8   2.0000     -11.234099      -305.6954
   9   2.0000      -1.319126       -35.8952
  10   2.0000      -1.232025       -33.5251
  11   2.0000      -1.204642       -32.7800
  12   2.0000      -1.034606       -28.1531
  13   2.0000      -0.990356       -26.9490
  14   2.0000      -0.958318       -26.0772
  15   2.0000      -0.832840       -22.6627
  16   2.0000      -0.796039       -21.6613
  17   2.0000      -0.711214       -19.3531
  18   2.0000      -0.704792       -19.1784
  19   2.0000      -0.660855       -17.9828
  20   2.0000      -0.633822       -17.2472
  21   2.0000      -0.624146       -16.9839
  22   2.0000      -0.597904       -16.2698
  23   2.0000      -0.570257       -15.5175
  24   2.0000      -0.559177       -15.2160
  25   2.0000      -0.554532       -15.0896
  26   2.0000      -0.529391       -14.4055
  27   2.0000      -0.490162       -13.3380
  28   2.0000      -0.468456       -12.7473
  29   2.0000      -0.463206       -12.6045
  30   2.0000      -0.446757       -12.1569
  31   2.0000      -0.425183       -11.5698
  32   2.0000      -0.385437       -10.4883
  33   0.0000       0.121059         3.2942
  34   0.0000       0.142851         3.8872
  35   0.0000       0.151419         4.1203
  36   0.0000       0.156350         4.2545
  37   0.0000       0.177443         4.8285

MULLIKEN ATOMIC CHARGES
-----------------------
   0 C :   -0.391947
   1 C :   -0.027516
   2 C :   -0.099143
   3 N :   -0.231208
   4 C :   -0.175336
   5 C :    0.281490
   6 N :   -0.550646
   7 C :   -0.218734
   8 N :   -0.044376
   9 H :    0.148653
  10 H :    0.145762
  11 H :    0.144737
  12 H :    0.121639
  13 H :    0.147340
  14 H :    0.139308
  15 H :    0.122778
  16 H :    0.243051
  17 H :    0.244147
Sum of atomic charges:   -0.0000000

LOEWDIN ATOMIC CHARGES
----------------------
   0 C :   -0.287381
   1 C :   -0.262626
   2 C :   -0.149592
   3 N :    0.113330
   4 C :   -0.199620
   5 C :   -0.325677
   6 N :   -0.096482
   7 C :   -0.153753
   8 N :    0.070718
   9 H :    0.130848
  10 H :    0.137376
  11 H :    0.131868
  12 H :    0.157780
  13 H :    0.141617
  14 H :    0.130038
  15 H :    0.130998
  16 H :    0.164645
  17 H :    0.165913

  Mayer bond orders larger than 0.1
B(  0-C ,  1-C ) :   0.8896 B(  0-C ,  9-H ) :   0.9329 B(  0-C , 10-H ) :   0.9255
B(  0-C , 11-H ) :   0.9336 B(  1-C ,  2-C ) :   0.9260 B(  1-C ,  3-N ) :   0.9091
B(  1-C , 12-H ) :   0.9266 B(  2-C ,  3-N ) :   0.8415 B(  2-C ,  5-C ) :   0.8716
B(  2-C , 13-H ) :   0.9009 B(  3-N ,  4-C ) :   0.9174 B(  4-C ,  5-C ) :   0.9700
B(  4-C , 14-H ) :   0.9243 B(  4-C , 15-H ) :   0.9114 B(  5-C ,  6-N ) :   0.8501
B(  5-C ,  7-C ) :   0.9423 B(  6-N , 16-H ) :   0.8727 B(  6-N , 17-H ) :   0.8759
B(  7-C ,  8-N ) :   2.8570

MP2 TOTAL ENERGY:     -397.397327240 Eh
FINAL SINGLE POINT ENERGY      -397.397327240383

DIPOLE MOMENT
-------------
                                X             Y             Z
Electronic contribution:      1.22744       0.07335      -4.18747
Nuclear contribution   :     -0.89873      -0.73996       4.94074
                        -----------------------------------------
Total Dipole Moment    :      0.32870      -0.66660       0.75327
                        -----------------------------------------
Magnitude (a.u.)       :      1.05822
Magnitude (Debye)      :      2.68977

                             ****ORCA TERMINATED NORMALLY****
TOTAL RUN TIME: 0 days 0 hours 18 minutes 29 seconds 570 msec
