                         Program Version 3.0.3 - RELEASE   -
|  1> ! RI-MP2 RIJK def2-TZVP def2-TZVP/C def2-TZVP/JK TIGHTSCF
|  2> % maxcore 2000
|  3> % mp2 density relaxed end
|  4> *xyz 0 1
|  5>  C       -0.2681650090     1.5771925491     0.3033558248
|  6>  C       -0.3526677217     0.0778730702     0.5777647348
|  7>  C        1.0113656792    -0.5627705859     0.7604444822
|  8>  O        2.0508432779     0.0267086474     0.5949761675
|  9>  C        1.0311042452    -2.0368261135     1.1591231068
| 10>  C        0.3369467978    -2.4292766316     2.4157856404
| 11>  O       -0.2455469267    -2.7057389632     1.1562905053
| 12>  C        2.1610047008    -2.8059529309     0.7075727959
| 13>  C        3.0981119187    -3.4453061996     0.3139838573
| 14>  H        0.3406508329     1.7769015185    -0.5815343336
| 15>  H       -1.2661511116     1.9933001001     0.1415797046
| 16>  H        0.1946787724     2.1052450534     1.1414316391
| 17>  H       -0.9774329754    -0.1381169649     1.4526868359
| 18>  H       -0.8468859147    -0.4562912637    -0.2448670588
| 19>  H        0.7223647656    -3.2877596939     2.9617410072
| 20>  H       -0.1572322333    -1.6656247822     3.0148016746
| 21>  H        3.9297106818    -4.0066613892    -0.0347771439
| 22> *
| 23>
| 24>                          ****END OF INPUT****

CARTESIAN COORDINATES (ANGSTROEM)
---------------------------------
  C     -0.268165    1.577193    0.303356
  C     -0.352668    0.077873    0.577765
  C      1.011366   -0.562771    0.760444
  O      2.050843    0.026709    0.594976
  C      1.031104   -2.036826    1.159123
  C      0.336947   -2.429277    2.415786
  O     -0.245547   -2.705739    1.156291
  C      2.161005   -2.805953    0.707573
  C      3.098112   -3.445306    0.313984
  H      0.340651    1.776902   -0.581534
  H     -1.266151    1.993300    0.141580
  H      0.194679    2.105245    1.141432
  H     -0.977433   -0.138117    1.452687
  H     -0.846886   -0.456291   -0.244867
  H      0.722365   -3.287760    2.961741
  H     -0.157232   -1.665625    3.014802
  H      3.929711   -4.006661   -0.034777

 Total Charge           Charge          ....    0
 Multiplicity           Mult            ....    1
 Number of Electrons    NEL             ....   66
 Basis Dimension        Dim             ....  327

ORBITAL ENERGIES
----------------

  NO   OCC          E(Eh)            E(eV)
   0   2.0000     -20.604274      -560.6708
   1   2.0000     -20.559009      -559.4391
   2   2.0000     -11.346874      -308.7641
   3   2.0000     -11.338647      -308.5403
   4   2.0000     -11.318794      -308.0000
   5   2.0000     -11.246907      -306.0439
   6   2.0000     -11.246578      -306.0349
   7   2.0000     -11.241135      -305.8868
   8   2.0000     -11.222317      -305.3748
   9   2.0000      -1.450731       -39.4764
  10   2.0000      -1.403533       -38.1921
  11   2.0000      -1.069893       -29.1133
  12   2.0000      -1.057794       -28.7840
  13   2.0000      -0.979064       -26.6417
  14   2.0000      -0.926474       -25.2106
  15   2.0000      -0.888407       -24.1748
  16   2.0000      -0.786528       -21.4025
  17   2.0000      -0.732825       -19.9412
  18   2.0000      -0.712726       -19.3943
  19   2.0000      -0.701225       -19.0813
  20   2.0000      -0.646093       -17.5811
  21   2.0000      -0.634954       -17.2780
  22   2.0000      -0.617715       -16.8089
  23   2.0000      -0.594990       -16.1905
  24   2.0000      -0.551653       -15.0112
  25   2.0000      -0.539193       -14.6722
  26   2.0000      -0.522869       -14.2280
  27   2.0000      -0.508584       -13.8393
  28   2.0000      -0.494813       -13.4645
  29   2.0000      -0.479860       -13.0576
  30   2.0000      -0.432721       -11.7749
  31   2.0000      -0.407449       -11.0872
  32   2.0000      -0.388546       -10.5729
  33   0.0000       0.121871         3.3163
  34   0.0000       0.132050         3.5933
  35   0.0000       0.153468         4.1761
  36   0.0000       0.157186         4.2773
  37   0.0000       0.162927         4.4335

MULLIKEN ATOMIC CHARGES
-----------------------
   0 C :   -0.364603
   1 C :   -0.226137
   2 C :    0.132005
   3 O :   -0.264637
   4 C :   -0.039651
   5 C :   -0.059073
   6 O :   -0.309321
   7 C :    0.056074
   8 C :   -0.074921
   9 H :    0.139724
  10 H :    0.135366
  11 H :    0.129860
  12 H :    0.129497
  13 H :    0.150932
  14 H :    0.140899
  15 H :    0.124732
  16 H :    0.199253
Sum of atomic charges:   -0.0000000

LOEWDIN ATOMIC CHARGES
----------------------
   0 C :   -0.308009
   1 C :   -0.261180
   2 C :   -0.282927
   3 O :    0.184322
   4 C :   -0.273657
   5 C :   -0.217732
   6 O :    0.198737
   7 C :   -0.058717
   8 C :   -0.055787
   9 H :    0.128772
  10 H :    0.122669
  11 H :    0.126218
  12 H :    0.151155
  13 H :    0.160322
  14 H :    0.131618
  15 H :    0.123654
  16 H :    0.130542

  Mayer bond orders larger than 0.1
B(  0-C ,  1-C ) :   0.9267 B(  0-C ,  9-H ) :   0.9335 B(  0-C , 10-H ) :   0.9399
B(  0-C , 11-H ) :   0.9355 B(  1-C ,  2-C ) :   0.9383 B(  1-C , 12-H ) :   0.9087
B(  1-C , 13-H ) :   0.8986 B(  2-C ,  3-O ) :   2.0051 B(  2-C ,  4-C ) :   0.9144
B(  4-C ,  5-C ) :   0.9422 B(  4-C ,  6-O ) :   0.8594 B(  4-C ,  7-C ) :   1.1945
B(  4-C ,  8-C ) :  -0.1561 B(  5-C ,  6-O ) :   0.9120 B(  5-C , 14-H ) :   0.9166
B(  5-C , 15-H ) :   0.8955 B(  7-C ,  8-C ) :   2.5800 B(  8-C , 16-H ) :   0.8798

MP2 TOTAL ENERGY:     -421.063046487 Eh
FINAL SINGLE POINT ENERGY      -421.063046486594

DIPOLE MOMENT
-------------
                                X             Y             Z
Electronic contribution:      4.68936      -6.51924      -0.12289
Nuclear contribution   :     -5.14154       6.35264       0.66276
                        -----------------------------------------
Total Dipole Moment    :     -0.45219      -0.16660       0.53987
                        -----------------------------------------
Magnitude (a.u.)       :      0.72367
Magnitude (Debye)      :      1.83941

                             ****ORCA TERMINATED NORMALLY****
TOTAL RUN TIME: 0 days 0 hours 15 minutes 17 seconds 210 msec
