                         Program Version 3.0.3 - RELEASE   -
|  1> ! RI-MP2 RIJK def2-TZVP def2-TZVP/C def2-TZVP/JK TIGHTSCF
|  2> % maxcore 2000
|  3> % mp2 density relaxed end
|  4> *xyz 0 1
|  5>  O        0.0187069686    -0.0059265832    -0.0730242282
|  6>  C        0.0038010821     1.1856129180    -0.0022463179
|  7>  C       -1.0841312461     2.2715262892     0.0041817697
|  8>  N       -0.0387908056     3.2478907460     0.4169715023
|  9>  C        1.0729296904     2.2761012848     0.1881570129
| 10>  C        2.0585969620     2.1132379037     1.3437597792
| 11>  C        2.8918482500     3.3567618444     1.5380242732
| 12>  C        4.3258652565     3.3061718746     1.8433556459
| 13>  O        3.8709576568     3.6211008878     0.5253508594
| 14>  H       -1.5178794584     2.4270207405    -0.9933108024
| 15>  H       -1.8997662343     2.1401213638     0.7234809555
| 16>  H        0.0086303845     4.0650414417    -0.1797478366
| 17>  H        1.6312283428     2.4463275079    -0.7441750688
| 18>  H        1.5044641870     1.9002946684     2.2652654390
| 19>  H        2.7082835221     1.2569968424     1.1324634516
| 20>  H        2.3338783821     4.2399569659     1.8515088508
| 21>  H        4.7969592743     4.1258538287     2.3840843423
| 22>  H        4.8158307851     2.3389249155     1.9493876123
| 23> *
| 24>
| 25>                          ****END OF INPUT****

CARTESIAN COORDINATES (ANGSTROEM)
---------------------------------
  O      0.018707   -0.005927   -0.073024
  C      0.003801    1.185613   -0.002246
  C     -1.084131    2.271526    0.004182
  N     -0.038791    3.247891    0.416972
  C      1.072930    2.276101    0.188157
  C      2.058597    2.113238    1.343760
  C      2.891848    3.356762    1.538024
  C      4.325865    3.306172    1.843356
  O      3.870958    3.621101    0.525351
  H     -1.517879    2.427021   -0.993311
  H     -1.899766    2.140121    0.723481
  H      0.008630    4.065041   -0.179748
  H      1.631228    2.446328   -0.744175
  H      1.504464    1.900295    2.265265
  H      2.708284    1.256997    1.132463
  H      2.333878    4.239957    1.851509
  H      4.796959    4.125854    2.384084
  H      4.815831    2.338925    1.949388

 Total Charge           Charge          ....    0
 Multiplicity           Mult            ....    1
 Number of Electrons    NEL             ....   68
 Basis Dimension        Dim             ....  333

ORBITAL ENERGIES
----------------

  NO   OCC          E(Eh)            E(eV)
   0   2.0000     -20.571631      -559.7825
   1   2.0000     -20.563900      -559.5722
   2   2.0000     -15.564963      -423.5442
   3   2.0000     -11.339941      -308.5755
   4   2.0000     -11.292500      -307.2845
   5   2.0000     -11.287526      -307.1492
   6   2.0000     -11.277254      -306.8697
   7   2.0000     -11.274516      -306.7952
   8   2.0000     -11.241065      -305.8849
   9   2.0000      -1.414604       -38.4933
  10   2.0000      -1.407579       -38.3022
  11   2.0000      -1.251766       -34.0623
  12   2.0000      -1.051479       -28.6122
  13   2.0000      -0.950208       -25.8565
  14   2.0000      -0.939381       -25.5619
  15   2.0000      -0.893660       -24.3177
  16   2.0000      -0.816149       -22.2085
  17   2.0000      -0.734014       -19.9735
  18   2.0000      -0.710937       -19.3456
  19   2.0000      -0.695735       -18.9319
  20   2.0000      -0.664884       -18.0924
  21   2.0000      -0.650940       -17.7130
  22   2.0000      -0.630795       -17.1648
  23   2.0000      -0.600957       -16.3529
  24   2.0000      -0.565348       -15.3839
  25   2.0000      -0.560437       -15.2503
  26   2.0000      -0.531972       -14.4757
  27   2.0000      -0.526938       -14.3387
  28   2.0000      -0.519689       -14.1415
  29   2.0000      -0.511028       -13.9058
  30   2.0000      -0.458284       -12.4705
  31   2.0000      -0.444772       -12.1029
  32   2.0000      -0.404201       -10.9989
  33   2.0000      -0.398979       -10.8568
  34   0.0000       0.115136         3.1330
  35   0.0000       0.144855         3.9417
  36   0.0000       0.156898         4.2694
  37   0.0000       0.159748         4.3470
  38   0.0000       0.174610         4.7514

MULLIKEN ATOMIC CHARGES
-----------------------
   0 O :   -0.245411
   1 C :    0.123919
   2 C :   -0.133892
   3 N :   -0.367450
   4 C :   -0.016545
   5 C :   -0.203355
   6 C :    0.016912
   7 C :   -0.067699
   8 O :   -0.341828
   9 H :    0.131195
  10 H :    0.131432
  11 H :    0.217441
  12 H :    0.139515
  13 H :    0.114384
  14 H :    0.132291
  15 H :    0.134276
  16 H :    0.117655
  17 H :    0.117159
Sum of atomic charges:   -0.0000000

LOEWDIN ATOMIC CHARGES
----------------------
   0 O :    0.172669
   1 C :   -0.298836
   2 C :   -0.243664
   3 N :   -0.007660
   4 C :   -0.241363
   5 C :   -0.227482
   6 C :   -0.291233
   7 C :   -0.264652
   8 O :    0.136126
   9 H :    0.133211
  10 H :    0.132358
  11 H :    0.160459
  12 H :    0.155415
  13 H :    0.150922
  14 H :    0.153576
  15 H :    0.140128
  16 H :    0.119406
  17 H :    0.120623

  Mayer bond orders larger than 0.1
B(  0-O ,  1-C ) :   2.0581 B(  1-C ,  2-C ) :   0.9231 B(  1-C ,  4-C ) :   0.8226
B(  2-C ,  3-N ) :   0.9652 B(  2-C ,  4-C ) :  -0.1076 B(  2-C ,  9-H ) :   0.9021
B(  2-C , 10-H ) :   0.9050 B(  3-N ,  4-C ) :   1.0057 B(  3-N , 11-H ) :   0.8773
B(  4-C ,  5-C ) :   0.8957 B(  4-C , 12-H ) :   0.9019 B(  5-C ,  6-C ) :   0.9196
B(  5-C , 13-H ) :   0.9208 B(  5-C , 14-H ) :   0.9289 B(  6-C ,  7-C ) :   0.9792
B(  6-C ,  8-O ) :   0.8496 B(  6-C , 15-H ) :   0.9179 B(  7-C ,  8-O ) :   0.9176
B(  7-C , 16-H ) :   0.9241 B(  7-C , 17-H ) :   0.9061

MP2 TOTAL ENERGY:     -438.323116930 Eh
FINAL SINGLE POINT ENERGY      -438.323116930425

DIPOLE MOMENT
-------------
                                X             Y             Z
Electronic contribution:     -1.16126      -2.59850      -2.25856
Nuclear contribution   :      1.04531       3.28109       2.50639
                        -----------------------------------------
Total Dipole Moment    :     -0.11595       0.68259       0.24783
                        -----------------------------------------
Magnitude (a.u.)       :      0.73539
Magnitude (Debye)      :      1.86921

                             ****ORCA TERMINATED NORMALLY****
TOTAL RUN TIME: 0 days 0 hours 14 minutes 16 seconds 674 msec
