                         Program Version 3.0.3 - RELEASE   -
|  1> ! RI-MP2 RIJK def2-TZVP def2-TZVP/C def2-TZVP/JK TIGHTSCF
|  2> % maxcore 2000
|  3> % mp2 density relaxed end
|  4> *xyz 0 1
|  5>  O       -0.0320802264     1.4684450545    -0.0864121731
|  6>  C       -0.0222113834     0.0670797147     0.0016616279
|  7>  C       -1.3879577837    -0.5993640903    -0.0333730257
|  8>  C       -2.0968346498    -0.6232670160    -1.3618691761
|  9>  C       -1.3108834541    -1.8334956074    -0.9310451072
| 10>  C        0.1042868346    -1.9584939769    -1.4716945855
| 11>  O        0.2034053378    -2.3026305893    -2.8294232150
| 12>  C        0.6688471374    -0.5665878754    -1.2023274719
| 13>  O        1.4254642249     0.0179771284    -1.9410264029
| 14>  H        0.6574038089     1.7050825872    -0.7234655845
| 15>  H        0.5103536046    -0.2589769687     0.9137387417
| 16>  H       -1.9731119573    -0.6162352240     0.8777595054
| 17>  H       -3.1772288925    -0.7034326560    -1.3444168388
| 18>  H       -1.7147010447    -0.0101250076    -2.1720205319
| 19>  H       -1.8404349534    -2.7406723321    -0.6674963359
| 20>  H        0.6616377815    -2.6813089266    -0.8482188393
| 21>  H        0.8709672457    -1.7140557646    -3.2104256873
| 22> *
| 23>
| 24>                          ****END OF INPUT****

CARTESIAN COORDINATES (ANGSTROEM)
---------------------------------
  O     -0.032080    1.468445   -0.086412
  C     -0.022211    0.067080    0.001662
  C     -1.387958   -0.599364   -0.033373
  C     -2.096835   -0.623267   -1.361869
  C     -1.310883   -1.833496   -0.931045
  C      0.104287   -1.958494   -1.471695
  O      0.203405   -2.302631   -2.829423
  C      0.668847   -0.566588   -1.202327
  O      1.425464    0.017977   -1.941026
  H      0.657404    1.705083   -0.723466
  H      0.510354   -0.258977    0.913739
  H     -1.973112   -0.616235    0.877760
  H     -3.177229   -0.703433   -1.344417
  H     -1.714701   -0.010125   -2.172021
  H     -1.840435   -2.740672   -0.667496
  H      0.661638   -2.681309   -0.848219
  H      0.870967   -1.714056   -3.210426

 Total Charge           Charge          ....    0
 Multiplicity           Mult            ....    1
 Number of Electrons    NEL             ....   68
 Basis Dimension        Dim             ....  327

ORBITAL ENERGIES
----------------

  NO   OCC          E(Eh)            E(eV)
   0   2.0000     -20.584643      -560.1366
   1   2.0000     -20.568409      -559.6949
   2   2.0000     -20.568409      -559.6949
   3   2.0000     -11.352094      -308.9062
   4   2.0000     -11.309391      -307.7442
   5   2.0000     -11.309364      -307.7434
   6   2.0000     -11.255078      -306.2662
   7   2.0000     -11.254429      -306.2486
   8   2.0000     -11.244556      -305.9799
   9   2.0000      -1.435491       -39.0617
  10   2.0000      -1.379576       -37.5402
  11   2.0000      -1.371235       -37.3132
  12   2.0000      -1.193011       -32.4635
  13   2.0000      -1.018095       -27.7038
  14   2.0000      -0.973370       -26.4867
  15   2.0000      -0.842302       -22.9202
  16   2.0000      -0.797184       -21.6925
  17   2.0000      -0.779512       -21.2116
  18   2.0000      -0.725412       -19.7395
  19   2.0000      -0.719693       -19.5838
  20   2.0000      -0.701278       -19.0827
  21   2.0000      -0.658317       -17.9137
  22   2.0000      -0.641490       -17.4558
  23   2.0000      -0.622390       -16.9361
  24   2.0000      -0.586363       -15.9558
  25   2.0000      -0.581390       -15.8204
  26   2.0000      -0.550387       -14.9768
  27   2.0000      -0.542281       -14.7562
  28   2.0000      -0.525988       -14.3129
  29   2.0000      -0.476689       -12.9714
  30   2.0000      -0.474026       -12.8989
  31   2.0000      -0.440910       -11.9978
  32   2.0000      -0.432601       -11.7717
  33   2.0000      -0.417883       -11.3712
  34   0.0000       0.105622         2.8741
  35   0.0000       0.142542         3.8788
  36   0.0000       0.153064         4.1651
  37   0.0000       0.164434         4.4745
  38   0.0000       0.167303         4.5525

MULLIKEN ATOMIC CHARGES
-----------------------
   0 O :   -0.470147
   1 C :    0.084902
   2 C :   -0.087464
   3 C :   -0.281595
   4 C :   -0.087466
   5 C :    0.084903
   6 O :   -0.470145
   7 C :    0.084468
   8 O :   -0.305898
   9 H :    0.331936
  10 H :    0.110447
  11 H :    0.138695
  12 H :    0.143232
  13 H :    0.143057
  14 H :    0.138695
  15 H :    0.110446
  16 H :    0.331935
Sum of atomic charges:   -0.0000000

LOEWDIN ATOMIC CHARGES
----------------------
   0 O :   -0.000504
   1 C :   -0.305639
   2 C :   -0.164732
   3 C :   -0.186250
   4 C :   -0.164732
   5 C :   -0.305638
   6 O :   -0.000504
   7 C :   -0.282974
   8 O :    0.152638
   9 H :    0.184203
  10 H :    0.155685
  11 H :    0.146983
  12 H :    0.141004
  13 H :    0.143589
  14 H :    0.146983
  15 H :    0.155684
  16 H :    0.184203

  Mayer bond orders larger than 0.1
B(  0-O ,  1-C ) :   1.0798 B(  0-O ,  2-C ) :  -0.1119 B(  0-O ,  9-H ) :   0.8173
B(  1-C ,  2-C ) :   0.8953 B(  1-C ,  7-C ) :   0.8990 B(  1-C , 10-H ) :   0.9261
B(  2-C ,  3-C ) :   0.8847 B(  2-C ,  4-C ) :   0.8083 B(  2-C , 11-H ) :   0.9233
B(  3-C ,  4-C ) :   0.8847 B(  3-C , 12-H ) :   0.9290 B(  3-C , 13-H ) :   0.9143
B(  4-C ,  5-C ) :   0.8953 B(  4-C ,  6-O ) :  -0.1119 B(  4-C , 14-H ) :   0.9233
B(  5-C ,  6-O ) :   1.0798 B(  5-C ,  7-C ) :   0.8990 B(  5-C , 15-H ) :   0.9261
B(  6-O , 16-H ) :   0.8173 B(  7-C ,  8-O ) :   1.9438

MP2 TOTAL ENERGY:     -458.241148660 Eh
FINAL SINGLE POINT ENERGY      -458.241148660179

DIPOLE MOMENT
-------------
                                X             Y             Z
Electronic contribution:      3.78685       1.11218      -1.20386
Nuclear contribution   :     -3.89627      -1.50885       1.73975
                        -----------------------------------------
Total Dipole Moment    :     -0.10943      -0.39667       0.53590
                        -----------------------------------------
Magnitude (a.u.)       :      0.67565
Magnitude (Debye)      :      1.71737

                             ****ORCA TERMINATED NORMALLY****
TOTAL RUN TIME: 0 days 0 hours 22 minutes 18 seconds 52 msec
