                         Program Version 3.0.3 - RELEASE   -
|  1> ! RI-MP2 RIJK def2-TZVP def2-TZVP/C def2-TZVP/JK TIGHTSCF
|  2> % maxcore 2000
|  3> % mp2 density relaxed end
|  4> *xyz 0 1
|  5>  C       -0.0159729750     1.3057736621    -0.1323131902
|  6>  C       -0.2761194267    -0.2025738266    -0.1835394919
|  7>  C       -1.7667429553    -0.5188898397    -0.3239150989
|  8>  O       -2.0500334940    -1.8983285906    -0.4924028776
|  9>  C       -1.9541863135    -2.6722641009     0.6774334741
| 10>  C       -2.5038191337    -4.0832057473     0.4524609608
| 11>  C       -3.1780275220    -4.3672502114    -0.8696644664
| 12>  O       -2.3902626871    -4.9048936143     1.3314371318
| 13>  H        1.0520793393     1.5190876123    -0.0337405056
| 14>  H       -0.3715983019     1.8014472287    -1.0424018493
| 15>  H       -0.5266402429     1.7705325310     0.7183963757
| 16>  H        0.2535526374    -0.6520761216    -1.0316306345
| 17>  H        0.1224473380    -0.6739917115     0.7225542212
| 18>  H       -2.3219247989    -0.1236109559     0.5434762670
| 19>  H       -2.1646817060    -0.0281457915    -1.2192889948
| 20>  H       -0.9197300617    -2.7758469538     1.0367145772
| 21>  H       -2.5338848279    -2.2228617376     1.5024340245
| 22>  H       -2.4776467076    -4.1883689209    -1.6916397236
| 23>  H       -3.5325438179    -5.3982319124    -0.8844676424
| 24>  H       -4.0094444525    -3.6720866782    -1.0254067073
| 25> *
| 26>
| 27>                          ****END OF INPUT****

CARTESIAN COORDINATES (ANGSTROEM)
---------------------------------
  C     -0.015973    1.305774   -0.132313
  C     -0.276119   -0.202574   -0.183539
  C     -1.766743   -0.518890   -0.323915
  O     -2.050033   -1.898329   -0.492403
  C     -1.954186   -2.672264    0.677433
  C     -2.503819   -4.083206    0.452461
  C     -3.178028   -4.367250   -0.869664
  O     -2.390263   -4.904894    1.331437
  H      1.052079    1.519088   -0.033741
  H     -0.371598    1.801447   -1.042402
  H     -0.526640    1.770533    0.718396
  H      0.253553   -0.652076   -1.031631
  H      0.122447   -0.673992    0.722554
  H     -2.321925   -0.123611    0.543476
  H     -2.164682   -0.028146   -1.219289
  H     -0.919730   -2.775847    1.036715
  H     -2.533885   -2.222862    1.502434
  H     -2.477647   -4.188369   -1.691640
  H     -3.532544   -5.398232   -0.884468
  H     -4.009444   -3.672087   -1.025407

 Total Charge           Charge          ....    0
 Multiplicity           Mult            ....    1
 Number of Electrons    NEL             ....   64
 Basis Dimension        Dim             ....  320

ORBITAL ENERGIES
----------------

  NO   OCC          E(Eh)            E(eV)
   0   2.0000     -20.568855      -559.7070
   1   2.0000     -20.542035      -558.9772
   2   2.0000     -11.330481      -308.3181
   3   2.0000     -11.290474      -307.2294
   4   2.0000     -11.285043      -307.0816
   5   2.0000     -11.230842      -305.6068
   6   2.0000     -11.227223      -305.5083
   7   2.0000     -11.225846      -305.4708
   8   2.0000      -1.396833       -38.0098
   9   2.0000      -1.382011       -37.6064
  10   2.0000      -1.068984       -29.0885
  11   2.0000      -1.021395       -27.7936
  12   2.0000      -0.966280       -26.2938
  13   2.0000      -0.905172       -24.6310
  14   2.0000      -0.818789       -22.2804
  15   2.0000      -0.748123       -20.3575
  16   2.0000      -0.684264       -18.6198
  17   2.0000      -0.676436       -18.4067
  18   2.0000      -0.661977       -18.0133
  19   2.0000      -0.630946       -17.1689
  20   2.0000      -0.605475       -16.4758
  21   2.0000      -0.594158       -16.1679
  22   2.0000      -0.579084       -15.7577
  23   2.0000      -0.568271       -15.4634
  24   2.0000      -0.541568       -14.7368
  25   2.0000      -0.534131       -14.5344
  26   2.0000      -0.510560       -13.8930
  27   2.0000      -0.508291       -13.8313
  28   2.0000      -0.485384       -13.2080
  29   2.0000      -0.476575       -12.9683
  30   2.0000      -0.429138       -11.6774
  31   2.0000      -0.408986       -11.1291
  32   0.0000       0.129434         3.5221
  33   0.0000       0.140797         3.8313
  34   0.0000       0.145727         3.9654
  35   0.0000       0.165468         4.5026
  36   0.0000       0.174149         4.7388

MULLIKEN ATOMIC CHARGES
-----------------------
   0 C :   -0.398430
   1 C :   -0.200954
   2 C :   -0.070251
   3 O :   -0.300697
   4 C :   -0.067198
   5 C :    0.195988
   6 C :   -0.379630
   7 O :   -0.295095
   8 H :    0.139051
   9 H :    0.126245
  10 H :    0.125887
  11 H :    0.114830
  12 H :    0.111251
  13 H :    0.096150
  14 H :    0.123471
  15 H :    0.124624
  16 H :    0.117622
  17 H :    0.147359
  18 H :    0.147013
  19 H :    0.142763
Sum of atomic charges:   -0.0000000

LOEWDIN ATOMIC CHARGES
----------------------
   0 C :   -0.317857
   1 C :   -0.301497
   2 C :   -0.323972
   3 O :    0.159675
   4 C :   -0.303197
   5 C :   -0.348171
   6 C :   -0.282186
   7 O :    0.145571
   8 H :    0.123618
   9 H :    0.121887
  10 H :    0.121539
  11 H :    0.137415
  12 H :    0.133514
  13 H :    0.119850
  14 H :    0.130969
  15 H :    0.134385
  16 H :    0.135764
  17 H :    0.141255
  18 H :    0.131239
  19 H :    0.140199

  Mayer bond orders larger than 0.1
B(  0-C ,  1-C ) :   0.9166 B(  0-C ,  8-H ) :   0.9383 B(  0-C ,  9-H ) :   0.9387
B(  0-C , 10-H ) :   0.9366 B(  1-C ,  2-C ) :   0.9226 B(  1-C , 11-H ) :   0.9264
B(  1-C , 12-H ) :   0.9321 B(  2-C ,  3-O ) :   0.9244 B(  2-C , 13-H ) :   0.9470
B(  2-C , 14-H ) :   0.9279 B(  3-O ,  4-C ) :   0.9253 B(  4-C ,  5-C ) :   0.9092
B(  4-C , 15-H ) :   0.9130 B(  4-C , 16-H ) :   0.9080 B(  5-C ,  6-C ) :   0.9350
B(  5-C ,  7-O ) :   1.9943 B(  6-C , 17-H ) :   0.9056 B(  6-C , 18-H ) :   0.9328
B(  6-C , 19-H ) :   0.9079

MP2 TOTAL ENERGY:     -385.510630771 Eh
FINAL SINGLE POINT ENERGY      -385.510630770609

DIPOLE MOMENT
-------------
                                X             Y             Z
Electronic contribution:     -3.38871      -9.38433       2.43586
Nuclear contribution   :      3.50783      10.47178      -2.86979
                        -----------------------------------------
Total Dipole Moment    :      0.11913       1.08745      -0.43392
                        -----------------------------------------
Magnitude (a.u.)       :      1.17688
Magnitude (Debye)      :      2.99138

                             ****ORCA TERMINATED NORMALLY****
TOTAL RUN TIME: 0 days 0 hours 11 minutes 26 seconds 401 msec
