                         Program Version 3.0.3 - RELEASE   -
|  1> ! RI-MP2 RIJK def2-TZVP def2-TZVP/C def2-TZVP/JK TIGHTSCF
|  2> % maxcore 2000
|  3> % mp2 density relaxed end
|  4> *xyz 0 1
|  5>  C       -0.0241738785     1.5595239296     0.0300061538
|  6>  C        0.0499224650     0.0569414786     0.0669036545
|  7>  C       -1.2301725230    -0.8189601823     0.1810474977
|  8>  C       -0.3306227543    -1.8842235721     0.8052091570
|  9>  C        1.0211602030    -1.8365793202     0.0762828652
| 10>  C        0.7045317426    -0.8578468931     1.1875866581
| 11>  C        0.9381846199    -0.7252900678    -0.9575488059
| 12>  O        0.4777552041    -0.9653606901    -2.2652880763
| 13>  H        0.9738585201     2.0089393789     0.0797380067
| 14>  H       -0.4923345138     1.8939631886    -0.9032544986
| 15>  H       -0.6141031881     1.9577322208     0.8626932281
| 16>  H       -1.9244757933    -0.4053109119     0.9183004397
| 17>  H       -1.7831955324    -1.0411719955    -0.7418781678
| 18>  H       -0.6241650569    -2.7645803164     1.3623101817
| 19>  H        1.7079553523    -2.6728787461     0.1108746393
| 20>  H        1.2207583956    -0.6471602407     2.1121061465
| 21>  H        1.9039004091    -0.2214452465    -1.0664015625
| 22>  H       -0.2682437514    -1.5708444440    -2.2117863471
| 23> *
| 24>
| 25>                          ****END OF INPUT****

CARTESIAN COORDINATES (ANGSTROEM)
---------------------------------
  C     -0.024174    1.559524    0.030006
  C      0.049922    0.056941    0.066904
  C     -1.230173   -0.818960    0.181047
  C     -0.330623   -1.884224    0.805209
  C      1.021160   -1.836579    0.076283
  C      0.704532   -0.857847    1.187587
  C      0.938185   -0.725290   -0.957549
  O      0.477755   -0.965361   -2.265288
  H      0.973859    2.008939    0.079738
  H     -0.492335    1.893963   -0.903254
  H     -0.614103    1.957732    0.862693
  H     -1.924476   -0.405311    0.918300
  H     -1.783196   -1.041172   -0.741878
  H     -0.624165   -2.764580    1.362310
  H      1.707955   -2.672879    0.110875
  H      1.220758   -0.647160    2.112106
  H      1.903900   -0.221445   -1.066402
  H     -0.268244   -1.570844   -2.211786

 Total Charge           Charge          ....    0
 Multiplicity           Mult            ....    1
 Number of Electrons    NEL             ....   60
 Basis Dimension        Dim             ....  308

ORBITAL ENERGIES
----------------

  NO   OCC          E(Eh)            E(eV)
   0   2.0000     -20.550460      -559.2064
   1   2.0000     -11.277931      -306.8881
   2   2.0000     -11.242543      -305.9251
   3   2.0000     -11.238638      -305.8189
   4   2.0000     -11.234460      -305.7052
   5   2.0000     -11.232808      -305.6602
   6   2.0000     -11.228157      -305.5337
   7   2.0000     -11.216162      -305.2073
   8   2.0000      -1.360670       -37.0257
   9   2.0000      -1.228502       -33.4292
  10   2.0000      -1.014139       -27.5961
  11   2.0000      -0.971310       -26.4307
  12   2.0000      -0.909338       -24.7443
  13   2.0000      -0.834864       -22.7178
  14   2.0000      -0.767999       -20.8983
  15   2.0000      -0.736743       -20.0478
  16   2.0000      -0.664790       -18.0899
  17   2.0000      -0.655135       -17.8271
  18   2.0000      -0.629918       -17.1409
  19   2.0000      -0.611234       -16.6325
  20   2.0000      -0.565876       -15.3983
  21   2.0000      -0.553836       -15.0706
  22   2.0000      -0.547540       -14.8993
  23   2.0000      -0.532149       -14.4805
  24   2.0000      -0.514867       -14.0102
  25   2.0000      -0.465071       -12.6552
  26   2.0000      -0.445004       -12.1092
  27   2.0000      -0.406391       -11.0585
  28   2.0000      -0.394689       -10.7400
  29   2.0000      -0.374547       -10.1920
  30   0.0000       0.141525         3.8511
  31   0.0000       0.151055         4.1104
  32   0.0000       0.166534         4.5316
  33   0.0000       0.176734         4.8092
  34   0.0000       0.191206         5.2030

MULLIKEN ATOMIC CHARGES
-----------------------
   0 C :   -0.418449
   1 C :    0.092921
   2 C :   -0.218911
   3 C :   -0.160666
   4 C :   -0.157550
   5 C :   -0.218121
   6 C :    0.094593
   7 O :   -0.468109
   8 H :    0.131074
   9 H :    0.144975
  10 H :    0.132125
  11 H :    0.112118
  12 H :    0.097043
  13 H :    0.134601
  14 H :    0.134466
  15 H :    0.150588
  16 H :    0.099727
  17 H :    0.317573
Sum of atomic charges:    0.0000000

LOEWDIN ATOMIC CHARGES
----------------------
   0 C :   -0.277009
   1 C :   -0.203074
   2 C :   -0.184791
   3 C :   -0.169146
   4 C :   -0.155448
   5 C :   -0.101915
   6 C :   -0.282976
   7 O :   -0.011426
   8 H :    0.128463
   9 H :    0.134621
  10 H :    0.126982
  11 H :    0.141994
  12 H :    0.118507
  13 H :    0.137119
  14 H :    0.138354
  15 H :    0.134647
  16 H :    0.151176
  17 H :    0.173920

  Mayer bond orders larger than 0.1
B(  0-C ,  1-C ) :   0.8649 B(  0-C ,  8-H ) :   0.9373 B(  0-C ,  9-H ) :   0.9415
B(  0-C , 10-H ) :   0.9398 B(  1-C ,  2-C ) :   0.9084 B(  1-C ,  5-C ) :   0.8778
B(  1-C ,  6-C ) :   0.9134 B(  2-C ,  3-C ) :   0.9511 B(  2-C , 11-H ) :   0.9225
B(  2-C , 12-H ) :   0.9218 B(  3-C ,  4-C ) :   0.8130 B(  3-C ,  5-C ) :   0.8579
B(  3-C , 13-H ) :   0.9357 B(  4-C ,  5-C ) :   0.8391 B(  4-C ,  6-C ) :   0.9368
B(  4-C , 14-H ) :   0.9359 B(  5-C , 15-H ) :   0.9000 B(  6-C ,  7-O ) :   0.9759
B(  6-C , 16-H ) :   0.9474 B(  7-O , 17-H ) :   0.8391

MP2 TOTAL ENERGY:     -347.158512099 Eh
FINAL SINGLE POINT ENERGY      -347.158512098545

DIPOLE MOMENT
-------------
                                X             Y             Z
Electronic contribution:      1.47878      -3.12686      -1.44324
Nuclear contribution   :     -1.71633       2.96940       2.07987
                        -----------------------------------------
Total Dipole Moment    :     -0.23755      -0.15746       0.63663
                        -----------------------------------------
Magnitude (a.u.)       :      0.69751
Magnitude (Debye)      :      1.77293

                             ****ORCA TERMINATED NORMALLY****
TOTAL RUN TIME: 0 days 0 hours 13 minutes 4 seconds 722 msec
