                         Program Version 3.0.3 - RELEASE   -
|  1> ! RI-MP2 RIJK def2-TZVP def2-TZVP/C def2-TZVP/JK TIGHTSCF
|  2> % maxcore 2000
|  3> % mp2 density relaxed end
|  4> *xyz 0 1
|  5>  C       -0.0168235244     1.4988846324    -0.0110508959
|  6>  C       -0.0079865875     0.0062540880     0.0636955136
|  7>  N       -0.0401649287    -0.6861603724    -1.0576198081
|  8>  O       -0.0228258957    -2.0784417068    -0.6983834019
|  9>  C        0.0189683026    -2.0947471980     0.6290806255
| 10>  C        0.0316763948    -0.8475739887     1.2073481814
| 11>  C        0.0769614920    -1.0612798724     2.6252378430
| 12>  C        0.0888314562    -2.4206470370     2.8097083790
| 13>  N        0.0524869132    -3.0705151278     1.5672157019
| 14>  H        0.8797996435     1.9154541339     0.4597607023
| 15>  H       -0.0520806772     1.8246179923    -1.0521462257
| 16>  H       -0.8844441761     1.9078867747     0.5172096765
| 17>  H        0.0984053641    -0.3254459336     3.4133067994
| 18>  H        0.1198676031    -3.0035385528     3.7159563241
| 19>  H        0.0524375299    -4.0636189818     1.4165278548
| 20> *
| 21>
| 22>                          ****END OF INPUT****

CARTESIAN COORDINATES (ANGSTROEM)
---------------------------------
  C     -0.016824    1.498885   -0.011051
  C     -0.007987    0.006254    0.063696
  N     -0.040165   -0.686160   -1.057620
  O     -0.022826   -2.078442   -0.698383
  C      0.018968   -2.094747    0.629081
  C      0.031676   -0.847574    1.207348
  C      0.076961   -1.061280    2.625238
  C      0.088831   -2.420647    2.809708
  N      0.052487   -3.070515    1.567216
  H      0.879800    1.915454    0.459761
  H     -0.052081    1.824618   -1.052146
  H     -0.884444    1.907887    0.517210
  H      0.098405   -0.325446    3.413307
  H      0.119868   -3.003539    3.715956
  H      0.052438   -4.063619    1.416528

 Total Charge           Charge          ....    0
 Multiplicity           Mult            ....    1
 Number of Electrons    NEL             ....   64
 Basis Dimension        Dim             ....  315

ORBITAL ENERGIES
----------------

  NO   OCC          E(Eh)            E(eV)
   0   2.0000     -20.630684      -561.3894
   1   2.0000     -15.626146      -425.2091
   2   2.0000     -15.605633      -424.6509
   3   2.0000     -11.330485      -308.3182
   4   2.0000     -11.290612      -307.2332
   5   2.0000     -11.273528      -306.7683
   6   2.0000     -11.240578      -305.8717
   7   2.0000     -11.236935      -305.7726
   8   2.0000     -11.217812      -305.2522
   9   2.0000      -1.474078       -40.1117
  10   2.0000      -1.306813       -35.5602
  11   2.0000      -1.174275       -31.9536
  12   2.0000      -1.068366       -29.0717
  13   2.0000      -1.008413       -27.4403
  14   2.0000      -0.976370       -26.5684
  15   2.0000      -0.835480       -22.7346
  16   2.0000      -0.814647       -22.1677
  17   2.0000      -0.785278       -21.3685
  18   2.0000      -0.711604       -19.3637
  19   2.0000      -0.666176       -18.1276
  20   2.0000      -0.654014       -17.7966
  21   2.0000      -0.617822       -16.8118
  22   2.0000      -0.599647       -16.3172
  23   2.0000      -0.584237       -15.8979
  24   2.0000      -0.562465       -15.3055
  25   2.0000      -0.554894       -15.0994
  26   2.0000      -0.550332       -14.9753
  27   2.0000      -0.516209       -14.0468
  28   2.0000      -0.466924       -12.7057
  29   2.0000      -0.431063       -11.7298
  30   2.0000      -0.353740        -9.6257
  31   2.0000      -0.304641        -8.2897
  32   0.0000       0.128552         3.4981
  33   0.0000       0.138895         3.7795
  34   0.0000       0.142299         3.8721
  35   0.0000       0.173267         4.7148
  36   0.0000       0.178238         4.8501

MULLIKEN ATOMIC CHARGES
-----------------------
   0 C :   -0.438117
   1 C :    0.054635
   2 N :   -0.103627
   3 O :   -0.148441
   4 C :    0.210937
   5 C :    0.031379
   6 C :   -0.281468
   7 C :   -0.020495
   8 N :   -0.301076
   9 H :    0.145513
  10 H :    0.158022
  11 H :    0.145504
  12 H :    0.136425
  13 H :    0.153665
  14 H :    0.257145
Sum of atomic charges:   -0.0000000

LOEWDIN ATOMIC CHARGES
----------------------
   0 C :   -0.264567
   1 C :   -0.275584
   2 N :    0.067642
   3 O :    0.260355
   4 C :   -0.336036
   5 C :   -0.151236
   6 C :   -0.166584
   7 C :   -0.205513
   8 N :    0.190898
   9 H :    0.135147
  10 H :    0.138118
  11 H :    0.135139
  12 H :    0.142014
  13 H :    0.134715
  14 H :    0.195494

  Mayer bond orders larger than 0.1
B(  0-C ,  1-C ) :   0.8660 B(  0-C ,  9-H ) :   0.9316 B(  0-C , 10-H ) :   0.9511
B(  0-C , 11-H ) :   0.9317 B(  1-C ,  2-N ) :   1.6807 B(  1-C ,  5-C ) :   1.1047
B(  2-N ,  3-O ) :   0.8093 B(  3-O ,  4-C ) :   1.1659 B(  4-C ,  5-C ) :   1.3341
B(  4-C ,  8-N ) :   1.1575 B(  5-C ,  6-C ) :   1.1237 B(  6-C ,  7-C ) :   1.5827
B(  6-C , 12-H ) :   0.9297 B(  7-C ,  8-N ) :   1.0423 B(  7-C , 13-H ) :   0.9159
B(  8-N , 14-H ) :   0.8666

MP2 TOTAL ENERGY:     -416.099583321 Eh
FINAL SINGLE POINT ENERGY      -416.099583320589

DIPOLE MOMENT
-------------
                                X             Y             Z
Electronic contribution:     -0.05278      -5.60963      -2.45823
Nuclear contribution   :      0.09284       5.10514       3.65768
                        -----------------------------------------
Total Dipole Moment    :      0.04006      -0.50449       1.19945
                        -----------------------------------------
Magnitude (a.u.)       :      1.30184
Magnitude (Debye)      :      3.30902

                             ****ORCA TERMINATED NORMALLY****
TOTAL RUN TIME: 0 days 0 hours 16 minutes 8 seconds 936 msec
