                         Program Version 3.0.3 - RELEASE   -
|  1> ! RI-MP2 RIJK def2-TZVP def2-TZVP/C def2-TZVP/JK TIGHTSCF
|  2> % maxcore 2000
|  3> % mp2 density relaxed end
|  4> *xyz 0 1
|  5>  C       -0.0724940262     1.5646531805    -0.0478803812
|  6>  C        0.0505939938     0.0597113095     0.0208440889
|  7>  C        1.3290321769    -0.7034754669    -0.1932188878
|  8>  N        2.5686518995     0.0179018809    -0.0880640055
|  9>  C        2.8324113278     0.5373013177     1.1564827095
| 10>  O        3.7416034613     1.2642750744     1.4726214023
| 11>  C        1.6824904488     0.0186117602     2.0698384090
| 12>  O        1.6486285849     0.1568530937     3.2624133683
| 13>  C        0.7124525906    -0.6989962673     1.1889413789
| 14>  H        0.8492845041     2.0766692793     0.2370370805
| 15>  H       -0.3271634898     1.8766820961    -1.0662472337
| 16>  H       -0.8662005586     1.9164011906     0.6179983099
| 17>  H       -0.8304375531    -0.4701473830    -0.3343116257
| 18>  H        1.3495689310    -1.6012587869    -0.8010088378
| 19>  H        3.0499580938     0.3804819223    -0.8973287603
| 20>  H        0.1908257254    -1.5526083012     1.6015147748
| 21> *
| 22>
| 23>                          ****END OF INPUT****

CARTESIAN COORDINATES (ANGSTROEM)
---------------------------------
  C     -0.072494    1.564653   -0.047880
  C      0.050594    0.059711    0.020844
  C      1.329032   -0.703475   -0.193219
  N      2.568652    0.017902   -0.088064
  C      2.832411    0.537301    1.156483
  O      3.741603    1.264275    1.472621
  C      1.682490    0.018612    2.069838
  O      1.648629    0.156853    3.262413
  C      0.712453   -0.698996    1.188941
  H      0.849285    2.076669    0.237037
  H     -0.327163    1.876682   -1.066247
  H     -0.866201    1.916401    0.617998
  H     -0.830438   -0.470147   -0.334312
  H      1.349569   -1.601259   -0.801009
  H      3.049958    0.380482   -0.897329
  H      0.190826   -1.552608    1.601515

 Total Charge           Charge          ....    0
 Multiplicity           Mult            ....    1
 Number of Electrons    NEL             ....   66
 Basis Dimension        Dim             ....  321

ORBITAL ENERGIES
----------------

  NO   OCC          E(Eh)            E(eV)
   0   2.0000     -20.573176      -559.8246
   1   2.0000     -20.543458      -559.0159
   2   2.0000     -15.609649      -424.7601
   3   2.0000     -11.367213      -309.3176
   4   2.0000     -11.352913      -308.9285
   5   2.0000     -11.307403      -307.6901
   6   2.0000     -11.278965      -306.9162
   7   2.0000     -11.267736      -306.6107
   8   2.0000     -11.244906      -305.9894
   9   2.0000      -1.421946       -38.6931
  10   2.0000      -1.393365       -37.9154
  11   2.0000      -1.291988       -35.1568
  12   2.0000      -1.151710       -31.3396
  13   2.0000      -1.008026       -27.4298
  14   2.0000      -0.969644       -26.3854
  15   2.0000      -0.844866       -22.9900
  16   2.0000      -0.835335       -22.7306
  17   2.0000      -0.754272       -20.5248
  18   2.0000      -0.729651       -19.8548
  19   2.0000      -0.690593       -18.7920
  20   2.0000      -0.665575       -18.1112
  21   2.0000      -0.641757       -17.4631
  22   2.0000      -0.623050       -16.9541
  23   2.0000      -0.604808       -16.4577
  24   2.0000      -0.600700       -16.3459
  25   2.0000      -0.578419       -15.7396
  26   2.0000      -0.542365       -14.7585
  27   2.0000      -0.540816       -14.7164
  28   2.0000      -0.503281       -13.6950
  29   2.0000      -0.485371       -13.2076
  30   2.0000      -0.438485       -11.9318
  31   2.0000      -0.408523       -11.1165
  32   2.0000      -0.395334       -10.7576
  33   0.0000       0.075751         2.0613
  34   0.0000       0.119236         3.2446
  35   0.0000       0.142284         3.8717
  36   0.0000       0.152431         4.1479
  37   0.0000       0.176117         4.7924

MULLIKEN ATOMIC CHARGES
-----------------------
   0 C :   -0.402008
   1 C :   -0.112754
   2 C :    0.018317
   3 N :   -0.305392
   4 C :    0.161569
   5 O :   -0.297572
   6 C :    0.144784
   7 O :   -0.238600
   8 C :   -0.110029
   9 H :    0.156053
  10 H :    0.140184
  11 H :    0.150069
  12 H :    0.134241
  13 H :    0.151291
  14 H :    0.248969
  15 H :    0.160875
Sum of atomic charges:    0.0000000

LOEWDIN ATOMIC CHARGES
----------------------
   0 C :   -0.283684
   1 C :   -0.190785
   2 C :   -0.213558
   3 N :    0.152431
   4 C :   -0.421853
   5 O :    0.125285
   6 C :   -0.275893
   7 O :    0.193686
   8 C :   -0.138916
   9 H :    0.134562
  10 H :    0.130625
  11 H :    0.134537
  12 H :    0.159077
  13 H :    0.145993
  14 H :    0.190489
  15 H :    0.158005

  Mayer bond orders larger than 0.1
B(  0-C ,  1-C ) :   0.9195 B(  0-C ,  9-H ) :   0.9307 B(  0-C , 10-H ) :   0.9312
B(  0-C , 11-H ) :   0.9337 B(  1-C ,  2-C ) :   0.8847 B(  1-C ,  8-C ) :   0.8037
B(  1-C , 12-H ) :   0.9199 B(  2-C ,  3-N ) :   0.9003 B(  2-C ,  8-C ) :   0.8459
B(  2-C , 13-H ) :   0.9210 B(  3-N ,  4-C ) :   1.1466 B(  3-N , 14-H ) :   0.8550
B(  4-C ,  5-O ) :   2.0029 B(  4-C ,  6-C ) :   0.8707 B(  6-C ,  7-O ) :   2.0003
B(  6-C ,  8-C ) :   0.9243 B(  8-C , 15-H ) :   0.9143

MP2 TOTAL ENERGY:     -437.196036635 Eh
FINAL SINGLE POINT ENERGY      -437.196036634882

DIPOLE MOMENT
-------------
                                X             Y             Z
Electronic contribution:      6.21642      -1.40514       5.16722
Nuclear contribution   :     -7.47325       0.63942      -7.08972
                        -----------------------------------------
Total Dipole Moment    :     -1.25683      -0.76571      -1.92250
                        -----------------------------------------
Magnitude (a.u.)       :      2.42115
Magnitude (Debye)      :      6.15406

                             ****ORCA TERMINATED NORMALLY****
TOTAL RUN TIME: 0 days 0 hours 17 minutes 51 seconds 108 msec
