                         Program Version 3.0.3 - RELEASE   -
|  1> ! RI-MP2 RIJK def2-TZVP def2-TZVP/C def2-TZVP/JK TIGHTSCF
|  2> % maxcore 2000
|  3> % mp2 density relaxed end
|  4> *xyz 0 1
|  5>  C       -0.2218783008     1.2613123759    -0.0195394264
|  6>  O        0.3359526425    -0.0566874369     0.0486677332
|  7>  C        0.7293578564    -0.5650325143    -1.1370294146
|  8>  O        0.6374661067    -0.0032042680    -2.2040778204
|  9>  N        1.2768448829    -1.8077879878    -0.9454412977
| 10>  C        1.6162565580    -2.6375410468    -2.0776396448
| 11>  C        0.6811446664    -3.7574855084    -2.2744381036
| 12>  N       -0.0436775939    -4.6477125483    -2.4024037922
| 13>  H        0.5123301375     1.9721785283    -0.4063630723
| 14>  H       -1.1028773977     1.2747736178    -0.6654765823
| 15>  H       -0.4956781071     1.5162538163     1.0041611244
| 16>  H        1.1888882525    -2.2230342008    -0.0319452268
| 17>  H        1.5986401275    -1.9908648173    -2.9596944819
| 18>  H        2.6286973892    -3.0449654396    -1.9776705446
| 19> *
| 20>
| 21>                          ****END OF INPUT****

CARTESIAN COORDINATES (ANGSTROEM)
---------------------------------
  C     -0.221878    1.261312   -0.019539
  O      0.335953   -0.056687    0.048668
  C      0.729358   -0.565033   -1.137029
  O      0.637466   -0.003204   -2.204078
  N      1.276845   -1.807788   -0.945441
  C      1.616257   -2.637541   -2.077640
  C      0.681145   -3.757486   -2.274438
  N     -0.043678   -4.647713   -2.402404
  H      0.512330    1.972179   -0.406363
  H     -1.102877    1.274774   -0.665477
  H     -0.495678    1.516254    1.004161
  H      1.188888   -2.223034   -0.031945
  H      1.598640   -1.990865   -2.959694
  H      2.628697   -3.044965   -1.977671

 Total Charge           Charge          ....    0
 Multiplicity           Mult            ....    1
 Number of Electrons    NEL             ....   60
 Basis Dimension        Dim             ....  284

ORBITAL ENERGIES
----------------

  NO   OCC          E(Eh)            E(eV)
   0   2.0000     -20.617761      -561.0378
   1   2.0000     -20.545255      -559.0648
   2   2.0000     -15.615115      -424.9089
   3   2.0000     -15.582341      -424.0171
   4   2.0000     -11.420776      -310.7751
   5   2.0000     -11.331264      -308.3394
   6   2.0000     -11.296232      -307.3861
   7   2.0000     -11.282786      -307.0202
   8   2.0000      -1.482412       -40.3385
   9   2.0000      -1.375847       -37.4387
  10   2.0000      -1.273266       -34.6473
  11   2.0000      -1.224421       -33.3182
  12   2.0000      -1.039149       -28.2767
  13   2.0000      -0.963255       -26.2115
  14   2.0000      -0.824210       -22.4279
  15   2.0000      -0.780851       -21.2480
  16   2.0000      -0.737343       -20.0641
  17   2.0000      -0.707431       -19.2502
  18   2.0000      -0.686466       -18.6797
  19   2.0000      -0.662324       -18.0227
  20   2.0000      -0.624308       -16.9883
  21   2.0000      -0.609273       -16.5792
  22   2.0000      -0.581675       -15.8282
  23   2.0000      -0.565313       -15.3829
  24   2.0000      -0.547397       -14.8954
  25   2.0000      -0.488046       -13.2804
  26   2.0000      -0.482797       -13.1376
  27   2.0000      -0.475734       -12.9454
  28   2.0000      -0.470396       -12.8001
  29   2.0000      -0.436229       -11.8704
  30   0.0000       0.118426         3.2225
  31   0.0000       0.150668         4.0999
  32   0.0000       0.151612         4.1256
  33   0.0000       0.170413         4.6372
  34   0.0000       0.177397         4.8272

MULLIKEN ATOMIC CHARGES
-----------------------
   0 C :   -0.207203
   1 O :   -0.296194
   2 C :    0.442945
   3 O :   -0.387244
   4 N :   -0.354239
   5 C :   -0.020383
   6 C :   -0.178185
   7 N :   -0.061599
   8 H :    0.141750
   9 H :    0.144894
  10 H :    0.145248
  11 H :    0.260241
  12 H :    0.198806
  13 H :    0.171162
Sum of atomic charges:   -0.0000000

LOEWDIN ATOMIC CHARGES
----------------------
   0 C :   -0.303866
   1 O :    0.213021
   2 C :   -0.588399
   3 O :    0.083194
   4 N :    0.104972
   5 C :   -0.261481
   6 C :   -0.188660
   7 N :    0.066931
   8 H :    0.114681
   9 H :    0.115609
  10 H :    0.115827
  11 H :    0.195046
  12 H :    0.175119
  13 H :    0.158005

  Mayer bond orders larger than 0.1
B(  0-C ,  1-O ) :   0.8408 B(  0-C ,  8-H ) :   0.9410 B(  0-C ,  9-H ) :   0.9401
B(  0-C , 10-H ) :   0.9318 B(  1-O ,  2-C ) :   1.1005 B(  2-C ,  3-O ) :   1.8688
B(  2-C ,  4-N ) :   1.1445 B(  4-N ,  5-C ) :   0.8721 B(  4-N , 11-H ) :   0.8639
B(  5-C ,  6-C ) :   0.9024 B(  5-C , 12-H ) :   0.8994 B(  5-C , 13-H ) :   0.9203
B(  6-C ,  7-N ) :   2.8467

MP2 TOTAL ENERGY:     -415.241801102 Eh
FINAL SINGLE POINT ENERGY      -415.241801102065

DIPOLE MOMENT
-------------
                                X             Y             Z
Electronic contribution:      0.21588      -4.89722      -1.84601
Nuclear contribution   :      0.56054       5.68880       2.80752
                        -----------------------------------------
Total Dipole Moment    :      0.77643       0.79158       0.96151
                        -----------------------------------------
Magnitude (a.u.)       :      1.46763
Magnitude (Debye)      :      3.73042

                             ****ORCA TERMINATED NORMALLY****
TOTAL RUN TIME: 0 days 0 hours 8 minutes 24 seconds 949 msec
