                         Program Version 3.0.3 - RELEASE   -
|  1> ! RI-MP2 RIJK def2-TZVP def2-TZVP/C def2-TZVP/JK TIGHTSCF
|  2> % maxcore 2000
|  3> % mp2 density relaxed end
|  4> *xyz 0 1
|  5>  C        0.0591530009     1.5084250314     0.0936595542
|  6>  C       -0.1330957985     0.0010613035    -0.1238175344
|  7>  C        0.6966948965    -0.5369842638    -1.2410268058
|  8>  C        2.1281612202    -0.9331312581    -1.2690654436
|  9>  C        1.0495905454    -1.9463199333    -1.6962623711
| 10>  N        0.9255436998    -3.1938308239    -1.0437544995
| 11>  C        0.5112291007    -1.4837040542    -3.0337498326
| 12>  O        0.2223844783    -1.9544579915    -4.0861979051
| 13>  O        0.3193462774    -0.1720418268    -2.6107039194
| 14>  H        1.0985407027     1.7402931195     0.3460744946
| 15>  H       -0.2009408054     2.0669323664    -0.8099984952
| 16>  H       -0.5766101190     1.8648703512     0.9090996242
| 17>  H        0.1301753847    -0.5541220134     0.7838673283
| 18>  H       -1.1867690237    -0.2153654371    -0.3360321291
| 19>  H        2.8026906453    -0.5010619499    -2.0010349543
| 20>  H        2.5696623424    -1.1885215113    -0.3100322498
| 21>  H        0.0326816375    -3.6315034491    -1.2451840309
| 22>  H        1.6559871148    -3.8375428798    -1.3303096506
| 23> *
| 24>
| 25>                          ****END OF INPUT****

CARTESIAN COORDINATES (ANGSTROEM)
---------------------------------
  C      0.059153    1.508425    0.093660
  C     -0.133096    0.001061   -0.123818
  C      0.696695   -0.536984   -1.241027
  C      2.128161   -0.933131   -1.269065
  C      1.049591   -1.946320   -1.696262
  N      0.925544   -3.193831   -1.043754
  C      0.511229   -1.483704   -3.033750
  O      0.222384   -1.954458   -4.086198
  O      0.319346   -0.172042   -2.610704
  H      1.098541    1.740293    0.346074
  H     -0.200941    2.066932   -0.809998
  H     -0.576610    1.864870    0.909100
  H      0.130175   -0.554122    0.783867
  H     -1.186769   -0.215365   -0.336032
  H      2.802691   -0.501062   -2.001035
  H      2.569662   -1.188522   -0.310032
  H      0.032682   -3.631503   -1.245184
  H      1.655987   -3.837543   -1.330310

 Total Charge           Charge          ....    0
 Multiplicity           Mult            ....    1
 Number of Electrons    NEL             ....   68
 Basis Dimension        Dim             ....  333

ORBITAL ENERGIES
----------------

  NO   OCC          E(Eh)            E(eV)
   0   2.0000     -20.595066      -560.4202
   1   2.0000     -20.554618      -559.3196
   2   2.0000     -15.575931      -423.8426
   3   2.0000     -11.382997      -309.7471
   4   2.0000     -11.317131      -307.9548
   5   2.0000     -11.296627      -307.3969
   6   2.0000     -11.262159      -306.4589
   7   2.0000     -11.247777      -306.0676
   8   2.0000     -11.227072      -305.5042
   9   2.0000      -1.463030       -39.8111
  10   2.0000      -1.381936       -37.6044
  11   2.0000      -1.227763       -33.4091
  12   2.0000      -1.122876       -30.5550
  13   2.0000      -1.053628       -28.6707
  14   2.0000      -0.911076       -24.7916
  15   2.0000      -0.891797       -24.2670
  16   2.0000      -0.799018       -21.7424
  17   2.0000      -0.741644       -20.1812
  18   2.0000      -0.711637       -19.3646
  19   2.0000      -0.690099       -18.7785
  20   2.0000      -0.679725       -18.4963
  21   2.0000      -0.654706       -17.8155
  22   2.0000      -0.626773       -17.0554
  23   2.0000      -0.610279       -16.6065
  24   2.0000      -0.585683       -15.9372
  25   2.0000      -0.564449       -15.3594
  26   2.0000      -0.548034       -14.9127
  27   2.0000      -0.530784       -14.4434
  28   2.0000      -0.516265       -14.0483
  29   2.0000      -0.496492       -13.5102
  30   2.0000      -0.482982       -13.1426
  31   2.0000      -0.448584       -12.2066
  32   2.0000      -0.426411       -11.6032
  33   2.0000      -0.385440       -10.4884
  34   0.0000       0.120117         3.2686
  35   0.0000       0.135656         3.6914
  36   0.0000       0.153952         4.1892
  37   0.0000       0.173708         4.7268
  38   0.0000       0.181273         4.9327

MULLIKEN ATOMIC CHARGES
-----------------------
   0 C :   -0.407958
   1 C :   -0.199865
   2 C :    0.219333
   3 C :   -0.267451
   4 C :    0.007204
   5 N :   -0.553376
   6 C :    0.251460
   7 O :   -0.258512
   8 O :   -0.262724
   9 H :    0.129126
  10 H :    0.148817
  11 H :    0.138787
  12 H :    0.130328
  13 H :    0.121358
  14 H :    0.155212
  15 H :    0.141634
  16 H :    0.251329
  17 H :    0.255299
Sum of atomic charges:   -0.0000000

LOEWDIN ATOMIC CHARGES
----------------------
   0 C :   -0.304087
   1 C :   -0.248694
   2 C :   -0.236610
   3 C :   -0.144079
   4 C :   -0.267720
   5 N :   -0.100912
   6 C :   -0.417946
   7 O :    0.158754
   8 O :    0.251444
   9 H :    0.123140
  10 H :    0.128359
  11 H :    0.123154
  12 H :    0.153685
  13 H :    0.149834
  14 H :    0.141287
  15 H :    0.150776
  16 H :    0.169769
  17 H :    0.169844

  Mayer bond orders larger than 0.1
B(  0-C ,  1-C ) :   0.9263 B(  0-C ,  9-H ) :   0.9366 B(  0-C , 10-H ) :   0.9361
B(  0-C , 11-H ) :   0.9395 B(  1-C ,  2-C ) :   0.9107 B(  1-C , 12-H ) :   0.9248
B(  1-C , 13-H ) :   0.9200 B(  2-C ,  3-C ) :   0.9217 B(  2-C ,  4-C ) :   0.7701
B(  2-C ,  8-O ) :   0.9074 B(  3-C ,  4-C ) :   0.8549 B(  3-C , 14-H ) :   0.9007
B(  3-C , 15-H ) :   0.9186 B(  4-C ,  5-N ) :   1.0334 B(  4-C ,  6-C ) :   0.9823
B(  5-N , 16-H ) :   0.8862 B(  5-N , 17-H ) :   0.8771 B(  6-C ,  7-O ) :   2.0663
B(  6-C ,  8-O ) :   1.0602

MP2 TOTAL ENERGY:     -438.365828199 Eh
FINAL SINGLE POINT ENERGY      -438.365828198908

DIPOLE MOMENT
-------------
                                X             Y             Z
Electronic contribution:     -0.20668      -4.46113      -9.03843
Nuclear contribution   :      0.62622       4.21201      10.36018
                        -----------------------------------------
Total Dipole Moment    :      0.41954      -0.24912       1.32175
                        -----------------------------------------
Magnitude (a.u.)       :      1.40894
Magnitude (Debye)      :      3.58123

                             ****ORCA TERMINATED NORMALLY****
TOTAL RUN TIME: 0 days 0 hours 17 minutes 12 seconds 741 msec
