                         Program Version 3.0.3 - RELEASE   -
|  1> ! RI-MP2 RIJK def2-TZVP def2-TZVP/C def2-TZVP/JK TIGHTSCF
|  2> % maxcore 2000
|  3> % mp2 density relaxed end
|  4> *xyz 0 1
|  5>  C       -0.0195061204     1.4590868106    -0.1574388559
|  6>  N        0.0258949127     0.0055758134     0.0223376023
|  7>  C       -0.9007767812    -0.5463258620     1.0815278599
|  8>  C       -0.6342723908    -2.0500189760     0.9216274716
|  9>  C        0.9061156949    -1.9901953274     0.8225537034
| 10>  O        1.6923647360    -2.8909004806     0.7401705775
| 11>  C        1.1635931011    -0.4905018190     0.9021160624
| 12>  C        0.1946531278    -0.0801718224     2.0677405074
| 13>  O        0.2660820741     0.6265825675     3.0242379176
| 14>  H        0.7965882575     1.7530665498    -0.8224928339
| 15>  H       -0.9638448884     1.7134183013    -0.6468363170
| 16>  H        0.0609218607     2.0389578521     0.7751035371
| 17>  H       -1.9252793396    -0.1794758858     1.1071780049
| 18>  H       -0.9575171826    -2.6650216110     1.7653991546
| 19>  H       -1.0703707415    -2.4424897509    -0.0010180239
| 20>  H        2.1680325797    -0.1032508895     0.7584398122
| 21> *
| 22>
| 23>                          ****END OF INPUT****

CARTESIAN COORDINATES (ANGSTROEM)
---------------------------------
  C     -0.019506    1.459087   -0.157439
  N      0.025895    0.005576    0.022338
  C     -0.900777   -0.546326    1.081528
  C     -0.634272   -2.050019    0.921627
  C      0.906116   -1.990195    0.822554
  O      1.692365   -2.890900    0.740171
  C      1.163593   -0.490502    0.902116
  C      0.194653   -0.080172    2.067741
  O      0.266082    0.626583    3.024238
  H      0.796588    1.753067   -0.822493
  H     -0.963845    1.713418   -0.646836
  H      0.060922    2.038958    0.775104
  H     -1.925279   -0.179476    1.107178
  H     -0.957517   -2.665022    1.765399
  H     -1.070371   -2.442490   -0.001018
  H      2.168033   -0.103251    0.758440

 Total Charge           Charge          ....    0
 Multiplicity           Mult            ....    1
 Number of Electrons    NEL             ....   66
 Basis Dimension        Dim             ....  321

ORBITAL ENERGIES
----------------

  NO   OCC          E(Eh)            E(eV)
   0   2.0000     -20.578114      -559.9589
   1   2.0000     -20.567371      -559.6666
   2   2.0000     -15.603092      -424.5817
   3   2.0000     -11.363427      -309.2146
   4   2.0000     -11.353807      -308.9528
   5   2.0000     -11.304070      -307.5994
   6   2.0000     -11.300240      -307.4952
   7   2.0000     -11.270650      -306.6900
   8   2.0000     -11.263868      -306.5054
   9   2.0000      -1.426775       -38.8245
  10   2.0000      -1.411716       -38.4147
  11   2.0000      -1.307784       -35.5866
  12   2.0000      -1.090964       -29.6867
  13   2.0000      -0.998023       -27.1576
  14   2.0000      -0.947002       -25.7692
  15   2.0000      -0.877368       -23.8744
  16   2.0000      -0.776287       -21.1239
  17   2.0000      -0.762394       -20.7458
  18   2.0000      -0.706988       -19.2381
  19   2.0000      -0.678337       -18.4585
  20   2.0000      -0.659228       -17.9385
  21   2.0000      -0.648293       -17.6409
  22   2.0000      -0.619408       -16.8549
  23   2.0000      -0.615165       -16.7395
  24   2.0000      -0.594511       -16.1775
  25   2.0000      -0.574965       -15.6456
  26   2.0000      -0.556133       -15.1331
  27   2.0000      -0.540842       -14.7171
  28   2.0000      -0.532798       -14.4982
  29   2.0000      -0.502334       -13.6692
  30   2.0000      -0.437500       -11.9050
  31   2.0000      -0.415221       -11.2987
  32   2.0000      -0.396141       -10.7795
  33   0.0000       0.106258         2.8914
  34   0.0000       0.131102         3.5675
  35   0.0000       0.144779         3.9396
  36   0.0000       0.162922         4.4333
  37   0.0000       0.173559         4.7228

MULLIKEN ATOMIC CHARGES
-----------------------
   0 C :   -0.351194
   1 N :   -0.175920
   2 C :   -0.033857
   3 C :   -0.167620
   4 C :    0.065591
   5 O :   -0.246079
   6 C :    0.033067
   7 C :    0.058055
   8 O :   -0.223363
   9 H :    0.150592
  10 H :    0.146559
  11 H :    0.141018
  12 H :    0.153991
  13 H :    0.148564
  14 H :    0.138556
  15 H :    0.162040
Sum of atomic charges:   -0.0000000

LOEWDIN ATOMIC CHARGES
----------------------
   0 C :   -0.316881
   1 N :    0.141279
   2 C :   -0.191745
   3 C :   -0.192066
   4 C :   -0.297592
   5 O :    0.170818
   6 C :   -0.154196
   7 C :   -0.296476
   8 O :    0.176674
   9 H :    0.124350
  10 H :    0.123756
  11 H :    0.115343
  12 H :    0.142345
  13 H :    0.152181
  14 H :    0.155821
  15 H :    0.146390

  Mayer bond orders larger than 0.1
B(  0-C ,  1-N ) :   0.8787 B(  0-C ,  9-H ) :   0.9355 B(  0-C , 10-H ) :   0.9342
B(  0-C , 11-H ) :   0.9172 B(  1-N ,  2-C ) :   0.8753 B(  1-N ,  6-C ) :   0.8433
B(  2-C ,  3-C ) :   0.8866 B(  2-C ,  7-C ) :   0.8503 B(  2-C , 12-H ) :   0.8930
B(  3-C ,  4-C ) :   0.9264 B(  3-C ,  6-C ) :  -0.1122 B(  3-C , 13-H ) :   0.9046
B(  3-C , 14-H ) :   0.8735 B(  4-C ,  5-O ) :   2.0521 B(  4-C ,  6-C ) :   0.8249
B(  6-C ,  7-C ) :   0.8199 B(  6-C , 15-H ) :   0.8948 B(  7-C ,  8-O ) :   2.0467

MP2 TOTAL ENERGY:     -437.152961610 Eh
FINAL SINGLE POINT ENERGY      -437.152961610160

DIPOLE MOMENT
-------------
                                X             Y             Z
Electronic contribution:      2.91753      -3.74934       3.54372
Nuclear contribution   :     -3.76710       4.31961      -4.11367
                        -----------------------------------------
Total Dipole Moment    :     -0.84957       0.57027      -0.56995
                        -----------------------------------------
Magnitude (a.u.)       :      1.17125
Magnitude (Debye)      :      2.97707

                             ****ORCA TERMINATED NORMALLY****
TOTAL RUN TIME: 0 days 0 hours 17 minutes 6 seconds 824 msec
