                         Program Version 3.0.3 - RELEASE   -
|  1> ! RI-MP2 RIJK def2-TZVP def2-TZVP/C def2-TZVP/JK TIGHTSCF
|  2> % maxcore 2000
|  3> % mp2 density relaxed end
|  4> *xyz 0 1
|  5>  C       -0.0380509377     1.5306594367    -0.1302957541
|  6>  C       -0.0031882856     0.0291688333     0.0503643775
|  7>  C        1.2914968546    -0.7584082130    -0.1067634883
|  8>  C        0.6452422747    -0.6029988486     1.2377597964
|  9>  C        1.2736121115     0.1462048346     2.4114047511
| 10>  N        1.3028345055    -0.9193967268     3.3943259893
| 11>  C        0.4330704548    -1.9394912435     3.0761196652
| 12>  O        0.0809517633    -2.8559274969     3.7638174357
| 13>  O        0.0123416009    -1.7522731592     1.7862312322
| 14>  H        0.8782637525     2.0041192922     0.2377427279
| 15>  H       -0.1362780516     1.7911157081    -1.1892061281
| 16>  H       -0.8831280003     1.9789570683     0.4033050535
| 17>  H       -0.8920262189    -0.4954572427    -0.2893871773
| 18>  H        1.2370819712    -1.7363663849    -0.5710422565
| 19>  H        2.2077302469    -0.2069831256    -0.2972150747
| 20>  H        2.2758323553     0.5165231005     2.1757854095
| 21>  H        0.6566378557     0.9979532861     2.7339028538
| 22>  H        1.4884904973    -0.7534964285     4.3693888769
| 23> *
| 24>
| 25>                          ****END OF INPUT****

CARTESIAN COORDINATES (ANGSTROEM)
---------------------------------
  C     -0.038051    1.530659   -0.130296
  C     -0.003188    0.029169    0.050364
  C      1.291497   -0.758408   -0.106763
  C      0.645242   -0.602999    1.237760
  C      1.273612    0.146205    2.411405
  N      1.302835   -0.919397    3.394326
  C      0.433070   -1.939491    3.076120
  O      0.080952   -2.855927    3.763817
  O      0.012342   -1.752273    1.786231
  H      0.878264    2.004119    0.237743
  H     -0.136278    1.791116   -1.189206
  H     -0.883128    1.978957    0.403305
  H     -0.892026   -0.495457   -0.289387
  H      1.237082   -1.736366   -0.571042
  H      2.207730   -0.206983   -0.297215
  H      2.275832    0.516523    2.175785
  H      0.656638    0.997953    2.733903
  H      1.488490   -0.753496    4.369389

 Total Charge           Charge          ....    0
 Multiplicity           Mult            ....    1
 Number of Electrons    NEL             ....   68
 Basis Dimension        Dim             ....  333

ORBITAL ENERGIES
----------------

  NO   OCC          E(Eh)            E(eV)
   0   2.0000     -20.602494      -560.6224
   1   2.0000     -20.523937      -558.4847
   2   2.0000     -15.594428      -424.3459
   3   2.0000     -11.399502      -310.1962
   4   2.0000     -11.312806      -307.8371
   5   2.0000     -11.292665      -307.2890
   6   2.0000     -11.249951      -306.1267
   7   2.0000     -11.239311      -305.8372
   8   2.0000     -11.236903      -305.7717
   9   2.0000      -1.469645       -39.9911
  10   2.0000      -1.365267       -37.1508
  11   2.0000      -1.243387       -33.8343
  12   2.0000      -1.166227       -31.7347
  13   2.0000      -0.993791       -27.0424
  14   2.0000      -0.966241       -26.2928
  15   2.0000      -0.849554       -23.1175
  16   2.0000      -0.823367       -22.4050
  17   2.0000      -0.799489       -21.7552
  18   2.0000      -0.717682       -19.5291
  19   2.0000      -0.687513       -18.7082
  20   2.0000      -0.675860       -18.3911
  21   2.0000      -0.634692       -17.2709
  22   2.0000      -0.623035       -16.9536
  23   2.0000      -0.611034       -16.6271
  24   2.0000      -0.595451       -16.2030
  25   2.0000      -0.585156       -15.9229
  26   2.0000      -0.561987       -15.2924
  27   2.0000      -0.537355       -14.6222
  28   2.0000      -0.527933       -14.3658
  29   2.0000      -0.509248       -13.8574
  30   2.0000      -0.460453       -12.5296
  31   2.0000      -0.426680       -11.6105
  32   2.0000      -0.416828       -11.3425
  33   2.0000      -0.396747       -10.7960
  34   0.0000       0.119839         3.2610
  35   0.0000       0.139528         3.7968
  36   0.0000       0.156049         4.2463
  37   0.0000       0.171771         4.6741
  38   0.0000       0.187461         5.1011

MULLIKEN ATOMIC CHARGES
-----------------------
   0 C :   -0.420095
   1 C :   -0.099862
   2 C :   -0.315560
   3 C :    0.202382
   4 C :   -0.118458
   5 N :   -0.356609
   6 C :    0.330373
   7 O :   -0.323496
   8 O :   -0.232624
   9 H :    0.125164
  10 H :    0.145495
  11 H :    0.143341
  12 H :    0.136950
  13 H :    0.148602
  14 H :    0.129365
  15 H :    0.125911
  16 H :    0.128313
  17 H :    0.250809
Sum of atomic charges:   -0.0000000

LOEWDIN ATOMIC CHARGES
----------------------
   0 C :   -0.290422
   1 C :   -0.210635
   2 C :   -0.181474
   3 C :   -0.283635
   4 C :   -0.230724
   5 N :    0.090673
   6 C :   -0.564872
   7 O :    0.100431
   8 O :    0.291015
   9 H :    0.126419
  10 H :    0.129777
  11 H :    0.128318
  12 H :    0.158977
  13 H :    0.142647
  14 H :    0.136486
  15 H :    0.136122
  16 H :    0.132166
  17 H :    0.188729

  Mayer bond orders larger than 0.1
B(  0-C ,  1-C ) :   0.8892 B(  0-C ,  9-H ) :   0.9334 B(  0-C , 10-H ) :   0.9365
B(  0-C , 11-H ) :   0.9393 B(  1-C ,  2-C ) :   0.9105 B(  1-C ,  3-C ) :   0.8614
B(  1-C , 12-H ) :   0.9185 B(  2-C ,  3-C ) :   0.8647 B(  2-C , 13-H ) :   0.9204
B(  2-C , 14-H ) :   0.9112 B(  3-C ,  4-C ) :   0.9182 B(  3-C ,  8-O ) :   0.9370
B(  4-C ,  5-N ) :   0.9248 B(  4-C , 15-H ) :   0.9146 B(  4-C , 16-H ) :   0.9310
B(  5-N ,  6-C ) :   1.1161 B(  5-N , 17-H ) :   0.8704 B(  6-C ,  7-O ) :   2.0385
B(  6-C ,  8-O ) :   1.0600

MP2 TOTAL ENERGY:     -438.402022889 Eh
FINAL SINGLE POINT ENERGY      -438.402022888959

DIPOLE MOMENT
-------------
                                X             Y             Z
Electronic contribution:     -1.07901      -8.70664       7.07042
Nuclear contribution   :      1.75775      10.54730      -7.63238
                        -----------------------------------------
Total Dipole Moment    :      0.67874       1.84066      -0.56197
                        -----------------------------------------
Magnitude (a.u.)       :      2.04072
Magnitude (Debye)      :      5.18709

                             ****ORCA TERMINATED NORMALLY****
TOTAL RUN TIME: 0 days 0 hours 15 minutes 44 seconds 531 msec
