                         Program Version 3.0.3 - RELEASE   -
|  1> ! RI-MP2 RIJK def2-TZVP def2-TZVP/C def2-TZVP/JK TIGHTSCF
|  2> % maxcore 2000
|  3> % mp2 density relaxed end
|  4> *xyz 0 1
|  5>  C        0.0556620399     1.5093741625    -0.0097053204
|  6>  C        0.0131366221    -0.0098473744    -0.0372606612
|  7>  C        0.7185493233    -0.6287299099    -1.2634178183
|  8>  C       -0.0454137255    -1.9606860011    -1.4979938918
|  9>  C       -0.7759027049    -2.1549663949    -0.1606041329
| 10>  C        0.3080544072    -2.2108820419     0.9658818300
| 11>  C        0.2861043038    -0.7205264635     1.3529086248
| 12>  C       -1.2277618880    -0.5400702930     1.6621582779
| 13>  C       -1.3637476985    -0.7431659025     0.1383400576
| 14>  H        1.0939334348     1.8621510085     0.0045501920
| 15>  H       -0.4184166531     1.9306608139    -0.9037788664
| 16>  H       -0.4431146631     1.9358270755     0.8649455974
| 17>  H        0.6526409513     0.0374708093    -2.1296762951
| 18>  H        1.7859232965    -0.7886130317    -1.0732982896
| 19>  H       -0.7631585822    -1.8562062176    -2.3199887399
| 20>  H        0.6133425909    -2.7997285225    -1.7430912505
| 21>  H       -1.4900218907    -2.9806192836    -0.1478206616
| 22>  H        0.0242716483    -2.8481267352     1.8087594129
| 23>  H        1.2746372925    -2.5628509335     0.5926460660
| 24>  H        1.0612290043    -0.3591118882     2.0321175125
| 25>  H       -1.6943392293    -1.2727367295     2.3278520713
| 26>  H       -1.4977568428     0.4661159881     1.9859532302
| 27>  H       -2.2546773567    -0.4497780547    -0.4209620952
| 28> *
| 29>
| 30>                          ****END OF INPUT****

CARTESIAN COORDINATES (ANGSTROEM)
---------------------------------
  C      0.055662    1.509374   -0.009705
  C      0.013137   -0.009847   -0.037261
  C      0.718549   -0.628730   -1.263418
  C     -0.045414   -1.960686   -1.497994
  C     -0.775903   -2.154966   -0.160604
  C      0.308054   -2.210882    0.965882
  C      0.286104   -0.720526    1.352909
  C     -1.227762   -0.540070    1.662158
  C     -1.363748   -0.743166    0.138340
  H      1.093933    1.862151    0.004550
  H     -0.418417    1.930661   -0.903779
  H     -0.443115    1.935827    0.864946
  H      0.652641    0.037471   -2.129676
  H      1.785923   -0.788613   -1.073298
  H     -0.763159   -1.856206   -2.319989
  H      0.613343   -2.799729   -1.743091
  H     -1.490022   -2.980619   -0.147821
  H      0.024272   -2.848127    1.808759
  H      1.274637   -2.562851    0.592646
  H      1.061229   -0.359112    2.032118
  H     -1.694339   -1.272737    2.327852
  H     -1.497757    0.466116    1.985953
  H     -2.254677   -0.449778   -0.420962

 Total Charge           Charge          ....    0
 Multiplicity           Mult            ....    1
 Number of Electrons    NEL             ....   68
 Basis Dimension        Dim             ....  363

ORBITAL ENERGIES
----------------

  NO   OCC          E(Eh)            E(eV)
   0   2.0000     -11.227026      -305.5029
   1   2.0000     -11.223387      -305.4039
   2   2.0000     -11.218928      -305.2825
   3   2.0000     -11.218296      -305.2654
   4   2.0000     -11.212860      -305.1174
   5   2.0000     -11.211926      -305.0920
   6   2.0000     -11.211210      -305.0725
   7   2.0000     -11.209721      -305.0320
   8   2.0000     -11.209498      -305.0259
   9   2.0000      -1.194933       -32.5158
  10   2.0000      -1.036578       -28.2067
  11   2.0000      -1.013014       -27.5655
  12   2.0000      -0.937268       -25.5044
  13   2.0000      -0.910137       -24.7661
  14   2.0000      -0.856232       -23.2993
  15   2.0000      -0.803641       -21.8682
  16   2.0000      -0.728636       -19.8272
  17   2.0000      -0.695840       -18.9348
  18   2.0000      -0.664094       -18.0709
  19   2.0000      -0.633353       -17.2344
  20   2.0000      -0.627237       -17.0680
  21   2.0000      -0.588853       -16.0235
  22   2.0000      -0.558631       -15.2011
  23   2.0000      -0.543036       -14.7768
  24   2.0000      -0.521476       -14.1901
  25   2.0000      -0.510214       -13.8836
  26   2.0000      -0.490700       -13.3526
  27   2.0000      -0.474889       -12.9224
  28   2.0000      -0.464888       -12.6503
  29   2.0000      -0.455364       -12.3911
  30   2.0000      -0.429656       -11.6915
  31   2.0000      -0.428069       -11.6484
  32   2.0000      -0.407178       -11.0799
  33   2.0000      -0.391089       -10.6421
  34   0.0000       0.137408         3.7391
  35   0.0000       0.155465         4.2304
  36   0.0000       0.164234         4.4690
  37   0.0000       0.169728         4.6185
  38   0.0000       0.188696         5.1347

MULLIKEN ATOMIC CHARGES
-----------------------
   0 C :   -0.429698
   1 C :    0.073548
   2 C :   -0.276086
   3 C :   -0.256237
   4 C :   -0.014502
   5 C :   -0.293987
   6 C :   -0.058342
   7 C :   -0.291573
   8 C :   -0.099520
   9 H :    0.132420
  10 H :    0.130229
  11 H :    0.126866
  12 H :    0.116763
  13 H :    0.113773
  14 H :    0.106432
  15 H :    0.118021
  16 H :    0.114099
  17 H :    0.118444
  18 H :    0.114733
  19 H :    0.115921
  20 H :    0.107868
  21 H :    0.117244
  22 H :    0.113586
Sum of atomic charges:   -0.0000000

LOEWDIN ATOMIC CHARGES
----------------------
   0 C :   -0.271585
   1 C :   -0.217199
   2 C :   -0.208903
   3 C :   -0.233429
   4 C :   -0.199645
   5 C :   -0.200381
   6 C :   -0.166657
   7 C :   -0.200648
   8 C :   -0.150368
   9 H :    0.128266
  10 H :    0.126095
  11 H :    0.124867
  12 H :    0.135906
  13 H :    0.136629
  14 H :    0.134442
  15 H :    0.131852
  16 H :    0.138907
  17 H :    0.133292
  18 H :    0.135153
  19 H :    0.131689
  20 H :    0.125639
  21 H :    0.132264
  22 H :    0.133814

  Mayer bond orders larger than 0.1
B(  0-C ,  1-C ) :   0.8733 B(  0-C ,  9-H ) :   0.9439 B(  0-C , 10-H ) :   0.9415
B(  0-C , 11-H ) :   0.9369 B(  1-C ,  2-C ) :   0.9215 B(  1-C ,  6-C ) :   0.8780
B(  1-C ,  8-C ) :   0.9146 B(  2-C ,  3-C ) :   0.9767 B(  2-C , 12-H ) :   0.9280
B(  2-C , 13-H ) :   0.9200 B(  3-C ,  4-C ) :   0.9208 B(  3-C , 14-H ) :   0.9233
B(  3-C , 15-H ) :   0.9246 B(  4-C ,  5-C ) :   0.9452 B(  4-C ,  8-C ) :   0.8721
B(  4-C , 16-H ) :   0.9184 B(  5-C ,  6-C ) :   0.9190 B(  5-C , 17-H ) :   0.9301
B(  5-C , 18-H ) :   0.9270 B(  6-C ,  7-C ) :   0.9155 B(  6-C , 19-H ) :   0.9061
B(  7-C ,  8-C ) :   0.9271 B(  7-C , 20-H ) :   0.9184 B(  7-C , 21-H ) :   0.9261
B(  8-C , 22-H ) :   0.9090

MP2 TOTAL ENERGY:     -350.528694102 Eh
FINAL SINGLE POINT ENERGY      -350.528694102033

DIPOLE MOMENT
-------------
                                X             Y             Z
Electronic contribution:     -0.90786      -1.56148       0.73215
Nuclear contribution   :      0.91641       1.59174      -0.75612
                        -----------------------------------------
Total Dipole Moment    :      0.00855       0.03026      -0.02397
                        -----------------------------------------
Magnitude (a.u.)       :      0.03954
Magnitude (Debye)      :      0.10051

                             ****ORCA TERMINATED NORMALLY****
TOTAL RUN TIME: 0 days 0 hours 22 minutes 11 seconds 762 msec
