                         Program Version 3.0.3 - RELEASE   -
|  1> ! RI-MP2 RIJK def2-TZVP def2-TZVP/C def2-TZVP/JK TIGHTSCF
|  2> % maxcore 2000
|  3> % mp2 density relaxed end
|  4> *xyz 0 1
|  5>  N        0.0500808500     1.2637247456     0.3997967687
|  6>  C        0.0358825922     0.0452906982     0.0588372088
|  7>  C       -1.2664316502    -0.7215345668    -0.0161458242
|  8>  C       -1.2809667833    -1.7537285455    -1.1621301114
|  9>  C       -0.0195865172    -2.6097852017    -1.0790959662
| 10>  C        1.2062403503    -1.7089681677    -1.1270525736
| 11>  O        1.1875926144    -0.6611340122    -0.1427091798
| 12>  C       -2.5617835865    -2.5615436673    -1.1310664861
| 13>  O       -2.6113813431    -3.7636292691    -1.0858672671
| 14>  H        1.0144859652     1.6023718478     0.4345369296
| 15>  H       -1.3868029151    -1.2544494789     0.9371794724
| 16>  H       -2.0795438791     0.0022052130    -0.0913273323
| 17>  H       -1.2949731829    -1.1984934547    -2.1146954207
| 18>  H       -0.0315459264    -3.1882241485    -0.1489950170
| 19>  H        0.0241920617    -3.3303531778    -1.9010249586
| 20>  H        2.1236067035    -2.2680541121    -0.9293749592
| 21>  H        1.2995339527    -1.2471003799    -2.1205321243
| 22>  H       -3.4922387960    -1.9481458222    -1.1489635692
| 23> *
| 24>
| 25>                          ****END OF INPUT****

CARTESIAN COORDINATES (ANGSTROEM)
---------------------------------
  N      0.050081    1.263725    0.399797
  C      0.035883    0.045291    0.058837
  C     -1.266432   -0.721535   -0.016146
  C     -1.280967   -1.753729   -1.162130
  C     -0.019587   -2.609785   -1.079096
  C      1.206240   -1.708968   -1.127053
  O      1.187593   -0.661134   -0.142709
  C     -2.561784   -2.561544   -1.131066
  O     -2.611381   -3.763629   -1.085867
  H      1.014486    1.602372    0.434537
  H     -1.386803   -1.254449    0.937179
  H     -2.079544    0.002205   -0.091327
  H     -1.294973   -1.198493   -2.114695
  H     -0.031546   -3.188224   -0.148995
  H      0.024192   -3.330353   -1.901025
  H      2.123607   -2.268054   -0.929375
  H      1.299534   -1.247100   -2.120532
  H     -3.492239   -1.948146   -1.148964

 Total Charge           Charge          ....    0
 Multiplicity           Mult            ....    1
 Number of Electrons    NEL             ....   68
 Basis Dimension        Dim             ....  333

ORBITAL ENERGIES
----------------

  NO   OCC          E(Eh)            E(eV)
   0   2.0000     -20.594755      -560.4118
   1   2.0000     -20.571062      -559.7671
   2   2.0000     -15.538652      -422.8282
   3   2.0000     -11.344398      -308.6968
   4   2.0000     -11.343595      -308.6749
   5   2.0000     -11.304026      -307.5982
   6   2.0000     -11.266802      -306.5853
   7   2.0000     -11.258895      -306.3701
   8   2.0000     -11.246690      -306.0380
   9   2.0000      -1.426802       -38.8253
  10   2.0000      -1.410110       -38.3710
  11   2.0000      -1.202523       -32.7223
  12   2.0000      -1.125301       -30.6210
  13   2.0000      -1.025670       -27.9099
  14   2.0000      -0.941484       -25.6191
  15   2.0000      -0.888227       -24.1699
  16   2.0000      -0.789828       -21.4923
  17   2.0000      -0.763065       -20.7641
  18   2.0000      -0.709273       -19.3003
  19   2.0000      -0.690878       -18.7997
  20   2.0000      -0.681958       -18.5570
  21   2.0000      -0.658048       -17.9064
  22   2.0000      -0.639970       -17.4145
  23   2.0000      -0.618630       -16.8338
  24   2.0000      -0.606649       -16.5078
  25   2.0000      -0.575508       -15.6604
  26   2.0000      -0.546550       -14.8724
  27   2.0000      -0.520604       -14.1664
  28   2.0000      -0.506672       -13.7872
  29   2.0000      -0.496197       -13.5022
  30   2.0000      -0.481105       -13.0915
  31   2.0000      -0.448751       -12.2111
  32   2.0000      -0.425671       -11.5831
  33   2.0000      -0.405348       -11.0301
  34   0.0000       0.113463         3.0875
  35   0.0000       0.128995         3.5101
  36   0.0000       0.145978         3.9723
  37   0.0000       0.154682         4.2091
  38   0.0000       0.168888         4.5957

MULLIKEN ATOMIC CHARGES
-----------------------
   0 N :   -0.356530
   1 C :    0.088302
   2 C :   -0.194326
   3 C :   -0.018223
   4 C :   -0.266326
   5 C :   -0.052419
   6 O :   -0.265918
   7 C :    0.082098
   8 O :   -0.258927
   9 H :    0.221697
  10 H :    0.143410
  11 H :    0.146567
  12 H :    0.115089
  13 H :    0.129102
  14 H :    0.143021
  15 H :    0.140306
  16 H :    0.110444
  17 H :    0.092634
Sum of atomic charges:    0.0000000

LOEWDIN ATOMIC CHARGES
----------------------
   0 N :   -0.048510
   1 C :   -0.412380
   2 C :   -0.194086
   3 C :   -0.258746
   4 C :   -0.241031
   5 C :   -0.280596
   6 O :    0.226459
   7 C :   -0.269505
   8 O :    0.143479
   9 H :    0.167377
  10 H :    0.160300
  11 H :    0.156495
  12 H :    0.169739
  13 H :    0.149690
  14 H :    0.152177
  15 H :    0.134311
  16 H :    0.127771
  17 H :    0.117057

  Mayer bond orders larger than 0.1
B(  0-N ,  1-C ) :   2.0647 B(  0-N ,  9-H ) :   0.8563 B(  1-C ,  2-C ) :   0.9157
B(  1-C ,  6-O ) :   1.0875 B(  2-C ,  3-C ) :   0.9004 B(  2-C , 10-H ) :   0.9139
B(  2-C , 11-H ) :   0.9076 B(  3-C ,  4-C ) :   0.8943 B(  3-C ,  7-C ) :   0.8482
B(  3-C , 12-H ) :   0.9011 B(  4-C ,  5-C ) :   0.9413 B(  4-C , 13-H ) :   0.9192
B(  4-C , 14-H ) :   0.9193 B(  5-C ,  6-O ) :   0.8655 B(  5-C , 15-H ) :   0.9356
B(  5-C , 16-H ) :   0.9318 B(  7-C ,  8-O ) :   2.0126 B(  7-C , 17-H ) :   0.9562

MP2 TOTAL ENERGY:     -438.389459889 Eh
FINAL SINGLE POINT ENERGY      -438.389459888688

DIPOLE MOMENT
-------------
                                X             Y             Z
Electronic contribution:     -0.87394       0.08991       1.05963
Nuclear contribution   :      1.23465      -0.23543      -1.67815
                        -----------------------------------------
Total Dipole Moment    :      0.36071      -0.14552      -0.61852
                        -----------------------------------------
Magnitude (a.u.)       :      0.73065
Magnitude (Debye)      :      1.85718

                             ****ORCA TERMINATED NORMALLY****
TOTAL RUN TIME: 0 days 0 hours 17 minutes 34 seconds 320 msec
