                         Program Version 3.0.3 - RELEASE   -
|  1> ! RI-MP2 RIJK def2-TZVP def2-TZVP/C def2-TZVP/JK TIGHTSCF
|  2> % maxcore 2000
|  3> % mp2 density relaxed end
|  4> *xyz 0 1
|  5>  O       -0.0525497694    -0.0458548471    -0.0326654292
|  6>  C        0.0207022142     1.1624895147    -0.1088860787
|  7>  N        1.1895695408     1.8687625112    -0.0595258645
|  8>  C        2.4587734400     1.3023020205     0.1208934956
|  9>  C        3.4246310989     2.2193243278     0.1256430172
| 10>  C        2.8497532603     3.5959790107    -0.1151772888
| 11>  C        1.3014920034     3.3494319594    -0.0667487226
| 12>  C        0.5670093592     3.9725146889    -1.1603389814
| 13>  C       -0.0308845567     4.5089747445    -2.0536641853
| 14>  H       -0.8557102096     1.8235522785    -0.2351812213
| 15>  H        2.5104508814     0.2291345320     0.2254537827
| 16>  H        4.4799678306     2.0173432993     0.2339269015
| 17>  H        3.1454437834     4.3311564629     0.6391221889
| 18>  H        3.1478914722     3.9986158420    -1.0899037463
| 19>  H        0.9074812731     3.7308572743     0.8840902035
| 20>  H       -0.5623072717     4.9759225701    -2.8461956913
| 21> *
| 22>
| 23>                          ****END OF INPUT****

CARTESIAN COORDINATES (ANGSTROEM)
---------------------------------
  O     -0.052550   -0.045855   -0.032665
  C      0.020702    1.162490   -0.108886
  N      1.189570    1.868763   -0.059526
  C      2.458773    1.302302    0.120893
  C      3.424631    2.219324    0.125643
  C      2.849753    3.595979   -0.115177
  C      1.301492    3.349432   -0.066749
  C      0.567009    3.972515   -1.160339
  C     -0.030885    4.508975   -2.053664
  H     -0.855710    1.823552   -0.235181
  H      2.510451    0.229135    0.225454
  H      4.479968    2.017343    0.233927
  H      3.145444    4.331156    0.639122
  H      3.147891    3.998616   -1.089904
  H      0.907481    3.730857    0.884090
  H     -0.562307    4.975923   -2.846196

 Total Charge           Charge          ....    0
 Multiplicity           Mult            ....    1
 Number of Electrons    NEL             ....   64
 Basis Dimension        Dim             ....  321

ORBITAL ENERGIES
----------------

  NO   OCC          E(Eh)            E(eV)
   0   2.0000     -20.529154      -558.6267
   1   2.0000     -15.607089      -424.6905
   2   2.0000     -11.354636      -308.9754
   3   2.0000     -11.320640      -308.0503
   4   2.0000     -11.279232      -306.9235
   5   2.0000     -11.257670      -306.3368
   6   2.0000     -11.252743      -306.2027
   7   2.0000     -11.245529      -306.0064
   8   2.0000     -11.235502      -305.7335
   9   2.0000      -1.391061       -37.8527
  10   2.0000      -1.288313       -35.0568
  11   2.0000      -1.090957       -29.6865
  12   2.0000      -1.073920       -29.2228
  13   2.0000      -0.999878       -27.2081
  14   2.0000      -0.903418       -24.5833
  15   2.0000      -0.840883       -22.8816
  16   2.0000      -0.779867       -21.2213
  17   2.0000      -0.736653       -20.0453
  18   2.0000      -0.721418       -19.6308
  19   2.0000      -0.693402       -18.8684
  20   2.0000      -0.652556       -17.7569
  21   2.0000      -0.616308       -16.7706
  22   2.0000      -0.589673       -16.0458
  23   2.0000      -0.582260       -15.8441
  24   2.0000      -0.559964       -15.2374
  25   2.0000      -0.551308       -15.0019
  26   2.0000      -0.540069       -14.6960
  27   2.0000      -0.467502       -12.7214
  28   2.0000      -0.441408       -12.0113
  29   2.0000      -0.412691       -11.2299
  30   2.0000      -0.404905       -11.0180
  31   2.0000      -0.325249        -8.8505
  32   0.0000       0.122964         3.3460
  33   0.0000       0.131881         3.5887
  34   0.0000       0.152593         4.1523
  35   0.0000       0.153999         4.1905
  36   0.0000       0.160232         4.3601

MULLIKEN ATOMIC CHARGES
-----------------------
   0 O :   -0.351753
   1 C :    0.149745
   2 N :   -0.037649
   3 C :   -0.120766
   4 C :   -0.192267
   5 C :   -0.155962
   6 C :   -0.106111
   7 C :   -0.080193
   8 C :   -0.133685
   9 H :    0.100587
  10 H :    0.171168
  11 H :    0.145935
  12 H :    0.131986
  13 H :    0.137339
  14 H :    0.141475
  15 H :    0.200152
Sum of atomic charges:    0.0000000

LOEWDIN ATOMIC CHARGES
----------------------
   0 O :    0.068834
   1 C :   -0.393966
   2 N :    0.220305
   3 C :   -0.167842
   4 C :   -0.177466
   5 C :   -0.190223
   6 C :   -0.195464
   7 C :   -0.093941
   8 C :   -0.076121
   9 H :    0.122185
  10 H :    0.152240
  11 H :    0.142184
  12 H :    0.142475
  13 H :    0.148362
  14 H :    0.167797
  15 H :    0.130644

  Mayer bond orders larger than 0.1
B(  0-O ,  1-C ) :   1.8977 B(  1-C ,  2-N ) :   1.0840 B(  1-C ,  9-H ) :   0.9280
B(  2-N ,  3-C ) :   0.9816 B(  2-N ,  6-C ) :   0.8203 B(  3-C ,  4-C ) :   1.7163
B(  3-C , 10-H ) :   0.9227 B(  4-C ,  5-C ) :   0.9260 B(  4-C , 11-H ) :   0.9282
B(  5-C ,  6-C ) :   0.9370 B(  5-C , 12-H ) :   0.9204 B(  5-C , 13-H ) :   0.9157
B(  6-C ,  7-C ) :   1.1064 B(  6-C , 14-H ) :   0.9288 B(  7-C ,  8-C ) :   2.6054
B(  8-C , 15-H ) :   0.8891

MP2 TOTAL ENERGY:     -400.035206914 Eh
FINAL SINGLE POINT ENERGY      -400.035206914246

DIPOLE MOMENT
-------------
                                X             Y             Z
Electronic contribution:     -2.90658      -2.71296      -0.27838
Nuclear contribution   :      3.51086       4.13515       0.26772
                        -----------------------------------------
Total Dipole Moment    :      0.60429       1.42219      -0.01067
                        -----------------------------------------
Magnitude (a.u.)       :      1.54528
Magnitude (Debye)      :      3.92780

                             ****ORCA TERMINATED NORMALLY****
TOTAL RUN TIME: 0 days 0 hours 16 minutes 55 seconds 913 msec
