                         Program Version 3.0.3 - RELEASE   -
|  1> ! RI-MP2 RIJK def2-TZVP def2-TZVP/C def2-TZVP/JK TIGHTSCF
|  2> % maxcore 2000
|  3> % mp2 density relaxed end
|  4> *xyz 0 1
|  5>  C       -0.0642860034     1.3123304642    -0.1590052031
|  6>  O        0.0828690837    -0.0786394118     0.0240642421
|  7>  C        0.7496380174    -0.5387154002     1.2079835403
|  8>  C        2.1829231740     0.0131136439     1.3003964579
|  9>  C       -0.0471443325    -0.1690091863     2.4693596901
| 10>  C        0.7420814811    -2.0729820767     1.0535930758
| 11>  C        1.4047770015    -2.5665520769    -0.2481158702
| 12>  C        1.2840772986    -4.0127172729    -0.4105119559
| 13>  N        1.1832523236    -5.1585630267    -0.5234608627
| 14>  H        0.8993647662     1.8328282996    -0.2458162766
| 15>  H       -0.6097341915     1.4421500767    -1.0971647895
| 16>  H       -0.6446800501     1.7862969272     0.6441191704
| 17>  H        2.1868716267     1.0806951433     1.5369348813
| 18>  H        2.7354718442    -0.4972970155     2.0951223422
| 19>  H        2.7248847903    -0.1239858521     0.3606135592
| 20>  H       -1.0834244832    -0.5067056478     2.3779824491
| 21>  H        0.3940535999    -0.6421300489     3.3519435886
| 22>  H       -0.0485750146     0.9103806570     2.6450399629
| 23>  H        1.2382138164    -2.5265596681     1.9171476638
| 24>  H       -0.2985330593    -2.4111619005     1.0634119731
| 25>  H        0.9358675048    -2.0677118180    -1.1008757305
| 26>  H        2.4691649063    -2.3098484696    -0.2706908781
| 27> *
| 28>
| 29>                          ****END OF INPUT****

CARTESIAN COORDINATES (ANGSTROEM)
---------------------------------
  C     -0.064286    1.312330   -0.159005
  O      0.082869   -0.078639    0.024064
  C      0.749638   -0.538715    1.207984
  C      2.182923    0.013114    1.300396
  C     -0.047144   -0.169009    2.469360
  C      0.742081   -2.072982    1.053593
  C      1.404777   -2.566552   -0.248116
  C      1.284077   -4.012717   -0.410512
  N      1.183252   -5.158563   -0.523461
  H      0.899365    1.832828   -0.245816
  H     -0.609734    1.442150   -1.097165
  H     -0.644680    1.786297    0.644119
  H      2.186872    1.080695    1.536935
  H      2.735472   -0.497297    2.095122
  H      2.724885   -0.123986    0.360614
  H     -1.083424   -0.506706    2.377982
  H      0.394054   -0.642130    3.351944
  H     -0.048575    0.910381    2.645040
  H      1.238214   -2.526560    1.917148
  H     -0.298533   -2.411162    1.063412
  H      0.935868   -2.067712   -1.100876
  H      2.469165   -2.309848   -0.270691

 Total Charge           Charge          ....    0
 Multiplicity           Mult            ....    1
 Number of Electrons    NEL             ....   70
 Basis Dimension        Dim             ....  357

ORBITAL ENERGIES
----------------

  NO   OCC          E(Eh)            E(eV)
   0   2.0000     -20.563436      -559.5596
   1   2.0000     -15.559802      -423.4037
   2   2.0000     -11.305321      -307.6334
   3   2.0000     -11.279351      -306.9268
   4   2.0000     -11.272051      -306.7281
   5   2.0000     -11.265255      -306.5432
   6   2.0000     -11.245833      -306.0147
   7   2.0000     -11.231723      -305.6307
   8   2.0000     -11.228293      -305.5374
   9   2.0000      -1.383593       -37.6495
  10   2.0000      -1.210475       -32.9387
  11   2.0000      -1.108644       -30.1677
  12   2.0000      -1.041549       -28.3420
  13   2.0000      -0.957163       -26.0457
  14   2.0000      -0.945408       -25.7259
  15   2.0000      -0.899748       -24.4834
  16   2.0000      -0.767834       -20.8938
  17   2.0000      -0.701738       -19.0953
  18   2.0000      -0.677887       -18.4462
  19   2.0000      -0.659832       -17.9549
  20   2.0000      -0.649041       -17.6613
  21   2.0000      -0.629766       -17.1368
  22   2.0000      -0.597803       -16.2671
  23   2.0000      -0.581294       -15.8178
  24   2.0000      -0.568978       -15.4827
  25   2.0000      -0.552114       -15.0238
  26   2.0000      -0.547839       -14.9075
  27   2.0000      -0.540094       -14.6967
  28   2.0000      -0.528145       -14.3716
  29   2.0000      -0.507129       -13.7997
  30   2.0000      -0.500827       -13.6282
  31   2.0000      -0.471069       -12.8184
  32   2.0000      -0.448353       -12.2003
  33   2.0000      -0.444656       -12.0997
  34   2.0000      -0.427503       -11.6329
  35   0.0000       0.118023         3.2116
  36   0.0000       0.144682         3.9370
  37   0.0000       0.152633         4.1534
  38   0.0000       0.169329         4.6077
  39   0.0000       0.179280         4.8785

MULLIKEN ATOMIC CHARGES
-----------------------
   0 C :   -0.235890
   1 O :   -0.311405
   2 C :    0.227414
   3 C :   -0.477406
   4 C :   -0.421461
   5 C :   -0.219001
   6 C :   -0.154699
   7 C :   -0.181391
   8 N :   -0.061119
   9 H :    0.118868
  10 H :    0.146622
  11 H :    0.116851
  12 H :    0.145918
  13 H :    0.142561
  14 H :    0.149117
  15 H :    0.145982
  16 H :    0.137289
  17 H :    0.137067
  18 H :    0.132802
  19 H :    0.135118
  20 H :    0.176498
  21 H :    0.150264
Sum of atomic charges:    0.0000000

LOEWDIN ATOMIC CHARGES
----------------------
   0 C :   -0.356043
   1 O :    0.169895
   2 C :   -0.400055
   3 C :   -0.274946
   4 C :   -0.272460
   5 C :   -0.206674
   6 C :   -0.242962
   7 C :   -0.194736
   8 N :    0.049493
   9 H :    0.102938
  10 H :    0.116055
  11 H :    0.103626
  12 H :    0.126939
  13 H :    0.132878
  14 H :    0.127753
  15 H :    0.130812
  16 H :    0.131553
  17 H :    0.124490
  18 H :    0.148323
  19 H :    0.152774
  20 H :    0.168951
  21 H :    0.161394

  Mayer bond orders larger than 0.1
B(  0-C ,  1-O ) :   0.9154 B(  0-C ,  9-H ) :   0.9333 B(  0-C , 10-H ) :   0.9412
B(  0-C , 11-H ) :   0.9324 B(  1-O ,  2-C ) :   0.9482 B(  2-C ,  3-C ) :   0.9001
B(  2-C ,  4-C ) :   0.9148 B(  2-C ,  5-C ) :   0.8917 B(  3-C , 12-H ) :   0.9325
B(  3-C , 13-H ) :   0.9280 B(  3-C , 14-H ) :   0.9418 B(  4-C , 15-H ) :   0.9397
B(  4-C , 16-H ) :   0.9275 B(  4-C , 17-H ) :   0.9328 B(  5-C ,  6-C ) :   0.9233
B(  5-C , 18-H ) :   0.9239 B(  5-C , 19-H ) :   0.9268 B(  6-C ,  7-C ) :   0.9335
B(  6-C , 20-H ) :   0.9055 B(  6-C , 21-H ) :   0.9053 B(  7-C ,  8-N ) :   2.8935

MP2 TOTAL ENERGY:     -403.675003323 Eh
FINAL SINGLE POINT ENERGY      -403.675003323485

DIPOLE MOMENT
-------------
                                X             Y             Z
Electronic contribution:     -0.03672     -10.87500      -5.19345
Nuclear contribution   :      0.24543      12.90770       5.82113
                        -----------------------------------------
Total Dipole Moment    :      0.20872       2.03270       0.62768
                        -----------------------------------------
Magnitude (a.u.)       :      2.13762
Magnitude (Debye)      :      5.43339

                             ****ORCA TERMINATED NORMALLY****
TOTAL RUN TIME: 0 days 0 hours 20 minutes 57 seconds 354 msec
