                         Program Version 3.0.3 - RELEASE   -
|  1> ! RI-MP2 RIJK def2-TZVP def2-TZVP/C def2-TZVP/JK TIGHTSCF
|  2> % maxcore 2000
|  3> % mp2 density relaxed end
|  4> *xyz 0 1
|  5>  N        0.6272479263    -0.5141840683     0.1963910137
|  6>  C       -0.1431723747     0.5641022650    -0.1211457145
|  7>  O        0.2827133494     1.6539839868    -0.4428441928
|  8>  C       -1.6327652808     0.3148809989    -0.0251402601
|  9>  O       -2.0758631355    -0.9982564856     0.3401604481
| 10>  C       -2.3261450197     0.0671502373     1.2532395830
| 11>  C       -1.6055913064     0.0383242385     2.5905064057
| 12>  C       -2.2307388664    -0.8959332521     3.5266800852
| 13>  N       -2.7323098121    -1.6329087077     4.2610939622
| 14>  H        1.6197830976    -0.4495806341     0.0357053878
| 15>  H        0.1962588963    -1.4222066525     0.2680412602
| 16>  H       -2.1940213494     0.7999878588    -0.8212289502
| 17>  H       -3.3748737269     0.3568916840     1.3142753781
| 18>  H       -0.5563936424    -0.2361102145     2.4511950133
| 19>  H       -1.6264867352     1.0432923453     3.0286227604
| 20> *
| 21>
| 22>                          ****END OF INPUT****

CARTESIAN COORDINATES (ANGSTROEM)
---------------------------------
  N      0.627248   -0.514184    0.196391
  C     -0.143172    0.564102   -0.121146
  O      0.282713    1.653984   -0.442844
  C     -1.632765    0.314881   -0.025140
  O     -2.075863   -0.998256    0.340160
  C     -2.326145    0.067150    1.253240
  C     -1.605591    0.038324    2.590506
  C     -2.230739   -0.895933    3.526680
  N     -2.732310   -1.632909    4.261094
  H      1.619783   -0.449581    0.035705
  H      0.196259   -1.422207    0.268041
  H     -2.194021    0.799988   -0.821229
  H     -3.374874    0.356892    1.314275
  H     -0.556394   -0.236110    2.451195
  H     -1.626487    1.043292    3.028623

 Total Charge           Charge          ....    0
 Multiplicity           Mult            ....    1
 Number of Electrons    NEL             ....   66
 Basis Dimension        Dim             ....  315

ORBITAL ENERGIES
----------------

  NO   OCC          E(Eh)            E(eV)
   0   2.0000     -20.615226      -560.9688
   1   2.0000     -20.545660      -559.0758
   2   2.0000     -15.605416      -424.6449
   3   2.0000     -15.582715      -424.0272
   4   2.0000     -11.380101      -309.6683
   5   2.0000     -11.342672      -308.6498
   6   2.0000     -11.330563      -308.3203
   7   2.0000     -11.306236      -307.6583
   8   2.0000     -11.286638      -307.1250
   9   2.0000      -1.463566       -39.8257
  10   2.0000      -1.407153       -38.2906
  11   2.0000      -1.235995       -33.6331
  12   2.0000      -1.231688       -33.5159
  13   2.0000      -1.091187       -29.6927
  14   2.0000      -0.990984       -26.9660
  15   2.0000      -0.901655       -24.5353
  16   2.0000      -0.814678       -22.1685
  17   2.0000      -0.769302       -20.9338
  18   2.0000      -0.743749       -20.2384
  19   2.0000      -0.709461       -19.3054
  20   2.0000      -0.698194       -18.9988
  21   2.0000      -0.652339       -17.7511
  22   2.0000      -0.642939       -17.4953
  23   2.0000      -0.609494       -16.5852
  24   2.0000      -0.590833       -16.0774
  25   2.0000      -0.571972       -15.5642
  26   2.0000      -0.568108       -15.4590
  27   2.0000      -0.519754       -14.1432
  28   2.0000      -0.484010       -13.1706
  29   2.0000      -0.471869       -12.8402
  30   2.0000      -0.467949       -12.7335
  31   2.0000      -0.451876       -12.2962
  32   2.0000      -0.438208       -11.9242
  33   0.0000       0.117134         3.1874
  34   0.0000       0.127936         3.4813
  35   0.0000       0.140635         3.8269
  36   0.0000       0.157827         4.2947
  37   0.0000       0.167796         4.5660

MULLIKEN ATOMIC CHARGES
-----------------------
   0 N :   -0.488682
   1 C :    0.247627
   2 O :   -0.332831
   3 C :    0.045268
   4 O :   -0.329847
   5 C :    0.019945
   6 C :   -0.144456
   7 C :   -0.173142
   8 N :   -0.052238
   9 H :    0.265207
  10 H :    0.288547
  11 H :    0.157099
  12 H :    0.145083
  13 H :    0.178384
  14 H :    0.174036
Sum of atomic charges:   -0.0000000

LOEWDIN ATOMIC CHARGES
----------------------
   0 N :   -0.006219
   1 C :   -0.481029
   2 O :    0.102060
   3 C :   -0.217953
   4 O :    0.177230
   5 C :   -0.242639
   6 C :   -0.223617
   7 C :   -0.186255
   8 N :    0.066882
   9 H :    0.178026
  10 H :    0.180458
  11 H :    0.154919
  12 H :    0.150362
  13 H :    0.171479
  14 H :    0.176295

  Mayer bond orders larger than 0.1
B(  0-N ,  1-C ) :   1.1625 B(  0-N ,  9-H ) :   0.8591 B(  0-N , 10-H ) :   0.8472
B(  1-C ,  2-O ) :   1.9701 B(  1-C ,  3-C ) :   0.8946 B(  3-C ,  4-O ) :   0.8887
B(  3-C ,  5-C ) :   0.9568 B(  3-C , 11-H ) :   0.9134 B(  4-O ,  5-C ) :   0.8900
B(  5-C ,  6-C ) :   0.8928 B(  5-C , 12-H ) :   0.9142 B(  6-C ,  7-C ) :   0.9310
B(  6-C , 13-H ) :   0.9069 B(  6-C , 14-H ) :   0.9032 B(  7-C ,  8-N ) :   2.8580

MP2 TOTAL ENERGY:     -453.234850331 Eh
FINAL SINGLE POINT ENERGY      -453.234850330905

DIPOLE MOMENT
-------------
                                X             Y             Z
Electronic contribution:     -1.02699      -0.73920       0.44181
Nuclear contribution   :      1.56389       0.91285      -1.00667
                        -----------------------------------------
Total Dipole Moment    :      0.53691       0.17366      -0.56486
                        -----------------------------------------
Magnitude (a.u.)       :      0.79843
Magnitude (Debye)      :      2.02945

                             ****ORCA TERMINATED NORMALLY****
TOTAL RUN TIME: 0 days 0 hours 15 minutes 38 seconds 910 msec
