                         Program Version 3.0.3 - RELEASE   -
|  1> ! RI-MP2 RIJK def2-TZVP def2-TZVP/C def2-TZVP/JK TIGHTSCF
|  2> % maxcore 2000
|  3> % mp2 density relaxed end
|  4> *xyz 0 1
|  5>  O       -0.1957110895     1.4471580873     0.3540458028
|  6>  C       -0.0032340367     0.0513565201     0.0716030840
|  7>  C        0.9116049822    -0.6060513143     1.0731023778
|  8>  C        0.4241559121    -1.3575912461     2.0570708386
|  9>  C       -1.0529312913    -1.5688183894     2.1677854671
| 10>  C       -1.9143684907    -0.2958855310     2.4615820235
| 11>  C       -2.4451900780    -0.4391354880     1.0444826723
| 12>  C       -1.3864907139    -0.5879324464     0.0226132155
| 13>  N       -1.7495933713    -1.7747766111     0.8270968884
| 14>  H        0.6752521848     1.8542914770     0.4176916830
| 15>  H        0.4442598095    -0.0493741006    -0.9294647797
| 16>  H        1.9796684389    -0.4354074403     0.9615223080
| 17>  H        1.0745294483    -1.8157427657     2.7967459064
| 18>  H       -1.2931481817    -2.4087442700     2.8202055715
| 19>  H       -2.6807158595    -0.4881487490     3.2150057791
| 20>  H       -1.3845195178     0.6284891449     2.6968898252
| 21>  H       -3.4798387007    -0.2875503582     0.7524926849
| 22>  H       -1.7717962149    -0.6928702893    -0.9883113183
| 23> *
| 24>
| 25>                          ****END OF INPUT****

CARTESIAN COORDINATES (ANGSTROEM)
---------------------------------
  O     -0.195711    1.447158    0.354046
  C     -0.003234    0.051357    0.071603
  C      0.911605   -0.606051    1.073102
  C      0.424156   -1.357591    2.057071
  C     -1.052931   -1.568818    2.167785
  C     -1.914368   -0.295886    2.461582
  C     -2.445190   -0.439135    1.044483
  C     -1.386491   -0.587932    0.022613
  N     -1.749593   -1.774777    0.827097
  H      0.675252    1.854291    0.417692
  H      0.444260   -0.049374   -0.929465
  H      1.979668   -0.435407    0.961522
  H      1.074529   -1.815743    2.796746
  H     -1.293148   -2.408744    2.820206
  H     -2.680716   -0.488149    3.215006
  H     -1.384520    0.628489    2.696890
  H     -3.479839   -0.287550    0.752493
  H     -1.771796   -0.692870   -0.988311

 Total Charge           Charge          ....    0
 Multiplicity           Mult            ....    1
 Number of Electrons    NEL             ....   66
 Basis Dimension        Dim             ....  333

ORBITAL ENERGIES
----------------

  NO   OCC          E(Eh)            E(eV)
   0   2.0000     -20.560653      -559.4838
   1   2.0000     -15.556982      -423.3270
   2   2.0000     -11.293736      -307.3182
   3   2.0000     -11.262996      -306.4817
   4   2.0000     -11.257676      -306.3369
   5   2.0000     -11.256749      -306.3117
   6   2.0000     -11.236972      -305.7736
   7   2.0000     -11.232053      -305.6397
   8   2.0000     -11.227357      -305.5119
   9   2.0000      -1.364335       -37.1255
  10   2.0000      -1.287623       -35.0380
  11   2.0000      -1.081602       -29.4319
  12   2.0000      -1.027442       -27.9581
  13   2.0000      -0.952082       -25.9075
  14   2.0000      -0.891026       -24.2461
  15   2.0000      -0.842593       -22.9281
  16   2.0000      -0.750938       -20.4341
  17   2.0000      -0.720001       -19.5922
  18   2.0000      -0.693347       -18.8669
  19   2.0000      -0.666643       -18.1403
  20   2.0000      -0.642200       -17.4752
  21   2.0000      -0.637423       -17.3452
  22   2.0000      -0.588654       -16.0181
  23   2.0000      -0.581377       -15.8201
  24   2.0000      -0.551300       -15.0016
  25   2.0000      -0.529623       -14.4118
  26   2.0000      -0.519286       -14.1305
  27   2.0000      -0.480130       -13.0650
  28   2.0000      -0.453983       -12.3535
  29   2.0000      -0.441852       -12.0234
  30   2.0000      -0.417827       -11.3697
  31   2.0000      -0.376022       -10.2321
  32   2.0000      -0.353458        -9.6181
  33   0.0000       0.118355         3.2206
  34   0.0000       0.139525         3.7967
  35   0.0000       0.160285         4.3616
  36   0.0000       0.169786         4.6201
  37   0.0000       0.171880         4.6771

MULLIKEN ATOMIC CHARGES
-----------------------
   0 O :   -0.459701
   1 C :    0.177358
   2 C :   -0.237007
   3 C :   -0.249822
   4 C :    0.125691
   5 C :   -0.232862
   6 C :   -0.053655
   7 C :   -0.091345
   8 N :   -0.248169
   9 H :    0.308555
  10 H :    0.092776
  11 H :    0.130065
  12 H :    0.126136
  13 H :    0.123278
  14 H :    0.123275
  15 H :    0.120303
  16 H :    0.124759
  17 H :    0.120367
Sum of atomic charges:   -0.0000000

LOEWDIN ATOMIC CHARGES
----------------------
   0 O :   -0.019204
   1 C :   -0.308765
   2 C :   -0.151884
   3 C :   -0.138015
   4 C :   -0.215794
   5 C :   -0.198321
   6 C :   -0.195042
   7 C :   -0.216469
   8 N :    0.140100
   9 H :    0.171585
  10 H :    0.143433
  11 H :    0.141417
  12 H :    0.144159
  13 H :    0.145196
  14 H :    0.136767
  15 H :    0.134226
  16 H :    0.132635
  17 H :    0.153973

  Mayer bond orders larger than 0.1
B(  0-O ,  1-C ) :   0.9957 B(  0-O ,  9-H ) :   0.8450 B(  1-C ,  2-C ) :   0.9536
B(  1-C ,  7-C ) :   0.8743 B(  1-C , 10-H ) :   0.9386 B(  2-C ,  3-C ) :   1.7894
B(  2-C , 11-H ) :   0.9268 B(  3-C ,  4-C ) :   0.9720 B(  3-C , 12-H ) :   0.9251
B(  4-C ,  5-C ) :   0.9327 B(  4-C ,  8-N ) :   0.9286 B(  4-C , 13-H ) :   0.9150
B(  5-C ,  6-C ) :   0.9707 B(  5-C , 14-H ) :   0.9262 B(  5-C , 15-H ) :   0.8940
B(  6-C ,  7-C ) :   0.9599 B(  6-C ,  8-N ) :   0.8534 B(  6-C , 16-H ) :   0.9044
B(  7-C ,  8-N ) :   0.9438 B(  7-C , 17-H ) :   0.9181

MP2 TOTAL ENERGY:     -401.212109865 Eh
FINAL SINGLE POINT ENERGY      -401.212109865277

DIPOLE MOMENT
-------------
                                X             Y             Z
Electronic contribution:     -0.13209      -0.53310      -1.39539
Nuclear contribution   :      0.80672       0.88381       1.68247
                        -----------------------------------------
Total Dipole Moment    :      0.67463       0.35071       0.28708
                        -----------------------------------------
Magnitude (a.u.)       :      0.81273
Magnitude (Debye)      :      2.06581

                             ****ORCA TERMINATED NORMALLY****
TOTAL RUN TIME: 0 days 0 hours 24 minutes 25 seconds 560 msec
