                         Program Version 3.0.3 - RELEASE   -
|  1> ! RI-MP2 RIJK def2-TZVP def2-TZVP/C def2-TZVP/JK TIGHTSCF
|  2> % maxcore 2000
|  3> % mp2 density relaxed end
|  4> *xyz 0 1
|  5>  C       -0.0141552359     1.4930223575    -0.0301833633
|  6>  C        1.5192681896     1.8307288424     0.0749890555
|  7>  C        1.8406868394     1.6770549731     1.5357351325
|  8>  C        1.4884686180     0.4933376616     2.0530630882
|  9>  C        0.9879577113    -0.5005478621     1.0569988122
| 10>  C        1.9935007098    -0.7115746024    -0.0850443453
| 11>  C        2.0865129892     0.6456740768    -0.7625460810
| 12>  C        0.9554410063    -0.3076039892    -1.0791446187
| 13>  N       -0.0256212005     0.0267559664    -0.0138057557
| 14>  H       -0.5991957034     1.9223146987     0.7858898751
| 15>  H       -0.4264314097     1.8203612043    -0.9910968580
| 16>  H        1.7969428924     2.8034793934    -0.3335977133
| 17>  H        2.2473937998     2.4962499165     2.1189144677
| 18>  H        1.5817669665     0.2327754224     3.1014065334
| 19>  H        0.5903532022    -1.4178808620     1.4908862641
| 20>  H        2.7708567553    -1.4641297993    -0.1320713620
| 21>  H        2.8966235363     0.8056362338    -1.4631240085
| 22>  H        0.6545637634    -0.6819398519    -2.0488916729
| 23> *
| 24>
| 25>                          ****END OF INPUT****

CARTESIAN COORDINATES (ANGSTROEM)
---------------------------------
  C     -0.014155    1.493022   -0.030183
  C      1.519268    1.830729    0.074989
  C      1.840687    1.677055    1.535735
  C      1.488469    0.493338    2.053063
  C      0.987958   -0.500548    1.056999
  C      1.993501   -0.711575   -0.085044
  C      2.086513    0.645674   -0.762546
  C      0.955441   -0.307604   -1.079145
  N     -0.025621    0.026756   -0.013806
  H     -0.599196    1.922315    0.785890
  H     -0.426431    1.820361   -0.991097
  H      1.796943    2.803479   -0.333598
  H      2.247394    2.496250    2.118914
  H      1.581767    0.232775    3.101407
  H      0.590353   -1.417881    1.490886
  H      2.770857   -1.464130   -0.132071
  H      2.896624    0.805636   -1.463124
  H      0.654564   -0.681940   -2.048892

 Total Charge           Charge          ....    0
 Multiplicity           Mult            ....    1
 Number of Electrons    NEL             ....   64
 Basis Dimension        Dim             ....  333

ORBITAL ENERGIES
----------------

  NO   OCC          E(Eh)            E(eV)
   0   2.0000     -15.551876      -423.1881
   1   2.0000     -11.259792      -306.3945
   2   2.0000     -11.251152      -306.1594
   3   2.0000     -11.243638      -305.9549
   4   2.0000     -11.234464      -305.7053
   5   2.0000     -11.233896      -305.6899
   6   2.0000     -11.232783      -305.6596
   7   2.0000     -11.226281      -305.4826
   8   2.0000     -11.218694      -305.2762
   9   2.0000      -1.287905       -35.0457
  10   2.0000      -1.081900       -29.4400
  11   2.0000      -1.070744       -29.1364
  12   2.0000      -1.021884       -27.8069
  13   2.0000      -0.879967       -23.9451
  14   2.0000      -0.834079       -22.6964
  15   2.0000      -0.802697       -21.8425
  16   2.0000      -0.757495       -20.6125
  17   2.0000      -0.710374       -19.3303
  18   2.0000      -0.674512       -18.3544
  19   2.0000      -0.658021       -17.9057
  20   2.0000      -0.621518       -16.9124
  21   2.0000      -0.591916       -16.1068
  22   2.0000      -0.568017       -15.4565
  23   2.0000      -0.536883       -14.6093
  24   2.0000      -0.531136       -14.4529
  25   2.0000      -0.506552       -13.7840
  26   2.0000      -0.473766       -12.8918
  27   2.0000      -0.460058       -12.5188
  28   2.0000      -0.415391       -11.3034
  29   2.0000      -0.386230       -10.5099
  30   2.0000      -0.363797        -9.8994
  31   2.0000      -0.347342        -9.4517
  32   0.0000       0.139249         3.7892
  33   0.0000       0.148341         4.0366
  34   0.0000       0.170689         4.6447
  35   0.0000       0.173262         4.7147
  36   0.0000       0.180909         4.9228

MULLIKEN ATOMIC CHARGES
-----------------------
   0 C :   -0.154525
   1 C :    0.081279
   2 C :   -0.241142
   3 C :   -0.239695
   4 C :    0.057086
   5 C :   -0.192098
   6 C :   -0.225806
   7 C :   -0.050072
   8 N :   -0.172894
   9 H :    0.120466
  10 H :    0.118785
  11 H :    0.124469
  12 H :    0.122100
  13 H :    0.120707
  14 H :    0.131919
  15 H :    0.131800
  16 H :    0.132939
  17 H :    0.134682
Sum of atomic charges:   -0.0000000

LOEWDIN ATOMIC CHARGES
----------------------
   0 C :   -0.241908
   1 C :   -0.205187
   2 C :   -0.133549
   3 C :   -0.151523
   4 C :   -0.174814
   5 C :   -0.141999
   6 C :   -0.147911
   7 C :   -0.195736
   8 N :    0.137183
   9 H :    0.131704
  10 H :    0.136338
  11 H :    0.147925
  12 H :    0.137656
  13 H :    0.138933
  14 H :    0.146201
  15 H :    0.137374
  16 H :    0.147364
  17 H :    0.131949

  Mayer bond orders larger than 0.1
B(  0-C ,  1-C ) :   0.8911 B(  0-C ,  8-N ) :   0.9501 B(  0-C ,  9-H ) :   0.9234
B(  0-C , 10-H ) :   0.9251 B(  1-C ,  2-C ) :   0.9779 B(  1-C ,  6-C ) :   0.8739
B(  1-C , 11-H ) :   0.9125 B(  2-C ,  3-C ) :   1.7254 B(  2-C , 12-H ) :   0.9379
B(  3-C ,  4-C ) :   1.0191 B(  3-C , 13-H ) :   0.9384 B(  4-C ,  5-C ) :   0.9356
B(  4-C ,  8-N ) :   0.9313 B(  4-C , 14-H ) :   0.9026 B(  5-C ,  6-C ) :   0.8838
B(  5-C ,  7-C ) :   0.8663 B(  5-C , 15-H ) :   0.9227 B(  6-C ,  7-C ) :   0.8609
B(  6-C , 16-H ) :   0.9210 B(  7-C ,  8-N ) :   0.9607 B(  7-C , 17-H ) :   0.9208

MP2 TOTAL ENERGY:     -364.118227705 Eh
FINAL SINGLE POINT ENERGY      -364.118227704909

DIPOLE MOMENT
-------------
                                X             Y             Z
Electronic contribution:     -0.24346      -1.46903       0.03773
Nuclear contribution   :      0.75725       1.68735      -0.14875
                        -----------------------------------------
Total Dipole Moment    :      0.51379       0.21831      -0.11103
                        -----------------------------------------
Magnitude (a.u.)       :      0.56918
Magnitude (Debye)      :      1.44674

                             ****ORCA TERMINATED NORMALLY****
TOTAL RUN TIME: 0 days 0 hours 20 minutes 38 seconds 752 msec
