                         Program Version 3.0.3 - RELEASE   -
|  1> ! RI-MP2 RIJK def2-TZVP def2-TZVP/C def2-TZVP/JK TIGHTSCF
|  2> % maxcore 2000
|  3> % mp2 density relaxed end
|  4> *xyz 0 1
|  5>  C       -0.0261417035     1.4752385828    -0.1022783813
|  6>  C       -0.1103583700    -0.0357891582     0.1386831096
|  7>  O        0.1378197427    -0.6703981093    -1.1152302053
|  8>  C        0.8883371758    -1.7924197390    -1.2463983906
|  9>  N        0.8700028864    -2.4004579871    -2.3540522846
| 10>  C        1.7632445115    -2.2369575653    -0.0795320191
| 11>  O        2.4942999067    -3.1973888375    -0.2144311210
| 12>  C        1.6569122796    -1.4725166884     1.1630096215
| 13>  C        0.7740888845    -0.4743329975     1.2587305258
| 14>  H        0.9969799957     1.7643171341    -0.3569326303
| 15>  H       -0.6838494863     1.7472915032    -0.9304028631
| 16>  H       -0.3384110428     2.0237859691     0.7909653258
| 17>  H       -1.1485171546    -0.2791208079     0.4208753291
| 18>  H        1.5229557435    -3.1845344158    -2.2832322115
| 19>  H        2.2899940558    -1.7795132674     1.9885844283
| 20>  H        0.6476594050     0.0739661442     2.1893244668
| 21> *
| 22>
| 23>                          ****END OF INPUT****

CARTESIAN COORDINATES (ANGSTROEM)
---------------------------------
  C     -0.026142    1.475239   -0.102278
  C     -0.110358   -0.035789    0.138683
  O      0.137820   -0.670398   -1.115230
  C      0.888337   -1.792420   -1.246398
  N      0.870003   -2.400458   -2.354052
  C      1.763245   -2.236958   -0.079532
  O      2.494300   -3.197389   -0.214431
  C      1.656912   -1.472517    1.163010
  C      0.774089   -0.474333    1.258731
  H      0.996980    1.764317   -0.356933
  H     -0.683849    1.747292   -0.930403
  H     -0.338411    2.023786    0.790965
  H     -1.148517   -0.279121    0.420875
  H      1.522956   -3.184534   -2.283232
  H      2.289994   -1.779513    1.988584
  H      0.647659    0.073966    2.189324

 Total Charge           Charge          ....    0
 Multiplicity           Mult            ....    1
 Number of Electrons    NEL             ....   66
 Basis Dimension        Dim             ....  321

ORBITAL ENERGIES
----------------

  NO   OCC          E(Eh)            E(eV)
   0   2.0000     -20.604295      -560.6714
   1   2.0000     -20.570268      -559.7454
   2   2.0000     -15.549049      -423.1111
   3   2.0000     -11.359188      -309.0992
   4   2.0000     -11.348247      -308.8015
   5   2.0000     -11.330461      -308.3175
   6   2.0000     -11.294445      -307.3375
   7   2.0000     -11.266982      -306.5902
   8   2.0000     -11.246060      -306.0209
   9   2.0000      -1.443865       -39.2896
  10   2.0000      -1.409375       -38.3510
  11   2.0000      -1.211457       -32.9654
  12   2.0000      -1.131765       -30.7969
  13   2.0000      -1.056326       -28.7441
  14   2.0000      -0.935270       -25.4500
  15   2.0000      -0.877195       -23.8697
  16   2.0000      -0.858550       -23.3623
  17   2.0000      -0.753213       -20.4960
  18   2.0000      -0.709137       -19.2966
  19   2.0000      -0.698918       -19.0185
  20   2.0000      -0.668940       -18.2028
  21   2.0000      -0.651370       -17.7247
  22   2.0000      -0.619987       -16.8707
  23   2.0000      -0.610780       -16.6202
  24   2.0000      -0.578933       -15.7536
  25   2.0000      -0.571290       -15.5456
  26   2.0000      -0.558435       -15.1958
  27   2.0000      -0.536605       -14.6018
  28   2.0000      -0.519498       -14.1363
  29   2.0000      -0.474174       -12.9029
  30   2.0000      -0.427366       -11.6292
  31   2.0000      -0.412206       -11.2167
  32   2.0000      -0.398723       -10.8498
  33   0.0000       0.049991         1.3603
  34   0.0000       0.121906         3.3172
  35   0.0000       0.134838         3.6691
  36   0.0000       0.158419         4.3108
  37   0.0000       0.165462         4.5025

MULLIKEN ATOMIC CHARGES
-----------------------
   0 C :   -0.377402
   1 C :    0.112840
   2 O :   -0.218446
   3 C :    0.082352
   4 N :   -0.301566
   5 C :    0.239898
   6 O :   -0.292815
   7 C :   -0.202675
   8 C :   -0.129117
   9 H :    0.138316
  10 H :    0.157002
  11 H :    0.129421
  12 H :    0.115765
  13 H :    0.244850
  14 H :    0.151345
  15 H :    0.150233
Sum of atomic charges:    0.0000000

LOEWDIN ATOMIC CHARGES
----------------------
   0 C :   -0.274410
   1 C :   -0.307882
   2 O :    0.294620
   3 C :   -0.384483
   4 N :   -0.015584
   5 C :   -0.304169
   6 O :    0.165028
   7 C :   -0.124212
   8 C :   -0.095773
   9 H :    0.130306
  10 H :    0.133824
  11 H :    0.128368
  12 H :    0.159628
  13 H :    0.179595
  14 H :    0.157255
  15 H :    0.157888

  Mayer bond orders larger than 0.1
B(  0-C ,  1-C ) :   0.9155 B(  0-C ,  9-H ) :   0.9273 B(  0-C , 10-H ) :   0.9315
B(  0-C , 11-H ) :   0.9262 B(  1-C ,  2-O ) :   0.9271 B(  1-C ,  8-C ) :   0.9385
B(  1-C , 12-H ) :   0.9111 B(  2-O ,  3-C ) :   1.0921 B(  3-C ,  4-N ) :   1.9820
B(  3-C ,  5-C ) :   0.9176 B(  4-N , 13-H ) :   0.8411 B(  5-C ,  6-O ) :   1.8437
B(  5-C ,  7-C ) :   1.0095 B(  7-C ,  8-C ) :   1.6783 B(  7-C , 14-H ) :   0.9161
B(  8-C , 15-H ) :   0.9025

MP2 TOTAL ENERGY:     -437.182302394 Eh
FINAL SINGLE POINT ENERGY      -437.182302394185

DIPOLE MOMENT
-------------
                                X             Y             Z
Electronic contribution:      2.71189      -6.99346      -2.09213
Nuclear contribution   :     -3.04712       8.16814       3.72209
                        -----------------------------------------
Total Dipole Moment    :     -0.33522       1.17468       1.62996
                        -----------------------------------------
Magnitude (a.u.)       :      2.03692
Magnitude (Debye)      :      5.17743

                             ****ORCA TERMINATED NORMALLY****
TOTAL RUN TIME: 0 days 0 hours 15 minutes 47 seconds 719 msec
