                         Program Version 3.0.3 - RELEASE   -
|  1> ! RI-MP2 RIJK def2-TZVP def2-TZVP/C def2-TZVP/JK TIGHTSCF
|  2> % maxcore 2000
|  3> % mp2 density relaxed end
|  4> *xyz 0 1
|  5>  C        0.5549959139     1.2473549475    -0.2054957655
|  6>  C        0.0290494731    -0.1586247746    -0.0411770934
|  7>  C       -0.8468491096    -0.5203690575     1.1492477556
|  8>  C        0.5327211055    -1.1055103552     1.0105020743
|  9>  O        0.5889361657    -2.4135352149     0.4897886595
| 10>  C        0.5900198444    -2.3302911933    -0.9219001450
| 11>  C       -0.1728533717    -1.0252835627    -1.2921112924
| 12>  C        2.0038537492    -2.2743956806    -1.4897761615
| 13>  O        2.9975189420    -2.0911517193    -0.8400792585
| 14>  H        1.4888319848     1.2569589825    -0.7791444375
| 15>  H       -0.1676659703     1.8858194975    -0.7268582499
| 16>  H        0.7575784791     1.7069855366     0.7668083681
| 17>  H       -1.0030406128     0.2461586952     1.9020489716
| 18>  H       -1.6855704507    -1.1917532972     0.9959435946
| 19>  H        1.3362236902    -0.8629893128     1.6975216608
| 20>  H        0.0996295980    -3.2259308559    -1.3237978825
| 21>  H       -1.2271968472    -1.2341076557    -1.4947595363
| 22>  H        0.2431983578    -0.5442204216    -2.1833569656
| 23>  H        2.0425545588    -2.3922338779    -2.6001617964
| 24> *
| 25>
| 26>                          ****END OF INPUT****

CARTESIAN COORDINATES (ANGSTROEM)
---------------------------------
  C      0.554996    1.247355   -0.205496
  C      0.029049   -0.158625   -0.041177
  C     -0.846849   -0.520369    1.149248
  C      0.532721   -1.105510    1.010502
  O      0.588936   -2.413535    0.489789
  C      0.590020   -2.330291   -0.921900
  C     -0.172853   -1.025284   -1.292111
  C      2.003854   -2.274396   -1.489776
  O      2.997519   -2.091152   -0.840079
  H      1.488832    1.256959   -0.779144
  H     -0.167666    1.885819   -0.726858
  H      0.757578    1.706986    0.766808
  H     -1.003041    0.246159    1.902049
  H     -1.685570   -1.191753    0.995944
  H      1.336224   -0.862989    1.697522
  H      0.099630   -3.225931   -1.323798
  H     -1.227197   -1.234108   -1.494760
  H      0.243198   -0.544220   -2.183357
  H      2.042555   -2.392234   -2.600162

 Total Charge           Charge          ....    0
 Multiplicity           Mult            ....    1
 Number of Electrons    NEL             ....   68
 Basis Dimension        Dim             ....  339

ORBITAL ENERGIES
----------------

  NO   OCC          E(Eh)            E(eV)
   0   2.0000     -20.564436      -559.5867
   1   2.0000     -20.560688      -559.4848
   2   2.0000     -11.332281      -308.3670
   3   2.0000     -11.300856      -307.5119
   4   2.0000     -11.280221      -306.9504
   5   2.0000     -11.248667      -306.0918
   6   2.0000     -11.247263      -306.0536
   7   2.0000     -11.229248      -305.5634
   8   2.0000     -11.227632      -305.5194
   9   2.0000      -1.411063       -38.3970
  10   2.0000      -1.385746       -37.7081
  11   2.0000      -1.150591       -31.3092
  12   2.0000      -1.055376       -28.7182
  13   2.0000      -0.968016       -26.3411
  14   2.0000      -0.912411       -24.8280
  15   2.0000      -0.836320       -22.7574
  16   2.0000      -0.783496       -21.3200
  17   2.0000      -0.754483       -20.5305
  18   2.0000      -0.701279       -19.0828
  19   2.0000      -0.684230       -18.6188
  20   2.0000      -0.649798       -17.6819
  21   2.0000      -0.629301       -17.1242
  22   2.0000      -0.602362       -16.3911
  23   2.0000      -0.593026       -16.1371
  24   2.0000      -0.581536       -15.8244
  25   2.0000      -0.564972       -15.3737
  26   2.0000      -0.537816       -14.6347
  27   2.0000      -0.531697       -14.4682
  28   2.0000      -0.510335       -13.8869
  29   2.0000      -0.498996       -13.5784
  30   2.0000      -0.472850       -12.8669
  31   2.0000      -0.430585       -11.7168
  32   2.0000      -0.403606       -10.9827
  33   2.0000      -0.380822       -10.3627
  34   0.0000       0.120418         3.2767
  35   0.0000       0.144168         3.9230
  36   0.0000       0.151502         4.1226
  37   0.0000       0.169843         4.6217
  38   0.0000       0.177227         4.8226

MULLIKEN ATOMIC CHARGES
-----------------------
   0 C :   -0.422470
   1 C :    0.075107
   2 C :   -0.326090
   3 C :    0.067215
   4 O :   -0.313169
   5 C :    0.155147
   6 C :   -0.280734
   7 C :    0.038756
   8 O :   -0.252095
   9 H :    0.138353
  10 H :    0.137339
  11 H :    0.130918
  12 H :    0.127819
  13 H :    0.130576
  14 H :    0.131850
  15 H :    0.116196
  16 H :    0.137750
  17 H :    0.135069
  18 H :    0.072461
Sum of atomic charges:   -0.0000000

LOEWDIN ATOMIC CHARGES
----------------------
   0 C :   -0.267618
   1 C :   -0.249402
   2 C :   -0.185683
   3 C :   -0.251372
   4 O :    0.220007
   5 C :   -0.305337
   6 C :   -0.180118
   7 C :   -0.282421
   8 O :    0.149267
   9 H :    0.129430
  10 H :    0.127724
  11 H :    0.130676
  12 H :    0.136776
  13 H :    0.137991
  14 H :    0.140140
  15 H :    0.150618
  16 H :    0.141640
  17 H :    0.146643
  18 H :    0.111041

  Mayer bond orders larger than 0.1
B(  0-C ,  1-C ) :   0.8996 B(  0-C ,  9-H ) :   0.9354 B(  0-C , 10-H ) :   0.9395
B(  0-C , 11-H ) :   0.9337 B(  1-C ,  2-C ) :   0.9025 B(  1-C ,  3-C ) :   0.8603
B(  1-C ,  6-C ) :   0.8888 B(  2-C ,  3-C ) :   0.8779 B(  2-C , 12-H ) :   0.9232
B(  2-C , 13-H ) :   0.9057 B(  3-C ,  4-O ) :   0.9366 B(  3-C , 14-H ) :   0.9292
B(  4-O ,  5-C ) :   0.9656 B(  5-C ,  6-C ) :   0.9198 B(  5-C ,  7-C ) :   0.8267
B(  5-C , 15-H ) :   0.9067 B(  6-C , 16-H ) :   0.9121 B(  6-C , 17-H ) :   0.9262
B(  7-C ,  8-O ) :   2.0296 B(  7-C , 18-H ) :   0.9314

MP2 TOTAL ENERGY:     -422.311228307 Eh
FINAL SINGLE POINT ENERGY      -422.311228306851

DIPOLE MOMENT
-------------
                                X             Y             Z
Electronic contribution:      4.11183      -6.53899       0.55197
Nuclear contribution   :     -5.01243       7.07737      -1.21505
                        -----------------------------------------
Total Dipole Moment    :     -0.90060       0.53838      -0.66308
                        -----------------------------------------
Magnitude (a.u.)       :      1.24121
Magnitude (Debye)      :      3.15491

                             ****ORCA TERMINATED NORMALLY****
TOTAL RUN TIME: 0 days 0 hours 18 minutes 5 seconds 15 msec
