                         Program Version 3.0.3 - RELEASE   -
|  1> ! RI-MP2 RIJK def2-TZVP def2-TZVP/C def2-TZVP/JK TIGHTSCF
|  2> % maxcore 2000
|  3> % mp2 density relaxed end
|  4> *xyz 0 1
|  5>  N       -0.0112301157     1.3569856118     0.2674374517
|  6>  C       -0.0682479826     0.0012113979     0.0537677036
|  7>  N       -1.2224946697    -0.5760222305     0.1847670969
|  8>  C       -1.4408017367    -1.9169925808    -0.0844883343
|  9>  N       -2.4527202009    -2.4005391747    -0.6923504525
| 10>  C       -0.4937660704    -2.8927225559     0.5395455376
| 11>  N        0.7785051227    -2.9010206763     0.4204930609
| 12>  C        1.4824504641    -1.9247715383    -0.2539733267
| 13>  C        1.1784083282    -0.6151388685    -0.3859741229
| 14>  H        0.8675650038     1.7651178940     0.5394430291
| 15>  H       -0.8365045965     1.7627225091     0.6819691251
| 16>  H       -3.0305378620    -1.6357887360    -1.0527349192
| 17>  H       -0.9508967098    -3.6792321163     1.1419387756
| 18>  H        2.4463655677    -2.2691548152    -0.6213234255
| 19>  H        1.9350344378     0.0468621398    -0.7977011494
| 20> *
| 21>
| 22>                          ****END OF INPUT****

CARTESIAN COORDINATES (ANGSTROEM)
---------------------------------
  N     -0.011230    1.356986    0.267437
  C     -0.068248    0.001211    0.053768
  N     -1.222495   -0.576022    0.184767
  C     -1.440802   -1.916993   -0.084488
  N     -2.452720   -2.400539   -0.692350
  C     -0.493766   -2.892723    0.539546
  N      0.778505   -2.901021    0.420493
  C      1.482450   -1.924772   -0.253973
  C      1.178408   -0.615139   -0.385974
  H      0.867565    1.765118    0.539443
  H     -0.836505    1.762723    0.681969
  H     -3.030538   -1.635789   -1.052735
  H     -0.950897   -3.679232    1.141939
  H      2.446366   -2.269155   -0.621323
  H      1.935034    0.046862   -0.797701

 Total Charge           Charge          ....    0
 Multiplicity           Mult            ....    1
 Number of Electrons    NEL             ....   64
 Basis Dimension        Dim             ....  315

ORBITAL ENERGIES
----------------

  NO   OCC          E(Eh)            E(eV)
   0   2.0000     -15.591485      -424.2659
   1   2.0000     -15.583340      -424.0442
   2   2.0000     -15.552765      -423.2123
   3   2.0000     -15.538572      -422.8260
   4   2.0000     -11.352573      -308.9192
   5   2.0000     -11.316455      -307.9364
   6   2.0000     -11.310122      -307.7641
   7   2.0000     -11.304089      -307.5999
   8   2.0000     -11.254732      -306.2568
   9   2.0000      -1.311654       -35.6919
  10   2.0000      -1.264866       -34.4188
  11   2.0000      -1.226165       -33.3656
  12   2.0000      -1.149865       -31.2894
  13   2.0000      -1.067179       -29.0394
  14   2.0000      -0.940730       -25.5986
  15   2.0000      -0.897946       -24.4343
  16   2.0000      -0.794957       -21.6319
  17   2.0000      -0.778127       -21.1739
  18   2.0000      -0.720840       -19.6150
  19   2.0000      -0.693911       -18.8823
  20   2.0000      -0.656863       -17.8742
  21   2.0000      -0.646794       -17.6002
  22   2.0000      -0.625550       -17.0221
  23   2.0000      -0.602729       -16.4011
  24   2.0000      -0.569892       -15.5075
  25   2.0000      -0.508374       -13.8335
  26   2.0000      -0.486918       -13.2497
  27   2.0000      -0.462580       -12.5874
  28   2.0000      -0.425077       -11.5669
  29   2.0000      -0.409776       -11.1506
  30   2.0000      -0.381942       -10.3932
  31   2.0000      -0.347648        -9.4600
  32   0.0000       0.065099         1.7714
  33   0.0000       0.104713         2.8494
  34   0.0000       0.127027         3.4566
  35   0.0000       0.159627         4.3437
  36   0.0000       0.173168         4.7121

MULLIKEN ATOMIC CHARGES
-----------------------
   0 N :   -0.487685
   1 C :    0.316008
   2 N :   -0.282469
   3 C :    0.082859
   4 N :   -0.348218
   5 C :    0.028354
   6 N :   -0.210435
   7 C :   -0.021802
   8 C :   -0.242121
   9 H :    0.260214
  10 H :    0.262609
  11 H :    0.212850
  12 H :    0.147168
  13 H :    0.139861
  14 H :    0.142807
Sum of atomic charges:   -0.0000000

LOEWDIN ATOMIC CHARGES
----------------------
   0 N :   -0.020226
   1 C :   -0.336520
   2 N :    0.146443
   3 C :   -0.394376
   4 N :   -0.031509
   5 C :   -0.140209
   6 N :    0.151272
   7 C :   -0.198774
   8 C :   -0.140382
   9 H :    0.171618
  10 H :    0.175722
  11 H :    0.163823
  12 H :    0.148295
  13 H :    0.148282
  14 H :    0.156540

  Mayer bond orders larger than 0.1
B(  0-N ,  1-C ) :   1.1010 B(  0-N ,  9-H ) :   0.8706 B(  0-N , 10-H ) :   0.8599
B(  1-C ,  2-N ) :   1.6460 B(  1-C ,  8-C ) :   1.0058 B(  2-N ,  3-C ) :   1.0901
B(  3-C ,  4-N ) :   1.9695 B(  3-C ,  5-C ) :   0.9139 B(  4-N , 11-H ) :   0.8558
B(  5-C ,  6-N ) :   1.7270 B(  5-C , 12-H ) :   0.9209 B(  6-N ,  7-C ) :   1.1166
B(  7-C ,  8-C ) :   1.6206 B(  7-C , 13-H ) :   0.9416 B(  8-C , 14-H ) :   0.9096

MP2 TOTAL ENERGY:     -412.287539256 Eh
FINAL SINGLE POINT ENERGY      -412.287539256347

DIPOLE MOMENT
-------------
                                X             Y             Z
Electronic contribution:     -0.89108      -1.88598       0.41406
Nuclear contribution   :      1.88722       3.41431      -0.13967
                        -----------------------------------------
Total Dipole Moment    :      0.99615       1.52833       0.27439
                        -----------------------------------------
Magnitude (a.u.)       :      1.84483
Magnitude (Debye)      :      4.68918

                             ****ORCA TERMINATED NORMALLY****
TOTAL RUN TIME: 0 days 0 hours 15 minutes 33 seconds 789 msec
