                         Program Version 3.0.3 - RELEASE   -
|  1> ! RI-MP2 RIJK def2-TZVP def2-TZVP/C def2-TZVP/JK TIGHTSCF
|  2> % maxcore 2000
|  3> % mp2 density relaxed end
|  4> *xyz 0 1
|  5>  C       -0.0267344767     1.5552789525    -0.1321921178
|  6>  C        1.4229746298     1.9769718544     0.0666413984
|  7>  C        2.1126151212     1.3962745582     1.2758673825
|  8>  C        1.2671433717     0.4389096630     2.1024216817
|  9>  N        0.6871578757    -0.5451586882     1.1710396032
| 10>  C        0.0014381124     0.0403939178     0.0044008939
| 11>  C        1.4088711127    -0.4487358419    -0.1164475125
| 12>  C        2.3214066625     0.7602299087    -0.0847927687
| 13>  H       -0.7066966168     2.0258554511     0.5892503535
| 14>  H       -0.3798002828     1.8281450066    -1.1336156465
| 15>  H        1.7444976139     2.9493774186    -0.2900532799
| 16>  H        2.9020755731     1.9660621753     1.7546340141
| 17>  H        1.8844004552    -0.0994399226     2.8303241238
| 18>  H        0.4641662713     0.9394395965     2.6564503882
| 19>  H       -0.8554503591    -0.5316764397    -0.3421299543
| 20>  H        1.7047251365    -1.3692910491    -0.6064203956
| 21>  H        3.2656380996     0.7755532489    -0.6117944341
| 22> *
| 23>
| 24>                          ****END OF INPUT****

CARTESIAN COORDINATES (ANGSTROEM)
---------------------------------
  C     -0.026734    1.555279   -0.132192
  C      1.422975    1.976972    0.066641
  C      2.112615    1.396275    1.275867
  C      1.267143    0.438910    2.102422
  N      0.687158   -0.545159    1.171040
  C      0.001438    0.040394    0.004401
  C      1.408871   -0.448736   -0.116448
  C      2.321407    0.760230   -0.084793
  H     -0.706697    2.025855    0.589250
  H     -0.379800    1.828145   -1.133616
  H      1.744498    2.949377   -0.290053
  H      2.902076    1.966062    1.754634
  H      1.884400   -0.099440    2.830324
  H      0.464166    0.939440    2.656450
  H     -0.855450   -0.531676   -0.342130
  H      1.704725   -1.369291   -0.606420
  H      3.265638    0.775553   -0.611794

 Total Charge           Charge          ....    0
 Multiplicity           Mult            ....    1
 Number of Electrons    NEL             ....   58
 Basis Dimension        Dim             ....  302

ORBITAL ENERGIES
----------------

  NO   OCC          E(Eh)            E(eV)
   0   2.0000     -15.550003      -423.1371
   1   2.0000     -11.251467      -306.1680
   2   2.0000     -11.250489      -306.1414
   3   2.0000     -11.246290      -306.0271
   4   2.0000     -11.232173      -305.6430
   5   2.0000     -11.230244      -305.5905
   6   2.0000     -11.229459      -305.5691
   7   2.0000     -11.227462      -305.5148
   8   2.0000      -1.291622       -35.1468
   9   2.0000      -1.133540       -30.8452
  10   2.0000      -1.027789       -27.9676
  11   2.0000      -0.968937       -26.3661
  12   2.0000      -0.838540       -22.8178
  13   2.0000      -0.819228       -22.2923
  14   2.0000      -0.757118       -20.6022
  15   2.0000      -0.726797       -19.7771
  16   2.0000      -0.715951       -19.4820
  17   2.0000      -0.622653       -16.9433
  18   2.0000      -0.620758       -16.8917
  19   2.0000      -0.568831       -15.4787
  20   2.0000      -0.568393       -15.4668
  21   2.0000      -0.549306       -14.9474
  22   2.0000      -0.528983       -14.3944
  23   2.0000      -0.501456       -13.6453
  24   2.0000      -0.442660       -12.0454
  25   2.0000      -0.438393       -11.9293
  26   2.0000      -0.409363       -11.1393
  27   2.0000      -0.395566       -10.7639
  28   2.0000      -0.354431        -9.6446
  29   0.0000       0.142158         3.8683
  30   0.0000       0.167383         4.5547
  31   0.0000       0.173969         4.7339
  32   0.0000       0.181528         4.9396
  33   0.0000       0.193218         5.2577

MULLIKEN ATOMIC CHARGES
-----------------------
   0 C :   -0.194796
   1 C :   -0.137336
   2 C :   -0.119768
   3 C :   -0.133763
   4 N :   -0.210328
   5 C :   -0.071441
   6 C :   -0.097381
   7 C :   -0.145738
   8 H :    0.115422
   9 H :    0.120463
  10 H :    0.127105
  11 H :    0.126438
  12 H :    0.122621
  13 H :    0.112859
  14 H :    0.120486
  15 H :    0.129948
  16 H :    0.135211
Sum of atomic charges:    0.0000000

LOEWDIN ATOMIC CHARGES
----------------------
   0 C :   -0.216428
   1 C :   -0.174388
   2 C :   -0.183850
   3 C :   -0.250453
   4 N :    0.131312
   5 C :   -0.221021
   6 C :   -0.195426
   7 C :   -0.158106
   8 H :    0.142392
   9 H :    0.146500
  10 H :    0.144262
  11 H :    0.144790
  12 H :    0.136317
  13 H :    0.135107
  14 H :    0.137456
  15 H :    0.138239
  16 H :    0.143296

  Mayer bond orders larger than 0.1
B(  0-C ,  1-C ) :   0.9646 B(  0-C ,  5-C ) :   0.9496 B(  0-C ,  8-H ) :   0.9159
B(  0-C ,  9-H ) :   0.9123 B(  1-C ,  2-C ) :   0.8602 B(  1-C ,  7-C ) :   0.8651
B(  1-C , 10-H ) :   0.9281 B(  2-C ,  3-C ) :   0.9722 B(  2-C ,  7-C ) :   0.8480
B(  2-C , 11-H ) :   0.9251 B(  3-C ,  4-N ) :   0.9447 B(  3-C , 12-H ) :   0.9264
B(  3-C , 13-H ) :   0.9294 B(  4-N ,  5-C ) :   0.8989 B(  4-N ,  6-C ) :   0.9074
B(  5-C ,  6-C ) :   0.8933 B(  5-C , 14-H ) :   0.9302 B(  6-C ,  7-C ) :   0.9533
B(  6-C , 15-H ) :   0.9175 B(  7-C , 16-H ) :   0.9230

MP2 TOTAL ENERGY:     -326.125735374 Eh
FINAL SINGLE POINT ENERGY      -326.125735374146

DIPOLE MOMENT
-------------
                                X             Y             Z
Electronic contribution:      0.43729      -1.87343      -0.19523
Nuclear contribution   :     -0.20517       2.46781      -0.07600
                        -----------------------------------------
Total Dipole Moment    :      0.23212       0.59438      -0.27122
                        -----------------------------------------
Magnitude (a.u.)       :      0.69335
Magnitude (Debye)      :      1.76235

                             ****ORCA TERMINATED NORMALLY****
TOTAL RUN TIME: 0 days 0 hours 13 minutes 27 seconds 954 msec
