                         Program Version 3.0.3 - RELEASE   -
|  1> ! RI-MP2 RIJK def2-TZVP def2-TZVP/C def2-TZVP/JK TIGHTSCF
|  2> % maxcore 2000
|  3> % mp2 density relaxed end
|  4> *xyz 0 1
|  5>  C        0.1549910569     1.3387706462     0.1301088953
|  6>  O       -0.3071574616     0.0665823578    -0.2612836681
|  7>  C        0.5024931319    -0.5414352230    -1.2316330526
|  8>  C        1.8684160650    -1.1539373467    -0.8064878959
|  9>  C        1.5321396063    -2.3810048013    -1.7035940225
| 10>  C        1.9073712109    -3.7722289096    -1.2175940153
| 11>  C        0.0386311550    -1.9451501343    -1.6598100488
| 12>  H        1.1548953117     1.2923420903     0.5876919612
| 13>  H        0.2006451336     2.0355776423    -0.7223174665
| 14>  H       -0.5501093072     1.7304401035     0.8674247169
| 15>  H        0.6272802884     0.1285539272    -2.0978867940
| 16>  H        2.7851090742    -0.5961172898    -1.0129634880
| 17>  H        1.8399212694    -1.4239115122     0.2547440402
| 18>  H        1.9339049950    -2.2209106800    -2.7105336663
| 19>  H        1.5153519754    -3.9546957211    -0.2106277964
| 20>  H        1.5027772997    -4.5475239378    -1.8781792250
| 21>  H        2.9949778565    -3.9016986643    -1.1805123004
| 22>  H       -0.4876821573    -2.4246590337    -0.8282958192
| 23>  H       -0.5638669138    -2.0368301535    -2.5662895646
| 24> *
| 25>
| 26>                          ****END OF INPUT****

CARTESIAN COORDINATES (ANGSTROEM)
---------------------------------
  C      0.154991    1.338771    0.130109
  O     -0.307157    0.066582   -0.261284
  C      0.502493   -0.541435   -1.231633
  C      1.868416   -1.153937   -0.806488
  C      1.532140   -2.381005   -1.703594
  C      1.907371   -3.772229   -1.217594
  C      0.038631   -1.945150   -1.659810
  H      1.154895    1.292342    0.587692
  H      0.200645    2.035578   -0.722317
  H     -0.550109    1.730440    0.867425
  H      0.627280    0.128554   -2.097887
  H      2.785109   -0.596117   -1.012963
  H      1.839921   -1.423912    0.254744
  H      1.933905   -2.220911   -2.710534
  H      1.515352   -3.954696   -0.210628
  H      1.502777   -4.547524   -1.878179
  H      2.994978   -3.901699   -1.180512
  H     -0.487682   -2.424659   -0.828296
  H     -0.563867   -2.036830   -2.566290

 Total Charge           Charge          ....    0
 Multiplicity           Mult            ....    1
 Number of Electrons    NEL             ....   56
 Basis Dimension        Dim             ....  289

ORBITAL ENERGIES
----------------

  NO   OCC          E(Eh)            E(eV)
   0   2.0000     -20.550745      -559.2142
   1   2.0000     -11.273476      -306.7669
   2   2.0000     -11.267428      -306.6023
   3   2.0000     -11.227081      -305.5044
   4   2.0000     -11.215424      -305.1872
   5   2.0000     -11.213194      -305.1265
   6   2.0000     -11.211752      -305.0873
   7   2.0000      -1.373493       -37.3747
   8   2.0000      -1.127251       -30.6741
   9   2.0000      -0.982167       -26.7261
  10   2.0000      -0.925459       -25.1830
  11   2.0000      -0.896130       -24.3849
  12   2.0000      -0.816125       -22.2079
  13   2.0000      -0.751745       -20.4560
  14   2.0000      -0.668826       -18.1997
  15   2.0000      -0.654411       -17.8074
  16   2.0000      -0.629095       -17.1185
  17   2.0000      -0.618357       -16.8263
  18   2.0000      -0.566435       -15.4135
  19   2.0000      -0.559648       -15.2288
  20   2.0000      -0.540592       -14.7103
  21   2.0000      -0.535274       -14.5655
  22   2.0000      -0.501526       -13.6472
  23   2.0000      -0.470651       -12.8071
  24   2.0000      -0.459971       -12.5164
  25   2.0000      -0.442805       -12.0493
  26   2.0000      -0.431967       -11.7544
  27   2.0000      -0.399855       -10.8806
  28   0.0000       0.136889         3.7249
  29   0.0000       0.150722         4.1014
  30   0.0000       0.162471         4.4211
  31   0.0000       0.184117         5.0101
  32   0.0000       0.194697         5.2980

MULLIKEN ATOMIC CHARGES
-----------------------
   0 C :   -0.216082
   1 O :   -0.295075
   2 C :    0.025354
   3 C :   -0.232001
   4 C :   -0.039470
   5 C :   -0.412639
   6 C :   -0.186571
   7 H :    0.114324
   8 H :    0.109105
   9 H :    0.140344
  10 H :    0.065153
  11 H :    0.121309
  12 H :    0.104048
  13 H :    0.094256
  14 H :    0.121752
  15 H :    0.130192
  16 H :    0.128749
  17 H :    0.107345
  18 H :    0.119907
Sum of atomic charges:    0.0000000

LOEWDIN ATOMIC CHARGES
----------------------
   0 C :   -0.356936
   1 O :    0.154870
   2 C :   -0.318886
   3 C :   -0.211740
   4 C :   -0.257625
   5 C :   -0.304475
   6 C :   -0.199692
   7 H :    0.102182
   8 H :    0.101067
   9 H :    0.112984
  10 H :    0.131083
  11 H :    0.121727
  12 H :    0.140647
  13 H :    0.147457
  14 H :    0.122458
  15 H :    0.123821
  16 H :    0.123478
  17 H :    0.143383
  18 H :    0.124197

  Mayer bond orders larger than 0.1
B(  0-C ,  1-O ) :   0.9091 B(  0-C ,  7-H ) :   0.9342 B(  0-C ,  8-H ) :   0.9346
B(  0-C ,  9-H ) :   0.9416 B(  1-O ,  2-C ) :   1.0527 B(  2-C ,  3-C ) :   0.9398
B(  2-C ,  6-C ) :   0.9186 B(  2-C , 10-H ) :   0.9515 B(  3-C ,  4-C ) :   0.9424
B(  3-C , 11-H ) :   0.9241 B(  3-C , 12-H ) :   0.9020 B(  4-C ,  5-C ) :   0.8844
B(  4-C ,  6-C ) :   0.9195 B(  4-C , 13-H ) :   0.9283 B(  5-C , 14-H ) :   0.9382
B(  5-C , 15-H ) :   0.9406 B(  5-C , 16-H ) :   0.9406 B(  6-C , 17-H ) :   0.9088
B(  6-C , 18-H ) :   0.9266

MP2 TOTAL ENERGY:     -310.365750641 Eh
FINAL SINGLE POINT ENERGY      -310.365750641018

DIPOLE MOMENT
-------------
                                X             Y             Z
Electronic contribution:     -2.70102       1.99300       0.07113
Nuclear contribution   :      3.11508      -1.81856      -0.24397
                        -----------------------------------------
Total Dipole Moment    :      0.41406       0.17444      -0.17284
                        -----------------------------------------
Magnitude (a.u.)       :      0.48140
Magnitude (Debye)      :      1.22362

                             ****ORCA TERMINATED NORMALLY****
TOTAL RUN TIME: 0 days 0 hours 9 minutes 0 seconds 761 msec
