                         Program Version 3.0.3 - RELEASE   -
|  1> ! RI-MP2 RIJK def2-TZVP def2-TZVP/C def2-TZVP/JK TIGHTSCF
|  2> % maxcore 2000
|  3> % mp2 density relaxed end
|  4> *xyz 0 1
|  5>  C        0.0025481144     1.5022402892     0.0085756099
|  6>  C       -0.0537119693    -0.0276636695     0.0024706302
|  7>  C       -1.4830143714    -0.5458344793     0.0126392298
|  8>  O       -1.4297440694    -1.9751612832     0.0062133380
|  9>  C       -2.6110331339    -2.6141594885     0.0130966159
| 10>  N       -3.7792685907    -1.9834284436     0.0256218634
| 11>  N       -4.6869291724    -2.9932870417     0.0284650668
| 12>  C       -4.1152485677    -4.2187576059     0.0183664216
| 13>  C       -2.7523366533    -4.0233597850     0.0078511784
| 14>  H        1.0372094050     1.8565495255     0.0010808501
| 15>  H       -0.4997647104     1.9237520887    -0.8690519068
| 16>  H       -0.4843559663     1.9161270230     0.8984299039
| 17>  H        0.4583636042    -0.4230430524    -0.8823704242
| 18>  H        0.4735904878    -0.4306097787     0.8748684491
| 19>  H       -2.0283991360    -0.2035064499     0.9016068497
| 20>  H       -2.0436679048    -0.1961440238    -0.8638688289
| 21>  H       -5.6645106631    -2.7639059719     0.0375526187
| 22>  H       -4.7075486686    -5.1204362817     0.0192348229
| 23>  H       -1.9723559440    -4.7651308813    -0.0020049087
| 24> *
| 25>
| 26>                          ****END OF INPUT****

CARTESIAN COORDINATES (ANGSTROEM)
---------------------------------
  C      0.002548    1.502240    0.008576
  C     -0.053712   -0.027664    0.002471
  C     -1.483014   -0.545834    0.012639
  O     -1.429744   -1.975161    0.006213
  C     -2.611033   -2.614159    0.013097
  N     -3.779269   -1.983428    0.025622
  N     -4.686929   -2.993287    0.028465
  C     -4.115249   -4.218758    0.018366
  C     -2.752337   -4.023360    0.007851
  H      1.037209    1.856550    0.001081
  H     -0.499765    1.923752   -0.869052
  H     -0.484356    1.916127    0.898430
  H      0.458364   -0.423043   -0.882370
  H      0.473590   -0.430610    0.874868
  H     -2.028399   -0.203506    0.901607
  H     -2.043668   -0.196144   -0.863869
  H     -5.664511   -2.763906    0.037553
  H     -4.707549   -5.120436    0.019235
  H     -1.972356   -4.765131   -0.002005

 Total Charge           Charge          ....    0
 Multiplicity           Mult            ....    1
 Number of Electrons    NEL             ....   68
 Basis Dimension        Dim             ....  339

ORBITAL ENERGIES
----------------

  NO   OCC          E(Eh)            E(eV)
   0   2.0000     -20.576296      -559.9095
   1   2.0000     -15.628231      -425.2658
   2   2.0000     -15.569597      -423.6703
   3   2.0000     -11.309600      -307.7499
   4   2.0000     -11.280101      -306.9472
   5   2.0000     -11.271693      -306.7183
   6   2.0000     -11.218309      -305.2657
   7   2.0000     -11.214872      -305.1722
   8   2.0000     -11.214127      -305.1519
   9   2.0000      -1.416337       -38.5405
  10   2.0000      -1.355162       -36.8758
  11   2.0000      -1.090898       -29.6848
  12   2.0000      -1.060612       -28.8607
  13   2.0000      -1.039215       -28.2785
  14   2.0000      -0.929331       -25.2884
  15   2.0000      -0.831801       -22.6345
  16   2.0000      -0.799992       -21.7689
  17   2.0000      -0.778052       -21.1719
  18   2.0000      -0.742501       -20.2045
  19   2.0000      -0.669766       -18.2253
  20   2.0000      -0.662364       -18.0238
  21   2.0000      -0.616791       -16.7837
  22   2.0000      -0.613185       -16.6856
  23   2.0000      -0.593307       -16.1447
  24   2.0000      -0.574244       -15.6260
  25   2.0000      -0.570955       -15.5365
  26   2.0000      -0.526071       -14.3151
  27   2.0000      -0.505778       -13.7629
  28   2.0000      -0.499634       -13.5957
  29   2.0000      -0.479235       -13.0406
  30   2.0000      -0.463821       -12.6212
  31   2.0000      -0.452224       -12.3056
  32   2.0000      -0.348976        -9.4961
  33   2.0000      -0.333318        -9.0700
  34   0.0000       0.137146         3.7319
  35   0.0000       0.142791         3.8855
  36   0.0000       0.157813         4.2943
  37   0.0000       0.180033         4.8989
  38   0.0000       0.184117         5.0101

MULLIKEN ATOMIC CHARGES
-----------------------
   0 C :   -0.407187
   1 C :   -0.153563
   2 C :   -0.063388
   3 O :   -0.269767
   4 C :    0.225198
   5 N :   -0.253413
   6 N :   -0.135409
   7 C :   -0.053427
   8 C :   -0.268523
   9 H :    0.137950
  10 H :    0.125021
  11 H :    0.125023
  12 H :    0.112034
  13 H :    0.112040
  14 H :    0.108208
  15 H :    0.108225
  16 H :    0.255160
  17 H :    0.151600
  18 H :    0.144217
Sum of atomic charges:   -0.0000000

LOEWDIN ATOMIC CHARGES
----------------------
   0 C :   -0.318294
   1 C :   -0.295504
   2 C :   -0.294498
   3 O :    0.248530
   4 C :   -0.401932
   5 N :    0.018515
   6 N :    0.117717
   7 C :   -0.247183
   8 C :   -0.186431
   9 H :    0.122595
  10 H :    0.121312
  11 H :    0.121312
  12 H :    0.137449
  13 H :    0.137452
  14 H :    0.126613
  15 H :    0.126617
  16 H :    0.185809
  17 H :    0.136073
  18 H :    0.143849

  Mayer bond orders larger than 0.1
B(  0-C ,  1-C ) :   0.9178 B(  0-C ,  9-H ) :   0.9404 B(  0-C , 10-H ) :   0.9368
B(  0-C , 11-H ) :   0.9368 B(  1-C ,  2-C ) :   0.9392 B(  1-C , 12-H ) :   0.9286
B(  1-C , 13-H ) :   0.9286 B(  2-C ,  3-O ) :   0.8499 B(  2-C , 14-H ) :   0.9249
B(  2-C , 15-H ) :   0.9249 B(  3-O ,  4-C ) :   1.1039 B(  4-C ,  5-N ) :   1.4931
B(  4-C ,  8-C ) :   1.2815 B(  5-N ,  6-N ) :   1.0043 B(  5-N ,  7-C ) :   0.1146
B(  6-N ,  7-C ) :   1.1951 B(  6-N , 16-H ) :   0.8772 B(  7-C ,  8-C ) :   1.4597
B(  7-C , 17-H ) :   0.9114 B(  8-C , 18-H ) :   0.9194

MP2 TOTAL ENERGY:     -418.515879591 Eh
FINAL SINGLE POINT ENERGY      -418.515879590917

DIPOLE MOMENT
-------------
                                X             Y             Z
Electronic contribution:     -7.64691      -9.51906       0.02417
Nuclear contribution   :      7.02693       9.30737      -0.02028
                        -----------------------------------------
Total Dipole Moment    :     -0.61998      -0.21169       0.00389
                        -----------------------------------------
Magnitude (a.u.)       :      0.65513
Magnitude (Debye)      :      1.66521

                             ****ORCA TERMINATED NORMALLY****
TOTAL RUN TIME: 0 days 0 hours 16 minutes 58 seconds 914 msec
