                         Program Version 3.0.3 - RELEASE   -
|  1> ! RI-MP2 RIJK def2-TZVP def2-TZVP/C def2-TZVP/JK TIGHTSCF
|  2> % maxcore 2000
|  3> % mp2 density relaxed end
|  4> *xyz 0 1
|  5>  O       -0.2486666539     1.4164713246    -0.5565814002
|  6>  C       -0.0351363487     0.1484603835     0.0573569034
|  7>  C       -1.3571307145    -0.5766221413     0.0481606360
|  8>  C       -1.9439875265    -1.3102680174    -1.1248441781
|  9>  C       -0.8748316552    -2.0780446661    -1.9095972439
| 10>  C       -0.5445496691    -2.9094106526    -0.6119442513
| 11>  C        0.8236174005    -3.0107230327    -0.1335544326
| 12>  C        1.9567734138    -3.1144304659     0.2581601821
| 13>  C       -1.5756277543    -2.0604031452     0.1637956725
| 14>  H        0.5793872902     1.9043285316    -0.5203101669
| 15>  H        0.7397449449    -0.4230370535    -0.4672317508
| 16>  H        0.3046621426     0.2639709358     1.0989617127
| 17>  H       -2.1197667648    -0.0228629662     0.5932503944
| 18>  H       -2.9283540949    -1.0694169290    -1.5062887500
| 19>  H       -1.2816296259    -2.7121646888    -2.6989739495
| 20>  H       -0.0575446086    -1.4834973039    -2.3249773328
| 21>  H       -0.9450688180    -3.9203664372    -0.7378127292
| 22>  H        2.9552653038    -3.2016932720     0.6085392692
| 23>  H       -2.2215555114    -2.4737527837     0.9294921451
| 24> *
| 25>
| 26>                          ****END OF INPUT****

CARTESIAN COORDINATES (ANGSTROEM)
---------------------------------
  O     -0.248667    1.416471   -0.556581
  C     -0.035136    0.148460    0.057357
  C     -1.357131   -0.576622    0.048161
  C     -1.943988   -1.310268   -1.124844
  C     -0.874832   -2.078045   -1.909597
  C     -0.544550   -2.909411   -0.611944
  C      0.823617   -3.010723   -0.133554
  C      1.956773   -3.114430    0.258160
  C     -1.575628   -2.060403    0.163796
  H      0.579387    1.904329   -0.520310
  H      0.739745   -0.423037   -0.467232
  H      0.304662    0.263971    1.098962
  H     -2.119767   -0.022863    0.593250
  H     -2.928354   -1.069417   -1.506289
  H     -1.281630   -2.712165   -2.698974
  H     -0.057545   -1.483497   -2.324977
  H     -0.945069   -3.920366   -0.737813
  H      2.955265   -3.201693    0.608539
  H     -2.221556   -2.473753    0.929492

 Total Charge           Charge          ....    0
 Multiplicity           Mult            ....    1
 Number of Electrons    NEL             ....   66
 Basis Dimension        Dim             ....  339

ORBITAL ENERGIES
----------------

  NO   OCC          E(Eh)            E(eV)
   0   2.0000     -20.550905      -559.2185
   1   2.0000     -11.271074      -306.7015
   2   2.0000     -11.260202      -306.4057
   3   2.0000     -11.240742      -305.8761
   4   2.0000     -11.235077      -305.7220
   5   2.0000     -11.234400      -305.7036
   6   2.0000     -11.232969      -305.6646
   7   2.0000     -11.232022      -305.6388
   8   2.0000     -11.219944      -305.3102
   9   2.0000      -1.353932       -36.8424
  10   2.0000      -1.197769       -32.5930
  11   2.0000      -1.051279       -28.6068
  12   2.0000      -0.996709       -27.1218
  13   2.0000      -0.928786       -25.2736
  14   2.0000      -0.908494       -24.7214
  15   2.0000      -0.778750       -21.1909
  16   2.0000      -0.748917       -20.3791
  17   2.0000      -0.715097       -19.4588
  18   2.0000      -0.703162       -19.1340
  19   2.0000      -0.684493       -18.6260
  20   2.0000      -0.649721       -17.6798
  21   2.0000      -0.614452       -16.7201
  22   2.0000      -0.598237       -16.2789
  23   2.0000      -0.548701       -14.9309
  24   2.0000      -0.542696       -14.7675
  25   2.0000      -0.527070       -14.3423
  26   2.0000      -0.491172       -13.3655
  27   2.0000      -0.479626       -13.0513
  28   2.0000      -0.448808       -12.2127
  29   2.0000      -0.412004       -11.2112
  30   2.0000      -0.392833       -10.6895
  31   2.0000      -0.379237       -10.3196
  32   2.0000      -0.373149       -10.1539
  33   0.0000       0.136554         3.7158
  34   0.0000       0.142644         3.8815
  35   0.0000       0.158538         4.3140
  36   0.0000       0.164372         4.4728
  37   0.0000       0.171162         4.6575

MULLIKEN ATOMIC CHARGES
-----------------------
   0 O :   -0.464950
   1 C :   -0.084624
   2 C :   -0.098053
   3 C :   -0.097693
   4 C :   -0.239438
   5 C :   -0.194600
   6 C :   -0.041865
   7 C :   -0.169282
   8 C :   -0.098550
   9 H :    0.313633
  10 H :    0.115100
  11 H :    0.100653
  12 H :    0.117150
  13 H :    0.133358
  14 H :    0.127309
  15 H :    0.134909
  16 H :    0.126917
  17 H :    0.187739
  18 H :    0.132287
Sum of atomic charges:   -0.0000000

LOEWDIN ATOMIC CHARGES
----------------------
   0 O :   -0.049965
   1 C :   -0.324765
   2 C :   -0.194022
   3 C :   -0.156133
   4 C :   -0.172828
   5 C :   -0.194805
   6 C :   -0.095801
   7 C :   -0.105595
   8 C :   -0.128615
   9 H :    0.170680
  10 H :    0.124822
  11 H :    0.121611
  12 H :    0.163989
  13 H :    0.136310
  14 H :    0.135994
  15 H :    0.134273
  16 H :    0.172411
  17 H :    0.125740
  18 H :    0.136698

  Mayer bond orders larger than 0.1
B(  0-O ,  1-C ) :   1.0207 B(  0-O ,  9-H ) :   0.8494 B(  1-C ,  2-C ) :   0.9370
B(  1-C , 10-H ) :   0.9156 B(  1-C , 11-H ) :   0.9333 B(  2-C ,  3-C ) :   0.8831
B(  2-C ,  8-C ) :   0.8828 B(  2-C , 12-H ) :   0.9266 B(  3-C ,  4-C ) :   0.9264
B(  3-C ,  8-C ) :   0.8234 B(  3-C , 13-H ) :   0.9228 B(  4-C ,  5-C ) :   0.9316
B(  4-C , 14-H ) :   0.9265 B(  4-C , 15-H ) :   0.9263 B(  5-C ,  6-C ) :   1.1524
B(  5-C ,  8-C ) :   0.8781 B(  5-C , 16-H ) :   0.9230 B(  6-C ,  7-C ) :   2.5791
B(  7-C , 17-H ) :   0.9005 B(  8-C , 18-H ) :   0.9225

MP2 TOTAL ENERGY:     -385.133023444 Eh
FINAL SINGLE POINT ENERGY      -385.133023443894

DIPOLE MOMENT
-------------
                                X             Y             Z
Electronic contribution:      0.93614      -0.88879       0.76476
Nuclear contribution   :     -0.69885       0.74599      -0.64362
                        -----------------------------------------
Total Dipole Moment    :      0.23729      -0.14280       0.12114
                        -----------------------------------------
Magnitude (a.u.)       :      0.30228
Magnitude (Debye)      :      0.76834

                             ****ORCA TERMINATED NORMALLY****
TOTAL RUN TIME: 0 days 0 hours 31 minutes 33 seconds 697 msec
