                         Program Version 3.0.3 - RELEASE   -
|  1> ! RI-MP2 RIJK def2-TZVP def2-TZVP/C def2-TZVP/JK TIGHTSCF
|  2> % maxcore 2000
|  3> % mp2 density relaxed end
|  4> *xyz 0 1
|  5>  C       -0.3599323602     1.3120714865     0.4956724897
|  6>  O       -0.4299534068    -0.0755574909     0.7121290393
|  7>  C        0.8299393772    -0.6560652417     0.9671740278
|  8>  C        0.6397770181    -2.1516726470     1.1785845987
|  9>  C        1.9691084070    -2.8668843776     1.4713287213
| 10>  C        1.7932045437    -4.3476799516     1.6862594547
| 11>  N        2.2710844858    -5.2026219581     0.8803999048
| 12>  O        1.0689623689    -4.5721851969     2.8193178528
| 13>  C        0.7789418689    -5.9180165219     3.1613563544
| 14>  H        0.2696340444     1.5605303028    -0.3740218198
| 15>  H       -1.3762524518     1.6669647960     0.3072621415
| 16>  H        0.0449440046     1.8441792544     1.3717901648
| 17>  H        1.5171515586    -0.4698765176     0.1227388282
| 18>  H        1.2908081020    -0.1970827541     1.8604176334
| 19>  H       -0.0580357157    -2.3078708647     2.0066412884
| 20>  H        0.1775972109    -2.5790349079     0.2817480417
| 21>  H        2.6691201445    -2.7402396534     0.6426939031
| 22>  H        2.4245136173    -2.4368169953     2.3721413882
| 23>  H        2.0636247025    -6.1629319937     1.1512547049
| 24>  H        1.6957518646    -6.4924886411     3.3426441459
| 25>  H        0.1915593824    -5.8786232312     4.0795086491
| 26>  H        0.1935119532    -6.4138440352     2.3773573872
| 27> *
| 28>
| 29>                          ****END OF INPUT****

CARTESIAN COORDINATES (ANGSTROEM)
---------------------------------
  C     -0.359932    1.312071    0.495672
  O     -0.429953   -0.075557    0.712129
  C      0.829939   -0.656065    0.967174
  C      0.639777   -2.151673    1.178585
  C      1.969108   -2.866884    1.471329
  C      1.793205   -4.347680    1.686259
  N      2.271084   -5.202622    0.880400
  O      1.068962   -4.572185    2.819318
  C      0.778942   -5.918017    3.161356
  H      0.269634    1.560530   -0.374022
  H     -1.376252    1.666965    0.307262
  H      0.044944    1.844179    1.371790
  H      1.517152   -0.469877    0.122739
  H      1.290808   -0.197083    1.860418
  H     -0.058036   -2.307871    2.006641
  H      0.177597   -2.579035    0.281748
  H      2.669120   -2.740240    0.642694
  H      2.424514   -2.436817    2.372141
  H      2.063625   -6.162932    1.151255
  H      1.695752   -6.492489    3.342644
  H      0.191559   -5.878623    4.079509
  H      0.193512   -6.413844    2.377357

 Total Charge           Charge          ....    0
 Multiplicity           Mult            ....    1
 Number of Electrons    NEL             ....   72
 Basis Dimension        Dim             ....  357

ORBITAL ENERGIES
----------------

  NO   OCC          E(Eh)            E(eV)
   0   2.0000     -20.596803      -560.4675
   1   2.0000     -20.553535      -559.2901
   2   2.0000     -15.533039      -422.6755
   3   2.0000     -11.335907      -308.4657
   4   2.0000     -11.293155      -307.3024
   5   2.0000     -11.273957      -306.7800
   6   2.0000     -11.269227      -306.6513
   7   2.0000     -11.231367      -305.6210
   8   2.0000     -11.222227      -305.3723
   9   2.0000      -1.427886       -38.8547
  10   2.0000      -1.375070       -37.4175
  11   2.0000      -1.192811       -32.4580
  12   2.0000      -1.070116       -29.1193
  13   2.0000      -0.992488       -27.0070
  14   2.0000      -0.947206       -25.7748
  15   2.0000      -0.888804       -24.1856
  16   2.0000      -0.820715       -22.3328
  17   2.0000      -0.763123       -20.7656
  18   2.0000      -0.718036       -19.5387
  19   2.0000      -0.676174       -18.3996
  20   2.0000      -0.669332       -18.2135
  21   2.0000      -0.665020       -18.0961
  22   2.0000      -0.644301       -17.5323
  23   2.0000      -0.627540       -17.0762
  24   2.0000      -0.606936       -16.5156
  25   2.0000      -0.563722       -15.3397
  26   2.0000      -0.546234       -14.8638
  27   2.0000      -0.536510       -14.5992
  28   2.0000      -0.525460       -14.2985
  29   2.0000      -0.499835       -13.6012
  30   2.0000      -0.492779       -13.4092
  31   2.0000      -0.480212       -13.0672
  32   2.0000      -0.473472       -12.8838
  33   2.0000      -0.432079       -11.7575
  34   2.0000      -0.422094       -11.4858
  35   2.0000      -0.403582       -10.9820
  36   0.0000       0.135724         3.6933
  37   0.0000       0.143073         3.8932
  38   0.0000       0.161627         4.3981
  39   0.0000       0.185321         5.0428
  40   0.0000       0.189633         5.1602

MULLIKEN ATOMIC CHARGES
-----------------------
   0 C :   -0.213972
   1 O :   -0.300511
   2 C :   -0.053376
   3 C :   -0.204653
   4 C :   -0.159209
   5 C :    0.168830
   6 N :   -0.387359
   7 O :   -0.252551
   8 C :   -0.280099
   9 H :    0.110637
  10 H :    0.138161
  11 H :    0.109534
  12 H :    0.090108
  13 H :    0.087173
  14 H :    0.125983
  15 H :    0.124176
  16 H :    0.133676
  17 H :    0.119769
  18 H :    0.211020
  19 H :    0.139307
  20 H :    0.152874
  21 H :    0.140481
Sum of atomic charges:   -0.0000000

LOEWDIN ATOMIC CHARGES
----------------------
   0 C :   -0.363730
   1 O :    0.134082
   2 C :   -0.332222
   3 C :   -0.257389
   4 C :   -0.221312
   5 C :   -0.414903
   6 N :   -0.062100
   7 O :    0.222320
   8 C :   -0.336512
   9 H :    0.100770
  10 H :    0.113072
  11 H :    0.100448
  12 H :    0.118520
  13 H :    0.117782
  14 H :    0.142652
  15 H :    0.143482
  16 H :    0.151869
  17 H :    0.148710
  18 H :    0.156920
  19 H :    0.109084
  20 H :    0.119148
  21 H :    0.109310

  Mayer bond orders larger than 0.1
B(  0-C ,  1-O ) :   0.9229 B(  0-C ,  9-H ) :   0.9374 B(  0-C , 10-H ) :   0.9396
B(  0-C , 11-H ) :   0.9373 B(  1-O ,  2-C ) :   0.9655 B(  2-C ,  3-C ) :   0.9512
B(  2-C , 12-H ) :   0.9229 B(  2-C , 13-H ) :   0.9240 B(  3-C ,  4-C ) :   0.9228
B(  3-C , 14-H ) :   0.9247 B(  3-C , 15-H ) :   0.9214 B(  4-C ,  5-C ) :   0.9195
B(  4-C , 16-H ) :   0.9183 B(  4-C , 17-H ) :   0.9172 B(  5-C ,  6-N ) :   1.9884
B(  5-C ,  7-O ) :   1.1020 B(  6-N , 18-H ) :   0.8693 B(  7-O ,  8-C ) :   0.8719
B(  8-C , 19-H ) :   0.9324 B(  8-C , 20-H ) :   0.9374 B(  8-C , 21-H ) :   0.9320

MP2 TOTAL ENERGY:     -440.753103578 Eh
FINAL SINGLE POINT ENERGY      -440.753103577739

DIPOLE MOMENT
-------------
                                X             Y             Z
Electronic contribution:      0.75126      -4.27968       0.57707
Nuclear contribution   :     -0.85272       4.17624       0.10085
                        -----------------------------------------
Total Dipole Moment    :     -0.10146      -0.10344       0.67792
                        -----------------------------------------
Magnitude (a.u.)       :      0.69323
Magnitude (Debye)      :      1.76205

                             ****ORCA TERMINATED NORMALLY****
TOTAL RUN TIME: 0 days 0 hours 14 minutes 23 seconds 286 msec
