                         Program Version 3.0.3 - RELEASE   -
|  1> ! RI-MP2 RIJK def2-TZVP def2-TZVP/C def2-TZVP/JK TIGHTSCF
|  2> % maxcore 2000
|  3> % mp2 density relaxed end
|  4> *xyz 0 1
|  5>  C       -0.0660377662     1.5222594287    -0.0310982142
|  6>  C        0.0778028351     0.0130453372     0.0624332074
|  7>  O        0.9546808827    -0.4839345695    -0.9937476616
|  8>  C        1.9208955010    -1.2632301005    -0.2766711981
|  9>  C        2.2905711037    -0.3494344016     0.9230699484
| 10>  C        0.7801111467    -0.5665856760     1.3179752371
| 11>  C        0.1951044272    -0.3093927573     2.6819539081
| 12>  C        1.0437291358    -1.9937654978     0.7659836020
| 13>  O        0.8087103399    -3.1083950407     1.1210293351
| 14>  H        0.8747308667     2.0386252108     0.1776258561
| 15>  H       -0.3842609930     1.7951883158    -1.0417132120
| 16>  H       -0.8249833300     1.8792513541     0.6726705389
| 17>  H       -0.9116883401    -0.4504240202    -0.0591104380
| 18>  H        2.6315320048    -1.7280676532    -0.9545619364
| 19>  H        2.9846203686    -0.8058358321     1.6322284259
| 20>  H        2.5992852055     0.6635027316     0.6610146217
| 21>  H        0.2155008735     0.7552488113     2.9361228181
| 22>  H       -0.8466199135    -0.6453844064     2.7239407655
| 23>  H        0.7486857915    -0.8538091042     3.4526897459
| 24> *
| 25>
| 26>                          ****END OF INPUT****

CARTESIAN COORDINATES (ANGSTROEM)
---------------------------------
  C     -0.066038    1.522259   -0.031098
  C      0.077803    0.013045    0.062433
  O      0.954681   -0.483935   -0.993748
  C      1.920896   -1.263230   -0.276671
  C      2.290571   -0.349434    0.923070
  C      0.780111   -0.566586    1.317975
  C      0.195104   -0.309393    2.681954
  C      1.043729   -1.993765    0.765984
  O      0.808710   -3.108395    1.121029
  H      0.874731    2.038625    0.177626
  H     -0.384261    1.795188   -1.041713
  H     -0.824983    1.879251    0.672671
  H     -0.911688   -0.450424   -0.059110
  H      2.631532   -1.728068   -0.954562
  H      2.984620   -0.805836    1.632228
  H      2.599285    0.663503    0.661015
  H      0.215501    0.755249    2.936123
  H     -0.846620   -0.645384    2.723941
  H      0.748686   -0.853809    3.452690

 Total Charge           Charge          ....    0
 Multiplicity           Mult            ....    1
 Number of Electrons    NEL             ....   68
 Basis Dimension        Dim             ....  339

ORBITAL ENERGIES
----------------

  NO   OCC          E(Eh)            E(eV)
   0   2.0000     -20.569054      -559.7124
   1   2.0000     -20.561462      -559.5058
   2   2.0000     -11.337258      -308.5025
   3   2.0000     -11.303019      -307.5708
   4   2.0000     -11.299313      -307.4699
   5   2.0000     -11.263946      -306.5075
   6   2.0000     -11.250669      -306.1463
   7   2.0000     -11.234823      -305.7151
   8   2.0000     -11.228331      -305.5384
   9   2.0000      -1.413352       -38.4593
  10   2.0000      -1.389095       -37.7992
  11   2.0000      -1.141931       -31.0735
  12   2.0000      -1.053217       -28.6595
  13   2.0000      -0.985683       -26.8218
  14   2.0000      -0.906416       -24.6648
  15   2.0000      -0.874676       -23.8011
  16   2.0000      -0.779192       -21.2029
  17   2.0000      -0.741462       -20.1762
  18   2.0000      -0.694964       -18.9109
  19   2.0000      -0.671090       -18.2613
  20   2.0000      -0.644358       -17.5339
  21   2.0000      -0.632490       -17.2109
  22   2.0000      -0.592725       -16.1289
  23   2.0000      -0.580125       -15.7860
  24   2.0000      -0.566511       -15.4155
  25   2.0000      -0.560780       -15.2596
  26   2.0000      -0.541258       -14.7284
  27   2.0000      -0.537219       -14.6185
  28   2.0000      -0.525647       -14.3036
  29   2.0000      -0.505714       -13.7612
  30   2.0000      -0.495422       -13.4811
  31   2.0000      -0.473899       -12.8954
  32   2.0000      -0.436023       -11.8648
  33   2.0000      -0.373828       -10.1724
  34   0.0000       0.125247         3.4082
  35   0.0000       0.141296         3.8449
  36   0.0000       0.162476         4.4212
  37   0.0000       0.164256         4.4696
  38   0.0000       0.175970         4.7884

MULLIKEN ATOMIC CHARGES
-----------------------
   0 C :   -0.406007
   1 C :    0.042684
   2 O :   -0.319704
   3 C :    0.091996
   4 C :   -0.302610
   5 C :    0.092396
   6 C :   -0.407550
   7 C :    0.083603
   8 O :   -0.238648
   9 H :    0.124677
  10 H :    0.152111
  11 H :    0.131825
  12 H :    0.103143
  13 H :    0.144570
  14 H :    0.136276
  15 H :    0.135917
  16 H :    0.146441
  17 H :    0.143364
  18 H :    0.145516
Sum of atomic charges:    0.0000000

LOEWDIN ATOMIC CHARGES
----------------------
   0 C :   -0.288648
   1 C :   -0.262827
   2 O :    0.178813
   3 C :   -0.238600
   4 C :   -0.169211
   5 C :   -0.223589
   6 C :   -0.265629
   7 C :   -0.258015
   8 O :    0.175435
   9 H :    0.123746
  10 H :    0.133313
  11 H :    0.128305
  12 H :    0.146035
  13 H :    0.135414
  14 H :    0.145567
  15 H :    0.137424
  16 H :    0.131306
  17 H :    0.136368
  18 H :    0.134792

  Mayer bond orders larger than 0.1
B(  0-C ,  1-C ) :   0.9115 B(  0-C ,  9-H ) :   0.9362 B(  0-C , 10-H ) :   0.9358
B(  0-C , 11-H ) :   0.9339 B(  1-C ,  2-O ) :   0.8840 B(  1-C ,  5-C ) :   0.9020
B(  1-C , 12-H ) :   0.9171 B(  2-O ,  3-C ) :   0.9317 B(  3-C ,  4-C ) :   0.8918
B(  3-C ,  5-C ) :  -0.1090 B(  3-C ,  7-C ) :   0.8785 B(  3-C , 13-H ) :   0.9035
B(  4-C ,  5-C ) :   0.8787 B(  4-C , 14-H ) :   0.9119 B(  4-C , 15-H ) :   0.9069
B(  5-C ,  6-C ) :   0.8537 B(  5-C ,  7-C ) :   0.8232 B(  6-C , 16-H ) :   0.9438
B(  6-C , 17-H ) :   0.9344 B(  6-C , 18-H ) :   0.9359 B(  7-C ,  8-O ) :   2.0635

MP2 TOTAL ENERGY:     -422.317035179 Eh
FINAL SINGLE POINT ENERGY      -422.317035178622

DIPOLE MOMENT
-------------
                                X             Y             Z
Electronic contribution:      1.74207      -8.13614      -3.34348
Nuclear contribution   :     -1.55608       9.16063       3.77541
                        -----------------------------------------
Total Dipole Moment    :      0.18599       1.02449       0.43194
                        -----------------------------------------
Magnitude (a.u.)       :      1.12727
Magnitude (Debye)      :      2.86529

                             ****ORCA TERMINATED NORMALLY****
TOTAL RUN TIME: 0 days 0 hours 21 minutes 45 seconds 857 msec
