                         Program Version 3.0.3 - RELEASE   -
|  1> ! RI-MP2 RIJK def2-TZVP def2-TZVP/C def2-TZVP/JK TIGHTSCF
|  2> % maxcore 2000
|  3> % mp2 density relaxed end
|  4> *xyz 0 1
|  5>  C       -0.0521858940     1.4953818397     0.0084555389
|  6>  C        0.0960051104    -0.0062740723     0.0012519286
|  7>  N        1.2454113014    -0.5382451143    -0.0104879400
|  8>  N       -1.1296622129    -0.7338011403     0.0088226562
|  9>  C       -2.4230669452    -0.1884698531     0.0217747499
| 10>  N       -3.3972363875    -1.0085960921     0.0270550484
| 11>  C       -2.7939914211    -2.3420426962     0.0170382643
| 12>  C       -1.2814954004    -2.1333511095     0.0049156958
| 13>  N       -0.3123968639    -2.9556486463    -0.0065213090
| 14>  H        0.9497379122     1.9220265914     0.0019951921
| 15>  H       -0.5975473450     1.8554039838    -0.8708923870
| 16>  H       -0.5831986098     1.8483753293     0.8993553991
| 17>  H        1.1808411628    -1.5589083148    -0.0138185919
| 18>  H       -2.5429397213     0.8867877564     0.0267377780
| 19>  H       -3.1076789543    -2.9120111514     0.8992325816
| 20>  H       -3.1227142043    -2.9055895203    -0.8638011108
| 21>  H       -0.6524374271    -3.9162783401    -0.0072245142
| 22> *
| 23>
| 24>                          ****END OF INPUT****

CARTESIAN COORDINATES (ANGSTROEM)
---------------------------------
  C     -0.052186    1.495382    0.008456
  C      0.096005   -0.006274    0.001252
  N      1.245411   -0.538245   -0.010488
  N     -1.129662   -0.733801    0.008823
  C     -2.423067   -0.188470    0.021775
  N     -3.397236   -1.008596    0.027055
  C     -2.793991   -2.342043    0.017038
  C     -1.281495   -2.133351    0.004916
  N     -0.312397   -2.955649   -0.006521
  H      0.949738    1.922027    0.001995
  H     -0.597547    1.855404   -0.870892
  H     -0.583199    1.848375    0.899355
  H      1.180841   -1.558908   -0.013819
  H     -2.542940    0.886788    0.026738
  H     -3.107679   -2.912011    0.899233
  H     -3.122714   -2.905590   -0.863801
  H     -0.652437   -3.916278   -0.007225

 Total Charge           Charge          ....    0
 Multiplicity           Mult            ....    1
 Number of Electrons    NEL             ....   66
 Basis Dimension        Dim             ....  327

ORBITAL ENERGIES
----------------

  NO   OCC          E(Eh)            E(eV)
   0   2.0000     -15.630108      -425.3169
   1   2.0000     -15.571338      -423.7176
   2   2.0000     -15.555390      -423.2837
   3   2.0000     -15.532921      -422.6723
   4   2.0000     -11.344941      -308.7116
   5   2.0000     -11.338296      -308.5307
   6   2.0000     -11.330658      -308.3229
   7   2.0000     -11.286527      -307.1220
   8   2.0000     -11.243504      -305.9513
   9   2.0000      -1.366358       -37.1805
  10   2.0000      -1.247405       -33.9436
  11   2.0000      -1.217263       -33.1234
  12   2.0000      -1.158988       -31.5377
  13   2.0000      -1.014474       -27.6053
  14   2.0000      -0.994110       -27.0511
  15   2.0000      -0.864199       -23.5161
  16   2.0000      -0.848242       -23.0818
  17   2.0000      -0.751056       -20.4373
  18   2.0000      -0.735146       -20.0043
  19   2.0000      -0.671367       -18.2688
  20   2.0000      -0.659672       -17.9506
  21   2.0000      -0.642547       -17.4846
  22   2.0000      -0.610276       -16.6065
  23   2.0000      -0.594473       -16.1764
  24   2.0000      -0.571568       -15.5532
  25   2.0000      -0.557784       -15.1781
  26   2.0000      -0.555254       -15.1092
  27   2.0000      -0.514729       -14.0065
  28   2.0000      -0.475067       -12.9272
  29   2.0000      -0.438402       -11.9295
  30   2.0000      -0.435339       -11.8462
  31   2.0000      -0.410261       -11.1638
  32   2.0000      -0.355145        -9.6640
  33   0.0000       0.116357         3.1662
  34   0.0000       0.122095         3.3224
  35   0.0000       0.137636         3.7453
  36   0.0000       0.137877         3.7518
  37   0.0000       0.170541         4.6407

MULLIKEN ATOMIC CHARGES
-----------------------
   0 C :   -0.432016
   1 C :    0.125682
   2 N :   -0.348920
   3 N :   -0.074873
   4 C :   -0.012000
   5 N :   -0.243221
   6 C :   -0.114635
   7 C :    0.125920
   8 N :   -0.436769
   9 H :    0.171361
  10 H :    0.147744
  11 H :    0.147735
  12 H :    0.255374
  13 H :    0.165570
  14 H :    0.151072
  15 H :    0.151075
  16 H :    0.220902
Sum of atomic charges:   -0.0000000

LOEWDIN ATOMIC CHARGES
----------------------
   0 C :   -0.271503
   1 C :   -0.346689
   2 N :   -0.019262
   3 N :    0.244142
   4 C :   -0.257246
   5 N :    0.078296
   6 C :   -0.245273
   7 C :   -0.303345
   8 N :   -0.065517
   9 H :    0.143250
  10 H :    0.131851
  11 H :    0.131845
  12 H :    0.164968
  13 H :    0.143324
  14 H :    0.150409
  15 H :    0.150408
  16 H :    0.170341

  Mayer bond orders larger than 0.1
B(  0-C ,  1-C ) :   0.8899 B(  0-C ,  9-H ) :   0.9316 B(  0-C , 10-H ) :   0.9276
B(  0-C , 11-H ) :   0.9276 B(  1-C ,  2-N ) :   2.0204 B(  1-C ,  3-N ) :   0.9650
B(  2-N , 12-H ) :   0.8449 B(  3-N ,  4-C ) :   1.0275 B(  3-N ,  7-C ) :   1.0054
B(  4-C ,  5-N ) :   1.8523 B(  4-C , 13-H ) :   0.9147 B(  5-N ,  6-C ) :   0.9461
B(  6-C ,  7-C ) :   0.9532 B(  6-C , 14-H ) :   0.9067 B(  6-C , 15-H ) :   0.9067
B(  7-C ,  8-N ) :   1.8244 B(  8-N , 16-H ) :   0.8554

MP2 TOTAL ENERGY:     -413.505869829 Eh
FINAL SINGLE POINT ENERGY      -413.505869829452

DIPOLE MOMENT
-------------
                                X             Y             Z
Electronic contribution:     -1.15363      -2.65854      -0.00105
Nuclear contribution   :      0.29934       2.53786       0.00795
                        -----------------------------------------
Total Dipole Moment    :     -0.85430      -0.12068       0.00690
                        -----------------------------------------
Magnitude (a.u.)       :      0.86281
Magnitude (Debye)      :      2.19308

                             ****ORCA TERMINATED NORMALLY****
TOTAL RUN TIME: 0 days 0 hours 18 minutes 24 seconds 855 msec
