                         Program Version 3.0.3 - RELEASE   -
|  1> ! RI-MP2 RIJK def2-TZVP def2-TZVP/C def2-TZVP/JK TIGHTSCF
|  2> % maxcore 2000
|  3> % mp2 density relaxed end
|  4> *xyz 0 1
|  5>  C        0.0407600976     1.5825371089     0.0231641745
|  6>  C        0.0274779370     0.0535893023     0.0296896474
|  7>  O        0.7573672156    -0.4601700497     1.1441675015
|  8>  C       -1.3941852300    -0.5214203434    -0.0254094179
|  9>  C       -1.4286771622    -2.0491810072    -0.1200018363
| 10>  C       -2.8440132612    -2.6315612053    -0.0770145304
| 11>  C       -2.8826749869    -4.1534207574    -0.2700080096
| 12>  C       -4.2929622735    -4.7259280482    -0.1243108704
| 13>  O       -2.2997833814    -4.5383777692    -1.5153164905
| 14>  H        1.0670703968     1.9537702008     0.0892591505
| 15>  H       -0.4160854243     1.9808224006    -0.8887084311
| 16>  H       -0.5224048792     1.9802671968     0.8773689078
| 17>  H        0.5857267054    -0.3104608682    -0.8425607869
| 18>  H        0.3308913917    -0.1318249522     1.9439339890
| 19>  H       -1.9399188713    -0.1872815838     0.8712587658
| 20>  H       -1.9225757109    -0.0799764474    -0.8814003304
| 21>  H       -0.9423730669    -2.3737667285    -1.0472089647
| 22>  H       -0.8316887198    -2.4662599315     0.6992721585
| 23>  H       -3.3237195380    -2.3828743756     0.8794514919
| 24>  H       -3.4667088359    -2.1657081549    -0.8572179943
| 25>  H       -2.2311724258    -4.6176590744     0.4816710271
| 26>  H       -4.9749564679    -4.2711206977    -0.8544093590
| 27>  H       -4.2837954069    -5.8060822114    -0.2936575343
| 28>  H       -4.6999557713    -4.5328587891     0.8736527872
| 29>  H       -2.8620147509    -4.1898209245    -2.2165455353
| 30> *
| 31>
| 32>                          ****END OF INPUT****

CARTESIAN COORDINATES (ANGSTROEM)
---------------------------------
  C      0.040760    1.582537    0.023164
  C      0.027478    0.053589    0.029690
  O      0.757367   -0.460170    1.144168
  C     -1.394185   -0.521420   -0.025409
  C     -1.428677   -2.049181   -0.120002
  C     -2.844013   -2.631561   -0.077015
  C     -2.882675   -4.153421   -0.270008
  C     -4.292962   -4.725928   -0.124311
  O     -2.299783   -4.538378   -1.515316
  H      1.067070    1.953770    0.089259
  H     -0.416085    1.980822   -0.888708
  H     -0.522405    1.980267    0.877369
  H      0.585727   -0.310461   -0.842561
  H      0.330891   -0.131825    1.943934
  H     -1.939919   -0.187282    0.871259
  H     -1.922576   -0.079976   -0.881400
  H     -0.942373   -2.373767   -1.047209
  H     -0.831689   -2.466260    0.699272
  H     -3.323720   -2.382874    0.879451
  H     -3.466709   -2.165708   -0.857218
  H     -2.231172   -4.617659    0.481671
  H     -4.974956   -4.271121   -0.854409
  H     -4.283795   -5.806082   -0.293658
  H     -4.699956   -4.532859    0.873653
  H     -2.862015   -4.189821   -2.216546

 Total Charge           Charge          ....    0
 Multiplicity           Mult            ....    1
 Number of Electrons    NEL             ....   74
 Basis Dimension        Dim             ....  375

ORBITAL ENERGIES
----------------

  NO   OCC          E(Eh)            E(eV)
   0   2.0000     -20.548916      -559.1644
   1   2.0000     -20.548915      -559.1644
   2   2.0000     -11.276207      -306.8412
   3   2.0000     -11.276207      -306.8412
   4   2.0000     -11.219892      -305.3088
   5   2.0000     -11.219882      -305.3085
   6   2.0000     -11.216468      -305.2156
   7   2.0000     -11.216467      -305.2156
   8   2.0000     -11.211108      -305.0698
   9   2.0000      -1.355041       -36.8725
  10   2.0000      -1.354809       -36.8662
  11   2.0000      -1.079339       -29.3703
  12   2.0000      -1.036631       -28.2082
  13   2.0000      -0.992783       -27.0150
  14   2.0000      -0.928365       -25.2621
  15   2.0000      -0.842521       -22.9262
  16   2.0000      -0.805139       -21.9089
  17   2.0000      -0.796399       -21.6711
  18   2.0000      -0.659639       -17.9497
  19   2.0000      -0.659586       -17.9483
  20   2.0000      -0.646982       -17.6053
  21   2.0000      -0.635939       -17.3048
  22   2.0000      -0.607375       -16.5275
  23   2.0000      -0.606427       -16.5017
  24   2.0000      -0.581677       -15.8282
  25   2.0000      -0.569089       -15.4857
  26   2.0000      -0.549451       -14.9513
  27   2.0000      -0.531256       -14.4562
  28   2.0000      -0.524283       -14.2665
  29   2.0000      -0.512412       -13.9434
  30   2.0000      -0.500230       -13.6120
  31   2.0000      -0.489565       -13.3217
  32   2.0000      -0.468052       -12.7363
  33   2.0000      -0.464352       -12.6357
  34   2.0000      -0.454819       -12.3763
  35   2.0000      -0.444912       -12.1067
  36   2.0000      -0.416695       -11.3389
  37   0.0000       0.125921         3.4265
  38   0.0000       0.135957         3.6996
  39   0.0000       0.158705         4.3186
  40   0.0000       0.170167         4.6305
  41   0.0000       0.172185         4.6854

MULLIKEN ATOMIC CHARGES
-----------------------
   0 C :   -0.383789
   1 C :    0.130553
   2 O :   -0.473106
   3 C :   -0.295658
   4 C :   -0.166334
   5 C :   -0.295649
   6 C :    0.130550
   7 C :   -0.383793
   8 O :   -0.473105
   9 H :    0.147749
  10 H :    0.124366
  11 H :    0.111390
  12 H :    0.087127
  13 H :    0.307104
  14 H :    0.101686
  15 H :    0.108350
  16 H :    0.117393
  17 H :    0.117390
  18 H :    0.108350
  19 H :    0.101685
  20 H :    0.087127
  21 H :    0.111391
  22 H :    0.147750
  23 H :    0.124367
  24 H :    0.307104
Sum of atomic charges:    0.0000000

LOEWDIN ATOMIC CHARGES
----------------------
   0 C :   -0.307072
   1 C :   -0.373395
   2 O :   -0.026479
   3 C :   -0.263978
   4 C :   -0.267126
   5 C :   -0.263977
   6 C :   -0.373395
   7 C :   -0.307072
   8 O :   -0.026479
   9 H :    0.125742
  10 H :    0.125028
  11 H :    0.119724
  12 H :    0.144585
  13 H :    0.172327
  14 H :    0.134930
  15 H :    0.140602
  16 H :    0.141548
  17 H :    0.141547
  18 H :    0.140602
  19 H :    0.134930
  20 H :    0.144585
  21 H :    0.119724
  22 H :    0.125742
  23 H :    0.125028
  24 H :    0.172327

  Mayer bond orders larger than 0.1
B(  0-C ,  1-C ) :   0.9362 B(  0-C ,  9-H ) :   0.9448 B(  0-C , 10-H ) :   0.9351
B(  0-C , 11-H ) :   0.9204 B(  1-C ,  2-O ) :   0.8897 B(  1-C ,  3-C ) :   0.9449
B(  1-C , 12-H ) :   0.9240 B(  2-O , 13-H ) :   0.8455 B(  3-C ,  4-C ) :   0.9177
B(  3-C , 14-H ) :   0.9251 B(  3-C , 15-H ) :   0.9219 B(  4-C ,  5-C ) :   0.9177
B(  4-C , 16-H ) :   0.9276 B(  4-C , 17-H ) :   0.9276 B(  5-C ,  6-C ) :   0.9449
B(  5-C , 18-H ) :   0.9219 B(  5-C , 19-H ) :   0.9251 B(  6-C ,  7-C ) :   0.9362
B(  6-C ,  8-O ) :   0.8897 B(  6-C , 20-H ) :   0.9240 B(  7-C , 21-H ) :   0.9204
B(  7-C , 22-H ) :   0.9448 B(  7-C , 23-H ) :   0.9351 B(  8-O , 24-H ) :   0.8455

MP2 TOTAL ENERGY:     -425.937165564 Eh
FINAL SINGLE POINT ENERGY      -425.937165563812

DIPOLE MOMENT
-------------
                                X             Y             Z
Electronic contribution:      3.82625      -2.61951      -0.38130
Nuclear contribution   :     -4.82191       3.30114       0.48053
                        -----------------------------------------
Total Dipole Moment    :     -0.99566       0.68163       0.09923
                        -----------------------------------------
Magnitude (a.u.)       :      1.21070
Magnitude (Debye)      :      3.07737

                             ****ORCA TERMINATED NORMALLY****
TOTAL RUN TIME: 0 days 0 hours 19 minutes 22 seconds 4 msec
