                         Program Version 3.0.3 - RELEASE   -
|  1> ! RI-MP2 RIJK def2-TZVP def2-TZVP/C def2-TZVP/JK TIGHTSCF
|  2> % maxcore 2000
|  3> % mp2 density relaxed end
|  4> *xyz 0 1
|  5>  C        0.1761248563     1.5859171992     0.1110826517
|  6>  C        0.5442680057     0.1071626967     0.0596271823
|  7>  N        0.1511502974    -0.5704132172     1.3073310046
|  8>  C        0.4831686469    -1.9363690038     1.3944605898
|  9>  C       -0.2027010049    -3.0956820787     1.0976410469
| 10>  C        0.6458917045    -4.1913931469     1.4284777444
| 11>  C        1.8260632400    -3.6721754450     1.9041610410
| 12>  N        1.7161118292    -2.3026516156     1.8816115689
| 13>  H        0.6528497538     2.0751572946     0.9654318429
| 14>  H        0.4898599274     2.0947979160    -0.8050988466
| 15>  H       -0.9077043488     1.7194639235     0.2088501652
| 16>  H        0.0907612871    -0.3670632715    -0.8265805084
| 17>  H        1.6286567467    -0.0053798303    -0.0499572113
| 18>  H       -0.8434444955    -0.4490348428     1.4612795299
| 19>  H       -1.1980171611    -3.1468743460     0.6824258599
| 20>  H        0.4172668747    -5.2404968313     1.3187021972
| 21>  H        2.7261071986    -4.1526175783     2.2518492328
| 22>  H        2.3851214219    -1.6452943626     2.2432672487
| 23> *
| 24>
| 25>                          ****END OF INPUT****

CARTESIAN COORDINATES (ANGSTROEM)
---------------------------------
  C      0.176125    1.585917    0.111083
  C      0.544268    0.107163    0.059627
  N      0.151150   -0.570413    1.307331
  C      0.483169   -1.936369    1.394461
  C     -0.202701   -3.095682    1.097641
  C      0.645892   -4.191393    1.428478
  C      1.826063   -3.672175    1.904161
  N      1.716112   -2.302652    1.881612
  H      0.652850    2.075157    0.965432
  H      0.489860    2.094798   -0.805099
  H     -0.907704    1.719464    0.208850
  H      0.090761   -0.367063   -0.826581
  H      1.628657   -0.005380   -0.049957
  H     -0.843444   -0.449035    1.461280
  H     -1.198017   -3.146874    0.682426
  H      0.417267   -5.240497    1.318702
  H      2.726107   -4.152618    2.251849
  H      2.385121   -1.645294    2.243267

 Total Charge           Charge          ....    0
 Multiplicity           Mult            ....    1
 Number of Electrons    NEL             ....   60
 Basis Dimension        Dim             ....  308

ORBITAL ENERGIES
----------------

  NO   OCC          E(Eh)            E(eV)
   0   2.0000     -15.592555      -424.2950
   1   2.0000     -15.557595      -423.3437
   2   2.0000     -11.277555      -306.8779
   3   2.0000     -11.256507      -306.3051
   4   2.0000     -11.242033      -305.9113
   5   2.0000     -11.219750      -305.3049
   6   2.0000     -11.203196      -304.8545
   7   2.0000     -11.198384      -304.7235
   8   2.0000      -1.295204       -35.2443
   9   2.0000      -1.203168       -32.7399
  10   2.0000      -1.035876       -28.1876
  11   2.0000      -1.015322       -27.6283
  12   2.0000      -0.939913       -25.5763
  13   2.0000      -0.837949       -22.8018
  14   2.0000      -0.782458       -21.2918
  15   2.0000      -0.772133       -21.0108
  16   2.0000      -0.720995       -19.6193
  17   2.0000      -0.647842       -17.6287
  18   2.0000      -0.611210       -16.6319
  19   2.0000      -0.606595       -16.5063
  20   2.0000      -0.586218       -15.9518
  21   2.0000      -0.562513       -15.3068
  22   2.0000      -0.551156       -14.9977
  23   2.0000      -0.534338       -14.5401
  24   2.0000      -0.518410       -14.1066
  25   2.0000      -0.516170       -14.0457
  26   2.0000      -0.499933       -13.6039
  27   2.0000      -0.400050       -10.8859
  28   2.0000      -0.342716        -9.3258
  29   2.0000      -0.280277        -7.6267
  30   0.0000       0.130597         3.5537
  31   0.0000       0.150536         4.0963
  32   0.0000       0.169841         4.6216
  33   0.0000       0.181040         4.9263
  34   0.0000       0.184243         5.0135

MULLIKEN ATOMIC CHARGES
-----------------------
   0 C :   -0.373365
   1 C :   -0.099073
   2 N :   -0.337113
   3 C :    0.149260
   4 C :   -0.254748
   5 C :   -0.154246
   6 C :   -0.111896
   7 N :   -0.254381
   8 H :    0.129555
   9 H :    0.129691
  10 H :    0.118113
  11 H :    0.102383
  12 H :    0.109426
  13 H :    0.217579
  14 H :    0.120554
  15 H :    0.125629
  16 H :    0.140933
  17 H :    0.241697
Sum of atomic charges:    0.0000000

LOEWDIN ATOMIC CHARGES
----------------------
   0 C :   -0.323167
   1 C :   -0.321384
   2 N :    0.017585
   3 C :   -0.316032
   4 C :   -0.192417
   5 C :   -0.207207
   6 C :   -0.244527
   7 N :    0.197089
   8 H :    0.122496
   9 H :    0.123975
  10 H :    0.119323
  11 H :    0.118328
  12 H :    0.128350
  13 H :    0.182325
  14 H :    0.136747
  15 H :    0.136576
  16 H :    0.130350
  17 H :    0.191590

  Mayer bond orders larger than 0.1
B(  0-C ,  1-C ) :   0.9274 B(  0-C ,  8-H ) :   0.9352 B(  0-C ,  9-H ) :   0.9369
B(  0-C , 10-H ) :   0.9368 B(  1-C ,  2-N ) :   0.8816 B(  1-C , 11-H ) :   0.9186
B(  1-C , 12-H ) :   0.9363 B(  2-N ,  3-C ) :   1.1178 B(  2-N , 13-H ) :   0.8835
B(  3-C ,  4-C ) :   1.4826 B(  3-C ,  7-N ) :   1.1084 B(  4-C ,  5-C ) :   1.2456
B(  4-C , 14-H ) :   0.9444 B(  5-C ,  6-C ) :   1.4885 B(  5-C , 15-H ) :   0.9326
B(  6-C ,  7-N ) :   1.1235 B(  6-C , 16-H ) :   0.9190 B(  7-N , 17-H ) :   0.8670

MP2 TOTAL ENERGY:     -343.403414755 Eh
FINAL SINGLE POINT ENERGY      -343.403414754626

DIPOLE MOMENT
-------------
                                X             Y             Z
Electronic contribution:      1.36414      -6.56334       3.46763
Nuclear contribution   :     -1.13899       7.11813      -3.58179
                        -----------------------------------------
Total Dipole Moment    :      0.22515       0.55480      -0.11416
                        -----------------------------------------
Magnitude (a.u.)       :      0.60953
Magnitude (Debye)      :      1.54929

                             ****ORCA TERMINATED NORMALLY****
TOTAL RUN TIME: 0 days 0 hours 12 minutes 48 seconds 343 msec
