                         Program Version 3.0.3 - RELEASE   -
|  1> ! RI-MP2 RIJK def2-TZVP def2-TZVP/C def2-TZVP/JK TIGHTSCF
|  2> % maxcore 2000
|  3> % mp2 density relaxed end
|  4> *xyz 0 1
|  5>  C       -0.4531269118     1.4419528792    -0.1661092889
|  6>  N       -0.1529435695     0.0497914004     0.1105735151
|  7>  C       -1.1578288030    -0.7762423319     0.8076953397
|  8>  C       -0.0155404289    -1.5129379333     1.5448004512
|  9>  C        0.9121527395    -0.3596803999     1.0759931568
| 10>  C        2.2351142580    -0.7056400829     0.4041575507
| 11>  O        3.2146746125    -1.0936411954     1.3573227895
| 12>  C        1.1440415461     0.6855504431     2.1665350003
| 13>  O        0.5353908415     0.7375317672     3.2055487102
| 14>  H        0.4290106397     1.9434752783    -0.5780621361
| 15>  H       -1.2419207614     1.4873678925    -0.9248516645
| 16>  H       -0.7995468321     2.0117307006     0.7136411578
| 17>  H       -1.7916002656    -0.2026070387     1.4998260666
| 18>  H       -1.7995293771    -1.3586904283     0.1378314093
| 19>  H       -0.1278016757    -1.6093374605     2.6234628666
| 20>  H        0.2450239209    -2.4747201469     1.0972556407
| 21>  H        2.0667229688    -1.4701568414    -0.3663862513
| 22>  H        2.6408501629     0.1808756253    -0.0980053940
| 23>  H        2.9176701174    -1.9100838441     1.7728732856
| 24>  H        1.9001294078     1.4611399967     1.9083241648
| 25> *
| 26>
| 27>                          ****END OF INPUT****

CARTESIAN COORDINATES (ANGSTROEM)
---------------------------------
  C     -0.453127    1.441953   -0.166109
  N     -0.152944    0.049791    0.110574
  C     -1.157829   -0.776242    0.807695
  C     -0.015540   -1.512938    1.544800
  C      0.912153   -0.359680    1.075993
  C      2.235114   -0.705640    0.404158
  O      3.214675   -1.093641    1.357323
  C      1.144042    0.685550    2.166535
  O      0.535391    0.737532    3.205549
  H      0.429011    1.943475   -0.578062
  H     -1.241921    1.487368   -0.924852
  H     -0.799547    2.011731    0.713641
  H     -1.791600   -0.202607    1.499826
  H     -1.799529   -1.358690    0.137831
  H     -0.127802   -1.609337    2.623463
  H      0.245024   -2.474720    1.097256
  H      2.066723   -1.470157   -0.366386
  H      2.640850    0.180876   -0.098005
  H      2.917670   -1.910084    1.772873
  H      1.900129    1.461140    1.908324

 Total Charge           Charge          ....    0
 Multiplicity           Mult            ....    1
 Number of Electrons    NEL             ....   70
 Basis Dimension        Dim             ....  345

ORBITAL ENERGIES
----------------

  NO   OCC          E(Eh)            E(eV)
   0   2.0000     -20.570978      -559.7648
   1   2.0000     -20.561814      -559.5154
   2   2.0000     -15.562427      -423.4752
   3   2.0000     -11.332414      -308.3707
   4   2.0000     -11.286623      -307.1246
   5   2.0000     -11.278582      -306.9058
   6   2.0000     -11.259160      -306.3773
   7   2.0000     -11.254634      -306.2542
   8   2.0000     -11.235234      -305.7263
   9   2.0000      -1.401093       -38.1257
  10   2.0000      -1.375022       -37.4163
  11   2.0000      -1.260917       -34.3113
  12   2.0000      -1.048960       -28.5437
  13   2.0000      -1.004353       -27.3298
  14   2.0000      -0.895531       -24.3686
  15   2.0000      -0.888892       -24.1880
  16   2.0000      -0.839862       -22.8538
  17   2.0000      -0.735347       -20.0098
  18   2.0000      -0.716218       -19.4893
  19   2.0000      -0.675587       -18.3836
  20   2.0000      -0.672712       -18.3054
  21   2.0000      -0.654620       -17.8131
  22   2.0000      -0.632483       -17.2107
  23   2.0000      -0.600705       -16.3460
  24   2.0000      -0.593216       -16.1422
  25   2.0000      -0.585030       -15.9195
  26   2.0000      -0.549820       -14.9614
  27   2.0000      -0.533791       -14.5252
  28   2.0000      -0.517654       -14.0861
  29   2.0000      -0.501657       -13.6508
  30   2.0000      -0.487400       -13.2628
  31   2.0000      -0.485058       -13.1991
  32   2.0000      -0.447534       -12.1780
  33   2.0000      -0.428647       -11.6641
  34   2.0000      -0.362583        -9.8664
  35   0.0000       0.116936         3.1820
  36   0.0000       0.132777         3.6131
  37   0.0000       0.147787         4.0215
  38   0.0000       0.162130         4.4118
  39   0.0000       0.173679         4.7261

MULLIKEN ATOMIC CHARGES
-----------------------
   0 C :   -0.347578
   1 N :   -0.147473
   2 C :   -0.185694
   3 C :   -0.226290
   4 C :    0.040829
   5 C :   -0.034935
   6 O :   -0.466248
   7 C :    0.094962
   8 O :   -0.262837
   9 H :    0.137776
  10 H :    0.145265
  11 H :    0.125543
  12 H :    0.113243
  13 H :    0.112643
  14 H :    0.147444
  15 H :    0.117231
  16 H :    0.119837
  17 H :    0.113089
  18 H :    0.320679
  19 H :    0.082514
Sum of atomic charges:   -0.0000000

LOEWDIN ATOMIC CHARGES
----------------------
   0 C :   -0.335082
   1 N :    0.114819
   2 C :   -0.243868
   3 C :   -0.197253
   4 C :   -0.307709
   5 C :   -0.307947
   6 O :   -0.035334
   7 C :   -0.251439
   8 O :    0.143381
   9 H :    0.119574
  10 H :    0.122005
  11 H :    0.106441
  12 H :    0.124834
  13 H :    0.119250
  14 H :    0.137216
  15 H :    0.134220
  16 H :    0.124821
  17 H :    0.134781
  18 H :    0.177908
  19 H :    0.119382

  Mayer bond orders larger than 0.1
B(  0-C ,  1-N ) :   0.9063 B(  0-C ,  9-H ) :   0.9340 B(  0-C , 10-H ) :   0.9334
B(  0-C , 11-H ) :   0.9236 B(  1-N ,  2-C ) :   0.9511 B(  1-N ,  4-C ) :   0.9184
B(  2-C ,  3-C ) :   0.9618 B(  2-C , 12-H ) :   0.9212 B(  2-C , 13-H ) :   0.9140
B(  3-C ,  4-C ) :   0.8935 B(  3-C , 14-H ) :   0.9094 B(  3-C , 15-H ) :   0.9177
B(  4-C ,  5-C ) :   0.9330 B(  4-C ,  7-C ) :   0.8632 B(  5-C ,  6-O ) :   0.9043
B(  5-C , 16-H ) :   0.9337 B(  5-C , 17-H ) :   0.9163 B(  6-O , 18-H ) :   0.8437
B(  7-C ,  8-O ) :   1.9688 B(  7-C , 19-H ) :   0.9304

MP2 TOTAL ENERGY:     -439.539111839 Eh
FINAL SINGLE POINT ENERGY      -439.539111839488

DIPOLE MOMENT
-------------
                                X             Y             Z
Electronic contribution:      3.01116      -0.27537       4.17776
Nuclear contribution   :     -3.34403      -0.08673      -4.85044
                        -----------------------------------------
Total Dipole Moment    :     -0.33287      -0.36210      -0.67268
                        -----------------------------------------
Magnitude (a.u.)       :      0.83332
Magnitude (Debye)      :      2.11812

                             ****ORCA TERMINATED NORMALLY****
TOTAL RUN TIME: 0 days 0 hours 20 minutes 21 seconds 367 msec
