                         Program Version 3.0.3 - RELEASE   -
|  1> ! RI-MP2 RIJK def2-TZVP def2-TZVP/C def2-TZVP/JK TIGHTSCF
|  2> % maxcore 2000
|  3> % mp2 density relaxed end
|  4> *xyz 0 1
|  5>  O       -0.0458595430     1.2481502978     0.2067889527
|  6>  C        0.0648406447    -0.1633867208     0.0250058762
|  7>  C        0.8462263891    -0.4562569690    -1.2778770944
|  8>  C        2.1714149405     0.1536176567    -1.2707718842
|  9>  C        3.2446072206     0.6951546183    -1.2179422851
| 10>  C        0.6728680925    -0.8149747438     1.2849142231
| 11>  C       -0.4942051911    -0.7909112549     2.2807023543
| 12>  C       -1.7040455415    -1.2124321625     1.4201101608
| 13>  C       -1.3845437103    -0.7050280240    -0.0135417892
| 14>  H        0.8511941004     1.6058578117     0.2035797927
| 15>  H        0.9314507579    -1.5400294022    -1.4219124225
| 16>  H        0.2701694504    -0.0631228374    -2.1244246309
| 17>  H        4.2030343026     1.1520291653    -1.1961479982
| 18>  H        0.9627272559    -1.8507331330     1.0635561202
| 19>  H        1.5679500598    -0.2884072820     1.6278614127
| 20>  H       -0.3388047403    -1.4398366278     3.1467466463
| 21>  H       -0.6305744497     0.2313177720     2.6465346223
| 22>  H       -1.7985983866    -2.3037184147     1.4192806969
| 23>  H       -2.6473648173    -0.8144085325     1.8024653145
| 24>  H       -2.0454694766     0.1045622790    -0.3308381465
| 25>  H       -1.4771880879    -1.5106432561    -0.7480906816
| 26> *
| 27>
| 28>                          ****END OF INPUT****

CARTESIAN COORDINATES (ANGSTROEM)
---------------------------------
  O     -0.045860    1.248150    0.206789
  C      0.064841   -0.163387    0.025006
  C      0.846226   -0.456257   -1.277877
  C      2.171415    0.153618   -1.270772
  C      3.244607    0.695155   -1.217942
  C      0.672868   -0.814975    1.284914
  C     -0.494205   -0.790911    2.280702
  C     -1.704046   -1.212432    1.420110
  C     -1.384544   -0.705028   -0.013542
  H      0.851194    1.605858    0.203580
  H      0.931451   -1.540029   -1.421912
  H      0.270169   -0.063123   -2.124425
  H      4.203034    1.152029   -1.196148
  H      0.962727   -1.850733    1.063556
  H      1.567950   -0.288407    1.627861
  H     -0.338805   -1.439837    3.146747
  H     -0.630574    0.231318    2.646535
  H     -1.798598   -2.303718    1.419281
  H     -2.647365   -0.814409    1.802465
  H     -2.045469    0.104562   -0.330838
  H     -1.477188   -1.510643   -0.748091

 Total Charge           Charge          ....    0
 Multiplicity           Mult            ....    1
 Number of Electrons    NEL             ....   68
 Basis Dimension        Dim             ....  351

ORBITAL ENERGIES
----------------

  NO   OCC          E(Eh)            E(eV)
   0   2.0000     -20.549438      -559.1786
   1   2.0000     -11.289407      -307.2004
   2   2.0000     -11.253439      -306.2217
   3   2.0000     -11.241267      -305.8904
   4   2.0000     -11.228165      -305.5339
   5   2.0000     -11.217609      -305.2467
   6   2.0000     -11.217426      -305.2417
   7   2.0000     -11.217006      -305.2302
   8   2.0000     -11.214029      -305.1492
   9   2.0000      -1.361273       -37.0421
  10   2.0000      -1.116568       -30.3834
  11   2.0000      -1.068279       -29.0693
  12   2.0000      -0.991551       -26.9815
  13   2.0000      -0.965718       -26.2785
  14   2.0000      -0.911575       -24.8052
  15   2.0000      -0.790734       -21.5170
  16   2.0000      -0.762514       -20.7491
  17   2.0000      -0.727235       -19.7891
  18   2.0000      -0.673753       -18.3338
  19   2.0000      -0.655972       -17.8499
  20   2.0000      -0.651457       -17.7271
  21   2.0000      -0.621924       -16.9234
  22   2.0000      -0.604137       -16.4394
  23   2.0000      -0.585412       -15.9299
  24   2.0000      -0.538660       -14.6577
  25   2.0000      -0.520144       -14.1538
  26   2.0000      -0.501228       -13.6391
  27   2.0000      -0.478671       -13.0253
  28   2.0000      -0.470962       -12.8155
  29   2.0000      -0.467620       -12.7246
  30   2.0000      -0.455459       -12.3937
  31   2.0000      -0.434137       -11.8135
  32   2.0000      -0.394274       -10.7287
  33   2.0000      -0.388719       -10.5776
  34   0.0000       0.127223         3.4619
  35   0.0000       0.154686         4.2092
  36   0.0000       0.157409         4.2833
  37   0.0000       0.167354         4.5539
  38   0.0000       0.173954         4.7335

MULLIKEN ATOMIC CHARGES
-----------------------
   0 O :   -0.472948
   1 C :    0.226958
   2 C :   -0.344481
   3 C :   -0.062452
   4 C :   -0.150981
   5 C :   -0.282370
   6 C :   -0.164431
   7 C :   -0.229443
   8 C :   -0.263605
   9 H :    0.320981
  10 H :    0.143907
  11 H :    0.149211
  12 H :    0.191002
  13 H :    0.103353
  14 H :    0.126250
  15 H :    0.122577
  16 H :    0.109333
  17 H :    0.109207
  18 H :    0.119364
  19 H :    0.130138
  20 H :    0.118430
Sum of atomic charges:   -0.0000000

LOEWDIN ATOMIC CHARGES
----------------------
   0 O :    0.013861
   1 C :   -0.358802
   2 C :   -0.219388
   3 C :   -0.116753
   4 C :   -0.109262
   5 C :   -0.223325
   6 C :   -0.258286
   7 C :   -0.250460
   8 C :   -0.207031
   9 H :    0.178976
  10 H :    0.160288
  11 H :    0.163909
  12 H :    0.127278
  13 H :    0.142480
  14 H :    0.137680
  15 H :    0.130445
  16 H :    0.139994
  17 H :    0.133274
  18 H :    0.132835
  19 H :    0.144430
  20 H :    0.137856

  Mayer bond orders larger than 0.1
B(  0-O ,  1-C ) :   0.9717 B(  0-O ,  9-H ) :   0.8312 B(  1-C ,  2-C ) :   0.8886
B(  1-C ,  5-C ) :   0.9666 B(  1-C ,  8-C ) :   0.8582 B(  2-C ,  3-C ) :   1.0682
B(  2-C , 10-H ) :   0.9249 B(  2-C , 11-H ) :   0.9201 B(  3-C ,  4-C ) :   2.5988
B(  4-C , 12-H ) :   0.9041 B(  5-C ,  6-C ) :   0.9253 B(  5-C , 13-H ) :   0.9220
B(  5-C , 14-H ) :   0.9147 B(  6-C ,  7-C ) :   0.9481 B(  6-C , 15-H ) :   0.9340
B(  6-C , 16-H ) :   0.9213 B(  7-C ,  8-C ) :   0.9515 B(  7-C , 17-H ) :   0.9348
B(  7-C , 18-H ) :   0.9287 B(  8-C , 19-H ) :   0.9218 B(  8-C , 20-H ) :   0.9298

MP2 TOTAL ENERGY:     -386.401932834 Eh
FINAL SINGLE POINT ENERGY      -386.401932834371

DIPOLE MOMENT
-------------
                                X             Y             Z
Electronic contribution:      4.07903       3.50268      -3.51511
Nuclear contribution   :     -3.78812      -3.88975       3.51605
                        -----------------------------------------
Total Dipole Moment    :      0.29092      -0.38707       0.00094
                        -----------------------------------------
Magnitude (a.u.)       :      0.48421
Magnitude (Debye)      :      1.23076

                             ****ORCA TERMINATED NORMALLY****
TOTAL RUN TIME: 0 days 0 hours 20 minutes 59 seconds 710 msec
