                         Program Version 3.0.3 - RELEASE   -
|  1> ! RI-MP2 RIJK def2-TZVP def2-TZVP/C def2-TZVP/JK TIGHTSCF
|  2> % maxcore 2000
|  3> % mp2 density relaxed end
|  4> *xyz 0 1
|  5>  C       -0.2710814646     1.5503700302    -0.1905195510
|  6>  C       -0.1199150007     0.0316250564    -0.0142302504
|  7>  C        0.6278440102    -0.5758516298    -1.2148100527
|  8>  C        0.6010690952    -2.1121483659    -1.2257969086
|  9>  C        1.5437387855    -2.6927019028    -2.2486962367
| 10>  O        1.2437873288    -3.4824636637    -3.1074699315
| 11>  N        0.5397182164    -0.4368356739     1.2147639599
| 12>  C        1.4613843070     0.4150958163     1.9563838041
| 13>  C        0.1247965311     0.0595276142     2.5142239582
| 14>  H        0.6936648150     2.0355043568    -0.3712719808
| 15>  H       -0.9090577021     1.7570729444    -1.0549778097
| 16>  H       -0.7371926707     2.0265817439     0.6775184468
| 17>  H       -1.1265087331    -0.4070492150     0.0174264447
| 18>  H        0.1909707791    -0.1888251444    -2.1426494707
| 19>  H        1.6680512853    -0.2228248427    -1.1876445868
| 20>  H        0.9225046058    -2.4560666947    -0.2332247861
| 21>  H       -0.4049390750    -2.4988335226    -1.4149420329
| 22>  H        2.5949054664    -2.3258745776    -2.1553812502
| 23>  H        2.3615057556    -0.0726261725     2.3208804442
| 24>  H        1.6023488294     1.4461901264     1.6421895693
| 25>  H       -0.6155695936     0.8561219675     2.5628979549
| 26>  H        0.0292413991    -0.6903424704     3.2954132461
| 27> *
| 28>
| 29>                          ****END OF INPUT****

CARTESIAN COORDINATES (ANGSTROEM)
---------------------------------
  C     -0.271081    1.550370   -0.190520
  C     -0.119915    0.031625   -0.014230
  C      0.627844   -0.575852   -1.214810
  C      0.601069   -2.112148   -1.225797
  C      1.543739   -2.692702   -2.248696
  O      1.243787   -3.482464   -3.107470
  N      0.539718   -0.436836    1.214764
  C      1.461384    0.415096    1.956384
  C      0.124797    0.059528    2.514224
  H      0.693665    2.035504   -0.371272
  H     -0.909058    1.757073   -1.054978
  H     -0.737193    2.026582    0.677518
  H     -1.126509   -0.407049    0.017426
  H      0.190971   -0.188825   -2.142649
  H      1.668051   -0.222825   -1.187645
  H      0.922505   -2.456067   -0.233225
  H     -0.404939   -2.498834   -1.414942
  H      2.594905   -2.325875   -2.155381
  H      2.361506   -0.072626    2.320880
  H      1.602349    1.446190    1.642190
  H     -0.615570    0.856122    2.562898
  H      0.029241   -0.690342    3.295413

 Total Charge           Charge          ....    0
 Multiplicity           Mult            ....    1
 Number of Electrons    NEL             ....   70
 Basis Dimension        Dim             ....  357

ORBITAL ENERGIES
----------------

  NO   OCC          E(Eh)            E(eV)
   0   2.0000     -20.548135      -559.1432
   1   2.0000     -15.563468      -423.5035
   2   2.0000     -11.323268      -308.1218
   3   2.0000     -11.269786      -306.6665
   4   2.0000     -11.260420      -306.4116
   5   2.0000     -11.259439      -306.3849
   6   2.0000     -11.235432      -305.7316
   7   2.0000     -11.229149      -305.5607
   8   2.0000     -11.226735      -305.4950
   9   2.0000      -1.386754       -37.7355
  10   2.0000      -1.278987       -34.8030
  11   2.0000      -1.095690       -29.8152
  12   2.0000      -1.021212       -27.7886
  13   2.0000      -0.930230       -25.3128
  14   2.0000      -0.885052       -24.0835
  15   2.0000      -0.849401       -23.1134
  16   2.0000      -0.784604       -21.3502
  17   2.0000      -0.772255       -21.0141
  18   2.0000      -0.693388       -18.8680
  19   2.0000      -0.673539       -18.3279
  20   2.0000      -0.651388       -17.7252
  21   2.0000      -0.625593       -17.0233
  22   2.0000      -0.622100       -16.9282
  23   2.0000      -0.585566       -15.9340
  24   2.0000      -0.563093       -15.3225
  25   2.0000      -0.546914       -14.8823
  26   2.0000      -0.541347       -14.7308
  27   2.0000      -0.526336       -14.3223
  28   2.0000      -0.519927       -14.1479
  29   2.0000      -0.497747       -13.5444
  30   2.0000      -0.483242       -13.1497
  31   2.0000      -0.459083       -12.4923
  32   2.0000      -0.449486       -12.2311
  33   2.0000      -0.409781       -11.1507
  34   2.0000      -0.378393       -10.2966
  35   0.0000       0.131648         3.5823
  36   0.0000       0.142654         3.8818
  37   0.0000       0.148260         4.0344
  38   0.0000       0.154314         4.1991
  39   0.0000       0.166555         4.5322

MULLIKEN ATOMIC CHARGES
-----------------------
   0 C :   -0.417962
   1 C :    0.040043
   2 C :   -0.295650
   3 C :   -0.130472
   4 C :    0.089769
   5 O :   -0.269365
   6 N :   -0.218171
   7 C :   -0.192111
   8 C :   -0.188761
   9 H :    0.130912
  10 H :    0.141735
  11 H :    0.139533
  12 H :    0.096942
  13 H :    0.128596
  14 H :    0.115357
  15 H :    0.142396
  16 H :    0.112915
  17 H :    0.064730
  18 H :    0.131097
  19 H :    0.126988
  20 H :    0.119823
  21 H :    0.131655
Sum of atomic charges:    0.0000000

LOEWDIN ATOMIC CHARGES
----------------------
   0 C :   -0.300603
   1 C :   -0.312475
   2 C :   -0.239328
   3 C :   -0.263079
   4 C :   -0.300653
   5 O :    0.124575
   6 N :    0.114746
   7 C :   -0.267354
   8 C :   -0.269687
   9 H :    0.123905
  10 H :    0.129642
  11 H :    0.122870
  12 H :    0.152119
  13 H :    0.142938
  14 H :    0.141884
  15 H :    0.158091
  16 H :    0.143428
  17 H :    0.107564
  18 H :    0.123267
  19 H :    0.123598
  20 H :    0.120902
  21 H :    0.123651

  Mayer bond orders larger than 0.1
B(  0-C ,  1-C ) :   0.8931 B(  0-C ,  9-H ) :   0.9300 B(  0-C , 10-H ) :   0.9321
B(  0-C , 11-H ) :   0.9431 B(  1-C ,  2-C ) :   0.9170 B(  1-C ,  6-N ) :   0.8948
B(  1-C , 12-H ) :   0.9323 B(  2-C ,  3-C ) :   0.9092 B(  2-C , 13-H ) :   0.9293
B(  2-C , 14-H ) :   0.9231 B(  3-C ,  4-C ) :   0.8794 B(  3-C , 15-H ) :   0.9076
B(  3-C , 16-H ) :   0.8995 B(  4-C ,  5-O ) :   2.0041 B(  4-C , 17-H ) :   0.9415
B(  6-N ,  7-C ) :   0.8862 B(  6-N ,  8-C ) :   0.8941 B(  7-C ,  8-C ) :   0.9357
B(  7-C , 18-H ) :   0.9287 B(  7-C , 19-H ) :   0.9232 B(  8-C , 20-H ) :   0.9256
B(  8-C , 21-H ) :   0.9276

MP2 TOTAL ENERGY:     -403.629230755 Eh
FINAL SINGLE POINT ENERGY      -403.629230755171

DIPOLE MOMENT
-------------
                                X             Y             Z
Electronic contribution:      1.81326      -7.81489      -4.28684
Nuclear contribution   :     -1.91853       9.09697       5.23617
                        -----------------------------------------
Total Dipole Moment    :     -0.10527       1.28207       0.94932
                        -----------------------------------------
Magnitude (a.u.)       :      1.59875
Magnitude (Debye)      :      4.06370

                             ****ORCA TERMINATED NORMALLY****
TOTAL RUN TIME: 0 days 0 hours 20 minutes 1 seconds 14 msec
