                         Program Version 3.0.3 - RELEASE   -
|  1> ! RI-MP2 RIJK def2-TZVP def2-TZVP/C def2-TZVP/JK TIGHTSCF
|  2> % maxcore 2000
|  3> % mp2 density relaxed end
|  4> *xyz 0 1
|  5>  C        0.0559060830     1.3633266813     0.2422566174
|  6>  N       -0.0801211504    -0.0764948006     0.0389293343
|  7>  C       -1.4509990531    -0.5264783837    -0.1776057563
|  8>  C       -1.4762848797    -2.0109680617    -0.5618828974
|  9>  O       -1.5045773322    -2.7796306598     0.6611054120
| 10>  C       -1.8782608250    -2.0233238320     1.7194987758
| 11>  O       -2.0329023582    -2.4437152360     2.8248947719
| 12>  C       -2.0712050681    -0.5738694545     1.2194543900
| 13>  O       -2.5750527701     0.3093336195     1.8522792487
| 14>  H        1.1122784275     1.6047062276     0.3834533358
| 15>  H       -0.3353313040     1.9628804413    -0.5969997001
| 16>  H       -0.4844402112     1.6620863689     1.1442060817
| 17>  H        0.5080501044    -0.3847317266    -0.7271908497
| 18>  H       -2.0338050547     0.0973751337    -0.8730029434
| 19>  H       -2.3678749268    -2.2588953550    -1.1459916520
| 20>  H       -0.5897724413    -2.3216414924    -1.1205243388
| 21> *
| 22>
| 23>                          ****END OF INPUT****

CARTESIAN COORDINATES (ANGSTROEM)
---------------------------------
  C      0.055906    1.363327    0.242257
  N     -0.080121   -0.076495    0.038929
  C     -1.450999   -0.526478   -0.177606
  C     -1.476285   -2.010968   -0.561883
  O     -1.504577   -2.779631    0.661105
  C     -1.878261   -2.023324    1.719499
  O     -2.032902   -2.443715    2.824895
  C     -2.071205   -0.573869    1.219454
  O     -2.575053    0.309334    1.852279
  H      1.112278    1.604706    0.383453
  H     -0.335331    1.962880   -0.597000
  H     -0.484440    1.662086    1.144206
  H      0.508050   -0.384732   -0.727191
  H     -2.033805    0.097375   -0.873003
  H     -2.367875   -2.258895   -1.145992
  H     -0.589772   -2.321641   -1.120524

 Total Charge           Charge          ....    0
 Multiplicity           Mult            ....    1
 Number of Electrons    NEL             ....   68
 Basis Dimension        Dim             ....  321

ORBITAL ENERGIES
----------------

  NO   OCC          E(Eh)            E(eV)
   0   2.0000     -20.624504      -561.2213
   1   2.0000     -20.594194      -560.3965
   2   2.0000     -20.564403      -559.5859
   3   2.0000     -15.584294      -424.0702
   4   2.0000     -11.395986      -310.1005
   5   2.0000     -11.365921      -309.2824
   6   2.0000     -11.327737      -308.2434
   7   2.0000     -11.305966      -307.6510
   8   2.0000     -11.264415      -306.5203
   9   2.0000      -1.482436       -40.3391
  10   2.0000      -1.430403       -38.9232
  11   2.0000      -1.388292       -37.7774
  12   2.0000      -1.247418       -33.9440
  13   2.0000      -1.065182       -28.9851
  14   2.0000      -0.984248       -26.7827
  15   2.0000      -0.921865       -25.0852
  16   2.0000      -0.852619       -23.2010
  17   2.0000      -0.781693       -21.2709
  18   2.0000      -0.722855       -19.6699
  19   2.0000      -0.709414       -19.3041
  20   2.0000      -0.690169       -18.7804
  21   2.0000      -0.684141       -18.6164
  22   2.0000      -0.651532       -17.7291
  23   2.0000      -0.626501       -17.0480
  24   2.0000      -0.605496       -16.4764
  25   2.0000      -0.602510       -16.3951
  26   2.0000      -0.589166       -16.0320
  27   2.0000      -0.558514       -15.1979
  28   2.0000      -0.545619       -14.8471
  29   2.0000      -0.525592       -14.3021
  30   2.0000      -0.508822       -13.8458
  31   2.0000      -0.473403       -12.8819
  32   2.0000      -0.432741       -11.7755
  33   2.0000      -0.402084       -10.9413
  34   0.0000       0.063526         1.7286
  35   0.0000       0.116943         3.1822
  36   0.0000       0.146468         3.9856
  37   0.0000       0.150762         4.1024
  38   0.0000       0.181434         4.9371

MULLIKEN ATOMIC CHARGES
-----------------------
   0 C :   -0.308142
   1 N :   -0.405802
   2 C :    0.093862
   3 C :   -0.061280
   4 O :   -0.209137
   5 C :    0.236947
   6 O :   -0.247951
   7 C :    0.118078
   8 O :   -0.225510
   9 H :    0.143983
  10 H :    0.115326
  11 H :    0.159706
  12 H :    0.210405
  13 H :    0.126643
  14 H :    0.129601
  15 H :    0.123272
Sum of atomic charges:    0.0000000

LOEWDIN ATOMIC CHARGES
----------------------
   0 C :   -0.335995
   1 N :   -0.013453
   2 C :   -0.283240
   3 C :   -0.233048
   4 O :    0.265071
   5 C :   -0.445581
   6 O :    0.176322
   7 C :   -0.269833
   8 O :    0.210679
   9 H :    0.119764
  10 H :    0.103797
  11 H :    0.124517
  12 H :    0.172040
  13 H :    0.143240
  14 H :    0.132932
  15 H :    0.132787

  Mayer bond orders larger than 0.1
B(  0-C ,  1-N ) :   0.9107 B(  0-C ,  9-H ) :   0.9339 B(  0-C , 10-H ) :   0.9340
B(  0-C , 11-H ) :   0.9311 B(  1-N ,  2-C ) :   0.8621 B(  1-N , 12-H ) :   0.8756
B(  2-C ,  3-C ) :   0.9153 B(  2-C ,  7-C ) :   0.8112 B(  2-C , 13-H ) :   0.9050
B(  3-C ,  4-O ) :   0.8728 B(  3-C , 14-H ) :   0.9216 B(  3-C , 15-H ) :   0.9311
B(  4-O ,  5-C ) :   1.1121 B(  5-C ,  6-O ) :   2.0307 B(  5-C ,  7-C ) :   0.8889
B(  7-C ,  8-O ) :   1.9944

MP2 TOTAL ENERGY:     -474.295627833 Eh
FINAL SINGLE POINT ENERGY      -474.295627833310

DIPOLE MOMENT
-------------
                                X             Y             Z
Electronic contribution:     -4.88803      -6.05660       6.21471
Nuclear contribution   :      5.46196       6.65323      -8.43176
                        -----------------------------------------
Total Dipole Moment    :      0.57392       0.59663      -2.21705
                        -----------------------------------------
Magnitude (a.u.)       :      2.36657
Magnitude (Debye)      :      6.01534

                             ****ORCA TERMINATED NORMALLY****
TOTAL RUN TIME: 0 days 0 hours 27 minutes 19 seconds 518 msec
