                         Program Version 3.0.3 - RELEASE   -
|  1> ! RI-MP2 RIJK def2-TZVP def2-TZVP/C def2-TZVP/JK TIGHTSCF
|  2> % maxcore 2000
|  3> % mp2 density relaxed end
|  4> *xyz 0 1
|  5>  O       -0.1933367882     1.3255813563    -0.1631317550
|  6>  C       -0.0257551256    -0.0592170683     0.0448604020
|  7>  C       -0.5463009697    -0.6287299719     1.3507184075
|  8>  C       -1.3306863509    -0.8100839781     0.0605988214
|  9>  O       -2.4988301505    -0.0649890830    -0.1058579312
| 10>  C       -1.4176638512    -2.1799086842    -0.5792699949
| 11>  C       -0.0741973013    -2.8108336186    -0.8246582721
| 12>  C        1.0789888031    -2.1427915480    -0.8426971357
| 13>  C        1.1983023108    -0.6586510446    -0.6182269139
| 14>  H        0.2834141741     1.7994915994     0.5262105655
| 15>  H       -0.0283917818    -1.4790620743     1.7826671076
| 16>  H       -0.9663993207     0.0758634616     2.0612656938
| 17>  H       -2.2132366306     0.8544262608    -0.2035245259
| 18>  H       -2.0426562113    -2.8398831945     0.0369674954
| 19>  H       -1.9548047557    -2.0674889792    -1.5312170037
| 20>  H       -0.0723336179    -3.8807720601    -1.0169160395
| 21>  H        2.0037302566    -2.6754705994    -1.0489031470
| 22>  H        1.3416295953    -0.1477781761    -1.5809109604
| 23>  H        2.0986948356    -0.4372856377    -0.0261535239
| 24> *
| 25>
| 26>                          ****END OF INPUT****

CARTESIAN COORDINATES (ANGSTROEM)
---------------------------------
  O     -0.193337    1.325581   -0.163132
  C     -0.025755   -0.059217    0.044860
  C     -0.546301   -0.628730    1.350718
  C     -1.330686   -0.810084    0.060599
  O     -2.498830   -0.064989   -0.105858
  C     -1.417664   -2.179909   -0.579270
  C     -0.074197   -2.810834   -0.824658
  C      1.078989   -2.142792   -0.842697
  C      1.198302   -0.658651   -0.618227
  H      0.283414    1.799492    0.526211
  H     -0.028392   -1.479062    1.782667
  H     -0.966399    0.075863    2.061266
  H     -2.213237    0.854426   -0.203525
  H     -2.042656   -2.839883    0.036967
  H     -1.954805   -2.067489   -1.531217
  H     -0.072334   -3.880772   -1.016916
  H      2.003730   -2.675471   -1.048903
  H      1.341630   -0.147778   -1.580911
  H      2.098695   -0.437286   -0.026154

 Total Charge           Charge          ....    0
 Multiplicity           Mult            ....    1
 Number of Electrons    NEL             ....   68
 Basis Dimension        Dim             ....  339

ORBITAL ENERGIES
----------------

  NO   OCC          E(Eh)            E(eV)
   0   2.0000     -20.578024      -559.9565
   1   2.0000     -20.550327      -559.2028
   2   2.0000     -11.291039      -307.2448
   3   2.0000     -11.286092      -307.1102
   4   2.0000     -11.234821      -305.7150
   5   2.0000     -11.231016      -305.6115
   6   2.0000     -11.229312      -305.5651
   7   2.0000     -11.227531      -305.5166
   8   2.0000     -11.221307      -305.3473
   9   2.0000      -1.396599       -38.0034
  10   2.0000      -1.355857       -36.8947
  11   2.0000      -1.147618       -31.2283
  12   2.0000      -1.062123       -28.9018
  13   2.0000      -1.009112       -27.4593
  14   2.0000      -0.915132       -24.9020
  15   2.0000      -0.820638       -22.3307
  16   2.0000      -0.800268       -21.7764
  17   2.0000      -0.710719       -19.3397
  18   2.0000      -0.708089       -19.2681
  19   2.0000      -0.675599       -18.3840
  20   2.0000      -0.662343       -18.0233
  21   2.0000      -0.624443       -16.9920
  22   2.0000      -0.598644       -16.2899
  23   2.0000      -0.583707       -15.8835
  24   2.0000      -0.568836       -15.4788
  25   2.0000      -0.556323       -15.1383
  26   2.0000      -0.544799       -14.8247
  27   2.0000      -0.533861       -14.5271
  28   2.0000      -0.522918       -14.2293
  29   2.0000      -0.490918       -13.3586
  30   2.0000      -0.475414       -12.9367
  31   2.0000      -0.400515       -10.8986
  32   2.0000      -0.376314       -10.2400
  33   2.0000      -0.350619        -9.5408
  34   0.0000       0.126949         3.4545
  35   0.0000       0.150789         4.1032
  36   0.0000       0.158126         4.3028
  37   0.0000       0.168829         4.5941
  38   0.0000       0.186871         5.0850

MULLIKEN ATOMIC CHARGES
-----------------------
   0 O :   -0.491680
   1 C :    0.096592
   2 C :   -0.360752
   3 C :    0.174220
   4 O :   -0.463846
   5 C :   -0.095553
   6 C :   -0.206779
   7 C :   -0.217778
   8 C :   -0.111853
   9 H :    0.333948
  10 H :    0.137508
  11 H :    0.138046
  12 H :    0.336081
  13 H :    0.126268
  14 H :    0.125409
  15 H :    0.122354
  16 H :    0.122203
  17 H :    0.128688
  18 H :    0.106924
Sum of atomic charges:   -0.0000000

LOEWDIN ATOMIC CHARGES
----------------------
   0 O :    0.014804
   1 C :   -0.327362
   2 C :   -0.181159
   3 C :   -0.323154
   4 O :    0.027115
   5 C :   -0.204412
   6 C :   -0.165389
   7 C :   -0.169194
   8 C :   -0.215957
   9 H :    0.183906
  10 H :    0.141439
  11 H :    0.138750
  12 H :    0.184702
  13 H :    0.150034
  14 H :    0.158279
  15 H :    0.143545
  16 H :    0.142886
  17 H :    0.156680
  18 H :    0.144489

  Mayer bond orders larger than 0.1
B(  0-O ,  1-C ) :   0.9872 B(  0-O ,  9-H ) :   0.8351 B(  1-C ,  2-C ) :   0.9121
B(  1-C ,  3-C ) :   0.8382 B(  1-C ,  8-C ) :   0.9599 B(  2-C ,  3-C ) :   0.8303
B(  2-C , 10-H ) :   0.8989 B(  2-C , 11-H ) :   0.9210 B(  3-C ,  4-O ) :   1.1259
B(  3-C ,  5-C ) :   0.9271 B(  4-O , 12-H ) :   0.8140 B(  5-C ,  6-C ) :   0.9343
B(  5-C , 13-H ) :   0.9257 B(  5-C , 14-H ) :   0.8938 B(  6-C ,  7-C ) :   1.7897
B(  6-C , 15-H ) :   0.9317 B(  7-C ,  8-C ) :   0.9338 B(  7-C , 16-H ) :   0.9315
B(  8-C , 17-H ) :   0.8940 B(  8-C , 18-H ) :   0.9061

MP2 TOTAL ENERGY:     -422.319031197 Eh
FINAL SINGLE POINT ENERGY      -422.319031197034

DIPOLE MOMENT
-------------
                                X             Y             Z
Electronic contribution:     -1.96434       2.59450      -0.35306
Nuclear contribution   :      2.83665      -2.47995       0.71588
                        -----------------------------------------
Total Dipole Moment    :      0.87231       0.11454       0.36282
                        -----------------------------------------
Magnitude (a.u.)       :      0.95167
Magnitude (Debye)      :      2.41896

                             ****ORCA TERMINATED NORMALLY****
TOTAL RUN TIME: 0 days 0 hours 22 minutes 56 seconds 274 msec
