                         Program Version 3.0.3 - RELEASE   -
|  1> ! RI-MP2 RIJK def2-TZVP def2-TZVP/C def2-TZVP/JK TIGHTSCF
|  2> % maxcore 2000
|  3> % mp2 density relaxed end
|  4> *xyz 0 1
|  5>  C       -0.1488627804     1.4598666193     0.0831943435
|  6>  C        0.1224959882    -0.0121463845     0.0022235527
|  7>  C       -0.1348320615    -0.8955740841    -1.2131181151
|  8>  C       -0.1655213487    -2.0417357443    -0.1890874264
|  9>  C        1.2683161695    -2.1614828776     0.3491571544
| 10>  C        0.9954262422    -0.7887528754     0.9498382728
| 11>  C        1.6470506166    -0.2500062792     2.1903412579
| 12>  O        1.4818858711    -1.1432784953     3.2804651228
| 13>  N       -0.5068160022    -1.0150059704     0.9397645800
| 14>  H        0.6119147798     2.0272826999    -0.4650494341
| 15>  H       -1.1248986714     1.6905998920    -0.3564018300
| 16>  H       -0.1583145755     1.8152104161     1.1165606171
| 17>  H       -1.1274868809    -0.6913498907    -1.6246967856
| 18>  H        0.6021722695    -0.9355542768    -2.0224721774
| 19>  H       -0.8031075244    -2.9128605041    -0.3260321136
| 20>  H        1.3492888545    -2.9035450990     1.1467624090
| 21>  H        2.0873509996    -2.2876372824    -0.3670300740
| 22>  H        2.7274187030    -0.1475200142     2.0358125366
| 23>  H        1.2536888531     0.7479754616     2.4321629781
| 24>  H        0.5369662381    -1.3370986410     3.3184327813
| 25> *
| 26>
| 27>                          ****END OF INPUT****

CARTESIAN COORDINATES (ANGSTROEM)
---------------------------------
  C     -0.148863    1.459867    0.083194
  C      0.122496   -0.012146    0.002224
  C     -0.134832   -0.895574   -1.213118
  C     -0.165521   -2.041736   -0.189087
  C      1.268316   -2.161483    0.349157
  C      0.995426   -0.788753    0.949838
  C      1.647051   -0.250006    2.190341
  O      1.481886   -1.143278    3.280465
  N     -0.506816   -1.015006    0.939765
  H      0.611915    2.027283   -0.465049
  H     -1.124899    1.690600   -0.356402
  H     -0.158315    1.815210    1.116561
  H     -1.127487   -0.691350   -1.624697
  H      0.602172   -0.935554   -2.022472
  H     -0.803108   -2.912861   -0.326032
  H      1.349289   -2.903545    1.146762
  H      2.087351   -2.287637   -0.367030
  H      2.727419   -0.147520    2.035813
  H      1.253689    0.747975    2.432163
  H      0.536966   -1.337099    3.318433

 Total Charge           Charge          ....    0
 Multiplicity           Mult            ....    1
 Number of Electrons    NEL             ....   68
 Basis Dimension        Dim             ....  345

ORBITAL ENERGIES
----------------

  NO   OCC          E(Eh)            E(eV)
   0   2.0000     -20.550226      -559.2001
   1   2.0000     -15.559267      -423.3892
   2   2.0000     -11.278625      -306.9070
   3   2.0000     -11.275350      -306.8179
   4   2.0000     -11.268663      -306.6359
   5   2.0000     -11.266332      -306.5725
   6   2.0000     -11.234186      -305.6977
   7   2.0000     -11.230361      -305.5937
   8   2.0000     -11.228331      -305.5384
   9   2.0000      -1.358530       -36.9675
  10   2.0000      -1.315127       -35.7864
  11   2.0000      -1.029445       -28.0126
  12   2.0000      -1.015366       -27.6295
  13   2.0000      -0.977036       -26.5865
  14   2.0000      -0.930338       -25.3158
  15   2.0000      -0.856007       -23.2931
  16   2.0000      -0.733692       -19.9648
  17   2.0000      -0.731920       -19.9166
  18   2.0000      -0.692805       -18.8522
  19   2.0000      -0.659706       -17.9515
  20   2.0000      -0.637639       -17.3510
  21   2.0000      -0.614261       -16.7149
  22   2.0000      -0.598408       -16.2835
  23   2.0000      -0.580421       -15.7941
  24   2.0000      -0.567566       -15.4442
  25   2.0000      -0.554996       -15.1022
  26   2.0000      -0.534826       -14.5534
  27   2.0000      -0.506891       -13.7932
  28   2.0000      -0.499792       -13.6000
  29   2.0000      -0.468341       -12.7442
  30   2.0000      -0.437763       -11.9121
  31   2.0000      -0.423761       -11.5311
  32   2.0000      -0.401964       -10.9380
  33   2.0000      -0.376590       -10.2475
  34   0.0000       0.137731         3.7479
  35   0.0000       0.156233         4.2513
  36   0.0000       0.164415         4.4740
  37   0.0000       0.172491         4.6937
  38   0.0000       0.189236         5.1494

MULLIKEN ATOMIC CHARGES
-----------------------
   0 C :   -0.420884
   1 C :    0.017119
   2 C :   -0.166344
   3 C :   -0.057858
   4 C :   -0.175919
   5 C :   -0.050046
   6 C :    0.024763
   7 O :   -0.472464
   8 N :   -0.253717
   9 H :    0.140179
  10 H :    0.136702
  11 H :    0.138480
  12 H :    0.115695
  13 H :    0.113818
  14 H :    0.135469
  15 H :    0.127366
  16 H :    0.113555
  17 H :    0.111511
  18 H :    0.098292
  19 H :    0.324283
Sum of atomic charges:    0.0000000

LOEWDIN ATOMIC CHARGES
----------------------
   0 C :   -0.268385
   1 C :   -0.247617
   2 C :   -0.187611
   3 C :   -0.187006
   4 C :   -0.187736
   5 C :   -0.237682
   6 C :   -0.308690
   7 O :   -0.043487
   8 N :    0.157476
   9 H :    0.132689
  10 H :    0.131848
  11 H :    0.130756
  12 H :    0.143323
  13 H :    0.129319
  14 H :    0.127910
  15 H :    0.146687
  16 H :    0.129015
  17 H :    0.136570
  18 H :    0.124083
  19 H :    0.178536

  Mayer bond orders larger than 0.1
B(  0-C ,  1-C ) :   0.8613 B(  0-C ,  9-H ) :   0.9388 B(  0-C , 10-H ) :   0.9348
B(  0-C , 11-H ) :   0.9398 B(  1-C ,  2-C ) :   0.9333 B(  1-C ,  5-C ) :   0.8780
B(  1-C ,  8-N ) :   0.9189 B(  2-C ,  3-C ) :   0.9404 B(  2-C , 12-H ) :   0.9134
B(  2-C , 13-H ) :   0.9075 B(  3-C ,  4-C ) :   0.9410 B(  3-C ,  8-N ) :   0.9265
B(  3-C , 14-H ) :   0.9072 B(  4-C ,  5-C ) :   0.9279 B(  4-C , 15-H ) :   0.9102
B(  4-C , 16-H ) :   0.9138 B(  5-C ,  6-C ) :   0.9223 B(  5-C ,  8-N ) :   0.8072
B(  6-C ,  7-O ) :   0.9239 B(  6-C , 17-H ) :   0.9198 B(  6-C , 18-H ) :   0.9299
B(  7-O , 19-H ) :   0.8312

MP2 TOTAL ENERGY:     -402.413937127 Eh
FINAL SINGLE POINT ENERGY      -402.413937126800

DIPOLE MOMENT
-------------
                                X             Y             Z
Electronic contribution:     -0.19241      -2.85897       2.39267
Nuclear contribution   :      0.18181       3.09778      -3.34618
                        -----------------------------------------
Total Dipole Moment    :     -0.01061       0.23881      -0.95351
                        -----------------------------------------
Magnitude (a.u.)       :      0.98302
Magnitude (Debye)      :      2.49864

                             ****ORCA TERMINATED NORMALLY****
TOTAL RUN TIME: 0 days 0 hours 21 minutes 15 seconds 133 msec
