                         Program Version 3.0.3 - RELEASE   -
|  1> ! RI-MP2 RIJK def2-TZVP def2-TZVP/C def2-TZVP/JK TIGHTSCF
|  2> % maxcore 2000
|  3> % mp2 density relaxed end
|  4> *xyz 0 1
|  5>  C       -0.1714834427     1.4805934515     0.0919897372
|  6>  C        0.0159583924    -0.0240417417    -0.0410324715
|  7>  C       -1.3082453851    -0.8221705415    -0.1485818997
|  8>  C       -1.0224427367    -2.1441048291     0.5856167315
|  9>  C       -0.0022920690    -1.7183350194     1.6634649638
| 10>  N        0.8368129059    -0.6775052128     1.0536515030
| 11>  C        1.8544482062    -1.1774458816     0.0842275920
| 12>  C        1.1026257200    -0.4590695756    -1.0415130685
| 13>  O        1.2736013906    -0.2986861971    -2.2139669810
| 14>  H        0.7887703862     1.9916616592     0.2026195926
| 15>  H       -0.6729842277     1.8788023068    -0.7962110088
| 16>  H       -0.7836874443     1.7118034483     0.9697129896
| 17>  H       -2.1026991255    -0.2630384634     0.3588917753
| 18>  H       -1.6160909435    -0.9582371997    -1.1885667667
| 19>  H       -1.9222119799    -2.6008186231     1.0059226436
| 20>  H       -0.5762758802    -2.8752169435    -0.0983012758
| 21>  H       -0.5244441607    -1.2898081675     2.5279210071
| 22>  H        0.6175533651    -2.5401376368     2.0333679511
| 23>  H        2.8705222751    -0.8191306210     0.2827803191
| 24>  H        1.8912482339    -2.2686026821    -0.0452517438
| 25> *
| 26>
| 27>                          ****END OF INPUT****

CARTESIAN COORDINATES (ANGSTROEM)
---------------------------------
  C     -0.171483    1.480593    0.091990
  C      0.015958   -0.024042   -0.041032
  C     -1.308245   -0.822171   -0.148582
  C     -1.022443   -2.144105    0.585617
  C     -0.002292   -1.718335    1.663465
  N      0.836813   -0.677505    1.053652
  C      1.854448   -1.177446    0.084228
  C      1.102626   -0.459070   -1.041513
  O      1.273601   -0.298686   -2.213967
  H      0.788770    1.991662    0.202620
  H     -0.672984    1.878802   -0.796211
  H     -0.783687    1.711803    0.969713
  H     -2.102699   -0.263038    0.358892
  H     -1.616091   -0.958237   -1.188567
  H     -1.922212   -2.600819    1.005923
  H     -0.576276   -2.875217   -0.098301
  H     -0.524444   -1.289808    2.527921
  H      0.617553   -2.540138    2.033368
  H      2.870522   -0.819131    0.282780
  H      1.891248   -2.268603   -0.045252

 Total Charge           Charge          ....    0
 Multiplicity           Mult            ....    1
 Number of Electrons    NEL             ....   68
 Basis Dimension        Dim             ....  345

ORBITAL ENERGIES
----------------

  NO   OCC          E(Eh)            E(eV)
   0   2.0000     -20.558193      -559.4169
   1   2.0000     -15.555973      -423.2996
   2   2.0000     -11.331442      -308.3442
   3   2.0000     -11.272558      -306.7419
   4   2.0000     -11.266056      -306.5650
   5   2.0000     -11.256638      -306.3087
   6   2.0000     -11.236807      -305.7691
   7   2.0000     -11.232483      -305.6514
   8   2.0000     -11.224559      -305.4358
   9   2.0000      -1.401082       -38.1254
  10   2.0000      -1.266372       -34.4597
  11   2.0000      -1.066300       -29.0155
  12   2.0000      -1.042869       -28.3779
  13   2.0000      -0.965438       -26.2709
  14   2.0000      -0.900515       -24.5043
  15   2.0000      -0.838632       -22.8203
  16   2.0000      -0.800437       -21.7810
  17   2.0000      -0.694516       -18.8987
  18   2.0000      -0.684060       -18.6142
  19   2.0000      -0.674621       -18.3574
  20   2.0000      -0.650664       -17.7055
  21   2.0000      -0.608169       -16.5491
  22   2.0000      -0.598999       -16.2996
  23   2.0000      -0.583360       -15.8740
  24   2.0000      -0.570229       -15.5167
  25   2.0000      -0.562373       -15.3029
  26   2.0000      -0.526545       -14.3280
  27   2.0000      -0.503523       -13.7015
  28   2.0000      -0.498127       -13.5547
  29   2.0000      -0.495049       -13.4710
  30   2.0000      -0.480635       -13.0787
  31   2.0000      -0.469008       -12.7623
  32   2.0000      -0.393286       -10.7018
  33   2.0000      -0.377631       -10.2759
  34   0.0000       0.127946         3.4816
  35   0.0000       0.131185         3.5697
  36   0.0000       0.148588         4.0433
  37   0.0000       0.165301         4.4981
  38   0.0000       0.171260         4.6602

MULLIKEN ATOMIC CHARGES
-----------------------
   0 C :   -0.395269
   1 C :    0.167041
   2 C :   -0.263758
   3 C :   -0.253688
   4 C :   -0.181971
   5 N :   -0.151190
   6 C :   -0.194971
   7 C :    0.075641
   8 O :   -0.244660
   9 H :    0.134826
  10 H :    0.140413
  11 H :    0.131356
  12 H :    0.121595
  13 H :    0.143262
  14 H :    0.129105
  15 H :    0.121915
  16 H :    0.119048
  17 H :    0.131677
  18 H :    0.139708
  19 H :    0.129917
Sum of atomic charges:   -0.0000000

LOEWDIN ATOMIC CHARGES
----------------------
   0 C :   -0.263109
   1 C :   -0.259610
   2 C :   -0.211597
   3 C :   -0.262110
   4 C :   -0.284943
   5 N :    0.123006
   6 C :   -0.221251
   7 C :   -0.279893
   8 O :    0.170955
   9 H :    0.129979
  10 H :    0.133483
  11 H :    0.129067
  12 H :    0.143785
  13 H :    0.145406
  14 H :    0.135566
  15 H :    0.136251
  16 H :    0.132703
  17 H :    0.131088
  18 H :    0.135235
  19 H :    0.135990

  Mayer bond orders larger than 0.1
B(  0-C ,  1-C ) :   0.8765 B(  0-C ,  9-H ) :   0.9340 B(  0-C , 10-H ) :   0.9350
B(  0-C , 11-H ) :   0.9332 B(  1-C ,  2-C ) :   0.9032 B(  1-C ,  5-N ) :   0.9356
B(  1-C ,  6-C ) :  -0.1065 B(  1-C ,  7-C ) :   0.8288 B(  2-C ,  3-C ) :   0.9296
B(  2-C , 12-H ) :   0.9279 B(  2-C , 13-H ) :   0.9191 B(  3-C ,  4-C ) :   0.9208
B(  3-C , 14-H ) :   0.9279 B(  3-C , 15-H ) :   0.9316 B(  4-C ,  5-N ) :   0.9159
B(  4-C , 16-H ) :   0.9358 B(  4-C , 17-H ) :   0.9374 B(  5-N ,  6-C ) :   0.9519
B(  6-C ,  7-C ) :   0.9538 B(  6-C , 18-H ) :   0.8934 B(  6-C , 19-H ) :   0.9109
B(  7-C ,  8-O ) :   2.0763

MP2 TOTAL ENERGY:     -402.467343663 Eh
FINAL SINGLE POINT ENERGY      -402.467343662510

DIPOLE MOMENT
-------------
                                X             Y             Z
Electronic contribution:      4.33143       0.43943      -4.30935
Nuclear contribution   :     -4.82874      -0.86997       4.98584
                        -----------------------------------------
Total Dipole Moment    :     -0.49731      -0.43054       0.67649
                        -----------------------------------------
Magnitude (a.u.)       :      0.94357
Magnitude (Debye)      :      2.39835

                             ****ORCA TERMINATED NORMALLY****
TOTAL RUN TIME: 0 days 0 hours 20 minutes 50 seconds 124 msec
