                         Program Version 3.0.3 - RELEASE   -
|  1> ! RI-MP2 RIJK def2-TZVP def2-TZVP/C def2-TZVP/JK TIGHTSCF
|  2> % maxcore 2000
|  3> % mp2 density relaxed end
|  4> *xyz 0 1
|  5>  O        0.4124972833     0.7572620446     0.7909497745
|  6>  C        0.1903688921    -0.3330141510    -0.0491677235
|  7>  C       -1.2503856354    -0.9377729553    -0.2615880381
|  8>  C       -0.9173943888    -1.1219917278    -1.7830737683
|  9>  C        0.1923261925    -0.0921315030    -1.5571323414
| 10>  O        0.6534831036     0.8084755292    -2.2033922772
| 11>  C       -1.6345620146    -2.1433472594     0.5481961858
| 12>  C       -2.2887818448    -1.9779459121     1.8974145950
| 13>  C       -3.0851629870    -2.5169587679     0.7354946092
| 14>  H        0.5253599962     1.5309385788     0.2241413712
| 15>  H        0.8720824792    -1.1551372494     0.2162090125
| 16>  H       -1.9855130776    -0.1354111005    -0.1396252229
| 17>  H       -0.5216034506    -2.1199503789    -1.9983156347
| 18>  H       -1.6759562131    -0.8674276692    -2.5245080354
| 19>  H       -0.9382278952    -2.9746267837     0.4558456266
| 20>  H       -2.0075614859    -2.6600632724     2.6917456961
| 21>  H       -2.4989405003    -0.9684728069     2.2343896177
| 22>  H       -3.8346988497    -1.8703075817     0.2909073679
| 23>  H       -3.3503980440    -3.5683093434     0.7337048149
| 24> *
| 25>
| 26>                          ****END OF INPUT****

CARTESIAN COORDINATES (ANGSTROEM)
---------------------------------
  O      0.412497    0.757262    0.790950
  C      0.190369   -0.333014   -0.049168
  C     -1.250386   -0.937773   -0.261588
  C     -0.917394   -1.121992   -1.783074
  C      0.192326   -0.092132   -1.557132
  O      0.653483    0.808476   -2.203392
  C     -1.634562   -2.143347    0.548196
  C     -2.288782   -1.977946    1.897415
  C     -3.085163   -2.516959    0.735495
  H      0.525360    1.530939    0.224141
  H      0.872082   -1.155137    0.216209
  H     -1.985513   -0.135411   -0.139625
  H     -0.521603   -2.119950   -1.998316
  H     -1.675956   -0.867428   -2.524508
  H     -0.938228   -2.974627    0.455846
  H     -2.007561   -2.660063    2.691746
  H     -2.498941   -0.968473    2.234390
  H     -3.834699   -1.870308    0.290907
  H     -3.350398   -3.568309    0.733705

 Total Charge           Charge          ....    0
 Multiplicity           Mult            ....    1
 Number of Electrons    NEL             ....   68
 Basis Dimension        Dim             ....  339

ORBITAL ENERGIES
----------------

  NO   OCC          E(Eh)            E(eV)
   0   2.0000     -20.571031      -559.7662
   1   2.0000     -20.564329      -559.5838
   2   2.0000     -11.339483      -308.5630
   3   2.0000     -11.297567      -307.4224
   4   2.0000     -11.255316      -306.2727
   5   2.0000     -11.249583      -306.1167
   6   2.0000     -11.243491      -305.9509
   7   2.0000     -11.234168      -305.6972
   8   2.0000     -11.232358      -305.6480
   9   2.0000      -1.410216       -38.3739
  10   2.0000      -1.376406       -37.4539
  11   2.0000      -1.167791       -31.7772
  12   2.0000      -1.122038       -30.5322
  13   2.0000      -0.921562       -25.0770
  14   2.0000      -0.906645       -24.6711
  15   2.0000      -0.830077       -22.5875
  16   2.0000      -0.788527       -21.4569
  17   2.0000      -0.769703       -20.9447
  18   2.0000      -0.701596       -19.0914
  19   2.0000      -0.675910       -18.3925
  20   2.0000      -0.664000       -18.0684
  21   2.0000      -0.652167       -17.7464
  22   2.0000      -0.608852       -16.5677
  23   2.0000      -0.595010       -16.1911
  24   2.0000      -0.576008       -15.6740
  25   2.0000      -0.563708       -15.3393
  26   2.0000      -0.539984       -14.6937
  27   2.0000      -0.522850       -14.2275
  28   2.0000      -0.504683       -13.7331
  29   2.0000      -0.497088       -13.5265
  30   2.0000      -0.465416       -12.6646
  31   2.0000      -0.423565       -11.5258
  32   2.0000      -0.417497       -11.3607
  33   2.0000      -0.391745       -10.6599
  34   0.0000       0.120995         3.2924
  35   0.0000       0.140114         3.8127
  36   0.0000       0.146978         3.9995
  37   0.0000       0.156405         4.2560
  38   0.0000       0.164101         4.4654

MULLIKEN ATOMIC CHARGES
-----------------------
   0 O :   -0.469605
   1 C :    0.061524
   2 C :   -0.075237
   3 C :   -0.208611
   4 C :    0.121746
   5 O :   -0.263904
   6 C :   -0.118596
   7 C :   -0.259129
   8 C :   -0.259493
   9 H :    0.333951
  10 H :    0.110645
  11 H :    0.099152
  12 H :    0.138045
  13 H :    0.139797
  14 H :    0.117431
  15 H :    0.133595
  16 H :    0.137125
  17 H :    0.128328
  18 H :    0.133237
Sum of atomic charges:   -0.0000000

LOEWDIN ATOMIC CHARGES
----------------------
   0 O :   -0.000458
   1 C :   -0.284252
   2 C :   -0.186209
   3 C :   -0.178429
   4 C :   -0.313885
   5 O :    0.155335
   6 C :   -0.222015
   7 C :   -0.220530
   8 C :   -0.225732
   9 H :    0.188203
  10 H :    0.153945
  11 H :    0.160318
  12 H :    0.151334
  13 H :    0.139867
  14 H :    0.149584
  15 H :    0.132157
  16 H :    0.136226
  17 H :    0.133093
  18 H :    0.131448

  Mayer bond orders larger than 0.1
B(  0-O ,  1-C ) :   1.0510 B(  0-O ,  9-H ) :   0.8255 B(  1-C ,  2-C ) :   0.8487
B(  1-C ,  4-C ) :   0.8907 B(  1-C , 10-H ) :   0.9241 B(  2-C ,  3-C ) :   0.9204
B(  2-C ,  6-C ) :   0.9235 B(  2-C , 11-H ) :   0.8935 B(  3-C ,  4-C ) :   0.8993
B(  3-C , 12-H ) :   0.8951 B(  3-C , 13-H ) :   0.9058 B(  4-C ,  5-O ) :   2.0099
B(  6-C ,  7-C ) :   0.8861 B(  6-C ,  8-C ) :   0.8834 B(  6-C , 14-H ) :   0.9116
B(  7-C ,  8-C ) :   0.9019 B(  7-C , 15-H ) :   0.9309 B(  7-C , 16-H ) :   0.9288
B(  8-C , 17-H ) :   0.9308 B(  8-C , 18-H ) :   0.9299

MP2 TOTAL ENERGY:     -422.303260902 Eh
FINAL SINGLE POINT ENERGY      -422.303260902143

DIPOLE MOMENT
-------------
                                X             Y             Z
Electronic contribution:      6.08825       5.67155      -3.90617
Nuclear contribution   :     -6.68035      -6.43331       3.97111
                        -----------------------------------------
Total Dipole Moment    :     -0.59210      -0.76176       0.06494
                        -----------------------------------------
Magnitude (a.u.)       :      0.96699
Magnitude (Debye)      :      2.45790

                             ****ORCA TERMINATED NORMALLY****
TOTAL RUN TIME: 0 days 0 hours 16 minutes 39 seconds 592 msec
