                         Program Version 3.0.3 - RELEASE   -
|  1> ! RI-MP2 RIJK def2-TZVP def2-TZVP/C def2-TZVP/JK TIGHTSCF
|  2> % maxcore 2000
|  3> % mp2 density relaxed end
|  4> *xyz 0 1
|  5>  C       -0.0326467897     1.5110209140     0.0251948477
|  6>  C       -0.0135741239     0.0029529485    -0.0170243403
|  7>  C        0.7018362699    -0.7096921664    -1.1012603415
|  8>  N        1.3067874991    -0.6382304299     0.2597217629
|  9>  C        1.0977122145    -1.8141504979     1.0259897267
| 10>  O        1.9357197736    -2.6102097732     1.3363958380
| 11>  C       -0.4172199219    -1.9164179330     1.3925793367
| 12>  O       -0.8935642323    -2.7814257799     2.0701551617
| 13>  C       -1.1239347322    -0.7530544332     0.7060037524
| 14>  H        0.8695146358     1.9225933407    -0.4339033324
| 15>  H       -0.9046429556     1.8990265725    -0.5123355836
| 16>  H       -0.0835908093     1.8704535198     1.0582484322
| 17>  H        0.3302369071    -1.6769135690    -1.4334920048
| 18>  H        1.2483490702    -0.1521958351    -1.8553687216
| 19>  H       -1.6038286788    -0.1286369597     1.4672728050
| 20>  H       -1.9159470665    -1.1188143480     0.0452723508
| 21> *
| 22>
| 23>                          ****END OF INPUT****

CARTESIAN COORDINATES (ANGSTROEM)
---------------------------------
  C     -0.032647    1.511021    0.025195
  C     -0.013574    0.002953   -0.017024
  C      0.701836   -0.709692   -1.101260
  N      1.306787   -0.638230    0.259722
  C      1.097712   -1.814150    1.025990
  O      1.935720   -2.610210    1.336396
  C     -0.417220   -1.916418    1.392579
  O     -0.893564   -2.781426    2.070155
  C     -1.123935   -0.753054    0.706004
  H      0.869515    1.922593   -0.433903
  H     -0.904643    1.899027   -0.512336
  H     -0.083591    1.870454    1.058248
  H      0.330237   -1.676914   -1.433492
  H      1.248349   -0.152196   -1.855369
  H     -1.603829   -0.128637    1.467273
  H     -1.915947   -1.118814    0.045272

 Total Charge           Charge          ....    0
 Multiplicity           Mult            ....    1
 Number of Electrons    NEL             ....   66
 Basis Dimension        Dim             ....  321

ORBITAL ENERGIES
----------------

  NO   OCC          E(Eh)            E(eV)
   0   2.0000     -20.585558      -560.1615
   1   2.0000     -20.569480      -559.7240
   2   2.0000     -15.598932      -424.4685
   3   2.0000     -11.371088      -309.4230
   4   2.0000     -11.360286      -309.1291
   5   2.0000     -11.308735      -307.7263
   6   2.0000     -11.300792      -307.5102
   7   2.0000     -11.271254      -306.7064
   8   2.0000     -11.248121      -306.0769
   9   2.0000      -1.436426       -39.0871
  10   2.0000      -1.409870       -38.3645
  11   2.0000      -1.319563       -35.9071
  12   2.0000      -1.070088       -29.1186
  13   2.0000      -1.037564       -28.2335
  14   2.0000      -0.961560       -26.1654
  15   2.0000      -0.864909       -23.5354
  16   2.0000      -0.811135       -22.0721
  17   2.0000      -0.756936       -20.5973
  18   2.0000      -0.699791       -19.0423
  19   2.0000      -0.674431       -18.3522
  20   2.0000      -0.669782       -18.2257
  21   2.0000      -0.651587       -17.7306
  22   2.0000      -0.631128       -17.1739
  23   2.0000      -0.598697       -16.2914
  24   2.0000      -0.591284       -16.0896
  25   2.0000      -0.573696       -15.6111
  26   2.0000      -0.550478       -14.9793
  27   2.0000      -0.529575       -14.4105
  28   2.0000      -0.517558       -14.0835
  29   2.0000      -0.507436       -13.8080
  30   2.0000      -0.474482       -12.9113
  31   2.0000      -0.426573       -11.6076
  32   2.0000      -0.401548       -10.9267
  33   0.0000       0.057378         1.5613
  34   0.0000       0.116845         3.1795
  35   0.0000       0.149677         4.0729
  36   0.0000       0.161104         4.3839
  37   0.0000       0.166534         4.5316

MULLIKEN ATOMIC CHARGES
-----------------------
   0 C :   -0.424234
   1 C :    0.109016
   2 C :   -0.190969
   3 N :   -0.187770
   4 C :    0.175646
   5 O :   -0.219970
   6 C :    0.089884
   7 O :   -0.218965
   8 C :   -0.153843
   9 H :    0.148281
  10 H :    0.139080
  11 H :    0.137696
  12 H :    0.137599
  13 H :    0.147981
  14 H :    0.155012
  15 H :    0.155554
Sum of atomic charges:   -0.0000000

LOEWDIN ATOMIC CHARGES
----------------------
   0 C :   -0.260306
   1 C :   -0.288543
   2 C :   -0.180895
   3 N :    0.176290
   4 C :   -0.374804
   5 O :    0.194366
   6 C :   -0.282008
   7 O :    0.203800
   8 C :   -0.184449
   9 H :    0.135873
  10 H :    0.132497
  11 H :    0.131932
  12 H :    0.135849
  13 H :    0.136808
  14 H :    0.163784
  15 H :    0.159804

  Mayer bond orders larger than 0.1
B(  0-C ,  1-C ) :   0.9001 B(  0-C ,  9-H ) :   0.9357 B(  0-C , 10-H ) :   0.9347
B(  0-C , 11-H ) :   0.9329 B(  1-C ,  2-C ) :   0.9583 B(  1-C ,  3-N ) :   0.7610
B(  1-C ,  8-C ) :   0.8844 B(  2-C ,  3-N ) :   0.8543 B(  2-C , 12-H ) :   0.9021
B(  2-C , 13-H ) :   0.9130 B(  3-N ,  4-C ) :   1.0073 B(  4-C ,  5-O ) :   2.0587
B(  4-C ,  6-C ) :   0.8598 B(  6-C ,  7-O ) :   2.0171 B(  6-C ,  8-C ) :   0.8873
B(  8-C , 14-H ) :   0.8960 B(  8-C , 15-H ) :   0.8928

MP2 TOTAL ENERGY:     -437.175427955 Eh
FINAL SINGLE POINT ENERGY      -437.175427955378

DIPOLE MOMENT
-------------
                                X             Y             Z
Electronic contribution:      2.76759      -8.17945       4.59700
Nuclear contribution   :     -3.78045       9.58651      -5.77627
                        -----------------------------------------
Total Dipole Moment    :     -1.01286       1.40707      -1.17927
                        -----------------------------------------
Magnitude (a.u.)       :      2.09676
Magnitude (Debye)      :      5.32955

                             ****ORCA TERMINATED NORMALLY****
TOTAL RUN TIME: 0 days 0 hours 17 minutes 47 seconds 517 msec
