                         Program Version 3.0.3 - RELEASE   -
|  1> ! RI-MP2 RIJK def2-TZVP def2-TZVP/C def2-TZVP/JK TIGHTSCF
|  2> % maxcore 2000
|  3> % mp2 density relaxed end
|  4> *xyz 0 1
|  5>  C       -0.2318278076     1.3230433897     0.3306015052
|  6>  C        0.1311859447    -0.1259825527     0.1234076435
|  7>  C        0.3013434580    -0.6558520992    -1.3052559777
|  8>  C        1.3327179387    -1.7536635379    -1.1565913293
|  9>  C        1.7604219621    -1.8728715062     0.1011530825
| 10>  C        1.0564104430    -0.9054912535     1.0001864299
| 11>  C        1.7763274620    -0.3747017016     2.2306678333
| 12>  O        0.9164436133     0.2239881563     3.1925818074
| 13>  N       -0.4164549277    -1.1614814293     1.0404098497
| 14>  H        0.4552810256     1.9801422845    -0.2145653653
| 15>  H       -1.2431558206     1.5272018648    -0.0414197360
| 16>  H       -0.1933111184     1.5925402658     1.3888605068
| 17>  H       -0.6466009923    -1.0360756181    -1.7051335863
| 18>  H        0.6427053541     0.1330950066    -1.9894195367
| 19>  H        1.6448406176    -2.3770587308    -1.9870555469
| 20>  H        2.4896143990    -2.5906927432     0.4606718014
| 21>  H        2.3584654764    -1.1901267987     2.6848532813
| 22>  H        2.4917931332     0.4021453409     1.9383577542
| 23>  H        0.5121212788    -0.4813480697     3.7071066296
| 24>  H       -0.7789696998    -0.6552162375     1.8505883533
| 25> *
| 26>
| 27>                          ****END OF INPUT****

CARTESIAN COORDINATES (ANGSTROEM)
---------------------------------
  C     -0.231828    1.323043    0.330602
  C      0.131186   -0.125983    0.123408
  C      0.301343   -0.655852   -1.305256
  C      1.332718   -1.753664   -1.156591
  C      1.760422   -1.872872    0.101153
  C      1.056410   -0.905491    1.000186
  C      1.776327   -0.374702    2.230668
  O      0.916444    0.223988    3.192582
  N     -0.416455   -1.161481    1.040410
  H      0.455281    1.980142   -0.214565
  H     -1.243156    1.527202   -0.041420
  H     -0.193311    1.592540    1.388861
  H     -0.646601   -1.036076   -1.705134
  H      0.642705    0.133095   -1.989420
  H      1.644841   -2.377059   -1.987056
  H      2.489614   -2.590693    0.460672
  H      2.358465   -1.190127    2.684853
  H      2.491793    0.402145    1.938358
  H      0.512121   -0.481348    3.707107
  H     -0.778970   -0.655216    1.850588

 Total Charge           Charge          ....    0
 Multiplicity           Mult            ....    1
 Number of Electrons    NEL             ....   68
 Basis Dimension        Dim             ....  345

ORBITAL ENERGIES
----------------

  NO   OCC          E(Eh)            E(eV)
   0   2.0000     -20.569707      -559.7302
   1   2.0000     -15.548701      -423.1017
   2   2.0000     -11.288794      -307.1837
   3   2.0000     -11.259559      -306.3882
   4   2.0000     -11.258545      -306.3606
   5   2.0000     -11.228092      -305.5319
   6   2.0000     -11.225050      -305.4491
   7   2.0000     -11.222956      -305.3922
   8   2.0000     -11.218083      -305.2596
   9   2.0000      -1.374662       -37.4065
  10   2.0000      -1.265395       -34.4331
  11   2.0000      -1.080039       -29.3894
  12   2.0000      -1.008841       -27.4520
  13   2.0000      -0.974525       -26.5182
  14   2.0000      -0.916256       -24.9326
  15   2.0000      -0.848093       -23.0778
  16   2.0000      -0.756455       -20.5842
  17   2.0000      -0.728166       -19.8144
  18   2.0000      -0.692818       -18.8525
  19   2.0000      -0.675348       -18.3771
  20   2.0000      -0.638169       -17.3655
  21   2.0000      -0.618480       -16.8297
  22   2.0000      -0.592097       -16.1118
  23   2.0000      -0.575253       -15.6534
  24   2.0000      -0.556633       -15.1467
  25   2.0000      -0.544587       -14.8190
  26   2.0000      -0.524730       -14.2786
  27   2.0000      -0.516085       -14.0434
  28   2.0000      -0.496479       -13.5099
  29   2.0000      -0.469616       -12.7789
  30   2.0000      -0.462268       -12.5790
  31   2.0000      -0.446744       -12.1565
  32   2.0000      -0.369006       -10.0412
  33   2.0000      -0.337343        -9.1796
  34   0.0000       0.124814         3.3964
  35   0.0000       0.146489         3.9862
  36   0.0000       0.151789         4.1304
  37   0.0000       0.167779         4.5655
  38   0.0000       0.172805         4.7023

MULLIKEN ATOMIC CHARGES
-----------------------
   0 C :   -0.418882
   1 C :    0.094696
   2 C :   -0.126273
   3 C :   -0.176149
   4 C :   -0.268780
   5 C :    0.123649
   6 C :   -0.015645
   7 O :   -0.484702
   8 N :   -0.406168
   9 H :    0.128785
  10 H :    0.138422
  11 H :    0.162453
  12 H :    0.118842
  13 H :    0.110048
  14 H :    0.126674
  15 H :    0.124849
  16 H :    0.123102
  17 H :    0.124517
  18 H :    0.323781
  19 H :    0.196781
Sum of atomic charges:    0.0000000

LOEWDIN ATOMIC CHARGES
----------------------
   0 C :   -0.276622
   1 C :   -0.266382
   2 C :   -0.195050
   3 C :   -0.135358
   4 C :   -0.123883
   5 C :   -0.258969
   6 C :   -0.302650
   7 O :   -0.044651
   8 N :    0.041997
   9 H :    0.130111
  10 H :    0.129559
  11 H :    0.134104
  12 H :    0.148766
  13 H :    0.143102
  14 H :    0.135921
  15 H :    0.138914
  16 H :    0.126337
  17 H :    0.138408
  18 H :    0.174429
  19 H :    0.161916

  Mayer bond orders larger than 0.1
B(  0-C ,  1-C ) :   0.8987 B(  0-C ,  9-H ) :   0.9261 B(  0-C , 10-H ) :   0.9388
B(  0-C , 11-H ) :   0.9267 B(  1-C ,  2-C ) :   0.9520 B(  1-C ,  5-C ) :   0.8809
B(  1-C ,  8-N ) :   0.8819 B(  2-C ,  3-C ) :   0.9723 B(  2-C , 12-H ) :   0.8901
B(  2-C , 13-H ) :   0.9165 B(  3-C ,  4-C ) :   1.8326 B(  3-C , 14-H ) :   0.9274
B(  4-C ,  5-C ) :   0.8852 B(  4-C , 15-H ) :   0.9221 B(  5-C ,  6-C ) :   0.8825
B(  5-C ,  8-N ) :   0.9805 B(  6-C ,  7-O ) :   0.8971 B(  6-C , 16-H ) :   0.9437
B(  6-C , 17-H ) :   0.9195 B(  7-O , 18-H ) :   0.8415 B(  8-N , 19-H ) :   0.8698

MP2 TOTAL ENERGY:     -402.441408116 Eh
FINAL SINGLE POINT ENERGY      -402.441408116344

DIPOLE MOMENT
-------------
                                X             Y             Z
Electronic contribution:      0.50969      -3.01456       1.58327
Nuclear contribution   :     -0.18616       3.07206      -1.47547
                        -----------------------------------------
Total Dipole Moment    :      0.32353       0.05750       0.10780
                        -----------------------------------------
Magnitude (a.u.)       :      0.34583
Magnitude (Debye)      :      0.87902

                             ****ORCA TERMINATED NORMALLY****
TOTAL RUN TIME: 0 days 0 hours 19 minutes 23 seconds 970 msec
