                         Program Version 3.0.3 - RELEASE   -
|  1> ! RI-MP2 RIJK def2-TZVP def2-TZVP/C def2-TZVP/JK TIGHTSCF
|  2> % maxcore 2000
|  3> % mp2 density relaxed end
|  4> *xyz 0 1
|  5>  C       -0.5140803097     1.0926157152    -1.2784715391
|  6>  C        0.2371886259    -0.1296557897    -0.7736357606
|  7>  C        1.7394503631    -0.3093678773    -1.1542635417
|  8>  C        2.0642651351    -0.7358070680     0.3002772663
|  9>  C        3.2389566554    -0.0966364893     0.9877149597
| 10>  O        3.9288495270     0.7666450215     0.5047515785
| 11>  C        0.6626882288    -0.1984500749     0.6988758416
| 12>  C        0.2990163541     0.6714477766     1.8206396112
| 13>  O       -0.1224797743    -0.7015102880     1.7529173229
| 14>  H        0.0281055857     2.0144966203    -1.0428860010
| 15>  H       -0.6420570827     1.0482922351    -2.3651228235
| 16>  H       -1.5117650336     1.1596858724    -0.8310907857
| 17>  H       -0.3225703338    -1.0420855195    -1.0105759988
| 18>  H        1.9655921696    -1.0351573203    -1.9361148170
| 19>  H        2.2305077811     0.6375382337    -1.3903521141
| 20>  H        2.0941867624    -1.8206911658     0.4509874048
| 21>  H        3.4247700712    -0.4597094218     2.0244307917
| 22>  H        1.0269441939     0.8981443203     2.5984236731
| 23>  H       -0.4937295593     1.4077940194     1.7014051418
| 24> *
| 25>
| 26>                          ****END OF INPUT****

CARTESIAN COORDINATES (ANGSTROEM)
---------------------------------
  C     -0.514080    1.092616   -1.278472
  C      0.237189   -0.129656   -0.773636
  C      1.739450   -0.309368   -1.154264
  C      2.064265   -0.735807    0.300277
  C      3.238957   -0.096636    0.987715
  O      3.928850    0.766645    0.504752
  C      0.662688   -0.198450    0.698876
  C      0.299016    0.671448    1.820640
  O     -0.122480   -0.701510    1.752917
  H      0.028106    2.014497   -1.042886
  H     -0.642057    1.048292   -2.365123
  H     -1.511765    1.159686   -0.831091
  H     -0.322570   -1.042086   -1.010576
  H      1.965592   -1.035157   -1.936115
  H      2.230508    0.637538   -1.390352
  H      2.094187   -1.820691    0.450987
  H      3.424770   -0.459709    2.024431
  H      1.026944    0.898144    2.598424
  H     -0.493730    1.407794    1.701405

 Total Charge           Charge          ....    0
 Multiplicity           Mult            ....    1
 Number of Electrons    NEL             ....   68
 Basis Dimension        Dim             ....  339

ORBITAL ENERGIES
----------------

  NO   OCC          E(Eh)            E(eV)
   0   2.0000     -20.579119      -559.9863
   1   2.0000     -20.561827      -559.5158
   2   2.0000     -11.336339      -308.4775
   3   2.0000     -11.306651      -307.6696
   4   2.0000     -11.293374      -307.3083
   5   2.0000     -11.251884      -306.1793
   6   2.0000     -11.244132      -305.9684
   7   2.0000     -11.234316      -305.7013
   8   2.0000     -11.225635      -305.4651
   9   2.0000      -1.426796       -38.8251
  10   2.0000      -1.399929       -38.0940
  11   2.0000      -1.147762       -31.2322
  12   2.0000      -1.015069       -27.6214
  13   2.0000      -0.932149       -25.3651
  14   2.0000      -0.918678       -24.9985
  15   2.0000      -0.869866       -23.6703
  16   2.0000      -0.795818       -21.6553
  17   2.0000      -0.742371       -20.2009
  18   2.0000      -0.697667       -18.9845
  19   2.0000      -0.685275       -18.6473
  20   2.0000      -0.676498       -18.4085
  21   2.0000      -0.644678       -17.5426
  22   2.0000      -0.602803       -16.4031
  23   2.0000      -0.584459       -15.9039
  24   2.0000      -0.574691       -15.6381
  25   2.0000      -0.547042       -14.8858
  26   2.0000      -0.539470       -14.6797
  27   2.0000      -0.510260       -13.8849
  28   2.0000      -0.504525       -13.7288
  29   2.0000      -0.480343       -13.0708
  30   2.0000      -0.470053       -12.7908
  31   2.0000      -0.445812       -12.1312
  32   2.0000      -0.433254       -11.7894
  33   2.0000      -0.410975       -11.1832
  34   0.0000       0.123628         3.3641
  35   0.0000       0.130618         3.5543
  36   0.0000       0.146074         3.9749
  37   0.0000       0.158339         4.3086
  38   0.0000       0.172035         4.6813

MULLIKEN ATOMIC CHARGES
-----------------------
   0 C :   -0.460894
   1 C :    0.095157
   2 C :   -0.359860
   3 C :    0.113028
   4 C :    0.039005
   5 O :   -0.272298
   6 C :   -0.030020
   7 C :   -0.072490
   8 O :   -0.322449
   9 H :    0.134546
  10 H :    0.141264
  11 H :    0.141393
  12 H :    0.107669
  13 H :    0.129838
  14 H :    0.146390
  15 H :    0.128416
  16 H :    0.093640
  17 H :    0.122921
  18 H :    0.124743
Sum of atomic charges:    0.0000000

LOEWDIN ATOMIC CHARGES
----------------------
   0 C :   -0.295022
   1 C :   -0.213453
   2 C :   -0.177645
   3 C :   -0.189849
   4 C :   -0.276746
   5 O :    0.134352
   6 C :   -0.274497
   7 C :   -0.227495
   8 O :    0.178240
   9 H :    0.126099
  10 H :    0.127918
  11 H :    0.127175
  12 H :    0.158618
  13 H :    0.130022
  14 H :    0.145480
  15 H :    0.165567
  16 H :    0.114944
  17 H :    0.122472
  18 H :    0.123819

  Mayer bond orders larger than 0.1
B(  0-C ,  1-C ) :   0.8765 B(  0-C ,  9-H ) :   0.9390 B(  0-C , 10-H ) :   0.9380
B(  0-C , 11-H ) :   0.9405 B(  1-C ,  2-C ) :   0.9287 B(  1-C ,  6-C ) :   0.8766
B(  1-C , 12-H ) :   0.9119 B(  2-C ,  3-C ) :   0.9104 B(  2-C , 13-H ) :   0.9340
B(  2-C , 14-H ) :   0.9025 B(  3-C ,  4-C ) :   0.8277 B(  3-C ,  6-C ) :   0.8348
B(  3-C , 15-H ) :   0.8786 B(  4-C ,  5-O ) :   1.9879 B(  4-C , 16-H ) :   0.9455
B(  6-C ,  7-C ) :   0.9826 B(  6-C ,  8-O ) :   0.8997 B(  7-C ,  8-O ) :   0.9000
B(  7-C , 17-H ) :   0.9077 B(  7-C , 18-H ) :   0.9098

MP2 TOTAL ENERGY:     -422.292303421 Eh
FINAL SINGLE POINT ENERGY      -422.292303420636

DIPOLE MOMENT
-------------
                                X             Y             Z
Electronic contribution:      4.23059      -2.19740       4.58438
Nuclear contribution   :     -4.67969       2.08316      -4.75402
                        -----------------------------------------
Total Dipole Moment    :     -0.44910      -0.11424      -0.16964
                        -----------------------------------------
Magnitude (a.u.)       :      0.49348
Magnitude (Debye)      :      1.25433

                             ****ORCA TERMINATED NORMALLY****
TOTAL RUN TIME: 0 days 0 hours 19 minutes 4 seconds 365 msec
