                         Program Version 3.0.3 - RELEASE   -
|  1> ! RI-MP2 RIJK def2-TZVP def2-TZVP/C def2-TZVP/JK TIGHTSCF
|  2> % maxcore 2000
|  3> % mp2 density relaxed end
|  4> *xyz 0 1
|  5>  C       -0.0801392764     1.6237247919    -0.1194718272
|  6>  C       -0.0124666239     0.1003304579    -0.0975608052
|  7>  C       -1.4047329026    -0.5155465483     0.1747209989
|  8>  O       -1.9106261003    -0.1183601178     1.4298154344
|  9>  C        0.7690989113    -0.6409243582    -1.1932498860
| 10>  C        2.2078551287    -0.3736897029    -1.1270429142
| 11>  N        1.6556807949    -1.3758026566    -0.1599780287
| 12>  C        0.9713255781    -0.6037993953     0.8567697527
| 13>  O        1.0479123816    -0.6949967870     2.0473090057
| 14>  H        0.9061464298     2.0870631746    -0.2015216805
| 15>  H       -0.6866179344     1.9615534972    -0.9671837593
| 16>  H       -0.5548541588     1.9789999507     0.7977657797
| 17>  H       -2.1173724836    -0.1570755425    -0.5771818820
| 18>  H       -1.3474820342    -1.6119790420     0.0835504100
| 19>  H       -1.2645989551    -0.3833542312     2.0980509908
| 20>  H        0.3195813065    -1.2180607513    -1.9929623611
| 21>  H        2.8524131783    -0.8417097504    -1.8636719750
| 22>  H        2.5806860199     0.5697326812    -0.7386636130
| 23> *
| 24>
| 25>                          ****END OF INPUT****

CARTESIAN COORDINATES (ANGSTROEM)
---------------------------------
  C     -0.080139    1.623725   -0.119472
  C     -0.012467    0.100330   -0.097561
  C     -1.404733   -0.515547    0.174721
  O     -1.910626   -0.118360    1.429815
  C      0.769099   -0.640924   -1.193250
  C      2.207855   -0.373690   -1.127043
  N      1.655681   -1.375803   -0.159978
  C      0.971326   -0.603799    0.856770
  O      1.047912   -0.694997    2.047309
  H      0.906146    2.087063   -0.201522
  H     -0.686618    1.961553   -0.967184
  H     -0.554854    1.979000    0.797766
  H     -2.117372   -0.157076   -0.577182
  H     -1.347482   -1.611979    0.083550
  H     -1.264599   -0.383354    2.098051
  H      0.319581   -1.218061   -1.992962
  H      2.852413   -0.841710   -1.863672
  H      2.580686    0.569733   -0.738664

 Total Charge           Charge          ....    0
 Multiplicity           Mult            ....    1
 Number of Electrons    NEL             ....   68
 Basis Dimension        Dim             ....  333

ORBITAL ENERGIES
----------------

  NO   OCC          E(Eh)            E(eV)
   0   2.0000     -20.564970      -559.6013
   1   2.0000     -20.561802      -559.5151
   2   2.0000     -15.594436      -424.3462
   3   2.0000     -11.367648      -309.3294
   4   2.0000     -11.297860      -307.4304
   5   2.0000     -11.296917      -307.4047
   6   2.0000     -11.296718      -307.3993
   7   2.0000     -11.273877      -306.7778
   8   2.0000     -11.237155      -305.7785
   9   2.0000      -1.422162       -38.6990
  10   2.0000      -1.370244       -37.2862
  11   2.0000      -1.317485       -35.8506
  12   2.0000      -1.086510       -29.5654
  13   2.0000      -0.972785       -26.4708
  14   2.0000      -0.943587       -25.6763
  15   2.0000      -0.893948       -24.3255
  16   2.0000      -0.832956       -22.6659
  17   2.0000      -0.725596       -19.7445
  18   2.0000      -0.712173       -19.3792
  19   2.0000      -0.695391       -18.9225
  20   2.0000      -0.684995       -18.6397
  21   2.0000      -0.641965       -17.4687
  22   2.0000      -0.610367       -16.6089
  23   2.0000      -0.597744       -16.2654
  24   2.0000      -0.591059       -16.0835
  25   2.0000      -0.568747       -15.4764
  26   2.0000      -0.557232       -15.1630
  27   2.0000      -0.543209       -14.7815
  28   2.0000      -0.532156       -14.4807
  29   2.0000      -0.492686       -13.4067
  30   2.0000      -0.464512       -12.6400
  31   2.0000      -0.457443       -12.4476
  32   2.0000      -0.433830       -11.8051
  33   2.0000      -0.399543       -10.8721
  34   0.0000       0.126784         3.4500
  35   0.0000       0.136156         3.7050
  36   0.0000       0.151209         4.1146
  37   0.0000       0.165340         4.4991
  38   0.0000       0.173349         4.7171

MULLIKEN ATOMIC CHARGES
-----------------------
   0 C :   -0.388943
   1 C :    0.033402
   2 C :   -0.038070
   3 O :   -0.468611
   4 C :   -0.141087
   5 C :   -0.144570
   6 N :   -0.198663
   7 C :    0.171964
   8 O :   -0.267936
   9 H :    0.125822
  10 H :    0.134680
  11 H :    0.162155
  12 H :    0.117301
  13 H :    0.126884
  14 H :    0.332141
  15 H :    0.152098
  16 H :    0.146925
  17 H :    0.144507
Sum of atomic charges:    0.0000000

LOEWDIN ATOMIC CHARGES
----------------------
   0 C :   -0.257665
   1 C :   -0.259654
   2 C :   -0.295747
   3 O :   -0.027640
   4 C :   -0.154794
   5 C :   -0.211611
   6 N :    0.150855
   7 C :   -0.360844
   8 O :    0.161110
   9 H :    0.124554
  10 H :    0.131734
  11 H :    0.138851
  12 H :    0.134765
  13 H :    0.129465
  14 H :    0.181269
  15 H :    0.142488
  16 H :    0.139596
  17 H :    0.133268

  Mayer bond orders larger than 0.1
B(  0-C ,  1-C ) :   0.9146 B(  0-C ,  9-H ) :   0.9276 B(  0-C , 10-H ) :   0.9305
B(  0-C , 11-H ) :   0.9255 B(  1-C ,  2-C ) :   0.9064 B(  1-C ,  4-C ) :   0.8957
B(  1-C ,  7-C ) :   0.8925 B(  2-C ,  3-O ) :   0.9414 B(  2-C , 12-H ) :   0.9270
B(  2-C , 13-H ) :   0.9113 B(  3-O , 14-H ) :   0.8252 B(  4-C ,  5-C ) :   0.9627
B(  4-C ,  6-N ) :   0.8340 B(  4-C , 15-H ) :   0.8935 B(  5-C ,  6-N ) :   0.8358
B(  5-C , 16-H ) :   0.9257 B(  5-C , 17-H ) :   0.9101 B(  6-N ,  7-C ) :   0.9846
B(  7-C ,  8-O ) :   2.0000

MP2 TOTAL ENERGY:     -438.344611440 Eh
FINAL SINGLE POINT ENERGY      -438.344611440157

DIPOLE MOMENT
-------------
                                X             Y             Z
Electronic contribution:      2.20758      -4.02150       3.82423
Nuclear contribution   :     -1.99372       4.53897      -5.23168
                        -----------------------------------------
Total Dipole Moment    :      0.21386       0.51747      -1.40746
                        -----------------------------------------
Magnitude (a.u.)       :      1.51474
Magnitude (Debye)      :      3.85017

                             ****ORCA TERMINATED NORMALLY****
TOTAL RUN TIME: 0 days 0 hours 17 minutes 4 seconds 101 msec
