                         Program Version 3.0.3 - RELEASE   -
|  1> ! RI-MP2 RIJK def2-TZVP def2-TZVP/C def2-TZVP/JK TIGHTSCF
|  2> % maxcore 2000
|  3> % mp2 density relaxed end
|  4> *xyz 0 1
|  5>  C       -1.2745291713    -0.0590489879    -0.1811201698
|  6>  O        0.0149876289    -0.6360836009    -0.0949876557
|  7>  C        0.6495709342    -0.5301783812     1.1704493485
|  8>  C        0.2567147873    -1.6808289689     2.0986546103
|  9>  O       -1.0893198884    -1.4993286172     2.5151563969
| 10>  C        2.1421641835    -0.5580599052     0.8926453994
| 11>  C        2.8644335364     0.6811221232     0.4981700423
| 12>  N        3.1576421866     0.0298600678     1.7695440979
| 13>  C        2.7775428994     0.7279022088     2.9891962363
| 14>  H       -1.2546796808     1.0075510771     0.0932138440
| 15>  H       -1.5856626640    -0.1431318452    -1.2259805266
| 16>  H       -1.9989106721    -0.5694636995     0.4614361525
| 17>  H        0.3608819839     0.4143511425     1.6535375615
| 18>  H        0.3864630478    -2.6237088410     1.5464147572
| 19>  H        0.9396454609    -1.6965153721     2.9628690978
| 20>  H       -1.3661201715    -2.2855525995     2.9944008724
| 21>  H        2.4636107497    -1.4970012548     0.4419747284
| 22>  H        3.6509222971     0.6545300206    -0.2513986179
| 23>  H        2.2918729586     1.6085311263     0.5225002282
| 24>  H        1.8830865281     1.3641288511     2.9006760872
| 25>  H        2.6058108639     0.0022276975     3.7911156654
| 26>  H        3.6117433118     1.3692751884     3.2916076537
| 27> *
| 28>
| 29>                          ****END OF INPUT****

CARTESIAN COORDINATES (ANGSTROEM)
---------------------------------
  C     -1.274529   -0.059049   -0.181120
  O      0.014988   -0.636084   -0.094988
  C      0.649571   -0.530178    1.170449
  C      0.256715   -1.680829    2.098655
  O     -1.089320   -1.499329    2.515156
  C      2.142164   -0.558060    0.892645
  C      2.864434    0.681122    0.498170
  N      3.157642    0.029860    1.769544
  C      2.777543    0.727902    2.989196
  H     -1.254680    1.007551    0.093214
  H     -1.585663   -0.143132   -1.225981
  H     -1.998911   -0.569464    0.461436
  H      0.360882    0.414351    1.653538
  H      0.386463   -2.623709    1.546415
  H      0.939645   -1.696515    2.962869
  H     -1.366120   -2.285553    2.994401
  H      2.463611   -1.497001    0.441975
  H      3.650922    0.654530   -0.251399
  H      2.291873    1.608531    0.522500
  H      1.883087    1.364129    2.900676
  H      2.605811    0.002228    3.791116
  H      3.611743    1.369275    3.291608

 Total Charge           Charge          ....    0
 Multiplicity           Mult            ....    1
 Number of Electrons    NEL             ....   72
 Basis Dimension        Dim             ....  357

ORBITAL ENERGIES
----------------

  NO   OCC          E(Eh)            E(eV)
   0   2.0000     -20.562861      -559.5439
   1   2.0000     -20.549367      -559.1767
   2   2.0000     -15.557059      -423.3291
   3   2.0000     -11.283369      -307.0361
   4   2.0000     -11.278703      -306.9091
   5   2.0000     -11.260172      -306.4049
   6   2.0000     -11.254828      -306.2594
   7   2.0000     -11.248215      -306.0795
   8   2.0000     -11.247228      -306.0526
   9   2.0000      -1.378250       -37.5041
  10   2.0000      -1.358057       -36.9546
  11   2.0000      -1.268885       -34.5281
  12   2.0000      -1.035204       -28.1693
  13   2.0000      -0.987228       -26.8639
  14   2.0000      -0.915144       -24.9023
  15   2.0000      -0.854620       -23.2554
  16   2.0000      -0.828572       -22.5466
  17   2.0000      -0.780898       -21.2493
  18   2.0000      -0.704629       -19.1739
  19   2.0000      -0.690159       -18.7802
  20   2.0000      -0.649837       -17.6830
  21   2.0000      -0.647497       -17.6193
  22   2.0000      -0.637435       -17.3455
  23   2.0000      -0.600839       -16.3497
  24   2.0000      -0.594149       -16.1676
  25   2.0000      -0.580827       -15.8051
  26   2.0000      -0.565304       -15.3827
  27   2.0000      -0.554340       -15.0844
  28   2.0000      -0.522198       -14.2097
  29   2.0000      -0.499453       -13.5908
  30   2.0000      -0.479865       -13.0578
  31   2.0000      -0.457939       -12.4612
  32   2.0000      -0.452696       -12.3185
  33   2.0000      -0.448722       -12.2103
  34   2.0000      -0.410592       -11.1728
  35   2.0000      -0.366463        -9.9720
  36   0.0000       0.132883         3.6159
  37   0.0000       0.147268         4.0074
  38   0.0000       0.164161         4.4670
  39   0.0000       0.177217         4.8223
  40   0.0000       0.188572         5.1313

MULLIKEN ATOMIC CHARGES
-----------------------
   0 C :   -0.220168
   1 O :   -0.315746
   2 C :    0.120203
   3 C :   -0.092137
   4 O :   -0.476298
   5 C :   -0.030602
   6 C :   -0.172395
   7 N :   -0.221128
   8 C :   -0.298485
   9 H :    0.103373
  10 H :    0.131617
  11 H :    0.139544
  12 H :    0.063916
  13 H :    0.105727
  14 H :    0.102300
  15 H :    0.318726
  16 H :    0.117619
  17 H :    0.125931
  18 H :    0.112510
  19 H :    0.110321
  20 H :    0.130133
  21 H :    0.145038
Sum of atomic charges:   -0.0000000

LOEWDIN ATOMIC CHARGES
----------------------
   0 C :   -0.355384
   1 O :    0.161062
   2 C :   -0.323774
   3 C :   -0.325927
   4 O :   -0.046850
   5 C :   -0.236792
   6 C :   -0.240827
   7 N :    0.089038
   8 C :   -0.335060
   9 H :    0.100062
  10 H :    0.110778
  11 H :    0.105511
  12 H :    0.142503
  13 H :    0.123218
  14 H :    0.121920
  15 H :    0.173519
  16 H :    0.147906
  17 H :    0.124505
  18 H :    0.125345
  19 H :    0.103662
  20 H :    0.115435
  21 H :    0.120152

  Mayer bond orders larger than 0.1
B(  0-C ,  1-O ) :   0.9034 B(  0-C ,  9-H ) :   0.9361 B(  0-C , 10-H ) :   0.9378
B(  0-C , 11-H ) :   0.9322 B(  1-O ,  2-C ) :   0.9339 B(  2-C ,  3-C ) :   0.9086
B(  2-C ,  5-C ) :   0.9158 B(  2-C , 12-H ) :   0.9184 B(  3-C ,  4-O ) :   1.0027
B(  3-C , 13-H ) :   0.9229 B(  3-C , 14-H ) :   0.9224 B(  4-O , 15-H ) :   0.8465
B(  5-C ,  6-C ) :   0.9247 B(  5-C ,  7-N ) :   0.9370 B(  5-C , 16-H ) :   0.9099
B(  6-C ,  7-N ) :   0.9026 B(  6-C , 17-H ) :   0.9199 B(  6-C , 18-H ) :   0.9180
B(  7-N ,  8-C ) :   0.8857 B(  8-C , 19-H ) :   0.9273 B(  8-C , 20-H ) :   0.9375
B(  8-C , 21-H ) :   0.9367

MP2 TOTAL ENERGY:     -440.706924951 Eh
FINAL SINGLE POINT ENERGY      -440.706924950785

DIPOLE MOMENT
-------------
                                X             Y             Z
Electronic contribution:      0.31076      -2.75751      -1.47221
Nuclear contribution   :     -0.70479       2.68293       1.95352
                        -----------------------------------------
Total Dipole Moment    :     -0.39403      -0.07458       0.48130
                        -----------------------------------------
Magnitude (a.u.)       :      0.62648
Magnitude (Debye)      :      1.59238

                             ****ORCA TERMINATED NORMALLY****
TOTAL RUN TIME: 0 days 0 hours 16 minutes 51 seconds 466 msec
