                         Program Version 3.0.3 - RELEASE   -
|  1> ! RI-MP2 RIJK def2-TZVP def2-TZVP/C def2-TZVP/JK TIGHTSCF
|  2> % maxcore 2000
|  3> % mp2 density relaxed end
|  4> *xyz 0 1
|  5>  O        0.0268121905     0.0037995719     0.0057940391
|  6>  C       -0.0030546475     1.2042758035     0.0008887111
|  7>  C       -1.2552178708     2.1054570786    -0.0079671200
|  8>  C       -0.6733628078     3.5381028370    -0.0695012202
|  9>  C       -0.4422984985     4.1466828393     1.3234975416
| 10>  C        0.6778171811     3.4384391485     2.0414165774
| 11>  C        1.4458228101     2.5350698445     1.4298337530
| 12>  C        1.1919526161     2.1900946460    -0.0203239291
| 13>  N        0.6629352154     3.3824090812    -0.7031980721
| 14>  H       -1.8377688337     1.8742684923    -0.9064882140
| 15>  H       -1.8918230497     1.8894529364     0.8547204759
| 16>  H       -1.2903883590     4.2073081685    -0.6728100442
| 17>  H       -0.2082151763     5.2147525785     1.2278211529
| 18>  H       -1.3671728616     4.0868865595     1.9131326823
| 19>  H        0.8472215145     3.6901414161     3.0850704606
| 20>  H        2.2200006920     1.9874996584     1.9561411211
| 21>  H        2.0699228389     1.7764528318    -0.5168796525
| 22>  H        0.5358430764     3.1634965279    -1.6891232728
| 23> *
| 24>
| 25>                          ****END OF INPUT****

CARTESIAN COORDINATES (ANGSTROEM)
---------------------------------
  O      0.026812    0.003800    0.005794
  C     -0.003055    1.204276    0.000889
  C     -1.255218    2.105457   -0.007967
  C     -0.673363    3.538103   -0.069501
  C     -0.442298    4.146683    1.323498
  C      0.677817    3.438439    2.041417
  C      1.445823    2.535070    1.429834
  C      1.191953    2.190095   -0.020324
  N      0.662935    3.382409   -0.703198
  H     -1.837769    1.874268   -0.906488
  H     -1.891823    1.889453    0.854720
  H     -1.290388    4.207308   -0.672810
  H     -0.208215    5.214753    1.227821
  H     -1.367173    4.086887    1.913133
  H      0.847222    3.690141    3.085070
  H      2.220001    1.987500    1.956141
  H      2.069923    1.776453   -0.516880
  H      0.535843    3.163497   -1.689123

 Total Charge           Charge          ....    0
 Multiplicity           Mult            ....    1
 Number of Electrons    NEL             ....   66
 Basis Dimension        Dim             ....  333

ORBITAL ENERGIES
----------------

  NO   OCC          E(Eh)            E(eV)
   0   2.0000     -20.547338      -559.1215
   1   2.0000     -15.560846      -423.4322
   2   2.0000     -11.330504      -308.3187
   3   2.0000     -11.272905      -306.7513
   4   2.0000     -11.272158      -306.7310
   5   2.0000     -11.240462      -305.8685
   6   2.0000     -11.239106      -305.8316
   7   2.0000     -11.237773      -305.7953
   8   2.0000     -11.236901      -305.7716
   9   2.0000      -1.392714       -37.8977
  10   2.0000      -1.253607       -34.1124
  11   2.0000      -1.079715       -29.3805
  12   2.0000      -1.044193       -28.4139
  13   2.0000      -1.005371       -27.3575
  14   2.0000      -0.892045       -24.2738
  15   2.0000      -0.839376       -22.8406
  16   2.0000      -0.757769       -20.6199
  17   2.0000      -0.723998       -19.7010
  18   2.0000      -0.706630       -19.2284
  19   2.0000      -0.651852       -17.7378
  20   2.0000      -0.633838       -17.2476
  21   2.0000      -0.612530       -16.6678
  22   2.0000      -0.599672       -16.3179
  23   2.0000      -0.587356       -15.9828
  24   2.0000      -0.578882       -15.7522
  25   2.0000      -0.566028       -15.4024
  26   2.0000      -0.524980       -14.2854
  27   2.0000      -0.494438       -13.4543
  28   2.0000      -0.489494       -13.3198
  29   2.0000      -0.470423       -12.8009
  30   2.0000      -0.443203       -12.0602
  31   2.0000      -0.379097       -10.3158
  32   2.0000      -0.353704        -9.6248
  33   0.0000       0.119131         3.2417
  34   0.0000       0.127984         3.4826
  35   0.0000       0.154314         4.1991
  36   0.0000       0.161683         4.3996
  37   0.0000       0.165362         4.4997

MULLIKEN ATOMIC CHARGES
-----------------------
   0 O :   -0.259924
   1 C :    0.063686
   2 C :   -0.266656
   3 C :    0.021741
   4 C :   -0.175615
   5 C :   -0.205587
   6 C :   -0.236385
   7 C :    0.145618
   8 N :   -0.339785
   9 H :    0.144180
  10 H :    0.140077
  11 H :    0.123089
  12 H :    0.124652
  13 H :    0.121316
  14 H :    0.125638
  15 H :    0.134481
  16 H :    0.136009
  17 H :    0.203466
Sum of atomic charges:   -0.0000000

LOEWDIN ATOMIC CHARGES
----------------------
   0 O :    0.155019
   1 C :   -0.293359
   2 C :   -0.210737
   3 C :   -0.271788
   4 C :   -0.229580
   5 C :   -0.152180
   6 C :   -0.135777
   7 C :   -0.254218
   8 N :    0.037452
   9 H :    0.152008
  10 H :    0.150329
  11 H :    0.143742
  12 H :    0.149416
  13 H :    0.146123
  14 H :    0.142961
  15 H :    0.146248
  16 H :    0.152886
  17 H :    0.171456

  Mayer bond orders larger than 0.1
B(  0-O ,  1-C ) :   2.0598 B(  1-C ,  2-C ) :   0.9201 B(  1-C ,  7-C ) :   0.8297
B(  2-C ,  3-C ) :   0.9199 B(  2-C ,  7-C ) :  -0.1170 B(  2-C ,  9-H ) :   0.9023
B(  2-C , 10-H ) :   0.9038 B(  3-C ,  4-C ) :   0.9402 B(  3-C ,  8-N ) :   0.9407
B(  3-C , 11-H ) :   0.9236 B(  4-C ,  5-C ) :   0.9463 B(  4-C , 12-H ) :   0.9024
B(  4-C , 13-H ) :   0.9209 B(  5-C ,  6-C ) :   1.7878 B(  5-C , 14-H ) :   0.9284
B(  6-C ,  7-C ) :   0.8816 B(  6-C , 15-H ) :   0.9250 B(  7-C ,  8-N ) :   1.0168
B(  7-C , 16-H ) :   0.9095 B(  8-N , 17-H ) :   0.8730

MP2 TOTAL ENERGY:     -401.284852007 Eh
FINAL SINGLE POINT ENERGY      -401.284852006964

DIPOLE MOMENT
-------------
                                X             Y             Z
Electronic contribution:      1.84814      -4.37358      -1.40459
Nuclear contribution   :     -2.24236       5.17806       1.35199
                        -----------------------------------------
Total Dipole Moment    :     -0.39422       0.80447      -0.05260
                        -----------------------------------------
Magnitude (a.u.)       :      0.89741
Magnitude (Debye)      :      2.28104

                             ****ORCA TERMINATED NORMALLY****
TOTAL RUN TIME: 0 days 0 hours 25 minutes 29 seconds 9 msec
