                         Program Version 3.0.3 - RELEASE   -
|  1> ! RI-MP2 RIJK def2-TZVP def2-TZVP/C def2-TZVP/JK TIGHTSCF
|  2> % maxcore 2000
|  3> % mp2 density relaxed end
|  4> *xyz 0 1
|  5>  C        0.1254856085     1.5789664565     0.0418989961
|  6>  C        0.0347728491     0.0517061734     0.0989040849
|  7>  C       -1.3951176874    -0.4763295579    -0.0802561465
|  8>  C       -1.4822541695    -1.9963458595    -0.0099706535
|  9>  C       -1.2235176004    -2.7190839054     1.3406560893
| 10>  C       -2.3363419295    -3.7342188054     0.9734247288
| 11>  C       -2.8671422033    -2.7380639318    -0.1072541366
| 12>  C       -4.0467462638    -1.9159289004     0.4212934826
| 13>  C       -3.2023988894    -3.3342940723    -1.4716164031
| 14>  H        1.1557268089     1.9247854429     0.1736101927
| 15>  H       -0.2336100696     1.9616316843    -0.9201491083
| 16>  H       -0.4834350411     2.0411759066     0.8270227554
| 17>  H        0.6804176586    -0.3838356245    -0.6753539090
| 18>  H        0.4330351931    -0.3027931767     1.0584354041
| 19>  H       -2.0394614441    -0.0288703851     0.6880896711
| 20>  H       -1.7878066717    -0.1293389697    -1.0468662755
| 21>  H       -0.8180270830    -2.4217295796    -0.7739440098
| 22>  H       -0.2206548352    -3.1141656091     1.5196282084
| 23>  H       -1.5000147480    -2.0939047590     2.1962065364
| 24>  H       -1.9288183535    -4.6440637905     0.5221919285
| 25>  H       -3.0361397628    -4.0243497791     1.7625115927
| 26>  H       -3.8481642305    -1.4999936298     1.4142332400
| 27>  H       -4.2900664630    -1.0822423952    -0.2468636766
| 28>  H       -4.9395110411    -2.5467436090     0.5026852264
| 29>  H       -4.0919303379    -3.9736128747    -1.4180826495
| 30>  H       -3.4066825950    -2.5494193497    -2.2101751119
| 31>  H       -2.3758162383    -3.9440088992    -1.8521941173
| 32> *
| 33>
| 34>                          ****END OF INPUT****

CARTESIAN COORDINATES (ANGSTROEM)
---------------------------------
  C      0.125486    1.578966    0.041899
  C      0.034773    0.051706    0.098904
  C     -1.395118   -0.476330   -0.080256
  C     -1.482254   -1.996346   -0.009971
  C     -1.223518   -2.719084    1.340656
  C     -2.336342   -3.734219    0.973425
  C     -2.867142   -2.738064   -0.107254
  C     -4.046746   -1.915929    0.421293
  C     -3.202399   -3.334294   -1.471616
  H      1.155727    1.924785    0.173610
  H     -0.233610    1.961632   -0.920149
  H     -0.483435    2.041176    0.827023
  H      0.680418   -0.383836   -0.675354
  H      0.433035   -0.302793    1.058435
  H     -2.039461   -0.028870    0.688090
  H     -1.787807   -0.129339   -1.046866
  H     -0.818027   -2.421730   -0.773944
  H     -0.220655   -3.114166    1.519628
  H     -1.500015   -2.093905    2.196207
  H     -1.928818   -4.644064    0.522192
  H     -3.036140   -4.024350    1.762512
  H     -3.848164   -1.499994    1.414233
  H     -4.290066   -1.082242   -0.246864
  H     -4.939511   -2.546744    0.502685
  H     -4.091930   -3.973613   -1.418083
  H     -3.406683   -2.549419   -2.210175
  H     -2.375816   -3.944009   -1.852194

 Total Charge           Charge          ....    0
 Multiplicity           Mult            ....    1
 Number of Electrons    NEL             ....   72
 Basis Dimension        Dim             ....  387

ORBITAL ENERGIES
----------------

  NO   OCC          E(Eh)            E(eV)
   0   2.0000     -11.226694      -305.4939
   1   2.0000     -11.216070      -305.2048
   2   2.0000     -11.215010      -305.1759
   3   2.0000     -11.211757      -305.0874
   4   2.0000     -11.211204      -305.0724
   5   2.0000     -11.210813      -305.0617
   6   2.0000     -11.209328      -305.0213
   7   2.0000     -11.208334      -304.9943
   8   2.0000     -11.206982      -304.9575
   9   2.0000      -1.139897       -31.0182
  10   2.0000      -1.054362       -28.6906
  11   2.0000      -0.995626       -27.0924
  12   2.0000      -0.951017       -25.8785
  13   2.0000      -0.926605       -25.2142
  14   2.0000      -0.851919       -23.1819
  15   2.0000      -0.825069       -22.4513
  16   2.0000      -0.787086       -21.4177
  17   2.0000      -0.704614       -19.1735
  18   2.0000      -0.638212       -17.3666
  19   2.0000      -0.620800       -16.8928
  20   2.0000      -0.616751       -16.7826
  21   2.0000      -0.597210       -16.2509
  22   2.0000      -0.569541       -15.4980
  23   2.0000      -0.563472       -15.3328
  24   2.0000      -0.546944       -14.8831
  25   2.0000      -0.534003       -14.5310
  26   2.0000      -0.525470       -14.2988
  27   2.0000      -0.516561       -14.0563
  28   2.0000      -0.495433       -13.4814
  29   2.0000      -0.486272       -13.2321
  30   2.0000      -0.476923       -12.9777
  31   2.0000      -0.466709       -12.6998
  32   2.0000      -0.445521       -12.1233
  33   2.0000      -0.435189       -11.8421
  34   2.0000      -0.408399       -11.1131
  35   2.0000      -0.401124       -10.9151
  36   0.0000       0.131816         3.5869
  37   0.0000       0.145999         3.9728
  38   0.0000       0.159428         4.3383
  39   0.0000       0.160523         4.3681
  40   0.0000       0.184796         5.0286

MULLIKEN ATOMIC CHARGES
-----------------------
   0 C :   -0.384703
   1 C :   -0.182371
   2 C :   -0.289741
   3 C :   -0.056974
   4 C :   -0.269403
   5 C :   -0.233112
   6 C :    0.167161
   7 C :   -0.453288
   8 C :   -0.412951
   9 H :    0.132164
  10 H :    0.120756
  11 H :    0.121210
  12 H :    0.105048
  13 H :    0.111506
  14 H :    0.108059
  15 H :    0.109362
  16 H :    0.084314
  17 H :    0.116494
  18 H :    0.110758
  19 H :    0.108146
  20 H :    0.110648
  21 H :    0.133396
  22 H :    0.131249
  23 H :    0.133544
  24 H :    0.128327
  25 H :    0.126220
  26 H :    0.124181
Sum of atomic charges:   -0.0000000

LOEWDIN ATOMIC CHARGES
----------------------
   0 C :   -0.322607
   1 C :   -0.292050
   2 C :   -0.255644
   3 C :   -0.197329
   4 C :   -0.223086
   5 C :   -0.201422
   6 C :   -0.281534
   7 C :   -0.272515
   8 C :   -0.279397
   9 H :    0.119675
  10 H :    0.119646
  11 H :    0.119696
  12 H :    0.134197
  13 H :    0.136018
  14 H :    0.139209
  15 H :    0.138906
  16 H :    0.153486
  17 H :    0.122326
  18 H :    0.133303
  19 H :    0.134199
  20 H :    0.125215
  21 H :    0.125727
  22 H :    0.125139
  23 H :    0.126243
  24 H :    0.125002
  25 H :    0.125020
  26 H :    0.122575

  Mayer bond orders larger than 0.1
B(  0-C ,  1-C ) :   0.9195 B(  0-C ,  9-H ) :   0.9438 B(  0-C , 10-H ) :   0.9399
B(  0-C , 11-H ) :   0.9399 B(  1-C ,  2-C ) :   0.9288 B(  1-C , 12-H ) :   0.9343
B(  1-C , 13-H ) :   0.9345 B(  2-C ,  3-C ) :   0.9146 B(  2-C , 14-H ) :   0.9263
B(  2-C , 15-H ) :   0.9337 B(  3-C ,  4-C ) :   0.9429 B(  3-C ,  6-C ) :   0.9132
B(  3-C , 16-H ) :   0.9151 B(  4-C ,  5-C ) :   0.9521 B(  4-C , 17-H ) :   0.9242
B(  4-C , 18-H ) :   0.9208 B(  5-C ,  6-C ) :   0.9033 B(  5-C , 19-H ) :   0.9155
B(  5-C , 20-H ) :   0.9245 B(  6-C ,  7-C ) :   0.8967 B(  6-C ,  8-C ) :   0.8952
B(  7-C , 21-H ) :   0.9358 B(  7-C , 22-H ) :   0.9394 B(  7-C , 23-H ) :   0.9364
B(  8-C , 24-H ) :   0.9378 B(  8-C , 25-H ) :   0.9378 B(  8-C , 26-H ) :   0.9333

MP2 TOTAL ENERGY:     -352.915475952 Eh
FINAL SINGLE POINT ENERGY      -352.915475951839

DIPOLE MOMENT
-------------
                                X             Y             Z
Electronic contribution:     -0.03091      -3.00619       0.69274
Nuclear contribution   :      0.04463       3.01710      -0.71752
                        -----------------------------------------
Total Dipole Moment    :      0.01373       0.01092      -0.02479
                        -----------------------------------------
Magnitude (a.u.)       :      0.03036
Magnitude (Debye)      :      0.07718

                             ****ORCA TERMINATED NORMALLY****
TOTAL RUN TIME: 0 days 0 hours 20 minutes 37 seconds 421 msec
