                         Program Version 3.0.3 - RELEASE   -
|  1> ! RI-MP2 RIJK def2-TZVP def2-TZVP/C def2-TZVP/JK TIGHTSCF
|  2> % maxcore 2000
|  3> % mp2 density relaxed end
|  4> *xyz 0 1
|  5>  C       -0.5827600635     1.4370475130     0.1961480298
|  6>  C        0.0433242497     0.0698041191     0.0337705082
|  7>  O        1.1961147748     0.0581253312    -0.8536377062
|  8>  C        1.9993857781    -0.6543411000     0.1020292564
|  9>  C        2.9080358705     0.2899287564     0.9335839680
| 10>  C        1.7703111429     0.3852982942     1.9394913627
| 11>  N        1.5903117377     0.9390072972     3.0645812132
| 12>  O        2.7073869997     1.7113786250     3.4282651037
| 13>  C        0.8718029184    -0.5673970355     1.1833746055
| 14>  H        0.1321353346     2.1570088011     0.6020884777
| 15>  H       -0.9358066790     1.8040592739    -0.7727377215
| 16>  H       -1.4408861292     1.3814087569     0.8744686840
| 17>  H       -0.7036221207    -0.6469986290    -0.3357639645
| 18>  H        2.4214669124    -1.5793011957    -0.2957442334
| 19>  H        3.8003837699    -0.1863299132     1.3547292046
| 20>  H        3.2004695742     1.2129061888     0.4273194398
| 21>  H        2.4481256503     2.0501946132     4.2920141911
| 22>  H        0.4306695493    -1.4017619766     1.7263999709
| 23> *
| 24>
| 25>                          ****END OF INPUT****

CARTESIAN COORDINATES (ANGSTROEM)
---------------------------------
  C     -0.582760    1.437048    0.196148
  C      0.043324    0.069804    0.033771
  O      1.196115    0.058125   -0.853638
  C      1.999386   -0.654341    0.102029
  C      2.908036    0.289929    0.933584
  C      1.770311    0.385298    1.939491
  N      1.590312    0.939007    3.064581
  O      2.707387    1.711379    3.428265
  C      0.871803   -0.567397    1.183375
  H      0.132135    2.157009    0.602088
  H     -0.935807    1.804059   -0.772738
  H     -1.440886    1.381409    0.874469
  H     -0.703622   -0.646999   -0.335764
  H      2.421467   -1.579301   -0.295744
  H      3.800384   -0.186330    1.354729
  H      3.200470    1.212906    0.427319
  H      2.448126    2.050195    4.292014
  H      0.430670   -1.401762    1.726400

 Total Charge           Charge          ....    0
 Multiplicity           Mult            ....    1
 Number of Electrons    NEL             ....   68
 Basis Dimension        Dim             ....  333

ORBITAL ENERGIES
----------------

  NO   OCC          E(Eh)            E(eV)
   0   2.0000     -20.593397      -560.3748
   1   2.0000     -20.554200      -559.3082
   2   2.0000     -15.617648      -424.9778
   3   2.0000     -11.295830      -307.3752
   4   2.0000     -11.295755      -307.3731
   5   2.0000     -11.281130      -306.9752
   6   2.0000     -11.248198      -306.0790
   7   2.0000     -11.241146      -305.8871
   8   2.0000     -11.219106      -305.2874
   9   2.0000      -1.419398       -38.6238
  10   2.0000      -1.389475       -37.8095
  11   2.0000      -1.177407       -32.0389
  12   2.0000      -1.076164       -29.2839
  13   2.0000      -1.031397       -28.0657
  14   2.0000      -0.939970       -25.5779
  15   2.0000      -0.843305       -22.9475
  16   2.0000      -0.803583       -21.8666
  17   2.0000      -0.713401       -19.4126
  18   2.0000      -0.700705       -19.0672
  19   2.0000      -0.693031       -18.8583
  20   2.0000      -0.668716       -18.1967
  21   2.0000      -0.625819       -17.0294
  22   2.0000      -0.618814       -16.8388
  23   2.0000      -0.593295       -16.1444
  24   2.0000      -0.579382       -15.7658
  25   2.0000      -0.554284       -15.0828
  26   2.0000      -0.532456       -14.4889
  27   2.0000      -0.524225       -14.2649
  28   2.0000      -0.518192       -14.1007
  29   2.0000      -0.475721       -12.9450
  30   2.0000      -0.445258       -12.1161
  31   2.0000      -0.426869       -11.6157
  32   2.0000      -0.415532       -11.3072
  33   2.0000      -0.382760       -10.4154
  34   0.0000       0.129266         3.5175
  35   0.0000       0.144052         3.9199
  36   0.0000       0.154285         4.1983
  37   0.0000       0.163268         4.4427
  38   0.0000       0.180097         4.9007

MULLIKEN ATOMIC CHARGES
-----------------------
   0 C :   -0.390803
   1 C :    0.069058
   2 O :   -0.331428
   3 C :    0.049159
   4 C :   -0.195546
   5 C :   -0.113853
   6 N :   -0.075192
   7 O :   -0.360479
   8 C :   -0.013591
   9 H :    0.140154
  10 H :    0.139919
  11 H :    0.130836
  12 H :    0.087758
  13 H :    0.114084
  14 H :    0.134333
  15 H :    0.137016
  16 H :    0.337858
  17 H :    0.140717
Sum of atomic charges:   -0.0000000

LOEWDIN ATOMIC CHARGES
----------------------
   0 C :   -0.290773
   1 C :   -0.274751
   2 O :    0.155776
   3 C :   -0.221875
   4 C :   -0.187779
   5 C :   -0.266577
   6 N :    0.025662
   7 O :   -0.072005
   8 C :   -0.134548
   9 H :    0.128806
  10 H :    0.130209
  11 H :    0.131702
  12 H :    0.138667
  13 H :    0.126337
  14 H :    0.148918
  15 H :    0.146950
  16 H :    0.170051
  17 H :    0.145229

  Mayer bond orders larger than 0.1
B(  0-C ,  1-C ) :   0.9257 B(  0-C ,  9-H ) :   0.9313 B(  0-C , 10-H ) :   0.9315
B(  0-C , 11-H ) :   0.9271 B(  1-C ,  2-O ) :   0.9184 B(  1-C ,  8-C ) :   0.8826
B(  1-C , 12-H ) :   0.9185 B(  2-O ,  3-C ) :   0.9576 B(  3-C ,  4-C ) :   0.9370
B(  3-C ,  8-C ) :   0.9335 B(  3-C , 13-H ) :   0.9240 B(  4-C ,  5-C ) :   0.9864
B(  4-C , 14-H ) :   0.8974 B(  4-C , 15-H ) :   0.8873 B(  5-C ,  6-N ) :   1.8495
B(  5-C ,  8-C ) :   0.8993 B(  6-N ,  7-O ) :   0.8102 B(  7-O , 16-H ) :   0.8431
B(  8-C , 17-H ) :   0.9021

MP2 TOTAL ENERGY:     -438.282615410 Eh
FINAL SINGLE POINT ENERGY      -438.282615410200

DIPOLE MOMENT
-------------
                                X             Y             Z
Electronic contribution:      2.92196      -0.95232       2.59790
Nuclear contribution   :     -3.05252       0.67005      -2.21260
                        -----------------------------------------
Total Dipole Moment    :     -0.13057      -0.28227       0.38529
                        -----------------------------------------
Magnitude (a.u.)       :      0.49515
Magnitude (Debye)      :      1.25857

                             ****ORCA TERMINATED NORMALLY****
TOTAL RUN TIME: 0 days 0 hours 16 minutes 36 seconds 30 msec
