                         Program Version 3.0.3 - RELEASE   -
|  1> ! RI-MP2 RIJK def2-TZVP def2-TZVP/C def2-TZVP/JK TIGHTSCF
|  2> % maxcore 2000
|  3> % mp2 density relaxed end
|  4> *xyz 0 1
|  5>  C       -0.6381586638     1.4010253344    -0.0146041954
|  6>  C        0.1849949214     0.1278962410     0.0264010025
|  7>  C        1.0584567342    -0.1449230566    -1.2438830083
|  8>  C        2.3141906425    -0.6678347071    -0.6126562118
|  9>  C        3.5358998717    -1.2454328349    -0.8547731313
| 10>  N        4.1837337652    -1.3315943274     0.3562345219
| 11>  C        3.3947857454    -0.8254096683     1.3837757015
| 12>  C        2.2417840582    -0.4102467443     0.7727310681
| 13>  O        1.0880416118     0.1944287012     1.1698356962
| 14>  H        0.0074216716     2.2695598455    -0.1775835255
| 15>  H       -1.3694576824     1.3534983127    -0.8280199869
| 16>  H       -1.1784073473     1.5433813580     0.9253813800
| 17>  H       -0.4700088565    -0.7380688658     0.1966331632
| 18>  H        0.5530058768    -0.8433311410    -1.9176096787
| 19>  H        1.2279837811     0.7842005340    -1.8048419497
| 20>  H        4.0060294200    -1.5988427034    -1.7582702207
| 21>  H        5.0810232590    -1.7602405463     0.4930603432
| 22>  H        3.7334147213    -0.8146730617     2.4049389818
| 23> *
| 24>
| 25>                          ****END OF INPUT****

CARTESIAN COORDINATES (ANGSTROEM)
---------------------------------
  C     -0.638159    1.401025   -0.014604
  C      0.184995    0.127896    0.026401
  C      1.058457   -0.144923   -1.243883
  C      2.314191   -0.667835   -0.612656
  C      3.535900   -1.245433   -0.854773
  N      4.183734   -1.331594    0.356235
  C      3.394786   -0.825410    1.383776
  C      2.241784   -0.410247    0.772731
  O      1.088042    0.194429    1.169836
  H      0.007422    2.269560   -0.177584
  H     -1.369458    1.353498   -0.828020
  H     -1.178407    1.543381    0.925381
  H     -0.470009   -0.738069    0.196633
  H      0.553006   -0.843331   -1.917610
  H      1.227984    0.784201   -1.804842
  H      4.006029   -1.598843   -1.758270
  H      5.081023   -1.760241    0.493060
  H      3.733415   -0.814673    2.404939

 Total Charge           Charge          ....    0
 Multiplicity           Mult            ....    1
 Number of Electrons    NEL             ....   66
 Basis Dimension        Dim             ....  333

ORBITAL ENERGIES
----------------

  NO   OCC          E(Eh)            E(eV)
   0   2.0000     -20.562304      -559.5287
   1   2.0000     -15.595845      -424.3845
   2   2.0000     -11.285341      -307.0897
   3   2.0000     -11.256620      -306.3082
   4   2.0000     -11.255652      -306.2819
   5   2.0000     -11.238942      -305.8271
   6   2.0000     -11.232959      -305.6644
   7   2.0000     -11.215464      -305.1883
   8   2.0000     -11.205312      -304.9120
   9   2.0000      -1.390903       -37.8484
  10   2.0000      -1.277751       -34.7694
  11   2.0000      -1.067653       -29.0523
  12   2.0000      -1.039136       -28.2763
  13   2.0000      -0.968069       -26.3425
  14   2.0000      -0.932999       -25.3882
  15   2.0000      -0.816144       -22.2084
  16   2.0000      -0.779191       -21.2029
  17   2.0000      -0.740106       -20.1393
  18   2.0000      -0.714265       -19.4361
  19   2.0000      -0.664180       -18.0733
  20   2.0000      -0.630101       -17.1459
  21   2.0000      -0.607631       -16.5345
  22   2.0000      -0.579922       -15.7805
  23   2.0000      -0.576118       -15.6770
  24   2.0000      -0.556446       -15.1417
  25   2.0000      -0.541733       -14.7413
  26   2.0000      -0.538163       -14.6442
  27   2.0000      -0.524597       -14.2750
  28   2.0000      -0.482924       -13.1410
  29   2.0000      -0.474405       -12.9092
  30   2.0000      -0.460709       -12.5365
  31   2.0000      -0.315600        -8.5879
  32   2.0000      -0.287553        -7.8247
  33   0.0000       0.138147         3.7592
  34   0.0000       0.142204         3.8696
  35   0.0000       0.161258         4.3881
  36   0.0000       0.178119         4.8469
  37   0.0000       0.182834         4.9752

MULLIKEN ATOMIC CHARGES
-----------------------
   0 C :   -0.399018
   1 C :    0.170550
   2 C :   -0.267343
   3 C :   -0.039743
   4 C :   -0.127181
   5 N :   -0.229084
   6 C :   -0.168070
   7 C :    0.102282
   8 O :   -0.301202
   9 H :    0.131385
  10 H :    0.124483
  11 H :    0.141825
  12 H :    0.085738
  13 H :    0.128049
  14 H :    0.113294
  15 H :    0.144951
  16 H :    0.242193
  17 H :    0.146892
Sum of atomic charges:    0.0000000

LOEWDIN ATOMIC CHARGES
----------------------
   0 C :   -0.296537
   1 C :   -0.270833
   2 C :   -0.194271
   3 C :   -0.178151
   4 C :   -0.222997
   5 N :    0.171377
   6 C :   -0.224051
   7 C :   -0.275157
   8 O :    0.235552
   9 H :    0.126627
  10 H :    0.127730
  11 H :    0.127961
  12 H :    0.138778
  13 H :    0.140977
  14 H :    0.142026
  15 H :    0.131295
  16 H :    0.187674
  17 H :    0.132000

  Mayer bond orders larger than 0.1
B(  0-C ,  1-C ) :   0.9213 B(  0-C ,  9-H ) :   0.9358 B(  0-C , 10-H ) :   0.9301
B(  0-C , 11-H ) :   0.9380 B(  1-C ,  2-C ) :   0.9547 B(  1-C ,  8-O ) :   0.8333
B(  1-C , 12-H ) :   0.9214 B(  2-C ,  3-C ) :   0.9489 B(  2-C , 13-H ) :   0.9108
B(  2-C , 14-H ) :   0.8950 B(  3-C ,  4-C ) :   1.4095 B(  3-C ,  7-C ) :   1.2226
B(  4-C ,  5-N ) :   1.1843 B(  4-C ,  6-C ) :   0.1169 B(  4-C , 15-H ) :   0.9025
B(  5-N ,  6-C ) :   1.0850 B(  5-N , 16-H ) :   0.8777 B(  6-C ,  7-C ) :   1.5055
B(  6-C , 17-H ) :   0.9081 B(  7-C ,  8-O ) :   1.0856

MP2 TOTAL ENERGY:     -401.284438407 Eh
FINAL SINGLE POINT ENERGY      -401.284438407492

DIPOLE MOMENT
-------------
                                X             Y             Z
Electronic contribution:      5.51628      -3.03671       2.84057
Nuclear contribution   :     -5.09464       2.69034      -3.30469
                        -----------------------------------------
Total Dipole Moment    :      0.42164      -0.34637      -0.46412
                        -----------------------------------------
Magnitude (a.u.)       :      0.71636
Magnitude (Debye)      :      1.82084

                             ****ORCA TERMINATED NORMALLY****
TOTAL RUN TIME: 0 days 0 hours 18 minutes 27 seconds 784 msec
