                         Program Version 3.0.3 - RELEASE   -
|  1> ! RI-MP2 RIJK def2-TZVP def2-TZVP/C def2-TZVP/JK TIGHTSCF
|  2> % maxcore 2000
|  3> % mp2 density relaxed end
|  4> *xyz 0 1
|  5>  C       -0.0368555652     1.6074783942    -0.2442840047
|  6>  C        1.5237387684     1.4796379935     0.0602252838
|  7>  C        1.1260138065     0.2506312692     0.9297066730
|  8>  C        1.1089474024    -1.3304372636     1.0947508116
|  9>  C       -0.4737196017    -1.0214970239     1.1271115127
| 10>  C       -0.5532373972    -0.1852998379     2.4023469886
| 11>  C        0.4844618372     0.6425177178     2.2778463317
| 12>  C       -0.0940076556     0.0704459617     0.0412064886
| 13>  H       -0.5281435247     2.2176577801     0.5157418105
| 14>  H       -0.3344588707     1.9445642002    -1.2400409706
| 15>  H        2.0819286490     1.2146899946    -0.8414918147
| 16>  H        2.0136799263     2.3232197374     0.5560419354
| 17>  H        1.4313921582    -1.8834211241     0.2073541722
| 18>  H        1.5341427740    -1.7609891935     2.0056498043
| 19>  H       -1.2095325675    -1.8094994283     0.9588671160
| 20>  H       -1.2748859324    -0.2951465524     3.1993192045
| 21>  H        0.8545838355     1.4112338274     2.9431302611
| 22>  H        0.1804515475    -0.4430420026    -0.8873912741
| 23> *
| 24>
| 25>                          ****END OF INPUT****

CARTESIAN COORDINATES (ANGSTROEM)
---------------------------------
  C     -0.036856    1.607478   -0.244284
  C      1.523739    1.479638    0.060225
  C      1.126014    0.250631    0.929707
  C      1.108947   -1.330437    1.094751
  C     -0.473720   -1.021497    1.127112
  C     -0.553237   -0.185300    2.402347
  C      0.484462    0.642518    2.277846
  C     -0.094008    0.070446    0.041206
  H     -0.528144    2.217658    0.515742
  H     -0.334459    1.944564   -1.240041
  H      2.081929    1.214690   -0.841492
  H      2.013680    2.323220    0.556042
  H      1.431392   -1.883421    0.207354
  H      1.534143   -1.760989    2.005650
  H     -1.209533   -1.809499    0.958867
  H     -1.274886   -0.295147    3.199319
  H      0.854584    1.411234    2.943130
  H      0.180452   -0.443042   -0.887391

 Total Charge           Charge          ....    0
 Multiplicity           Mult            ....    1
 Number of Electrons    NEL             ....   58
 Basis Dimension        Dim             ....  308

ORBITAL ENERGIES
----------------

  NO   OCC          E(Eh)            E(eV)
   0   2.0000     -11.247197      -306.0518
   1   2.0000     -11.237433      -305.7861
   2   2.0000     -11.233416      -305.6768
   3   2.0000     -11.230836      -305.6066
   4   2.0000     -11.229384      -305.5671
   5   2.0000     -11.220411      -305.3229
   6   2.0000     -11.219171      -305.2892
   7   2.0000     -11.216382      -305.2133
   8   2.0000      -1.207074       -32.8462
   9   2.0000      -1.060265       -28.8513
  10   2.0000      -0.976330       -26.5673
  11   2.0000      -0.904196       -24.6044
  12   2.0000      -0.850079       -23.1318
  13   2.0000      -0.825626       -22.4664
  14   2.0000      -0.738769       -20.1029
  15   2.0000      -0.710920       -19.3451
  16   2.0000      -0.661476       -17.9997
  17   2.0000      -0.610663       -16.6170
  18   2.0000      -0.607015       -16.5177
  19   2.0000      -0.573351       -15.6017
  20   2.0000      -0.542049       -14.7499
  21   2.0000      -0.521052       -14.1785
  22   2.0000      -0.507058       -13.7977
  23   2.0000      -0.473013       -12.8713
  24   2.0000      -0.449174       -12.2226
  25   2.0000      -0.442109       -12.0304
  26   2.0000      -0.430567       -11.7163
  27   2.0000      -0.365514        -9.9461
  28   2.0000      -0.321977        -8.7615
  29   0.0000       0.141524         3.8511
  30   0.0000       0.149669         4.0727
  31   0.0000       0.158055         4.3009
  32   0.0000       0.170221         4.6319
  33   0.0000       0.177343         4.8258

MULLIKEN ATOMIC CHARGES
-----------------------
   0 C :   -0.219994
   1 C :   -0.275208
   2 C :    0.102003
   3 C :   -0.188419
   4 C :   -0.037799
   5 C :   -0.208949
   6 C :   -0.251833
   7 C :   -0.116796
   8 H :    0.128120
   9 H :    0.121979
  10 H :    0.118406
  11 H :    0.121209
  12 H :    0.116824
  13 H :    0.113590
  14 H :    0.126604
  15 H :    0.131730
  16 H :    0.126957
  17 H :    0.091576
Sum of atomic charges:   -0.0000000

LOEWDIN ATOMIC CHARGES
----------------------
   0 C :   -0.210648
   1 C :   -0.196992
   2 C :   -0.187483
   3 C :   -0.155041
   4 C :   -0.164061
   5 C :   -0.135346
   6 C :   -0.118367
   7 C :   -0.155576
   8 H :    0.138428
   9 H :    0.120699
  10 H :    0.134650
  11 H :    0.123716
  12 H :    0.129124
  13 H :    0.124536
  14 H :    0.128912
  15 H :    0.133073
  16 H :    0.135014
  17 H :    0.155363

  Mayer bond orders larger than 0.1
B(  0-C ,  1-C ) :   0.9410 B(  0-C ,  7-C ) :   0.9112 B(  0-C ,  8-H ) :   0.9110
B(  0-C ,  9-H ) :   0.9244 B(  1-C ,  2-C ) :   0.8877 B(  1-C , 10-H ) :   0.9210
B(  1-C , 11-H ) :   0.9232 B(  2-C ,  3-C ) :   0.8925 B(  2-C ,  6-C ) :   0.8934
B(  2-C ,  7-C ) :   0.8904 B(  3-C ,  4-C ) :   0.9047 B(  3-C , 12-H ) :   0.9206
B(  3-C , 13-H ) :   0.9099 B(  4-C ,  5-C ) :   0.9271 B(  4-C ,  7-C ) :   0.8745
B(  4-C , 14-H ) :   0.9084 B(  5-C ,  6-C ) :   1.7429 B(  5-C , 15-H ) :   0.9303
B(  6-C , 16-H ) :   0.9396 B(  7-C , 17-H ) :   0.9300

MP2 TOTAL ENERGY:     -309.984635588 Eh
FINAL SINGLE POINT ENERGY      -309.984635588445

DIPOLE MOMENT
-------------
                                X             Y             Z
Electronic contribution:     -0.73241      -0.88791       1.73356
Nuclear contribution   :      0.75781       0.87239      -1.86289
                        -----------------------------------------
Total Dipole Moment    :      0.02539      -0.01552      -0.12934
                        -----------------------------------------
Magnitude (a.u.)       :      0.13272
Magnitude (Debye)      :      0.33734

                             ****ORCA TERMINATED NORMALLY****
TOTAL RUN TIME: 0 days 0 hours 15 minutes 16 seconds 807 msec
