                         Program Version 3.0.3 - RELEASE   -
|  1> ! RI-MP2 RIJK def2-TZVP def2-TZVP/C def2-TZVP/JK TIGHTSCF
|  2> % maxcore 2000
|  3> % mp2 density relaxed end
|  4> *xyz 0 1
|  5>  C       -0.6031364374     1.2280102045     0.2033132588
|  6>  C       -0.0255311285    -0.1648411153     0.0907233052
|  7>  C        1.4018049481    -0.3442821926    -0.3561014948
|  8>  C        1.0259106524    -0.6747949122     1.0656433898
|  9>  N        1.5169884502     0.1360502176     2.1473849097
| 10>  C        2.8692562076     0.6795957890     2.0744709483
| 11>  C        0.8442173093     0.2264856733     3.3503550575
| 12>  C       -0.4796179840    -0.5164776997     3.4445872387
| 13>  O        1.2894784231     0.8491639960     4.2993691176
| 14>  H        0.1229232814     1.9264249957     0.6285751829
| 15>  H       -0.8957336451     1.6053937245    -0.7822303970
| 16>  H       -1.4930402086     1.2476864169     0.8412744086
| 17>  H       -0.7291450839    -0.9213265437    -0.2473103170
| 18>  H        1.6604943723    -1.1666930309    -1.0134635282
| 19>  H        1.9769867463     0.5583007085    -0.5301629811
| 20>  H        0.9742592494    -1.7390008943     1.2921953530
| 21>  H        2.9303515579     1.5309470572     1.3869956815
| 22>  H        3.1425225671     1.0187379320     3.0725834892
| 23>  H        3.5724694288    -0.0883463078     1.7357874329
| 24>  H       -1.1829644732    -0.2098728351     2.6674587727
| 25>  H       -0.3311624888    -1.5966934059     3.3395289260
| 26>  H       -0.9036229443    -0.3097756679     4.4265013657
| 27> *
| 28>
| 29>                          ****END OF INPUT****

CARTESIAN COORDINATES (ANGSTROEM)
---------------------------------
  C     -0.603136    1.228010    0.203313
  C     -0.025531   -0.164841    0.090723
  C      1.401805   -0.344282   -0.356101
  C      1.025911   -0.674795    1.065643
  N      1.516988    0.136050    2.147385
  C      2.869256    0.679596    2.074471
  C      0.844217    0.226486    3.350355
  C     -0.479618   -0.516478    3.444587
  O      1.289478    0.849164    4.299369
  H      0.122923    1.926425    0.628575
  H     -0.895734    1.605394   -0.782230
  H     -1.493040    1.247686    0.841274
  H     -0.729145   -0.921327   -0.247310
  H      1.660494   -1.166693   -1.013464
  H      1.976987    0.558301   -0.530163
  H      0.974259   -1.739001    1.292195
  H      2.930352    1.530947    1.386996
  H      3.142523    1.018738    3.072583
  H      3.572469   -0.088346    1.735787
  H     -1.182964   -0.209873    2.667459
  H     -0.331162   -1.596693    3.339529
  H     -0.903623   -0.309776    4.426501

 Total Charge           Charge          ....    0
 Multiplicity           Mult            ....    1
 Number of Electrons    NEL             ....   70
 Basis Dimension        Dim             ....  357

ORBITAL ENERGIES
----------------

  NO   OCC          E(Eh)            E(eV)
   0   2.0000     -20.508016      -558.0515
   1   2.0000     -15.581295      -423.9886
   2   2.0000     -11.342398      -308.6423
   3   2.0000     -11.275774      -306.8294
   4   2.0000     -11.248912      -306.0984
   5   2.0000     -11.244127      -305.9682
   6   2.0000     -11.237388      -305.7849
   7   2.0000     -11.229679      -305.5751
   8   2.0000     -11.226352      -305.4846
   9   2.0000      -1.374382       -37.3988
  10   2.0000      -1.249431       -33.9987
  11   2.0000      -1.137916       -30.9643
  12   2.0000      -1.010080       -27.4857
  13   2.0000      -0.975125       -26.5345
  14   2.0000      -0.927762       -25.2457
  15   2.0000      -0.843397       -22.9500
  16   2.0000      -0.805785       -21.9265
  17   2.0000      -0.723905       -19.6985
  18   2.0000      -0.694714       -18.9041
  19   2.0000      -0.671824       -18.2813
  20   2.0000      -0.648730       -17.6528
  21   2.0000      -0.623649       -16.9704
  22   2.0000      -0.591512       -16.0959
  23   2.0000      -0.582194       -15.8423
  24   2.0000      -0.569971       -15.5097
  25   2.0000      -0.560417       -15.2497
  26   2.0000      -0.552279       -15.0283
  27   2.0000      -0.543404       -14.7868
  28   2.0000      -0.531698       -14.4682
  29   2.0000      -0.507138       -13.7999
  30   2.0000      -0.501320       -13.6416
  31   2.0000      -0.444071       -12.0838
  32   2.0000      -0.437759       -11.9120
  33   2.0000      -0.405968       -11.0469
  34   2.0000      -0.360423        -9.8076
  35   0.0000       0.126163         3.4331
  36   0.0000       0.145207         3.9513
  37   0.0000       0.159044         4.3278
  38   0.0000       0.166203         4.5226
  39   0.0000       0.183014         4.9801

MULLIKEN ATOMIC CHARGES
-----------------------
   0 C :   -0.422621
   1 C :   -0.041372
   2 C :   -0.249435
   3 C :   -0.164981
   4 N :   -0.085308
   5 C :   -0.325255
   6 C :    0.228598
   7 C :   -0.386082
   8 O :   -0.377339
   9 H :    0.143859
  10 H :    0.143839
  11 H :    0.131920
  12 H :    0.121349
  13 H :    0.139565
  14 H :    0.139894
  15 H :    0.124897
  16 H :    0.124180
  17 H :    0.183372
  18 H :    0.140107
  19 H :    0.135812
  20 H :    0.133657
  21 H :    0.161345
Sum of atomic charges:   -0.0000000

LOEWDIN ATOMIC CHARGES
----------------------
   0 C :   -0.294648
   1 C :   -0.235339
   2 C :   -0.201677
   3 C :   -0.232408
   4 N :    0.177725
   5 C :   -0.287279
   6 C :   -0.446194
   7 C :   -0.271254
   8 O :    0.073646
   9 H :    0.131314
  10 H :    0.128299
  11 H :    0.123966
  12 H :    0.147846
  13 H :    0.134125
  14 H :    0.140014
  15 H :    0.143918
  16 H :    0.112273
  17 H :    0.134918
  18 H :    0.119029
  19 H :    0.132014
  20 H :    0.133419
  21 H :    0.136292

  Mayer bond orders larger than 0.1
B(  0-C ,  1-C ) :   0.8966 B(  0-C ,  9-H ) :   0.9361 B(  0-C , 10-H ) :   0.9351
B(  0-C , 11-H ) :   0.9388 B(  1-C ,  2-C ) :   0.8832 B(  1-C ,  3-C ) :   0.8762
B(  1-C , 12-H ) :   0.9270 B(  2-C ,  3-C ) :   0.8887 B(  2-C , 13-H ) :   0.9290
B(  2-C , 14-H ) :   0.9287 B(  3-C ,  4-N ) :   0.9367 B(  3-C , 15-H ) :   0.9336
B(  4-N ,  5-C ) :   0.8619 B(  4-N ,  6-C ) :   1.1303 B(  5-C , 16-H ) :   0.9332
B(  5-C , 17-H ) :   0.9167 B(  5-C , 18-H ) :   0.9354 B(  6-C ,  7-C ) :   0.9175
B(  6-C ,  8-O ) :   1.9206 B(  7-C , 19-H ) :   0.9182 B(  7-C , 20-H ) :   0.9134
B(  7-C , 21-H ) :   0.9399

MP2 TOTAL ENERGY:     -403.670304990 Eh
FINAL SINGLE POINT ENERGY      -403.670304990236

DIPOLE MOMENT
-------------
                                X             Y             Z
Electronic contribution:      2.14171      -0.21432       5.30647
Nuclear contribution   :     -2.36027      -0.41365      -6.66130
                        -----------------------------------------
Total Dipole Moment    :     -0.21856      -0.62797      -1.35483
                        -----------------------------------------
Magnitude (a.u.)       :      1.50920
Magnitude (Debye)      :      3.83607

                             ****ORCA TERMINATED NORMALLY****
TOTAL RUN TIME: 0 days 0 hours 22 minutes 3 seconds 151 msec
