                         Program Version 3.0.3 - RELEASE   -
|  1> ! RI-MP2 RIJK def2-TZVP def2-TZVP/C def2-TZVP/JK TIGHTSCF
|  2> % maxcore 2000
|  3> % mp2 density relaxed end
|  4> *xyz 0 1
|  5>  C       -0.2318485424     1.3862033724    -0.1744338096
|  6>  N        0.0314247008    -0.0366484702    -0.0032166144
|  7>  C        1.4017292000    -0.4773526334    -0.1783690824
|  8>  C        0.7865634630    -0.4656216736     1.1923446883
|  9>  C        1.2504398354     0.4672685594     2.1814597645
| 10>  C        1.6072424297     1.2337615795     3.0441117878
| 11>  C        2.0578185449     2.1211734840     4.0775335719
| 12>  C        1.2351503695     3.3147532803     4.4451165513
| 13>  N        1.3326559332     2.1859084176     5.3726306500
| 14>  H        0.5819037027     2.0355391782     0.1805910723
| 15>  H       -0.3973514643     1.5796948719    -1.2386377015
| 16>  H       -1.1442528792     1.6506464592     0.3686100225
| 17>  H        1.5423003182    -1.4231136194    -0.6951304078
| 18>  H        2.1649664720     0.2749428720    -0.3712373763
| 19>  H        0.4331373917    -1.4128221680     1.5943595350
| 20>  H        3.1361285803     2.1954766667     4.1947449370
| 21>  H        1.7388032200     4.2210458104     4.7692288305
| 22>  H        0.3112301992     3.4702437098     3.8962476004
| 23>  H        0.4941184752     1.6139017232     5.3029634803
| 24> *
| 25>
| 26>                          ****END OF INPUT****

CARTESIAN COORDINATES (ANGSTROEM)
---------------------------------
  C     -0.231849    1.386203   -0.174434
  N      0.031425   -0.036648   -0.003217
  C      1.401729   -0.477353   -0.178369
  C      0.786563   -0.465622    1.192345
  C      1.250440    0.467269    2.181460
  C      1.607242    1.233762    3.044112
  C      2.057819    2.121173    4.077534
  C      1.235150    3.314753    4.445117
  N      1.332656    2.185908    5.372631
  H      0.581904    2.035539    0.180591
  H     -0.397351    1.579695   -1.238638
  H     -1.144253    1.650646    0.368610
  H      1.542300   -1.423114   -0.695130
  H      2.164966    0.274943   -0.371237
  H      0.433137   -1.412822    1.594360
  H      3.136129    2.195477    4.194745
  H      1.738803    4.221046    4.769229
  H      0.311230    3.470244    3.896248
  H      0.494118    1.613902    5.302963

 Total Charge           Charge          ....    0
 Multiplicity           Mult            ....    1
 Number of Electrons    NEL             ....   66
 Basis Dimension        Dim             ....  339

ORBITAL ENERGIES
----------------

  NO   OCC          E(Eh)            E(eV)
   0   2.0000     -15.571324      -423.7173
   1   2.0000     -15.570906      -423.7059
   2   2.0000     -11.286910      -307.1324
   3   2.0000     -11.284750      -307.0737
   4   2.0000     -11.268970      -306.6443
   5   2.0000     -11.265776      -306.5574
   6   2.0000     -11.248618      -306.0904
   7   2.0000     -11.237533      -305.7888
   8   2.0000     -11.233742      -305.6857
   9   2.0000      -1.283947       -34.9380
  10   2.0000      -1.273222       -34.6461
  11   2.0000      -1.053520       -28.6677
  12   2.0000      -0.999523       -27.1984
  13   2.0000      -0.927548       -25.2399
  14   2.0000      -0.886074       -24.1113
  15   2.0000      -0.850923       -23.1548
  16   2.0000      -0.829852       -22.5814
  17   2.0000      -0.734948       -19.9990
  18   2.0000      -0.701659       -19.0931
  19   2.0000      -0.662358       -18.0237
  20   2.0000      -0.656745       -17.8709
  21   2.0000      -0.600170       -16.3315
  22   2.0000      -0.576150       -15.6778
  23   2.0000      -0.564877       -15.3711
  24   2.0000      -0.556708       -15.1488
  25   2.0000      -0.513615       -13.9762
  26   2.0000      -0.506000       -13.7690
  27   2.0000      -0.490773       -13.3546
  28   2.0000      -0.473336       -12.8801
  29   2.0000      -0.434953       -11.8357
  30   2.0000      -0.416753       -11.3404
  31   2.0000      -0.357968        -9.7408
  32   2.0000      -0.352161        -9.5828
  33   0.0000       0.137151         3.7321
  34   0.0000       0.150041         4.0828
  35   0.0000       0.157587         4.2882
  36   0.0000       0.162722         4.4279
  37   0.0000       0.177404         4.8274

MULLIKEN ATOMIC CHARGES
-----------------------
   0 C :   -0.297569
   1 N :   -0.191450
   2 C :   -0.130905
   3 C :   -0.199551
   4 C :    0.021331
   5 C :    0.007884
   6 C :   -0.173496
   7 C :   -0.131966
   8 N :   -0.336232
   9 H :    0.122910
  10 H :    0.142127
  11 H :    0.135560
  12 H :    0.131292
  13 H :    0.123922
  14 H :    0.140042
  15 H :    0.146158
  16 H :    0.127867
  17 H :    0.134234
  18 H :    0.227843
Sum of atomic charges:    0.0000000

LOEWDIN ATOMIC CHARGES
----------------------
   0 C :   -0.325380
   1 N :    0.096396
   2 C :   -0.228581
   3 C :   -0.244332
   4 C :   -0.058407
   5 C :   -0.064574
   6 C :   -0.264172
   7 C :   -0.249230
   8 N :   -0.003582
   9 H :    0.111551
  10 H :    0.119847
  11 H :    0.119585
  12 H :    0.126385
  13 H :    0.128742
  14 H :    0.157899
  15 H :    0.156440
  16 H :    0.126125
  17 H :    0.125217
  18 H :    0.170072

  Mayer bond orders larger than 0.1
B(  0-C ,  1-N ) :   0.8854 B(  0-C ,  9-H ) :   0.9278 B(  0-C , 10-H ) :   0.9363
B(  0-C , 11-H ) :   0.9385 B(  1-N ,  2-C ) :   0.8909 B(  1-N ,  3-C ) :   0.9416
B(  2-C ,  3-C ) :   0.9172 B(  2-C , 12-H ) :   0.9216 B(  2-C , 13-H ) :   0.9175
B(  3-C ,  4-C ) :   1.0789 B(  3-C ,  5-C ) :  -0.1144 B(  3-C , 14-H ) :   0.9225
B(  4-C ,  5-C ) :   2.5170 B(  4-C ,  6-C ) :  -0.1055 B(  5-C ,  6-C ) :   1.0845
B(  6-C ,  7-C ) :   0.9382 B(  6-C ,  8-N ) :   0.9547 B(  6-C , 15-H ) :   0.9108
B(  7-C ,  8-N ) :   0.9194 B(  7-C , 16-H ) :   0.9235 B(  7-C , 17-H ) :   0.9159
B(  8-N , 18-H ) :   0.8781

MP2 TOTAL ENERGY:     -381.287310411 Eh
FINAL SINGLE POINT ENERGY      -381.287310411239

DIPOLE MOMENT
-------------
                                X             Y             Z
Electronic contribution:      1.35049      -2.58044       3.24459
Nuclear contribution   :     -1.32134       2.92396      -3.72979
                        -----------------------------------------
Total Dipole Moment    :      0.02914       0.34352      -0.48520
                        -----------------------------------------
Magnitude (a.u.)       :      0.59521
Magnitude (Debye)      :      1.51289

                             ****ORCA TERMINATED NORMALLY****
TOTAL RUN TIME: 0 days 0 hours 15 minutes 10 seconds 745 msec
