                         Program Version 3.0.3 - RELEASE   -
|  1> ! RI-MP2 RIJK def2-TZVP def2-TZVP/C def2-TZVP/JK TIGHTSCF
|  2> % maxcore 2000
|  3> % mp2 density relaxed end
|  4> *xyz 0 1
|  5>  C        0.2231781400     1.5431692522    -0.0393422301
|  6>  C        0.0410782175     0.0201618688     0.0293612940
|  7>  C        0.7748227270    -0.5558167755     1.2480680233
|  8>  C       -1.4422168287    -0.3962509146     0.0497788008
|  9>  C       -2.2204183589    -0.0364906197    -1.2236301275
| 10>  C       -3.6400119248    -0.6455330212    -1.2883692635
| 11>  C       -4.5746425768    -0.1185504690    -0.1855051945
| 12>  C       -4.2397759198    -0.3205787650    -2.6420441898
| 13>  O       -4.5073909787    -1.1220786416    -3.4993151975
| 14>  H        1.2852997026     1.8091145576    -0.0393565397
| 15>  H       -0.2224964084     1.9732614759    -0.9410162071
| 16>  H       -0.2393663782     2.0300685887     0.8281444956
| 17>  H        0.4948126278    -0.4156100585    -0.8729372269
| 18>  H        0.3589029749    -0.1569469257     2.1812827355
| 19>  H        0.6910212299    -1.6470395485     1.2868880622
| 20>  H        1.8395642940    -0.3013352689     1.2260274598
| 21>  H       -1.4975654546    -1.4830136247     0.1983657974
| 22>  H       -1.9228562722     0.0571321636     0.9265414592
| 23>  H       -2.2976810932     1.0536027217    -1.3256191262
| 24>  H       -1.6524174255    -0.3888448333    -2.0947973278
| 25>  H       -3.5691411578    -1.7374313830    -1.2277918233
| 26>  H       -5.5726182458    -0.5594356151    -0.2712434278
| 27>  H       -4.1887537891    -0.3609517481     0.8076307977
| 28>  H       -4.6807950877     0.9708963724    -0.2469379332
| 29>  H       -4.4200327437     0.7709129315    -2.8036545106
| 30> *
| 31>
| 32>                          ****END OF INPUT****

CARTESIAN COORDINATES (ANGSTROEM)
---------------------------------
  C      0.223178    1.543169   -0.039342
  C      0.041078    0.020162    0.029361
  C      0.774823   -0.555817    1.248068
  C     -1.442217   -0.396251    0.049779
  C     -2.220418   -0.036491   -1.223630
  C     -3.640012   -0.645533   -1.288369
  C     -4.574643   -0.118550   -0.185505
  C     -4.239776   -0.320579   -2.642044
  O     -4.507391   -1.122079   -3.499315
  H      1.285300    1.809115   -0.039357
  H     -0.222496    1.973261   -0.941016
  H     -0.239366    2.030069    0.828144
  H      0.494813   -0.415610   -0.872937
  H      0.358903   -0.156947    2.181283
  H      0.691021   -1.647040    1.286888
  H      1.839564   -0.301335    1.226027
  H     -1.497565   -1.483014    0.198366
  H     -1.922856    0.057132    0.926541
  H     -2.297681    1.053603   -1.325619
  H     -1.652417   -0.388845   -2.094797
  H     -3.569141   -1.737431   -1.227792
  H     -5.572618   -0.559436   -0.271243
  H     -4.188754   -0.360952    0.807631
  H     -4.680795    0.970896   -0.246938
  H     -4.420033    0.770913   -2.803655

 Total Charge           Charge          ....    0
 Multiplicity           Mult            ....    1
 Number of Electrons    NEL             ....   72
 Basis Dimension        Dim             ....  375

ORBITAL ENERGIES
----------------

  NO   OCC          E(Eh)            E(eV)
   0   2.0000     -20.553489      -559.2889
   1   2.0000     -11.325898      -308.1933
   2   2.0000     -11.243694      -305.9565
   3   2.0000     -11.235296      -305.7280
   4   2.0000     -11.232369      -305.6483
   5   2.0000     -11.231741      -305.6312
   6   2.0000     -11.226778      -305.4962
   7   2.0000     -11.216445      -305.2150
   8   2.0000     -11.215593      -305.1918
   9   2.0000      -1.392246       -37.8849
  10   2.0000      -1.114007       -30.3137
  11   2.0000      -1.075567       -29.2677
  12   2.0000      -0.981887       -26.7185
  13   2.0000      -0.932815       -25.3832
  14   2.0000      -0.909883       -24.7592
  15   2.0000      -0.841778       -22.9059
  16   2.0000      -0.779807       -21.2196
  17   2.0000      -0.769889       -20.9497
  18   2.0000      -0.663808       -18.0631
  19   2.0000      -0.651948       -17.7404
  20   2.0000      -0.635210       -17.2849
  21   2.0000      -0.610195       -16.6042
  22   2.0000      -0.605687       -16.4816
  23   2.0000      -0.590398       -16.0655
  24   2.0000      -0.565706       -15.3936
  25   2.0000      -0.558363       -15.1938
  26   2.0000      -0.538786       -14.6611
  27   2.0000      -0.530898       -14.4465
  28   2.0000      -0.513310       -13.9679
  29   2.0000      -0.509368       -13.8606
  30   2.0000      -0.494593       -13.4586
  31   2.0000      -0.486448       -13.2369
  32   2.0000      -0.466398       -12.6913
  33   2.0000      -0.462467       -12.5844
  34   2.0000      -0.454363       -12.3638
  35   2.0000      -0.407079       -11.0772
  36   0.0000       0.126387         3.4392
  37   0.0000       0.135646         3.6911
  38   0.0000       0.146556         3.9880
  39   0.0000       0.156216         4.2508
  40   0.0000       0.162554         4.4233

MULLIKEN ATOMIC CHARGES
-----------------------
   0 C :   -0.421059
   1 C :   -0.001307
   2 C :   -0.391406
   3 C :   -0.253549
   4 C :   -0.303668
   5 C :    0.072701
   6 C :   -0.444776
   7 C :    0.085635
   8 O :   -0.261408
   9 H :    0.133793
  10 H :    0.134661
  11 H :    0.120665
  12 H :    0.085875
  13 H :    0.120442
  14 H :    0.129597
  15 H :    0.132543
  16 H :    0.117844
  17 H :    0.113528
  18 H :    0.117841
  19 H :    0.132710
  20 H :    0.091463
  21 H :    0.148694
  22 H :    0.146341
  23 H :    0.128207
  24 H :    0.064633
Sum of atomic charges:   -0.0000000

LOEWDIN ATOMIC CHARGES
----------------------
   0 C :   -0.296333
   1 C :   -0.309969
   2 C :   -0.296512
   3 C :   -0.247260
   4 C :   -0.240116
   5 C :   -0.280035
   6 C :   -0.287073
   7 C :   -0.276682
   8 O :    0.132804
   9 H :    0.123943
  10 H :    0.120564
  11 H :    0.123377
  12 H :    0.149736
  13 H :    0.122807
  14 H :    0.122067
  15 H :    0.122765
  16 H :    0.142565
  17 H :    0.138588
  18 H :    0.139751
  19 H :    0.145910
  20 H :    0.156871
  21 H :    0.128267
  22 H :    0.126681
  23 H :    0.126063
  24 H :    0.111220

  Mayer bond orders larger than 0.1
B(  0-C ,  1-C ) :   0.9086 B(  0-C ,  9-H ) :   0.9389 B(  0-C , 10-H ) :   0.9407
B(  0-C , 11-H ) :   0.9311 B(  1-C ,  2-C ) :   0.9189 B(  1-C ,  3-C ) :   0.9258
B(  1-C , 12-H ) :   0.9313 B(  2-C , 13-H ) :   0.9318 B(  2-C , 14-H ) :   0.9401
B(  2-C , 15-H ) :   0.9423 B(  3-C ,  4-C ) :   0.9155 B(  3-C , 16-H ) :   0.9288
B(  3-C , 17-H ) :   0.9311 B(  4-C ,  5-C ) :   0.9172 B(  4-C , 18-H ) :   0.9270
B(  4-C , 19-H ) :   0.9272 B(  5-C ,  6-C ) :   0.8911 B(  5-C ,  7-C ) :   0.8556
B(  5-C , 20-H ) :   0.9010 B(  6-C , 21-H ) :   0.9373 B(  6-C , 22-H ) :   0.9360
B(  6-C , 23-H ) :   0.9253 B(  7-C ,  8-O ) :   2.0121 B(  7-C , 24-H ) :   0.9329

MP2 TOTAL ENERGY:     -388.835098093 Eh
FINAL SINGLE POINT ENERGY      -388.835098093234

DIPOLE MOMENT
-------------
                                X             Y             Z
Electronic contribution:     -8.19638      -3.62059      -9.37040
Nuclear contribution   :      8.61943       4.12881      10.27003
                        -----------------------------------------
Total Dipole Moment    :      0.42306       0.50822       0.89963
                        -----------------------------------------
Magnitude (a.u.)       :      1.11651
Magnitude (Debye)      :      2.83795

                             ****ORCA TERMINATED NORMALLY****
TOTAL RUN TIME: 0 days 0 hours 21 minutes 45 seconds 530 msec
