                         Program Version 3.0.3 - RELEASE   -
|  1> ! RI-MP2 RIJK def2-TZVP def2-TZVP/C def2-TZVP/JK TIGHTSCF
|  2> % maxcore 2000
|  3> % mp2 density relaxed end
|  4> *xyz 0 1
|  5>  C       -0.1702940332     1.5671209606    -0.0133374143
|  6>  C        0.0561779127     0.0520487106    -0.0144339452
|  7>  C        0.9423316205    -0.4434556763    -1.1945993736
|  8>  N        1.8356040617    -1.4471070099    -0.5955669589
|  9>  C        2.9597905030    -1.9649148513    -1.3361948313
| 10>  C        1.7886268074    -1.3252676937     0.7569376336
| 11>  C        0.8097126598    -0.4908952536     1.1951205213
| 12>  C        0.4814111992    -0.2709249624     2.5752285815
| 13>  O       -0.4331527388     0.4253113123     2.9883595461
| 14>  H        0.7846197761     2.1025343371     0.0285064999
| 15>  H       -0.6997839024     1.8853967110    -0.9183077773
| 16>  H       -0.7596505418     1.8523570956     0.8597862038
| 17>  H       -0.9255833075    -0.4379288946    -0.0657298048
| 18>  H        0.3707781269    -0.8802538491    -2.0196853286
| 19>  H        1.5447477935     0.3824966295    -1.6061993398
| 20>  H        3.6589256922    -1.1695619456    -1.6397363444
| 21>  H        3.5033713816    -2.6881424032    -0.7233784162
| 22>  H        2.6153527399    -2.4747301080    -2.2424242982
| 23>  H        2.4793697546    -1.8989742666     1.3652614811
| 24>  H        1.1519897544    -0.8036692722     3.2911069953
| 25> *
| 26>
| 27>                          ****END OF INPUT****

CARTESIAN COORDINATES (ANGSTROEM)
---------------------------------
  C     -0.170294    1.567121   -0.013337
  C      0.056178    0.052049   -0.014434
  C      0.942332   -0.443456   -1.194599
  N      1.835604   -1.447107   -0.595567
  C      2.959791   -1.964915   -1.336195
  C      1.788627   -1.325268    0.756938
  C      0.809713   -0.490895    1.195121
  C      0.481411   -0.270925    2.575229
  O     -0.433153    0.425311    2.988360
  H      0.784620    2.102534    0.028506
  H     -0.699784    1.885397   -0.918308
  H     -0.759651    1.852357    0.859786
  H     -0.925583   -0.437929   -0.065730
  H      0.370778   -0.880254   -2.019685
  H      1.544748    0.382497   -1.606199
  H      3.658926   -1.169562   -1.639736
  H      3.503371   -2.688142   -0.723378
  H      2.615353   -2.474730   -2.242424
  H      2.479370   -1.898974    1.365261
  H      1.151990   -0.803669    3.291107

 Total Charge           Charge          ....    0
 Multiplicity           Mult            ....    1
 Number of Electrons    NEL             ....   68
 Basis Dimension        Dim             ....  345

ORBITAL ENERGIES
----------------

  NO   OCC          E(Eh)            E(eV)
   0   2.0000     -20.517614      -558.3127
   1   2.0000     -15.592213      -424.2857
   2   2.0000     -11.309535      -307.7481
   3   2.0000     -11.301172      -307.5205
   4   2.0000     -11.278309      -306.8984
   5   2.0000     -11.269887      -306.6692
   6   2.0000     -11.238878      -305.8254
   7   2.0000     -11.213107      -305.1242
   8   2.0000     -11.206726      -304.9505
   9   2.0000      -1.354399       -36.8551
  10   2.0000      -1.293035       -35.1853
  11   2.0000      -1.094880       -29.7932
  12   2.0000      -1.028033       -27.9742
  13   2.0000      -0.970211       -26.4008
  14   2.0000      -0.920840       -25.0573
  15   2.0000      -0.839081       -22.8326
  16   2.0000      -0.795317       -21.6417
  17   2.0000      -0.745333       -20.2815
  18   2.0000      -0.694937       -18.9102
  19   2.0000      -0.672076       -18.2881
  20   2.0000      -0.645799       -17.5731
  21   2.0000      -0.614772       -16.7288
  22   2.0000      -0.606188       -16.4952
  23   2.0000      -0.581704       -15.8290
  24   2.0000      -0.568168       -15.4606
  25   2.0000      -0.553591       -15.0640
  26   2.0000      -0.547514       -14.8986
  27   2.0000      -0.527044       -14.3416
  28   2.0000      -0.496349       -13.5063
  29   2.0000      -0.481086       -13.0910
  30   2.0000      -0.480223       -13.0675
  31   2.0000      -0.460184       -12.5222
  32   2.0000      -0.399914       -10.8822
  33   2.0000      -0.301693        -8.2095
  34   0.0000       0.105426         2.8688
  35   0.0000       0.124105         3.3771
  36   0.0000       0.150044         4.0829
  37   0.0000       0.159584         4.3425
  38   0.0000       0.174813         4.7569

MULLIKEN ATOMIC CHARGES
-----------------------
   0 C :   -0.425015
   1 C :    0.048855
   2 C :   -0.207357
   3 N :   -0.067512
   4 C :   -0.306135
   5 C :   -0.075881
   6 C :   -0.046508
   7 C :    0.027576
   8 O :   -0.336979
   9 H :    0.115815
  10 H :    0.125338
  11 H :    0.169693
  12 H :    0.101879
  13 H :    0.133340
  14 H :    0.114534
  15 H :    0.130987
  16 H :    0.144588
  17 H :    0.145896
  18 H :    0.146824
  19 H :    0.060063
Sum of atomic charges:    0.0000000

LOEWDIN ATOMIC CHARGES
----------------------
   0 C :   -0.288142
   1 C :   -0.212087
   2 C :   -0.198201
   3 N :    0.160785
   4 C :   -0.299389
   5 C :   -0.154178
   6 C :   -0.191644
   7 C :   -0.315909
   8 O :    0.077646
   9 H :    0.122133
  10 H :    0.120951
  11 H :    0.134036
  12 H :    0.159149
  13 H :    0.131102
  14 H :    0.131630
  15 H :    0.114515
  16 H :    0.126207
  17 H :    0.122151
  18 H :    0.146543
  19 H :    0.112700

  Mayer bond orders larger than 0.1
B(  0-C ,  1-C ) :   0.8907 B(  0-C ,  9-H ) :   0.9297 B(  0-C , 10-H ) :   0.9346
B(  0-C , 11-H ) :   0.9309 B(  1-C ,  2-C ) :   0.9381 B(  1-C ,  6-C ) :   0.9210
B(  1-C , 12-H ) :   0.9163 B(  2-C ,  3-N ) :   0.8805 B(  2-C , 13-H ) :   0.9257
B(  2-C , 14-H ) :   0.9184 B(  3-N ,  4-C ) :   0.8964 B(  3-N ,  5-C ) :   1.2027
B(  4-C , 15-H ) :   0.9227 B(  4-C , 16-H ) :   0.9322 B(  4-C , 17-H ) :   0.9336
B(  5-C ,  6-C ) :   1.5199 B(  5-C , 18-H ) :   0.8908 B(  6-C ,  7-C ) :   0.9448
B(  6-C ,  8-O ) :  -0.1009 B(  6-C , 19-H ) :  -0.1315 B(  7-C ,  8-O ) :   1.9229
B(  7-C , 19-H ) :   1.0013

MP2 TOTAL ENERGY:     -402.474990287 Eh
FINAL SINGLE POINT ENERGY      -402.474990286944

DIPOLE MOMENT
-------------
                                X             Y             Z
Electronic contribution:     -2.09537      -1.32329       6.71579
Nuclear contribution   :      3.37076       0.43338      -8.31113
                        -----------------------------------------
Total Dipole Moment    :      1.27539      -0.88991      -1.59534
                        -----------------------------------------
Magnitude (a.u.)       :      2.22793
Magnitude (Debye)      :      5.66296

                             ****ORCA TERMINATED NORMALLY****
TOTAL RUN TIME: 0 days 0 hours 17 minutes 53 seconds 781 msec
