                         Program Version 3.0.3 - RELEASE   -
|  1> ! RI-MP2 RIJK def2-TZVP def2-TZVP/C def2-TZVP/JK TIGHTSCF
|  2> % maxcore 2000
|  3> % mp2 density relaxed end
|  4> *xyz 0 1
|  5>  N       -0.0497730885     1.0429736684    -0.8343980069
|  6>  C        0.0183837426     0.0715817013    -0.0295161924
|  7>  C       -1.2387387384    -0.5795411868     0.5056561754
|  8>  N       -1.0419921482    -2.0084283560     0.6894418756
|  9>  C        0.0875136786    -2.5046152404     1.2623785332
| 10>  O        0.2369692376    -3.6540010759     1.6213105901
| 11>  C        1.1782652560    -1.4485432993     1.4282000669
| 12>  O        1.1972222493    -0.4500996599     0.4006545133
| 13>  H        0.8867313031     1.3823643358    -1.0630922666
| 14>  H       -1.5253443526    -0.0842514390     1.4468214356
| 15>  H       -2.0374773763    -0.3999823450    -0.2128324567
| 16>  H       -1.8285631783    -2.6366477502     0.6172205090
| 17>  H        1.0679650562    -0.9714983601     2.4124631809
| 18>  H        2.1468167289    -1.9461170329     1.3959315325
| 19> *
| 20>
| 21>                          ****END OF INPUT****

CARTESIAN COORDINATES (ANGSTROEM)
---------------------------------
  N     -0.049773    1.042974   -0.834398
  C      0.018384    0.071582   -0.029516
  C     -1.238739   -0.579541    0.505656
  N     -1.041992   -2.008428    0.689442
  C      0.087514   -2.504615    1.262379
  O      0.236969   -3.654001    1.621311
  C      1.178265   -1.448543    1.428200
  O      1.197222   -0.450100    0.400655
  H      0.886731    1.382364   -1.063092
  H     -1.525344   -0.084251    1.446821
  H     -2.037477   -0.399982   -0.212832
  H     -1.828563   -2.636648    0.617221
  H      1.067965   -0.971498    2.412463
  H      2.146817   -1.946117    1.395932

 Total Charge           Charge          ....    0
 Multiplicity           Mult            ....    1
 Number of Electrons    NEL             ....   60
 Basis Dimension        Dim             ....  284

ORBITAL ENERGIES
----------------

  NO   OCC          E(Eh)            E(eV)
   0   2.0000     -20.618092      -561.0468
   1   2.0000     -20.538062      -558.8691
   2   2.0000     -15.608156      -424.7195
   3   2.0000     -15.547968      -423.0817
   4   2.0000     -11.370910      -309.4182
   5   2.0000     -11.358298      -309.0750
   6   2.0000     -11.321882      -308.0841
   7   2.0000     -11.305394      -307.6354
   8   2.0000      -1.453563       -39.5535
   9   2.0000      -1.400537       -38.1105
  10   2.0000      -1.261770       -34.3345
  11   2.0000      -1.214687       -33.0533
  12   2.0000      -1.024047       -27.8657
  13   2.0000      -0.991985       -26.9933
  14   2.0000      -0.866417       -23.5764
  15   2.0000      -0.754676       -20.5358
  16   2.0000      -0.748376       -20.3643
  17   2.0000      -0.718787       -19.5592
  18   2.0000      -0.707199       -19.2439
  19   2.0000      -0.661255       -17.9937
  20   2.0000      -0.628372       -17.0989
  21   2.0000      -0.626037       -17.0353
  22   2.0000      -0.612477       -16.6664
  23   2.0000      -0.587468       -15.9858
  24   2.0000      -0.546741       -14.8776
  25   2.0000      -0.523224       -14.2376
  26   2.0000      -0.460412       -12.5284
  27   2.0000      -0.444718       -12.1014
  28   2.0000      -0.421881       -11.4800
  29   2.0000      -0.405093       -11.0231
  30   0.0000       0.115626         3.1464
  31   0.0000       0.145769         3.9666
  32   0.0000       0.152637         4.1535
  33   0.0000       0.159651         4.3443
  34   0.0000       0.167081         4.5465

MULLIKEN ATOMIC CHARGES
-----------------------
   0 N :   -0.365982
   1 C :    0.130053
   2 C :   -0.086110
   3 N :   -0.305105
   4 C :    0.198041
   5 O :   -0.334117
   6 C :   -0.059159
   7 O :   -0.251019
   8 H :    0.226971
   9 H :    0.142196
  10 H :    0.161326
  11 H :    0.250302
  12 H :    0.131175
  13 H :    0.161429
Sum of atomic charges:    0.0000000

LOEWDIN ATOMIC CHARGES
----------------------
   0 N :   -0.049717
   1 C :   -0.417706
   2 C :   -0.235502
   3 N :    0.118375
   4 C :   -0.468905
   5 O :    0.094930
   6 C :   -0.239586
   7 O :    0.243670
   8 H :    0.170254
   9 H :    0.144428
  10 H :    0.156179
  11 H :    0.193166
  12 H :    0.140894
  13 H :    0.149521

  Mayer bond orders larger than 0.1
B(  0-N ,  1-C ) :   2.0585 B(  0-N ,  8-H ) :   0.8559 B(  1-C ,  2-C ) :   0.9267
B(  1-C ,  7-O ) :   1.0949 B(  2-C ,  3-N ) :   0.8658 B(  2-C ,  9-H ) :   0.9218
B(  2-C , 10-H ) :   0.9152 B(  3-N ,  4-C ) :   1.1847 B(  3-N , 11-H ) :   0.8575
B(  4-C ,  5-O ) :   1.9835 B(  4-C ,  6-C ) :   0.9020 B(  6-C ,  7-O ) :   0.8596
B(  6-C , 12-H ) :   0.9088 B(  6-C , 13-H ) :   0.9272

MP2 TOTAL ENERGY:     -415.231768919 Eh
FINAL SINGLE POINT ENERGY      -415.231768919044

DIPOLE MOMENT
-------------
                                X             Y             Z
Electronic contribution:      1.14295      -1.93126      -0.34490
Nuclear contribution   :     -1.53771       2.39591       0.71480
                        -----------------------------------------
Total Dipole Moment    :     -0.39476       0.46465       0.36990
                        -----------------------------------------
Magnitude (a.u.)       :      0.71314
Magnitude (Debye)      :      1.81265

                             ****ORCA TERMINATED NORMALLY****
TOTAL RUN TIME: 0 days 0 hours 9 minutes 31 seconds 991 msec
