                         Program Version 3.0.3 - RELEASE   -
|  1> ! RI-MP2 RIJK def2-TZVP def2-TZVP/C def2-TZVP/JK TIGHTSCF
|  2> % maxcore 2000
|  3> % mp2 density relaxed end
|  4> *xyz 0 1
|  5>  C       -1.4315811318     0.5315613079     0.7546628195
|  6>  C       -0.0576117908     0.2119027603     0.1630042779
|  7>  O        0.7352431101    -0.2810633608     1.2378510570
|  8>  C        2.1087355396    -0.5364359238     0.9280983644
|  9>  C        2.9433573900     0.7536025216     0.9366127943
| 10>  C        2.6091646940    -1.4948385013     1.9126773692
| 11>  C        3.0571023981    -2.2674931417     2.7157329401
| 12>  C       -0.1522092362    -0.7494792668    -0.9450377468
| 13>  C       -0.2354579830    -1.5337534399    -1.8525541734
| 14>  H       -1.3187848469     1.2593609209     1.5617948103
| 15>  H       -2.0898171612     0.9436529832    -0.0139527284
| 16>  H       -1.8831727083    -0.3772876262     1.1587279290
| 17>  H        0.3795907258     1.1425815467    -0.2322278518
| 18>  H        2.1694111375    -1.0017551196    -0.0669766125
| 19>  H        2.8760242229     1.2347419908     1.9153056908
| 20>  H        3.9918728004     0.5240737942     0.7283956171
| 21>  H        2.5899027316     1.4513147567     0.1720823905
| 22>  H        3.4410177937    -2.9592611078     3.4240844354
| 23>  H       -0.3094676253    -2.2282411544    -2.6529284025
| 24> *
| 25>
| 26>                          ****END OF INPUT****

CARTESIAN COORDINATES (ANGSTROEM)
---------------------------------
  C     -1.431581    0.531561    0.754663
  C     -0.057612    0.211903    0.163004
  O      0.735243   -0.281063    1.237851
  C      2.108736   -0.536436    0.928098
  C      2.943357    0.753603    0.936613
  C      2.609165   -1.494839    1.912677
  C      3.057102   -2.267493    2.715733
  C     -0.152209   -0.749479   -0.945038
  C     -0.235458   -1.533753   -1.852554
  H     -1.318785    1.259361    1.561795
  H     -2.089817    0.943653   -0.013953
  H     -1.883173   -0.377288    1.158728
  H      0.379591    1.142582   -0.232228
  H      2.169411   -1.001755   -0.066977
  H      2.876024    1.234742    1.915306
  H      3.991873    0.524074    0.728396
  H      2.589903    1.451315    0.172082
  H      3.441018   -2.959261    3.424084
  H     -0.309468   -2.228241   -2.652928

 Total Charge           Charge          ....    0
 Multiplicity           Mult            ....    1
 Number of Electrons    NEL             ....   66
 Basis Dimension        Dim             ....  339

ORBITAL ENERGIES
----------------

  NO   OCC          E(Eh)            E(eV)
   0   2.0000     -20.568110      -559.6867
   1   2.0000     -11.315653      -307.9146
   2   2.0000     -11.311035      -307.7889
   3   2.0000     -11.238674      -305.8199
   4   2.0000     -11.232595      -305.6544
   5   2.0000     -11.230967      -305.6102
   6   2.0000     -11.227412      -305.5134
   7   2.0000     -11.225484      -305.4610
   8   2.0000     -11.223273      -305.4008
   9   2.0000      -1.389115       -37.7997
  10   2.0000      -1.095001       -29.7965
  11   2.0000      -1.049933       -28.5701
  12   2.0000      -1.004089       -27.3227
  13   2.0000      -0.988924       -26.9100
  14   2.0000      -0.887144       -24.1404
  15   2.0000      -0.859470       -23.3874
  16   2.0000      -0.732105       -19.9216
  17   2.0000      -0.727265       -19.7899
  18   2.0000      -0.697459       -18.9788
  19   2.0000      -0.679856       -18.4998
  20   2.0000      -0.671046       -18.2601
  21   2.0000      -0.599835       -16.3223
  22   2.0000      -0.573786       -15.6135
  23   2.0000      -0.561328       -15.2745
  24   2.0000      -0.543808       -14.7978
  25   2.0000      -0.534186       -14.5359
  26   2.0000      -0.523987       -14.2584
  27   2.0000      -0.496529       -13.5112
  28   2.0000      -0.452192       -12.3048
  29   2.0000      -0.406418       -11.0592
  30   2.0000      -0.395984       -10.7753
  31   2.0000      -0.392052       -10.6683
  32   2.0000      -0.383920       -10.4470
  33   0.0000       0.131563         3.5800
  34   0.0000       0.153842         4.1862
  35   0.0000       0.159608         4.3431
  36   0.0000       0.164246         4.4694
  37   0.0000       0.168855         4.5948

MULLIKEN ATOMIC CHARGES
-----------------------
   0 C :   -0.356722
   1 C :    0.005789
   2 O :   -0.273822
   3 C :   -0.097049
   4 C :   -0.384549
   5 C :   -0.000973
   6 C :   -0.099230
   7 C :   -0.063838
   8 C :   -0.154620
   9 H :    0.139833
  10 H :    0.130204
  11 H :    0.139524
  12 H :    0.102620
  13 H :    0.121238
  14 H :    0.137816
  15 H :    0.139001
  16 H :    0.129381
  17 H :    0.191848
  18 H :    0.193548
Sum of atomic charges:   -0.0000000

LOEWDIN ATOMIC CHARGES
----------------------
   0 C :   -0.268059
   1 C :   -0.340261
   2 O :    0.215784
   3 C :   -0.326469
   4 C :   -0.276440
   5 C :   -0.079230
   6 C :   -0.086410
   7 C :   -0.093244
   8 C :   -0.088139
   9 H :    0.128101
  10 H :    0.129818
  11 H :    0.132208
  12 H :    0.151371
  13 H :    0.161460
  14 H :    0.130726
  15 H :    0.131925
  16 H :    0.121103
  17 H :    0.127405
  18 H :    0.128351

  Mayer bond orders larger than 0.1
B(  0-C ,  1-C ) :   0.9121 B(  0-C ,  9-H ) :   0.9353 B(  0-C , 10-H ) :   0.9293
B(  0-C , 11-H ) :   0.9326 B(  1-C ,  2-O ) :   0.9652 B(  1-C ,  7-C ) :   1.0186
B(  1-C , 12-H ) :   0.9767 B(  2-O ,  3-C ) :   0.9868 B(  3-C ,  4-C ) :   0.9105
B(  3-C ,  5-C ) :   1.1255 B(  3-C ,  6-C ) :  -0.1132 B(  3-C , 13-H ) :   0.9504
B(  4-C , 14-H ) :   0.9309 B(  4-C , 15-H ) :   0.9272 B(  4-C , 16-H ) :   0.9334
B(  5-C ,  6-C ) :   2.6078 B(  6-C , 17-H ) :   0.8936 B(  7-C ,  8-C ) :   2.6335
B(  8-C , 18-H ) :   0.9007

MP2 TOTAL ENERGY:     -385.118001580 Eh
FINAL SINGLE POINT ENERGY      -385.118001580460

DIPOLE MOMENT
-------------
                                X             Y             Z
Electronic contribution:      0.71040      -4.77659       0.16476
Nuclear contribution   :     -0.58756       5.03003      -0.60782
                        -----------------------------------------
Total Dipole Moment    :      0.12284       0.25344      -0.44306
                        -----------------------------------------
Magnitude (a.u.)       :      0.52500
Magnitude (Debye)      :      1.33444

                             ****ORCA TERMINATED NORMALLY****
TOTAL RUN TIME: 0 days 0 hours 18 minutes 38 seconds 394 msec
