                         Program Version 3.0.3 - RELEASE   -
|  1> ! RI-MP2 RIJK def2-TZVP def2-TZVP/C def2-TZVP/JK TIGHTSCF
|  2> % maxcore 2000
|  3> % mp2 density relaxed end
|  4> *xyz 0 1
|  5>  C        0.0241098345     1.5516922731     0.1283823898
|  6>  C       -0.0609872863     0.0296890709     0.2711569290
|  7>  C       -1.3447705010    -0.5564387098    -0.3310205310
|  8>  C       -1.4217771436    -2.0640905503    -0.2090231849
|  9>  C       -1.9026008380    -2.7130691507     1.0720510741
| 10>  C       -2.7428492305    -2.7937274929    -0.1758852647
| 11>  N       -3.9561599992    -2.0233672018    -0.2088809527
| 12>  C       -4.7739749567    -2.1437717312    -1.4118006842
| 13>  C       -5.2054662577    -2.7736782502    -0.1326827873
| 14>  H        0.9480781141     1.9449689699     0.5642117775
| 15>  H       -0.0013513357     1.8525706228    -0.9251012511
| 16>  H       -0.8167762753     2.0434008812     0.6303663470
| 17>  H        0.8113488369    -0.4327189506    -0.2101473800
| 18>  H       -0.0025885677    -0.2470431211     1.3314571614
| 19>  H       -2.2217632438    -0.1127777907     0.1520236564
| 20>  H       -1.4068372100    -0.2735155170    -1.3914421763
| 21>  H       -0.6256721985    -2.5944297135    -0.7278474173
| 22>  H       -1.4131934170    -3.6111901508     1.4324196022
| 23>  H       -2.2699516608    -2.0514867139     1.8496660112
| 24>  H       -2.7807931553    -3.7616469876    -0.6855001173
| 25>  H       -5.2395053547    -1.2270535232    -1.7626168281
| 26>  H       -4.4240732614    -2.8078785701    -2.2005497760
| 27>  H       -5.1431533984    -3.8586701120    -0.0666047130
| 28>  H       -5.9921114738    -2.3255249206     0.4678411952
| 29> *
| 30>
| 31>                          ****END OF INPUT****

CARTESIAN COORDINATES (ANGSTROEM)
---------------------------------
  C      0.024110    1.551692    0.128382
  C     -0.060987    0.029689    0.271157
  C     -1.344771   -0.556439   -0.331021
  C     -1.421777   -2.064091   -0.209023
  C     -1.902601   -2.713069    1.072051
  C     -2.742849   -2.793727   -0.175885
  N     -3.956160   -2.023367   -0.208881
  C     -4.773975   -2.143772   -1.411801
  C     -5.205466   -2.773678   -0.132683
  H      0.948078    1.944969    0.564212
  H     -0.001351    1.852571   -0.925101
  H     -0.816776    2.043401    0.630366
  H      0.811349   -0.432719   -0.210147
  H     -0.002589   -0.247043    1.331457
  H     -2.221763   -0.112778    0.152024
  H     -1.406837   -0.273516   -1.391442
  H     -0.625672   -2.594430   -0.727847
  H     -1.413193   -3.611190    1.432420
  H     -2.269952   -2.051487    1.849666
  H     -2.780793   -3.761647   -0.685500
  H     -5.239505   -1.227054   -1.762617
  H     -4.424073   -2.807879   -2.200550
  H     -5.143153   -3.858670   -0.066605
  H     -5.992111   -2.325525    0.467841

 Total Charge           Charge          ....    0
 Multiplicity           Mult            ....    1
 Number of Electrons    NEL             ....   70
 Basis Dimension        Dim             ....  369

ORBITAL ENERGIES
----------------

  NO   OCC          E(Eh)            E(eV)
   0   2.0000     -15.558128      -423.3582
   1   2.0000     -11.252539      -306.1971
   2   2.0000     -11.252187      -306.1876
   3   2.0000     -11.251470      -306.1681
   4   2.0000     -11.222069      -305.3680
   5   2.0000     -11.214455      -305.1608
   6   2.0000     -11.210695      -305.0585
   7   2.0000     -11.208957      -305.0112
   8   2.0000     -11.205765      -304.9244
   9   2.0000      -1.275454       -34.7069
  10   2.0000      -1.137190       -30.9445
  11   2.0000      -1.044759       -28.4293
  12   2.0000      -0.939313       -25.5600
  13   2.0000      -0.908069       -24.7098
  14   2.0000      -0.841655       -22.9026
  15   2.0000      -0.814221       -22.1561
  16   2.0000      -0.786866       -21.4117
  17   2.0000      -0.752027       -20.4637
  18   2.0000      -0.682945       -18.5839
  19   2.0000      -0.663642       -18.0586
  20   2.0000      -0.631018       -17.1709
  21   2.0000      -0.606802       -16.5119
  22   2.0000      -0.575686       -15.6652
  23   2.0000      -0.556003       -15.1296
  24   2.0000      -0.532886       -14.5006
  25   2.0000      -0.531189       -14.4544
  26   2.0000      -0.522750       -14.2247
  27   2.0000      -0.509065       -13.8523
  28   2.0000      -0.475369       -12.9354
  29   2.0000      -0.472542       -12.8585
  30   2.0000      -0.465320       -12.6620
  31   2.0000      -0.456890       -12.4326
  32   2.0000      -0.412984       -11.2379
  33   2.0000      -0.379787       -10.3345
  34   2.0000      -0.367101        -9.9893
  35   0.0000       0.144272         3.9259
  36   0.0000       0.151195         4.1142
  37   0.0000       0.164710         4.4820
  38   0.0000       0.167732         4.5642
  39   0.0000       0.180837         4.9208

MULLIKEN ATOMIC CHARGES
-----------------------
   0 C :   -0.383328
   1 C :   -0.185409
   2 C :   -0.263927
   3 C :   -0.039401
   4 C :   -0.276912
   5 C :   -0.058817
   6 N :   -0.216419
   7 C :   -0.170383
   8 C :   -0.178312
   9 H :    0.130954
  10 H :    0.119128
  11 H :    0.122231
  12 H :    0.098687
  13 H :    0.109398
  14 H :    0.132995
  15 H :    0.105110
  16 H :    0.112195
  17 H :    0.128597
  18 H :    0.129699
  19 H :    0.090114
  20 H :    0.130598
  21 H :    0.117495
  22 H :    0.116589
  23 H :    0.129119
Sum of atomic charges:   -0.0000000

LOEWDIN ATOMIC CHARGES
----------------------
   0 C :   -0.322997
   1 C :   -0.292568
   2 C :   -0.252145
   3 C :   -0.207813
   4 C :   -0.207132
   5 C :   -0.261884
   6 N :    0.117091
   7 C :   -0.263611
   8 C :   -0.263520
   9 H :    0.119242
  10 H :    0.119256
  11 H :    0.120110
  12 H :    0.132765
  13 H :    0.134987
  14 H :    0.145736
  15 H :    0.139381
  16 H :    0.147466
  17 H :    0.129232
  18 H :    0.139892
  19 H :    0.134657
  20 H :    0.123688
  21 H :    0.122130
  22 H :    0.122616
  23 H :    0.123420

  Mayer bond orders larger than 0.1
B(  0-C ,  1-C ) :   0.9202 B(  0-C ,  9-H ) :   0.9439 B(  0-C , 10-H ) :   0.9391
B(  0-C , 11-H ) :   0.9403 B(  1-C ,  2-C ) :   0.9332 B(  1-C , 12-H ) :   0.9308
B(  1-C , 13-H ) :   0.9355 B(  2-C ,  3-C ) :   0.9249 B(  2-C , 14-H ) :   0.9249
B(  2-C , 15-H ) :   0.9290 B(  3-C ,  4-C ) :   0.8986 B(  3-C ,  5-C ) :   0.8706
B(  3-C , 16-H ) :   0.9242 B(  4-C ,  5-C ) :   0.8900 B(  4-C , 17-H ) :   0.9252
B(  4-C , 18-H ) :   0.9242 B(  5-C ,  6-N ) :   0.9660 B(  5-C , 19-H ) :   0.9141
B(  6-N ,  7-C ) :   0.8723 B(  6-N ,  8-C ) :   0.8940 B(  7-C ,  8-C ) :   0.9492
B(  7-C , 20-H ) :   0.9275 B(  7-C , 21-H ) :   0.9217 B(  8-C , 22-H ) :   0.9224
B(  8-C , 23-H ) :   0.9252

MP2 TOTAL ENERGY:     -367.702151628 Eh
FINAL SINGLE POINT ENERGY      -367.702151628481

DIPOLE MOMENT
-------------
                                X             Y             Z
Electronic contribution:     -4.61598      -4.62481      -0.33970
Nuclear contribution   :      4.52163       4.25144       0.12128
                        -----------------------------------------
Total Dipole Moment    :     -0.09435      -0.37337      -0.21842
                        -----------------------------------------
Magnitude (a.u.)       :      0.44274
Magnitude (Debye)      :      1.12535

                             ****ORCA TERMINATED NORMALLY****
TOTAL RUN TIME: 0 days 0 hours 18 minutes 11 seconds 965 msec
