                         Program Version 3.0.3 - RELEASE   -
|  1> ! RI-MP2 RIJK def2-TZVP def2-TZVP/C def2-TZVP/JK TIGHTSCF
|  2> % maxcore 2000
|  3> % mp2 density relaxed end
|  4> *xyz 0 1
|  5>  O       -0.0018676912    -0.0758043507    -0.0726784983
|  6>  C       -0.0552535263     1.1283262922     0.0194369049
|  7>  C       -1.3479545914     1.9254332338     0.0917267895
|  8>  C       -1.1664142050     3.2439747376     0.8421563560
|  9>  N       -0.0099093350     3.9452285143     0.3014549968
| 10>  C        1.1852959439     3.3111834502     0.0848723735
| 11>  O        2.2460938580     3.8762501788    -0.0682343604
| 12>  N        1.0892639938     1.9107037961     0.0322930177
| 13>  H       -1.6630517156     2.1244006211    -0.9399067311
| 14>  H       -2.1080000313     1.2957131433     0.5566442252
| 15>  H       -2.0473297600     3.8781185681     0.7150809710
| 16>  H       -1.0523543732     3.0502240726     1.9195033187
| 17>  H        0.0947266523     4.9302040218     0.4896870073
| 18>  H        1.9698127509     1.4323124607    -0.1028600108
| 19> *
| 20>
| 21>                          ****END OF INPUT****

CARTESIAN COORDINATES (ANGSTROEM)
---------------------------------
  O     -0.001868   -0.075804   -0.072678
  C     -0.055254    1.128326    0.019437
  C     -1.347955    1.925433    0.091727
  C     -1.166414    3.243975    0.842156
  N     -0.009909    3.945229    0.301455
  C      1.185296    3.311183    0.084872
  O      2.246094    3.876250   -0.068234
  N      1.089264    1.910704    0.032293
  H     -1.663052    2.124401   -0.939907
  H     -2.108000    1.295713    0.556644
  H     -2.047330    3.878119    0.715081
  H     -1.052354    3.050224    1.919503
  H      0.094727    4.930204    0.489687
  H      1.969813    1.432312   -0.102860

 Total Charge           Charge          ....    0
 Multiplicity           Mult            ....    1
 Number of Electrons    NEL             ....   60
 Basis Dimension        Dim             ....  284

ORBITAL ENERGIES
----------------

  NO   OCC          E(Eh)            E(eV)
   0   2.0000     -20.547965      -559.1386
   1   2.0000     -20.533004      -558.7314
   2   2.0000     -15.616662      -424.9510
   3   2.0000     -15.603427      -424.5908
   4   2.0000     -11.401507      -310.2508
   5   2.0000     -11.379736      -309.6583
   6   2.0000     -11.303384      -307.5807
   7   2.0000     -11.267305      -306.5990
   8   2.0000      -1.425773       -38.7972
   9   2.0000      -1.404074       -38.2068
  10   2.0000      -1.281006       -34.8579
  11   2.0000      -1.226252       -33.3680
  12   2.0000      -1.073353       -29.2074
  13   2.0000      -0.930614       -25.3233
  14   2.0000      -0.883678       -24.0461
  15   2.0000      -0.802267       -21.8308
  16   2.0000      -0.728039       -19.8109
  17   2.0000      -0.710145       -19.3240
  18   2.0000      -0.679010       -18.4768
  19   2.0000      -0.669396       -18.2152
  20   2.0000      -0.632145       -17.2016
  21   2.0000      -0.620891       -16.8953
  22   2.0000      -0.605019       -16.4634
  23   2.0000      -0.584878       -15.9153
  24   2.0000      -0.562161       -15.2972
  25   2.0000      -0.524187       -14.2638
  26   2.0000      -0.471595       -12.8328
  27   2.0000      -0.443042       -12.0558
  28   2.0000      -0.433931       -11.8079
  29   2.0000      -0.420446       -11.4409
  30   0.0000       0.112705         3.0669
  31   0.0000       0.138074         3.7572
  32   0.0000       0.147388         4.0106
  33   0.0000       0.162966         4.4345
  34   0.0000       0.169565         4.6141

MULLIKEN ATOMIC CHARGES
-----------------------
   0 O :   -0.307324
   1 C :    0.218208
   2 C :   -0.216160
   3 C :   -0.129947
   4 N :   -0.334024
   5 C :    0.315422
   6 O :   -0.348345
   7 N :   -0.278565
   8 H :    0.141818
   9 H :    0.151959
  10 H :    0.141872
  11 H :    0.130625
  12 H :    0.252166
  13 H :    0.262296
Sum of atomic charges:   -0.0000000

LOEWDIN ATOMIC CHARGES
----------------------
   0 O :    0.118246
   1 C :   -0.427459
   2 C :   -0.220706
   3 C :   -0.273185
   4 N :    0.094436
   5 C :   -0.527689
   6 O :    0.079171
   7 N :    0.164774
   8 H :    0.160345
   9 H :    0.156957
  10 H :    0.138940
  11 H :    0.133331
  12 H :    0.194904
  13 H :    0.207934

  Mayer bond orders larger than 0.1
B(  0-O ,  1-C ) :   2.0173 B(  1-C ,  2-C ) :   0.9309 B(  1-C ,  7-N ) :   1.0722
B(  2-C ,  3-C ) :   0.9129 B(  2-C ,  8-H ) :   0.9037 B(  2-C ,  9-H ) :   0.9244
B(  3-C ,  4-N ) :   0.8714 B(  3-C , 10-H ) :   0.9251 B(  3-C , 11-H ) :   0.9307
B(  4-N ,  5-C ) :   1.1565 B(  4-N , 12-H ) :   0.8650 B(  5-C ,  6-O ) :   1.9962
B(  5-C ,  7-N ) :   1.0131 B(  7-N , 13-H ) :   0.8467

MP2 TOTAL ENERGY:     -415.288152596 Eh
FINAL SINGLE POINT ENERGY      -415.288152595520

DIPOLE MOMENT
-------------
                                X             Y             Z
Electronic contribution:      4.62529      -1.34259      -1.13157
Nuclear contribution   :     -5.93832       2.09776       1.60280
                        -----------------------------------------
Total Dipole Moment    :     -1.31304       0.75517       0.47124
                        -----------------------------------------
Magnitude (a.u.)       :      1.58632
Magnitude (Debye)      :      4.03210

                             ****ORCA TERMINATED NORMALLY****
TOTAL RUN TIME: 0 days 0 hours 9 minutes 59 seconds 964 msec
