                         Program Version 3.0.3 - RELEASE   -
|  1> ! RI-MP2 RIJK def2-TZVP def2-TZVP/C def2-TZVP/JK TIGHTSCF
|  2> % maxcore 2000
|  3> % mp2 density relaxed end
|  4> *xyz 0 1
|  5>  C        0.4144781100     1.4619479586    -0.4315972055
|  6>  C        0.0763180936     0.0546928323    -0.0038122342
|  7>  N        1.1806504756    -0.9171195892     0.1289402598
|  8>  C        0.4231530275    -0.5265345145     1.3225967497
|  9>  C        1.2220154985     0.2239687603     2.3644473042
| 10>  C        2.4078908116    -0.4507024938     2.9792214882
| 11>  N        2.5940627879     0.6609140282     2.0481646237
| 12>  C        0.4385613045     1.1408804995     3.1668686402
| 13>  N       -0.2241722645     1.8402081653     3.8057916493
| 14>  H        1.3143306710     1.8339116307     0.0617196562
| 15>  H        0.5749083600     1.5031483456    -1.5138583596
| 16>  H       -0.4102714293     2.1383520256    -0.1853485036
| 17>  H       -0.8441200729    -0.3338748337    -0.4376110543
| 18>  H        0.9110888565    -1.8412558732    -0.1934422570
| 19>  H       -0.2828332277    -1.2397861378     1.7436501193
| 20>  H        2.6666718525    -0.2418709388     4.0123209016
| 21>  H        2.6167368947    -1.4604149650     2.6349146935
| 22>  H        2.8017478103     0.2786158399     1.1235376384
| 23> *
| 24>
| 25>                          ****END OF INPUT****

CARTESIAN COORDINATES (ANGSTROEM)
---------------------------------
  C      0.414478    1.461948   -0.431597
  C      0.076318    0.054693   -0.003812
  N      1.180650   -0.917120    0.128940
  C      0.423153   -0.526535    1.322597
  C      1.222015    0.223969    2.364447
  C      2.407891   -0.450702    2.979221
  N      2.594063    0.660914    2.048165
  C      0.438561    1.140880    3.166869
  N     -0.224172    1.840208    3.805792
  H      1.314331    1.833912    0.061720
  H      0.574908    1.503148   -1.513858
  H     -0.410271    2.138352   -0.185349
  H     -0.844120   -0.333875   -0.437611
  H      0.911089   -1.841256   -0.193442
  H     -0.282833   -1.239786    1.743650
  H      2.666672   -0.241871    4.012321
  H      2.616737   -1.460415    2.634915
  H      2.801748    0.278616    1.123538

 Total Charge           Charge          ....    0
 Multiplicity           Mult            ....    1
 Number of Electrons    NEL             ....   66
 Basis Dimension        Dim             ....  333

ORBITAL ENERGIES
----------------

  NO   OCC          E(Eh)            E(eV)
   0   2.0000     -15.585017      -424.0899
   1   2.0000     -15.583809      -424.0570
   2   2.0000     -15.570395      -423.6920
   3   2.0000     -11.317579      -307.9670
   4   2.0000     -11.293041      -307.2993
   5   2.0000     -11.285569      -307.0960
   6   2.0000     -11.284424      -307.0648
   7   2.0000     -11.272598      -306.7430
   8   2.0000     -11.229581      -305.5724
   9   2.0000      -1.315605       -35.7994
  10   2.0000      -1.274017       -34.6678
  11   2.0000      -1.213418       -33.0188
  12   2.0000      -1.008180       -27.4340
  13   2.0000      -0.994651       -27.0658
  14   2.0000      -0.904090       -24.6015
  15   2.0000      -0.869054       -23.6482
  16   2.0000      -0.822083       -22.3700
  17   2.0000      -0.738701       -20.1011
  18   2.0000      -0.706823       -19.2336
  19   2.0000      -0.698509       -19.0074
  20   2.0000      -0.602421       -16.3927
  21   2.0000      -0.594533       -16.1781
  22   2.0000      -0.573839       -15.6149
  23   2.0000      -0.565465       -15.3871
  24   2.0000      -0.546303       -14.8657
  25   2.0000      -0.541284       -14.7291
  26   2.0000      -0.526928       -14.3384
  27   2.0000      -0.489855       -13.3296
  28   2.0000      -0.478664       -13.0251
  29   2.0000      -0.460267       -12.5245
  30   2.0000      -0.456706       -12.4276
  31   2.0000      -0.434436       -11.8216
  32   2.0000      -0.397144       -10.8069
  33   0.0000       0.116055         3.1580
  34   0.0000       0.146779         3.9941
  35   0.0000       0.151478         4.1219
  36   0.0000       0.157584         4.2881
  37   0.0000       0.176034         4.7901

MULLIKEN ATOMIC CHARGES
-----------------------
   0 C :   -0.402390
   1 C :   -0.004980
   2 N :   -0.430085
   3 C :   -0.032001
   4 C :    0.244290
   5 C :   -0.179448
   6 N :   -0.367687
   7 C :   -0.252353
   8 N :   -0.045332
   9 H :    0.155683
  10 H :    0.136813
  11 H :    0.141942
  12 H :    0.129333
  13 H :    0.226887
  14 H :    0.147310
  15 H :    0.143585
  16 H :    0.135540
  17 H :    0.252893
Sum of atomic charges:   -0.0000000

LOEWDIN ATOMIC CHARGES
----------------------
   0 C :   -0.287554
   1 C :   -0.263578
   2 N :    0.006470
   3 C :   -0.220794
   4 C :   -0.291787
   5 C :   -0.211901
   6 N :    0.037675
   7 C :   -0.140392
   8 N :    0.072449
   9 H :    0.133798
  10 H :    0.129204
  11 H :    0.134052
  12 H :    0.141647
  13 H :    0.169304
  14 H :    0.150091
  15 H :    0.134649
  16 H :    0.130183
  17 H :    0.176485

  Mayer bond orders larger than 0.1
B(  0-C ,  1-C ) :   0.8995 B(  0-C ,  9-H ) :   0.9377 B(  0-C , 10-H ) :   0.9291
B(  0-C , 11-H ) :   0.9322 B(  1-C ,  2-N ) :   0.8667 B(  1-C ,  3-C ) :   0.9083
B(  1-C , 12-H ) :   0.9252 B(  2-N ,  3-C ) :   0.8712 B(  2-N , 13-H ) :   0.8662
B(  3-C ,  4-C ) :   0.9010 B(  3-C , 14-H ) :   0.9133 B(  4-C ,  5-C ) :   0.9019
B(  4-C ,  6-N ) :   0.8446 B(  4-C ,  7-C ) :   0.9067 B(  5-C ,  6-N ) :   0.9414
B(  5-C , 15-H ) :   0.9163 B(  5-C , 16-H ) :   0.9080 B(  6-N , 17-H ) :   0.8490
B(  7-C ,  8-N ) :   2.8827

MP2 TOTAL ENERGY:     -397.402796516 Eh
FINAL SINGLE POINT ENERGY      -397.402796516203

DIPOLE MOMENT
-------------
                                X             Y             Z
Electronic contribution:     -0.63142       0.88882       6.02963
Nuclear contribution   :      0.61550      -2.53314      -7.18121
                        -----------------------------------------
Total Dipole Moment    :     -0.01592      -1.64432      -1.15158
                        -----------------------------------------
Magnitude (a.u.)       :      2.00753
Magnitude (Debye)      :      5.10274

                             ****ORCA TERMINATED NORMALLY****
TOTAL RUN TIME: 0 days 0 hours 17 minutes 55 seconds 833 msec
