                         Program Version 3.0.3 - RELEASE   -
|  1> ! RI-MP2 RIJK def2-TZVP def2-TZVP/C def2-TZVP/JK TIGHTSCF
|  2> % maxcore 2000
|  3> % mp2 density relaxed end
|  4> *xyz 0 1
|  5>  C        0.0479466512     1.5063175518    -0.0752187744
|  6>  C        0.0388211368    -0.0087637121    -0.0003422126
|  7>  O        0.6626341805    -0.5035183035    -1.1966229284
|  8>  C        0.7331602717    -1.8567809711    -1.2862077154
|  9>  O        0.3058658147    -2.6036006747    -0.4290296068
| 10>  N        1.3363236612    -2.2585862747    -2.4447406396
| 11>  C        1.4900319615    -3.6783579521    -2.6954314184
| 12>  C        1.8428791778    -1.3588742886    -3.4629358303
| 13>  H        1.0705917349     1.8892588976    -0.1398035236
| 14>  H       -0.5070332055     1.8587286692    -0.9495285731
| 15>  H       -0.4200510478     1.9246995994     0.8208455885
| 16>  H        0.5897221521    -0.3773880270     0.8705807410
| 17>  H       -0.9781597181    -0.4078114203     0.0655810010
| 18>  H        0.9694421331    -3.9686507640    -3.6175177675
| 19>  H        2.5503465313    -3.9402602176    -2.8077470851
| 20>  H        1.0694325018    -4.2276409222    -1.8551450996
| 21>  H        1.6737284478    -0.3269860782    -3.1680660357
| 22>  H        2.9197059565    -1.5144003096    -3.6133052155
| 23>  H        1.3414688984    -1.5417510222    -4.4229015045
| 24> *
| 25>
| 26>                          ****END OF INPUT****

CARTESIAN COORDINATES (ANGSTROEM)
---------------------------------
  C      0.047947    1.506318   -0.075219
  C      0.038821   -0.008764   -0.000342
  O      0.662634   -0.503518   -1.196623
  C      0.733160   -1.856781   -1.286208
  O      0.305866   -2.603601   -0.429030
  N      1.336324   -2.258586   -2.444741
  C      1.490032   -3.678358   -2.695431
  C      1.842879   -1.358874   -3.462936
  H      1.070592    1.889259   -0.139804
  H     -0.507033    1.858729   -0.949529
  H     -0.420051    1.924700    0.820846
  H      0.589722   -0.377388    0.870581
  H     -0.978160   -0.407811    0.065581
  H      0.969442   -3.968651   -3.617518
  H      2.550347   -3.940260   -2.807747
  H      1.069433   -4.227641   -1.855145
  H      1.673728   -0.326986   -3.168066
  H      2.919706   -1.514400   -3.613305
  H      1.341469   -1.541751   -4.422902

 Total Charge           Charge          ....    0
 Multiplicity           Mult            ....    1
 Number of Electrons    NEL             ....   64
 Basis Dimension        Dim             ....  314

ORBITAL ENERGIES
----------------

  NO   OCC          E(Eh)            E(eV)
   0   2.0000     -20.591196      -560.3149
   1   2.0000     -20.512746      -558.1802
   2   2.0000     -15.583790      -424.0565
   3   2.0000     -11.391648      -309.9825
   4   2.0000     -11.283035      -307.0270
   5   2.0000     -11.260528      -306.4146
   6   2.0000     -11.253438      -306.2216
   7   2.0000     -11.222652      -305.3839
   8   2.0000      -1.453861       -39.5616
   9   2.0000      -1.344729       -36.5919
  10   2.0000      -1.246841       -33.9283
  11   2.0000      -1.035794       -28.1854
  12   2.0000      -0.970664       -26.4131
  13   2.0000      -0.938055       -25.5258
  14   2.0000      -0.849143       -23.1064
  15   2.0000      -0.765293       -20.8247
  16   2.0000      -0.718848       -19.5608
  17   2.0000      -0.686685       -18.6857
  18   2.0000      -0.672801       -18.3078
  19   2.0000      -0.641274       -17.4500
  20   2.0000      -0.607300       -16.5255
  21   2.0000      -0.581412       -15.8210
  22   2.0000      -0.573655       -15.6099
  23   2.0000      -0.562078       -15.2949
  24   2.0000      -0.554885       -15.0992
  25   2.0000      -0.542390       -14.7592
  26   2.0000      -0.531641       -14.4667
  27   2.0000      -0.509196       -13.8559
  28   2.0000      -0.504527       -13.7289
  29   2.0000      -0.455655       -12.3990
  30   2.0000      -0.444507       -12.0957
  31   2.0000      -0.374832       -10.1997
  32   0.0000       0.132033         3.5928
  33   0.0000       0.146753         3.9933
  34   0.0000       0.177106         4.8193
  35   0.0000       0.189704         5.1621
  36   0.0000       0.198106         5.3907

MULLIKEN ATOMIC CHARGES
-----------------------
   0 C :   -0.363154
   1 C :   -0.058142
   2 O :   -0.296646
   3 C :    0.387565
   4 O :   -0.412077
   5 N :   -0.127122
   6 C :   -0.313649
   7 C :   -0.318114
   8 H :    0.129639
   9 H :    0.129637
  10 H :    0.130161
  11 H :    0.120276
  12 H :    0.120383
  13 H :    0.128255
  14 H :    0.128268
  15 H :    0.182652
  16 H :    0.171785
  17 H :    0.130155
  18 H :    0.130129
Sum of atomic charges:    0.0000000

LOEWDIN ATOMIC CHARGES
----------------------
   0 C :   -0.318050
   1 C :   -0.307750
   2 O :    0.223798
   3 C :   -0.568777
   4 O :    0.060756
   5 N :    0.135633
   6 C :   -0.289429
   7 C :   -0.296064
   8 H :    0.123599
   9 H :    0.123601
  10 H :    0.127695
  11 H :    0.127881
  12 H :    0.127906
  13 H :    0.115757
  14 H :    0.115773
  15 H :    0.135733
  16 H :    0.129408
  17 H :    0.116274
  18 H :    0.116257

  Mayer bond orders larger than 0.1
B(  0-C ,  1-C ) :   0.9361 B(  0-C ,  8-H ) :   0.9340 B(  0-C ,  9-H ) :   0.9340
B(  0-C , 10-H ) :   0.9351 B(  1-C ,  2-O ) :   0.8453 B(  1-C , 11-H ) :   0.9367
B(  1-C , 12-H ) :   0.9367 B(  2-O ,  3-C ) :   1.0627 B(  3-C ,  4-O ) :   1.8422
B(  3-C ,  5-N ) :   1.1917 B(  5-N ,  6-C ) :   0.8797 B(  5-N ,  7-C ) :   0.8893
B(  6-C , 13-H ) :   0.9333 B(  6-C , 14-H ) :   0.9333 B(  6-C , 15-H ) :   0.9237
B(  7-C , 16-H ) :   0.9275 B(  7-C , 17-H ) :   0.9328 B(  7-C , 18-H ) :   0.9328

MP2 TOTAL ENERGY:     -401.589208407 Eh
FINAL SINGLE POINT ENERGY      -401.589208407468

DIPOLE MOMENT
-------------
                                X             Y             Z
Electronic contribution:     -0.97221      -3.29785       2.01589
Nuclear contribution   :      1.31633       3.83386      -2.70471
                        -----------------------------------------
Total Dipole Moment    :      0.34412       0.53601      -0.68882
                        -----------------------------------------
Magnitude (a.u.)       :      0.93819
Magnitude (Debye)      :      2.38469

                             ****ORCA TERMINATED NORMALLY****
TOTAL RUN TIME: 0 days 0 hours 11 minutes 48 seconds 908 msec
