                         Program Version 3.0.3 - RELEASE   -
|  1> ! RI-MP2 RIJK def2-TZVP def2-TZVP/C def2-TZVP/JK TIGHTSCF
|  2> % maxcore 2000
|  3> % mp2 density relaxed end
|  4> *xyz 0 1
|  5>  C       -0.1553484187     1.4035202557     0.1935260046
|  6>  N        0.4363082700     0.1062203681    -0.1308095343
|  7>  C        0.8265408556    -0.7149109084     0.9151012951
|  8>  C        0.7343628904    -2.0637883597     1.1258225325
|  9>  C        0.0563707526    -3.0788062221     0.2582658291
| 10>  C        1.4382214864    -2.2946112730     2.3619827571
| 11>  C        1.8754080891    -1.0927897967     2.8034336633
| 12>  O        1.5107492195    -0.1085214825     1.9191807349
| 13>  H        0.5596417744     1.9896015812     0.7738348933
| 14>  H       -0.3579782109     1.9384606160    -0.7373580649
| 15>  H       -1.0892176815     1.3304339041     0.7718108239
| 16>  H       -0.1002374665    -0.4101048396    -0.8135556191
| 17>  H        0.7596317638    -3.6244091589    -0.3839861726
| 18>  H       -0.4729902574    -3.8248818414     0.8607381022
| 19>  H       -0.6873920030    -2.6150622027    -0.4003195547
| 20>  H        1.5772507004    -3.2460410101     2.8533443229
| 21>  H        2.4132837157    -0.7577022598     3.6733917568
| 22> *
| 23>
| 24>                          ****END OF INPUT****

CARTESIAN COORDINATES (ANGSTROEM)
---------------------------------
  C     -0.155348    1.403520    0.193526
  N      0.436308    0.106220   -0.130810
  C      0.826541   -0.714911    0.915101
  C      0.734363   -2.063788    1.125823
  C      0.056371   -3.078806    0.258266
  C      1.438221   -2.294611    2.361983
  C      1.875408   -1.092790    2.803434
  O      1.510749   -0.108521    1.919181
  H      0.559642    1.989602    0.773835
  H     -0.357978    1.938461   -0.737358
  H     -1.089218    1.330434    0.771811
  H     -0.100237   -0.410105   -0.813556
  H      0.759632   -3.624409   -0.383986
  H     -0.472990   -3.824882    0.860738
  H     -0.687392   -2.615062   -0.400320
  H      1.577251   -3.246041    2.853344
  H      2.413284   -0.757702    3.673392

 Total Charge           Charge          ....    0
 Multiplicity           Mult            ....    1
 Number of Electrons    NEL             ....   60
 Basis Dimension        Dim             ....  302

ORBITAL ENERGIES
----------------

  NO   OCC          E(Eh)            E(eV)
   0   2.0000     -20.607973      -560.7715
   1   2.0000     -15.569372      -423.6641
   2   2.0000     -11.312675      -307.8335
   3   2.0000     -11.268652      -306.6356
   4   2.0000     -11.255210      -306.2698
   5   2.0000     -11.225714      -305.4672
   6   2.0000     -11.219667      -305.3027
   7   2.0000     -11.212368      -305.1041
   8   2.0000      -1.450503       -39.4702
   9   2.0000      -1.227679       -33.4068
  10   2.0000      -1.087333       -29.5878
  11   2.0000      -0.997756       -27.1503
  12   2.0000      -0.948444       -25.8085
  13   2.0000      -0.903186       -24.5770
  14   2.0000      -0.797415       -21.6988
  15   2.0000      -0.751162       -20.4402
  16   2.0000      -0.707206       -19.2441
  17   2.0000      -0.644526       -17.5385
  18   2.0000      -0.644138       -17.5279
  19   2.0000      -0.618739       -16.8367
  20   2.0000      -0.586682       -15.9644
  21   2.0000      -0.572492       -15.5783
  22   2.0000      -0.563483       -15.3332
  23   2.0000      -0.560463       -15.2510
  24   2.0000      -0.538864       -14.6632
  25   2.0000      -0.530750       -14.4424
  26   2.0000      -0.503543       -13.7021
  27   2.0000      -0.435746       -11.8572
  28   2.0000      -0.378484       -10.2991
  29   2.0000      -0.273303        -7.4369
  30   0.0000       0.131154         3.5689
  31   0.0000       0.153188         4.1685
  32   0.0000       0.170391         4.6366
  33   0.0000       0.179331         4.8798
  34   0.0000       0.191827         5.2199

MULLIKEN ATOMIC CHARGES
-----------------------
   0 C :   -0.273325
   1 N :   -0.325583
   2 C :    0.236467
   3 C :   -0.037111
   4 C :   -0.426945
   5 C :   -0.217114
   6 C :   -0.028385
   7 O :   -0.237673
   8 H :    0.152151
   9 H :    0.136313
  10 H :    0.118971
  11 H :    0.222501
  12 H :    0.149454
  13 H :    0.143924
  14 H :    0.111947
  15 H :    0.130818
  16 H :    0.143592
Sum of atomic charges:   -0.0000000

LOEWDIN ATOMIC CHARGES
----------------------
   0 C :   -0.325612
   1 N :    0.030914
   2 C :   -0.317191
   3 C :   -0.209334
   4 C :   -0.278393
   5 C :   -0.175597
   6 C :   -0.251359
   7 O :    0.342987
   8 H :    0.122356
   9 H :    0.116583
  10 H :    0.104913
  11 H :    0.183277
  12 H :    0.129122
  13 H :    0.131633
  14 H :    0.123272
  15 H :    0.142915
  16 H :    0.129514

  Mayer bond orders larger than 0.1
B(  0-C ,  1-N ) :   0.8927 B(  0-C ,  8-H ) :   0.9379 B(  0-C ,  9-H ) :   0.9371
B(  0-C , 10-H ) :   0.9260 B(  1-N ,  2-C ) :   1.1422 B(  1-N , 11-H ) :   0.8809
B(  2-C ,  3-C ) :   1.4829 B(  2-C ,  7-O ) :   1.0481 B(  3-C ,  4-C ) :   0.8516
B(  3-C ,  5-C ) :   1.1595 B(  4-C , 12-H ) :   0.9442 B(  4-C , 13-H ) :   0.9443
B(  4-C , 14-H ) :   0.9437 B(  5-C ,  6-C ) :   1.5853 B(  5-C , 15-H ) :   0.9262
B(  6-C ,  7-O ) :   1.0058 B(  6-C , 16-H ) :   0.9384

MP2 TOTAL ENERGY:     -363.255799496 Eh
FINAL SINGLE POINT ENERGY      -363.255799496092

DIPOLE MOMENT
-------------
                                X             Y             Z
Electronic contribution:      3.85738       0.70092       3.24644
Nuclear contribution   :     -4.40794      -0.75184      -3.49217
                        -----------------------------------------
Total Dipole Moment    :     -0.55055      -0.05092      -0.24573
                        -----------------------------------------
Magnitude (a.u.)       :      0.60505
Magnitude (Debye)      :      1.53791

                             ****ORCA TERMINATED NORMALLY****
TOTAL RUN TIME: 0 days 0 hours 12 minutes 21 seconds 41 msec
