                         Program Version 3.0.3 - RELEASE   -
|  1> ! RI-MP2 RIJK def2-TZVP def2-TZVP/C def2-TZVP/JK TIGHTSCF
|  2> % maxcore 2000
|  3> % mp2 density relaxed end
|  4> *xyz 0 1
|  5>  C       -0.4272896837     1.5650327308    -0.1123525545
|  6>  C        0.0919566976     0.1268096547     0.0561676992
|  7>  C        0.7565058242    -0.4088591736    -1.1755946536
|  8>  C        2.0888221029    -0.7066907504    -1.3277099602
|  9>  O        2.3312324207    -1.1624300733    -2.6011226178
| 10>  C        1.1457879297    -1.1506382366    -3.2508997024
| 11>  C        0.1510743107    -0.7028519785    -2.4398468952
| 12>  C        3.1733832721    -0.6256204447    -0.4381034085
| 13>  C        4.0902729886    -0.5497100906     0.3406221686
| 14>  H        0.3929467965     2.2508501749    -0.3444816984
| 15>  H       -1.1571972667     1.6312643982    -0.9254190587
| 16>  H       -0.9131425564     1.9105938198     0.8052816054
| 17>  H        0.8034484848     0.0878254351     0.8872420603
| 18>  H       -0.7453766176    -0.5273476679     0.3308274855
| 19>  H        1.1717442012    -1.4885697554    -4.2741732948
| 20>  H       -0.8905127573    -0.5964424974    -2.7014729729
| 21>  H        4.9001274729    -0.4837589453     1.0240221881
| 22> *
| 23>
| 24>                          ****END OF INPUT****

CARTESIAN COORDINATES (ANGSTROEM)
---------------------------------
  C     -0.427290    1.565033   -0.112353
  C      0.091957    0.126810    0.056168
  C      0.756506   -0.408859   -1.175595
  C      2.088822   -0.706691   -1.327710
  O      2.331232   -1.162430   -2.601123
  C      1.145788   -1.150638   -3.250900
  C      0.151074   -0.702852   -2.439847
  C      3.173383   -0.625620   -0.438103
  C      4.090273   -0.549710    0.340622
  H      0.392947    2.250850   -0.344482
  H     -1.157197    1.631264   -0.925419
  H     -0.913143    1.910594    0.805282
  H      0.803448    0.087825    0.887242
  H     -0.745377   -0.527348    0.330827
  H      1.171744   -1.488570   -4.274173
  H     -0.890513   -0.596442   -2.701473
  H      4.900127   -0.483759    1.024022

 Total Charge           Charge          ....    0
 Multiplicity           Mult            ....    1
 Number of Electrons    NEL             ....   64
 Basis Dimension        Dim             ....  327

ORBITAL ENERGIES
----------------

  NO   OCC          E(Eh)            E(eV)
   0   2.0000     -20.625305      -561.2431
   1   2.0000     -11.301343      -307.5252
   2   2.0000     -11.297900      -307.4315
   3   2.0000     -11.247517      -306.0605
   4   2.0000     -11.243459      -305.9501
   5   2.0000     -11.236375      -305.7573
   6   2.0000     -11.235249      -305.7267
   7   2.0000     -11.232205      -305.6438
   8   2.0000     -11.221304      -305.3472
   9   2.0000      -1.462867       -39.8066
  10   2.0000      -1.116977       -30.3945
  11   2.0000      -1.066564       -29.0227
  12   2.0000      -1.026734       -27.9388
  13   2.0000      -0.985083       -26.8055
  14   2.0000      -0.874140       -23.7865
  15   2.0000      -0.824273       -22.4296
  16   2.0000      -0.797979       -21.7141
  17   2.0000      -0.729196       -19.8424
  18   2.0000      -0.708077       -19.2677
  19   2.0000      -0.646539       -17.5932
  20   2.0000      -0.637911       -17.3584
  21   2.0000      -0.621932       -16.9236
  22   2.0000      -0.597018       -16.2457
  23   2.0000      -0.575758       -15.6672
  24   2.0000      -0.551600       -15.0098
  25   2.0000      -0.528062       -14.3693
  26   2.0000      -0.504281       -13.7222
  27   2.0000      -0.489092       -13.3089
  28   2.0000      -0.442549       -12.0424
  29   2.0000      -0.405957       -11.0466
  30   2.0000      -0.390036       -10.6134
  31   2.0000      -0.300900        -8.1879
  32   0.0000       0.104896         2.8544
  33   0.0000       0.139230         3.7886
  34   0.0000       0.159099         4.3293
  35   0.0000       0.166005         4.5172
  36   0.0000       0.171573         4.6687

MULLIKEN ATOMIC CHARGES
-----------------------
   0 C :   -0.374123
   1 C :   -0.258927
   2 C :   -0.031572
   3 C :    0.022659
   4 O :   -0.210989
   5 C :   -0.005150
   6 C :   -0.214251
   7 C :    0.076731
   8 C :   -0.136399
   9 H :    0.132358
  10 H :    0.122885
  11 H :    0.131492
  12 H :    0.133293
  13 H :    0.126365
  14 H :    0.149118
  15 H :    0.141452
  16 H :    0.195059
Sum of atomic charges:   -0.0000000

LOEWDIN ATOMIC CHARGES
----------------------
   0 C :   -0.305644
   1 C :   -0.244701
   2 C :   -0.140074
   3 C :   -0.214378
   4 O :    0.370368
   5 C :   -0.238259
   6 C :   -0.155976
   7 C :   -0.077399
   8 C :   -0.064843
   9 H :    0.124238
  10 H :    0.120495
  11 H :    0.120820
  12 H :    0.149494
  13 H :    0.145904
  14 H :    0.134098
  15 H :    0.146678
  16 H :    0.129177

  Mayer bond orders larger than 0.1
B(  0-C ,  1-C ) :   0.9180 B(  0-C ,  9-H ) :   0.9364 B(  0-C , 10-H ) :   0.9392
B(  0-C , 11-H ) :   0.9366 B(  1-C ,  2-C ) :   0.8898 B(  1-C , 12-H ) :   0.9410
B(  1-C , 13-H ) :   0.9378 B(  2-C ,  3-C ) :   1.4472 B(  2-C ,  6-C ) :   1.2017
B(  3-C ,  4-O ) :   1.0341 B(  3-C ,  7-C ) :   1.1828 B(  3-C ,  8-C ) :  -0.1376
B(  4-O ,  5-C ) :   1.0557 B(  5-C ,  6-C ) :   1.5269 B(  5-C , 14-H ) :   0.9392
B(  6-C , 15-H ) :   0.9156 B(  7-C ,  8-C ) :   2.6025 B(  8-C , 16-H ) :   0.8777

MP2 TOTAL ENERGY:     -383.999021447 Eh
FINAL SINGLE POINT ENERGY      -383.999021447465

DIPOLE MOMENT
-------------
                                X             Y             Z
Electronic contribution:      7.08083      -5.29296      -4.17913
Nuclear contribution   :     -7.50527       5.42716       4.29288
                        -----------------------------------------
Total Dipole Moment    :     -0.42444       0.13420       0.11375
                        -----------------------------------------
Magnitude (a.u.)       :      0.45945
Magnitude (Debye)      :      1.16783

                             ****ORCA TERMINATED NORMALLY****
TOTAL RUN TIME: 0 days 0 hours 17 minutes 9 seconds 592 msec
