                         Program Version 3.0.3 - RELEASE   -
|  1> ! RI-MP2 RIJK def2-TZVP def2-TZVP/C def2-TZVP/JK TIGHTSCF
|  2> % maxcore 2000
|  3> % mp2 density relaxed end
|  4> *xyz 0 1
|  5>  O        0.1405842944     1.2455834188    -0.4556941113
|  6>  C       -0.0078623429     0.0504091004     0.2936161326
|  7>  C       -1.4197157825    -0.4865439200     0.1922928402
|  8>  C       -2.5203604940     0.4011391796     0.7410843066
|  9>  C       -3.8514974470    -0.2830003198     0.8735075546
| 10>  C       -4.0454726835    -1.5916065856     0.7340781415
| 11>  C       -2.9552891813    -2.5779538728     0.4184726828
| 12>  C       -1.6480514395    -1.9304609082     0.0231180635
| 13>  O       -1.6923445715    -1.0521574715    -1.1091197338
| 14>  H       -0.0971380400     1.0272996038    -1.3645617641
| 15>  H        0.6980641997    -0.7242242356    -0.0412806580
| 16>  H        0.2362345128     0.3064001411     1.3303544596
| 17>  H       -2.2026097755     0.7838020491     1.7222710790
| 18>  H       -2.6042901268     1.2902091616     0.1033361012
| 19>  H       -4.6955378170     0.3601313895     1.1098661167
| 20>  H       -5.0441618437    -2.0027681041     0.8561771439
| 21>  H       -2.7721723998    -3.2287061337     1.2865262313
| 22>  H       -3.2746834324    -3.2526099409    -0.3882476830
| 23>  H       -0.7809214396    -2.5933366417     0.0295971569
| 24> *
| 25>
| 26>                          ****END OF INPUT****

CARTESIAN COORDINATES (ANGSTROEM)
---------------------------------
  O      0.140584    1.245583   -0.455694
  C     -0.007862    0.050409    0.293616
  C     -1.419716   -0.486544    0.192293
  C     -2.520360    0.401139    0.741084
  C     -3.851497   -0.283000    0.873508
  C     -4.045473   -1.591607    0.734078
  C     -2.955289   -2.577954    0.418473
  C     -1.648051   -1.930461    0.023118
  O     -1.692345   -1.052157   -1.109120
  H     -0.097138    1.027300   -1.364562
  H      0.698064   -0.724224   -0.041281
  H      0.236235    0.306400    1.330354
  H     -2.202610    0.783802    1.722271
  H     -2.604290    1.290209    0.103336
  H     -4.695538    0.360131    1.109866
  H     -5.044162   -2.002768    0.856177
  H     -2.772172   -3.228706    1.286526
  H     -3.274683   -3.252610   -0.388248
  H     -0.780921   -2.593337    0.029597

 Total Charge           Charge          ....    0
 Multiplicity           Mult            ....    1
 Number of Electrons    NEL             ....   68
 Basis Dimension        Dim             ....  339

ORBITAL ENERGIES
----------------

  NO   OCC          E(Eh)            E(eV)
   0   2.0000     -20.565218      -559.6080
   1   2.0000     -20.558024      -559.4123
   2   2.0000     -11.292113      -307.2740
   3   2.0000     -11.291172      -307.2484
   4   2.0000     -11.282571      -307.0144
   5   2.0000     -11.239555      -305.8438
   6   2.0000     -11.234775      -305.7138
   7   2.0000     -11.230945      -305.6095
   8   2.0000     -11.229167      -305.5612
   9   2.0000      -1.414271       -38.4843
  10   2.0000      -1.360888       -37.0316
  11   2.0000      -1.104106       -30.0443
  12   2.0000      -1.034475       -28.1495
  13   2.0000      -0.989615       -26.9288
  14   2.0000      -0.923787       -25.1375
  15   2.0000      -0.852012       -23.1844
  16   2.0000      -0.808165       -21.9913
  17   2.0000      -0.722134       -19.6503
  18   2.0000      -0.699283       -19.0285
  19   2.0000      -0.665943       -18.1212
  20   2.0000      -0.654413       -17.8075
  21   2.0000      -0.619804       -16.8657
  22   2.0000      -0.616406       -16.7732
  23   2.0000      -0.594761       -16.1843
  24   2.0000      -0.577818       -15.7232
  25   2.0000      -0.564576       -15.3629
  26   2.0000      -0.540493       -14.7076
  27   2.0000      -0.525456       -14.2984
  28   2.0000      -0.499988       -13.6054
  29   2.0000      -0.483495       -13.1566
  30   2.0000      -0.457426       -12.4472
  31   2.0000      -0.434058       -11.8113
  32   2.0000      -0.426391       -11.6027
  33   2.0000      -0.352872        -9.6021
  34   0.0000       0.135178         3.6784
  35   0.0000       0.152449         4.1483
  36   0.0000       0.161222         4.3871
  37   0.0000       0.165585         4.5058
  38   0.0000       0.171538         4.6678

MULLIKEN ATOMIC CHARGES
-----------------------
   0 O :   -0.474334
   1 C :   -0.002573
   2 C :    0.085651
   3 C :   -0.100991
   4 C :   -0.199765
   5 C :   -0.202840
   6 C :   -0.083397
   7 C :   -0.051803
   8 O :   -0.357218
   9 H :    0.326605
  10 H :    0.106577
  11 H :    0.110177
  12 H :    0.116377
  13 H :    0.126790
  14 H :    0.122129
  15 H :    0.122819
  16 H :    0.118374
  17 H :    0.123253
  18 H :    0.114171
Sum of atomic charges:    0.0000000

LOEWDIN ATOMIC CHARGES
----------------------
   0 O :   -0.040438
   1 C :   -0.306359
   2 C :   -0.302922
   3 C :   -0.206827
   4 C :   -0.164436
   5 C :   -0.168730
   6 C :   -0.234230
   7 C :   -0.236344
   8 O :    0.174825
   9 H :    0.181004
  10 H :    0.125608
  11 H :    0.134110
  12 H :    0.156974
  13 H :    0.155614
  14 H :    0.144278
  15 H :    0.143470
  16 H :    0.153095
  17 H :    0.152395
  18 H :    0.138914

  Mayer bond orders larger than 0.1
B(  0-O ,  1-C ) :   0.9185 B(  0-O ,  9-H ) :   0.8365 B(  1-C ,  2-C ) :   0.9302
B(  1-C , 10-H ) :   0.9245 B(  1-C , 11-H ) :   0.9250 B(  2-C ,  3-C ) :   0.9515
B(  2-C ,  7-C ) :   0.9497 B(  2-C ,  8-O ) :   0.8088 B(  3-C ,  4-C ) :   0.9489
B(  3-C , 12-H ) :   0.9003 B(  3-C , 13-H ) :   0.9109 B(  4-C ,  5-C ) :   1.8158
B(  4-C , 14-H ) :   0.9329 B(  5-C ,  6-C ) :   0.9442 B(  5-C , 15-H ) :   0.9291
B(  6-C ,  7-C ) :   0.9373 B(  6-C , 16-H ) :   0.8926 B(  6-C , 17-H ) :   0.9048
B(  7-C ,  8-O ) :   0.9158 B(  7-C , 18-H ) :   0.9171

MP2 TOTAL ENERGY:     -422.315835390 Eh
FINAL SINGLE POINT ENERGY      -422.315835389650

DIPOLE MOMENT
-------------
                                X             Y             Z
Electronic contribution:      0.98903       0.77153      -2.42515
Nuclear contribution   :     -1.15577      -1.41021       2.91667
                        -----------------------------------------
Total Dipole Moment    :     -0.16674      -0.63868       0.49152
                        -----------------------------------------
Magnitude (a.u.)       :      0.82298
Magnitude (Debye)      :      2.09186

                             ****ORCA TERMINATED NORMALLY****
TOTAL RUN TIME: 0 days 0 hours 17 minutes 0 seconds 768 msec
