                         Program Version 3.0.3 - RELEASE   -
|  1> ! RI-MP2 RIJK def2-TZVP def2-TZVP/C def2-TZVP/JK TIGHTSCF
|  2> % maxcore 2000
|  3> % mp2 density relaxed end
|  4> *xyz 0 1
|  5>  C        0.1346338948     1.5770342793     0.0475767008
|  6>  C        0.0583422252     0.0501071379    -0.0316537339
|  7>  C       -1.3775153920    -0.4803087784     0.0395706154
|  8>  C       -1.4488521922    -2.0083560583    -0.0347745056
|  9>  C       -2.8896937300    -2.5324980441     0.0116278229
| 10>  O       -3.5699174079    -2.0704961384    -1.1320673116
| 11>  C       -4.9673829789    -2.3033872183    -1.1136600975
| 12>  C       -2.9109246797    -4.0139213468     0.0823398673
| 13>  N       -2.9347723480    -5.1682302675     0.1327532585
| 14>  H        1.1698345020     1.9274861476    -0.0066709815
| 15>  H       -0.4191243606     2.0438160851    -0.7744747478
| 16>  H       -0.2934736720     1.9470225343     0.9858844535
| 17>  H        0.5238698390    -0.2929707551    -0.9648415380
| 18>  H        0.6503432929    -0.3902193225     0.7817268669
| 19>  H       -1.8453087987    -0.1396544387     0.9742376856
| 20>  H       -1.9718689248    -0.0549519976    -0.7763954164
| 21>  H       -0.9883700585    -2.3692769708    -0.9612474816
| 22>  H       -0.8936442642    -2.4591293411     0.7957221252
| 23>  H       -3.3853260630    -2.1615480010     0.9254841679
| 24>  H       -5.3691152306    -1.8738849136    -2.0331938936
| 25>  H       -5.1992576359    -3.3764235421    -1.0858665470
| 26>  H       -5.4429660172    -1.8155218498    -0.2499205193
| 27> *
| 28>
| 29>                          ****END OF INPUT****

CARTESIAN COORDINATES (ANGSTROEM)
---------------------------------
  C      0.134634    1.577034    0.047577
  C      0.058342    0.050107   -0.031654
  C     -1.377515   -0.480309    0.039571
  C     -1.448852   -2.008356   -0.034775
  C     -2.889694   -2.532498    0.011628
  O     -3.569917   -2.070496   -1.132067
  C     -4.967383   -2.303387   -1.113660
  C     -2.910925   -4.013921    0.082340
  N     -2.934772   -5.168230    0.132753
  H      1.169835    1.927486   -0.006671
  H     -0.419124    2.043816   -0.774475
  H     -0.293474    1.947023    0.985884
  H      0.523870   -0.292971   -0.964842
  H      0.650343   -0.390219    0.781727
  H     -1.845309   -0.139654    0.974238
  H     -1.971869   -0.054952   -0.776395
  H     -0.988370   -2.369277   -0.961247
  H     -0.893644   -2.459129    0.795722
  H     -3.385326   -2.161548    0.925484
  H     -5.369115   -1.873885   -2.033194
  H     -5.199258   -3.376424   -1.085867
  H     -5.442966   -1.815522   -0.249921

 Total Charge           Charge          ....    0
 Multiplicity           Mult            ....    1
 Number of Electrons    NEL             ....   70
 Basis Dimension        Dim             ....  357

ORBITAL ENERGIES
----------------

  NO   OCC          E(Eh)            E(eV)
   0   2.0000     -20.585130      -560.1499
   1   2.0000     -15.575179      -423.8222
   2   2.0000     -11.338181      -308.5276
   3   2.0000     -11.287108      -307.1378
   4   2.0000     -11.272694      -306.7456
   5   2.0000     -11.244955      -305.9908
   6   2.0000     -11.230143      -305.5877
   7   2.0000     -11.227817      -305.5244
   8   2.0000     -11.218663      -305.2753
   9   2.0000      -1.408199       -38.3190
  10   2.0000      -1.220449       -33.2101
  11   2.0000      -1.102251       -29.9938
  12   2.0000      -1.046502       -28.4768
  13   2.0000      -0.964730       -26.2516
  14   2.0000      -0.924546       -25.1582
  15   2.0000      -0.857848       -23.3432
  16   2.0000      -0.803838       -21.8736
  17   2.0000      -0.733718       -19.9655
  18   2.0000      -0.700577       -19.0637
  19   2.0000      -0.662231       -18.0202
  20   2.0000      -0.645443       -17.5634
  21   2.0000      -0.616421       -16.7737
  22   2.0000      -0.591135       -16.0856
  23   2.0000      -0.574679       -15.6378
  24   2.0000      -0.569867       -15.5069
  25   2.0000      -0.559637       -15.2285
  26   2.0000      -0.524705       -14.2779
  27   2.0000      -0.522272       -14.2117
  28   2.0000      -0.506526       -13.7833
  29   2.0000      -0.491258       -13.3678
  30   2.0000      -0.481452       -13.1010
  31   2.0000      -0.476046       -12.9539
  32   2.0000      -0.467899       -12.7322
  33   2.0000      -0.459143       -12.4939
  34   2.0000      -0.451288       -12.2802
  35   0.0000       0.125481         3.4145
  36   0.0000       0.137049         3.7293
  37   0.0000       0.151169         4.1135
  38   0.0000       0.164819         4.4850
  39   0.0000       0.169111         4.6017

MULLIKEN ATOMIC CHARGES
-----------------------
   0 C :   -0.384480
   1 C :   -0.184448
   2 C :   -0.253544
   3 C :   -0.201187
   4 C :    0.161424
   5 O :   -0.289561
   6 C :   -0.231639
   7 C :   -0.184996
   8 N :   -0.051019
   9 H :    0.135983
  10 H :    0.124440
  11 H :    0.121954
  12 H :    0.111331
  13 H :    0.106249
  14 H :    0.102026
  15 H :    0.134146
  16 H :    0.131023
  17 H :    0.134141
  18 H :    0.114481
  19 H :    0.146718
  20 H :    0.140559
  21 H :    0.116400
Sum of atomic charges:   -0.0000000

LOEWDIN ATOMIC CHARGES
----------------------
   0 C :   -0.320105
   1 C :   -0.295570
   2 C :   -0.268063
   3 C :   -0.228712
   4 C :   -0.328155
   5 O :    0.176341
   6 C :   -0.339765
   7 C :   -0.169089
   8 N :    0.066226
   9 H :    0.121361
  10 H :    0.121107
  11 H :    0.120230
  12 H :    0.136280
  13 H :    0.134629
  14 H :    0.137111
  15 H :    0.142665
  16 H :    0.150616
  17 H :    0.149891
  18 H :    0.158764
  19 H :    0.117356
  20 H :    0.112020
  21 H :    0.104862

  Mayer bond orders larger than 0.1
B(  0-C ,  1-C ) :   0.9242 B(  0-C ,  9-H ) :   0.9430 B(  0-C , 10-H ) :   0.9393
B(  0-C , 11-H ) :   0.9392 B(  1-C ,  2-C ) :   0.9333 B(  1-C , 12-H ) :   0.9341
B(  1-C , 13-H ) :   0.9322 B(  2-C ,  3-C ) :   0.9321 B(  2-C , 14-H ) :   0.9237
B(  2-C , 15-H ) :   0.9280 B(  3-C ,  4-C ) :   0.9221 B(  3-C , 16-H ) :   0.9156
B(  3-C , 17-H ) :   0.9270 B(  4-C ,  5-O ) :   0.9889 B(  4-C ,  7-C ) :   0.8820
B(  4-C , 18-H ) :   0.9353 B(  5-O ,  6-C ) :   0.8965 B(  6-C , 19-H ) :   0.9377
B(  6-C , 20-H ) :   0.9312 B(  6-C , 21-H ) :   0.9321 B(  7-C ,  8-N ) :   2.8782

MP2 TOTAL ENERGY:     -403.665580563 Eh
FINAL SINGLE POINT ENERGY      -403.665580563299

DIPOLE MOMENT
-------------
                                X             Y             Z
Electronic contribution:     -5.25230     -12.36470      -0.49832
Nuclear contribution   :      5.08457      13.69484       0.68711
                        -----------------------------------------
Total Dipole Moment    :     -0.16773       1.33014       0.18878
                        -----------------------------------------
Magnitude (a.u.)       :      1.35390
Magnitude (Debye)      :      3.44133

                             ****ORCA TERMINATED NORMALLY****
TOTAL RUN TIME: 0 days 0 hours 17 minutes 39 seconds 960 msec
