                         Program Version 3.0.3 - RELEASE   -
|  1> ! RI-MP2 RIJK def2-TZVP def2-TZVP/C def2-TZVP/JK TIGHTSCF
|  2> % maxcore 2000
|  3> % mp2 density relaxed end
|  4> *xyz 0 1
|  5>  C       -0.4716009808     1.3722536811     0.1815725815
|  6>  C        0.0739555938    -0.0463602268     0.0414805432
|  7>  C        1.1593904063    -0.2420656383    -1.0323370772
|  8>  C        1.7477116307    -1.6364276995    -0.7283530159
|  9>  C        1.5235666219    -1.8584852363     0.7968136418
| 10>  C        0.7483866606    -0.6250272618     1.2984188599
| 11>  O        1.6911941668     0.3423293447     1.8133337528
| 12>  C        1.5756529024     0.7449544695     3.0890812103
| 13>  O        2.3165176030     1.5368391719     3.5911358280
| 14>  H        0.3279263566     2.0780159900     0.4229710929
| 15>  H       -0.9400502475     1.6989064524    -0.7519912261
| 16>  H       -1.2295022539     1.4362324346     0.9703895753
| 17>  H       -0.7588314236    -0.7274570387    -0.1881119135
| 18>  H        0.7657227398    -0.1577663421    -2.0490167076
| 19>  H        1.9251405427     0.5322729481    -0.9108102011
| 20>  H        1.2191051751    -2.4046142545    -1.3013960934
| 21>  H        2.8024124684    -1.7076605971    -1.0038587325
| 22>  H        0.9394692933    -2.7644882088     0.9828181374
| 23>  H        2.4585548098    -1.9578828916     1.3523846199
| 24>  H        0.0311818650    -0.8643733480     2.0921430887
| 25>  H        0.7273645696     0.2640626412     3.6156937657
| 26> *
| 27>
| 28>                          ****END OF INPUT****

CARTESIAN COORDINATES (ANGSTROEM)
---------------------------------
  C     -0.471601    1.372254    0.181573
  C      0.073956   -0.046360    0.041481
  C      1.159390   -0.242066   -1.032337
  C      1.747712   -1.636428   -0.728353
  C      1.523567   -1.858485    0.796814
  C      0.748387   -0.625027    1.298419
  O      1.691194    0.342329    1.813334
  C      1.575653    0.744954    3.089081
  O      2.316518    1.536839    3.591136
  H      0.327926    2.078016    0.422971
  H     -0.940050    1.698906   -0.751991
  H     -1.229502    1.436232    0.970390
  H     -0.758831   -0.727457   -0.188112
  H      0.765723   -0.157766   -2.049017
  H      1.925141    0.532273   -0.910810
  H      1.219105   -2.404614   -1.301396
  H      2.802412   -1.707661   -1.003859
  H      0.939469   -2.764488    0.982818
  H      2.458555   -1.957883    1.352385
  H      0.031182   -0.864373    2.092143
  H      0.727365    0.264063    3.615694

 Total Charge           Charge          ....    0
 Multiplicity           Mult            ....    1
 Number of Electrons    NEL             ....   70
 Basis Dimension        Dim             ....  351

ORBITAL ENERGIES
----------------

  NO   OCC          E(Eh)            E(eV)
   0   2.0000     -20.601449      -560.5939
   1   2.0000     -20.545406      -559.0689
   2   2.0000     -11.379465      -309.6510
   3   2.0000     -11.303285      -307.5780
   4   2.0000     -11.239419      -305.8401
   5   2.0000     -11.233119      -305.6687
   6   2.0000     -11.228122      -305.5327
   7   2.0000     -11.223968      -305.4197
   8   2.0000     -11.221290      -305.3468
   9   2.0000      -1.457214       -39.6528
  10   2.0000      -1.368150       -37.2293
  11   2.0000      -1.136590       -30.9282
  12   2.0000      -1.020528       -27.7700
  13   2.0000      -0.980115       -26.6703
  14   2.0000      -0.909297       -24.7432
  15   2.0000      -0.852438       -23.1960
  16   2.0000      -0.804281       -21.8856
  17   2.0000      -0.787113       -21.4184
  18   2.0000      -0.710540       -19.3348
  19   2.0000      -0.677544       -18.4369
  20   2.0000      -0.656983       -17.8774
  21   2.0000      -0.640058       -17.4169
  22   2.0000      -0.631230       -17.1766
  23   2.0000      -0.589609       -16.0441
  24   2.0000      -0.575736       -15.6666
  25   2.0000      -0.558552       -15.1990
  26   2.0000      -0.543888       -14.8000
  27   2.0000      -0.508730       -13.8432
  28   2.0000      -0.497892       -13.5483
  29   2.0000      -0.493477       -13.4282
  30   2.0000      -0.484460       -13.1828
  31   2.0000      -0.474698       -12.9172
  32   2.0000      -0.461928       -12.5697
  33   2.0000      -0.452856       -12.3228
  34   2.0000      -0.435699       -11.8560
  35   0.0000       0.122229         3.3260
  36   0.0000       0.143234         3.8976
  37   0.0000       0.151704         4.1281
  38   0.0000       0.158612         4.3160
  39   0.0000       0.169260         4.6058

MULLIKEN ATOMIC CHARGES
-----------------------
   0 C :   -0.426446
   1 C :   -0.046058
   2 C :   -0.252983
   3 C :   -0.223478
   4 C :   -0.246440
   5 C :    0.075863
   6 O :   -0.225176
   7 C :    0.182616
   8 O :   -0.274265
   9 H :    0.153596
  10 H :    0.138342
  11 H :    0.129199
  12 H :    0.092879
  13 H :    0.125934
  14 H :    0.124777
  15 H :    0.115251
  16 H :    0.125184
  17 H :    0.121930
  18 H :    0.130952
  19 H :    0.110712
  20 H :    0.067611
Sum of atomic charges:   -0.0000000

LOEWDIN ATOMIC CHARGES
----------------------
   0 C :   -0.293121
   1 C :   -0.261430
   2 C :   -0.234730
   3 C :   -0.248110
   4 C :   -0.229263
   5 C :   -0.263622
   6 O :    0.271372
   7 C :   -0.460014
   8 O :    0.114111
   9 H :    0.130167
  10 H :    0.127035
  11 H :    0.124106
  12 H :    0.159668
  13 H :    0.134205
  14 H :    0.143581
  15 H :    0.134382
  16 H :    0.134884
  17 H :    0.138791
  18 H :    0.142221
  19 H :    0.135853
  20 H :    0.099914

  Mayer bond orders larger than 0.1
B(  0-C ,  1-C ) :   0.8990 B(  0-C ,  9-H ) :   0.9334 B(  0-C , 10-H ) :   0.9358
B(  0-C , 11-H ) :   0.9399 B(  1-C ,  2-C ) :   0.9379 B(  1-C ,  5-C ) :   0.9035
B(  1-C , 12-H ) :   0.9189 B(  2-C ,  3-C ) :   0.9484 B(  2-C , 13-H ) :   0.9286
B(  2-C , 14-H ) :   0.9206 B(  3-C ,  4-C ) :   0.9522 B(  3-C , 15-H ) :   0.9356
B(  3-C , 16-H ) :   0.9285 B(  4-C ,  5-C ) :   0.9234 B(  4-C , 17-H ) :   0.9226
B(  4-C , 18-H ) :   0.9226 B(  5-C ,  6-O ) :   0.8444 B(  5-C , 19-H ) :   0.9249
B(  6-O ,  7-C ) :   1.0761 B(  7-C ,  8-O ) :   2.0321 B(  7-C , 20-H ) :   0.9191

MP2 TOTAL ENERGY:     -423.566019393 Eh
FINAL SINGLE POINT ENERGY      -423.566019393455

DIPOLE MOMENT
-------------
                                X             Y             Z
Electronic contribution:      4.24194       3.01275       7.94332
Nuclear contribution   :     -5.28863      -4.08222      -8.64769
                        -----------------------------------------
Total Dipole Moment    :     -1.04668      -1.06946      -0.70437
                        -----------------------------------------
Magnitude (a.u.)       :      1.65391
Magnitude (Debye)      :      4.20392

                             ****ORCA TERMINATED NORMALLY****
TOTAL RUN TIME: 0 days 0 hours 20 minutes 24 seconds 432 msec
