                         Program Version 3.0.3 - RELEASE   -
|  1> ! RI-MP2 RIJK def2-TZVP def2-TZVP/C def2-TZVP/JK TIGHTSCF
|  2> % maxcore 2000
|  3> % mp2 density relaxed end
|  4> *xyz 0 1
|  5>  C       -0.1753296090     1.5465649167    -0.0760719117
|  6>  C       -0.0483168898     0.0626209566     0.0264038808
|  7>  C        0.0769541080    -1.0625518481    -0.9522168247
|  8>  O        1.2266374932    -1.6602952520    -0.3594413380
|  9>  C        0.8677528260    -0.9333832115     0.8631726206
| 10>  C        2.0305133719    -0.6146771869     1.7501462899
| 11>  C       -0.4138406378    -1.6717955230     1.3484851140
| 12>  C       -1.0565850938    -1.0726712370     0.0989052400
| 13>  O       -2.3929427853    -0.9641346458    -0.2231150576
| 14>  H        0.7562391570     2.0106040891    -0.4182721774
| 15>  H       -0.9638482941     1.8077306816    -0.7893673695
| 16>  H       -0.4437559492     1.9967986696     0.8865761782
| 17>  H       -0.0725930592    -1.1176477362    -2.0235896892
| 18>  H        2.7823468211    -0.0313922760     1.2108715163
| 19>  H        1.7034895655    -0.0448384331     2.6250255383
| 20>  H        2.5009100738    -1.5403466213     2.0993592773
| 21>  H       -0.3349289094    -2.7594894912     1.4524694287
| 22>  H       -0.8218315860    -1.2213456126     2.2575289374
| 23>  H       -2.6770318331    -1.7888246089    -0.6334170034
| 24> *
| 25>
| 26>                          ****END OF INPUT****

CARTESIAN COORDINATES (ANGSTROEM)
---------------------------------
  C     -0.175330    1.546565   -0.076072
  C     -0.048317    0.062621    0.026404
  C      0.076954   -1.062552   -0.952217
  O      1.226637   -1.660295   -0.359441
  C      0.867753   -0.933383    0.863173
  C      2.030513   -0.614677    1.750146
  C     -0.413841   -1.671796    1.348485
  C     -1.056585   -1.072671    0.098905
  O     -2.392943   -0.964135   -0.223115
  H      0.756239    2.010604   -0.418272
  H     -0.963848    1.807731   -0.789367
  H     -0.443756    1.996799    0.886576
  H     -0.072593   -1.117648   -2.023590
  H      2.782347   -0.031392    1.210872
  H      1.703490   -0.044838    2.625026
  H      2.500910   -1.540347    2.099359
  H     -0.334929   -2.759489    1.452469
  H     -0.821832   -1.221346    2.257529
  H     -2.677032   -1.788825   -0.633417

 Total Charge           Charge          ....    0
 Multiplicity           Mult            ....    1
 Number of Electrons    NEL             ....   68
 Basis Dimension        Dim             ....  339

ORBITAL ENERGIES
----------------

  NO   OCC          E(Eh)            E(eV)
   0   2.0000     -20.575813      -559.8963
   1   2.0000     -20.547465      -559.1250
   2   2.0000     -11.297536      -307.4216
   3   2.0000     -11.290158      -307.2208
   4   2.0000     -11.281654      -306.9894
   5   2.0000     -11.237395      -305.7851
   6   2.0000     -11.227787      -305.5236
   7   2.0000     -11.227300      -305.5104
   8   2.0000     -11.223247      -305.4001
   9   2.0000      -1.404925       -38.2300
  10   2.0000      -1.377132       -37.4737
  11   2.0000      -1.144877       -31.1537
  12   2.0000      -1.027953       -27.9720
  13   2.0000      -0.990613       -26.9559
  14   2.0000      -0.931896       -25.3582
  15   2.0000      -0.833957       -22.6931
  16   2.0000      -0.789779       -21.4910
  17   2.0000      -0.705166       -19.1886
  18   2.0000      -0.690675       -18.7942
  19   2.0000      -0.654846       -17.8193
  20   2.0000      -0.634551       -17.2670
  21   2.0000      -0.628961       -17.1149
  22   2.0000      -0.588534       -16.0148
  23   2.0000      -0.579639       -15.7728
  24   2.0000      -0.571143       -15.5416
  25   2.0000      -0.559819       -15.2335
  26   2.0000      -0.555479       -15.1153
  27   2.0000      -0.531806       -14.4712
  28   2.0000      -0.515425       -14.0254
  29   2.0000      -0.498904       -13.5759
  30   2.0000      -0.468135       -12.7386
  31   2.0000      -0.412483       -11.2242
  32   2.0000      -0.376105       -10.2343
  33   2.0000      -0.357856        -9.7378
  34   0.0000       0.127831         3.4785
  35   0.0000       0.143669         3.9094
  36   0.0000       0.167986         4.5711
  37   0.0000       0.183265         4.9869
  38   0.0000       0.188488         5.1290

MULLIKEN ATOMIC CHARGES
-----------------------
   0 C :   -0.410084
   1 C :   -0.015168
   2 C :   -0.033992
   3 O :   -0.317902
   4 C :    0.159744
   5 C :   -0.417428
   6 C :   -0.203330
   7 C :    0.145937
   8 O :   -0.458365
   9 H :    0.142872
  10 H :    0.148511
  11 H :    0.135859
  12 H :    0.143378
  13 H :    0.142209
  14 H :    0.133364
  15 H :    0.146803
  16 H :    0.112031
  17 H :    0.113845
  18 H :    0.331715
Sum of atomic charges:    0.0000000

LOEWDIN ATOMIC CHARGES
----------------------
   0 C :   -0.275802
   1 C :   -0.139251
   2 C :   -0.213899
   3 O :    0.179651
   4 C :   -0.240972
   5 C :   -0.268905
   6 C :   -0.166415
   7 C :   -0.308794
   8 O :    0.033847
   9 H :    0.131378
  10 H :    0.138515
  11 H :    0.130882
  12 H :    0.134965
  13 H :    0.133834
  14 H :    0.133556
  15 H :    0.137161
  16 H :    0.127895
  17 H :    0.143961
  18 H :    0.188394

  Mayer bond orders larger than 0.1
B(  0-C ,  1-C ) :   0.8071 B(  0-C ,  9-H ) :   0.9501 B(  0-C , 10-H ) :   0.9400
B(  0-C , 11-H ) :   0.9381 B(  1-C ,  2-C ) :   0.9023 B(  1-C ,  4-C ) :   0.8841
B(  1-C ,  7-C ) :   0.7846 B(  2-C ,  3-O ) :   0.9773 B(  2-C ,  7-C ) :   0.8312
B(  2-C , 12-H ) :   0.9147 B(  3-O ,  4-C ) :   0.8911 B(  4-C ,  5-C ) :   0.8566
B(  4-C ,  6-C ) :   0.9320 B(  5-C , 13-H ) :   0.9414 B(  5-C , 14-H ) :   0.9357
B(  5-C , 15-H ) :   0.9415 B(  6-C ,  7-C ) :   0.9639 B(  6-C , 16-H ) :   0.9110
B(  6-C , 17-H ) :   0.9155 B(  7-C ,  8-O ) :   1.0432 B(  8-O , 18-H ) :   0.8332

MP2 TOTAL ENERGY:     -422.261396592 Eh
FINAL SINGLE POINT ENERGY      -422.261396591625

DIPOLE MOMENT
-------------
                                X             Y             Z
Electronic contribution:     -2.51845      -4.01550      -3.54976
Nuclear contribution   :      2.32301       4.12970       3.69951
                        -----------------------------------------
Total Dipole Moment    :     -0.19545       0.11420       0.14974
                        -----------------------------------------
Magnitude (a.u.)       :      0.27141
Magnitude (Debye)      :      0.68987

                             ****ORCA TERMINATED NORMALLY****
TOTAL RUN TIME: 0 days 0 hours 18 minutes 3 seconds 571 msec
