                         Program Version 3.0.3 - RELEASE   -
|  1> ! RI-MP2 RIJK def2-TZVP def2-TZVP/C def2-TZVP/JK TIGHTSCF
|  2> % maxcore 2000
|  3> % mp2 density relaxed end
|  4> *xyz 0 1
|  5>  C       -0.0398799262     1.3774240275     0.1496930002
|  6>  N       -0.0433302741    -0.0396089977    -0.1169403473
|  7>  C       -1.1245436208    -1.0262212231    -0.0839399324
|  8>  C       -1.5625928646    -1.4380898226     1.3472044917
|  9>  C       -0.4460129383    -2.5251932567     1.3795240855
| 10>  C        0.0124852530    -2.1357313406    -0.0515785155
| 11>  O        0.1920394765    -3.2014333692    -0.9149040417
| 12>  C        0.9954609305    -0.9426540317    -0.0913067401
| 13>  O        2.1930896897    -0.8019278603    -0.0994578835
| 14>  H        1.0015493754     1.7046862959     0.2002649416
| 15>  H       -0.5482851205     1.9344494016    -0.6452231928
| 16>  H       -0.5303434879     1.6098283682     1.1036856217
| 17>  H       -1.8697292248    -0.9277167354    -0.8746926878
| 18>  H       -1.4847427495    -0.6444391524     2.0940268918
| 19>  H       -2.5710559888    -1.8550671802     1.3887405800
| 20>  H        0.3138119956    -2.4534980852     2.1603875709
| 21>  H       -0.8481419509    -3.5406343106     1.3731060465
| 22>  H        0.7810778057    -2.9295534375    -1.6271891988
| 23> *
| 24>
| 25>                          ****END OF INPUT****

CARTESIAN COORDINATES (ANGSTROEM)
---------------------------------
  C     -0.039880    1.377424    0.149693
  N     -0.043330   -0.039609   -0.116940
  C     -1.124544   -1.026221   -0.083940
  C     -1.562593   -1.438090    1.347204
  C     -0.446013   -2.525193    1.379524
  C      0.012485   -2.135731   -0.051579
  O      0.192039   -3.201433   -0.914904
  C      0.995461   -0.942654   -0.091307
  O      2.193090   -0.801928   -0.099458
  H      1.001549    1.704686    0.200265
  H     -0.548285    1.934449   -0.645223
  H     -0.530343    1.609828    1.103686
  H     -1.869729   -0.927717   -0.874693
  H     -1.484743   -0.644439    2.094027
  H     -2.571056   -1.855067    1.388741
  H      0.313812   -2.453498    2.160388
  H     -0.848142   -3.540634    1.373106
  H      0.781078   -2.929553   -1.627189

 Total Charge           Charge          ....    0
 Multiplicity           Mult            ....    1
 Number of Electrons    NEL             ....   68
 Basis Dimension        Dim             ....  333

ORBITAL ENERGIES
----------------

  NO   OCC          E(Eh)            E(eV)
   0   2.0000     -20.580200      -560.0157
   1   2.0000     -20.530480      -558.6628
   2   2.0000     -15.591211      -424.2584
   3   2.0000     -11.349030      -308.8228
   4   2.0000     -11.308149      -307.7104
   5   2.0000     -11.279053      -306.9186
   6   2.0000     -11.269376      -306.6553
   7   2.0000     -11.238814      -305.8237
   8   2.0000     -11.238092      -305.8040
   9   2.0000      -1.404385       -38.2153
  10   2.0000      -1.379778       -37.5457
  11   2.0000      -1.284536       -34.9540
  12   2.0000      -1.112068       -30.2609
  13   2.0000      -1.000897       -27.2358
  14   2.0000      -0.929141       -25.2832
  15   2.0000      -0.867811       -23.6143
  16   2.0000      -0.810994       -22.0683
  17   2.0000      -0.752499       -20.4765
  18   2.0000      -0.702323       -19.1112
  19   2.0000      -0.693298       -18.8656
  20   2.0000      -0.659325       -17.9412
  21   2.0000      -0.643689       -17.5157
  22   2.0000      -0.614355       -16.7174
  23   2.0000      -0.603620       -16.4253
  24   2.0000      -0.592973       -16.1356
  25   2.0000      -0.558276       -15.1915
  26   2.0000      -0.549909       -14.9638
  27   2.0000      -0.536891       -14.6095
  28   2.0000      -0.504882       -13.7385
  29   2.0000      -0.497557       -13.5392
  30   2.0000      -0.488879       -13.3031
  31   2.0000      -0.428826       -11.6690
  32   2.0000      -0.404700       -11.0125
  33   2.0000      -0.376304       -10.2398
  34   0.0000       0.131546         3.5796
  35   0.0000       0.140406         3.8206
  36   0.0000       0.156459         4.2575
  37   0.0000       0.163299         4.4436
  38   0.0000       0.177940         4.8420

MULLIKEN ATOMIC CHARGES
-----------------------
   0 C :   -0.324983
   1 N :   -0.095683
   2 C :   -0.051472
   3 C :   -0.238856
   4 C :   -0.248994
   5 C :    0.239060
   6 O :   -0.448729
   7 C :    0.073595
   8 O :   -0.323842
   9 H :    0.170177
  10 H :    0.144704
  11 H :    0.134071
  12 H :    0.131423
  13 H :    0.116493
  14 H :    0.120666
  15 H :    0.137373
  16 H :    0.130205
  17 H :    0.334790
Sum of atomic charges:    0.0000000

LOEWDIN ATOMIC CHARGES
----------------------
   0 C :   -0.296575
   1 N :    0.210201
   2 C :   -0.173416
   3 C :   -0.222101
   4 C :   -0.189645
   5 C :   -0.297756
   6 O :    0.041071
   7 C :   -0.409671
   8 O :    0.096614
   9 H :    0.135771
  10 H :    0.120073
  11 H :    0.118422
  12 H :    0.132120
  13 H :    0.129981
  14 H :    0.134433
  15 H :    0.134962
  16 H :    0.144208
  17 H :    0.191309

  Mayer bond orders larger than 0.1
B(  0-C ,  1-N ) :   0.8681 B(  0-C ,  9-H ) :   0.9252 B(  0-C , 10-H ) :   0.9348
B(  0-C , 11-H ) :   0.9260 B(  1-N ,  2-C ) :   0.9141 B(  1-N ,  7-C ) :   1.1451
B(  2-C ,  3-C ) :   0.9366 B(  2-C ,  5-C ) :   0.8125 B(  2-C , 12-H ) :   0.8966
B(  3-C ,  4-C ) :   0.9808 B(  3-C , 13-H ) :   0.9129 B(  3-C , 14-H ) :   0.9199
B(  4-C ,  5-C ) :   0.8947 B(  4-C , 15-H ) :   0.9206 B(  4-C , 16-H ) :   0.9095
B(  5-C ,  6-O ) :   1.0616 B(  5-C ,  7-C ) :   0.9000 B(  6-O , 17-H ) :   0.8320
B(  7-C ,  8-O ) :   2.0132

MP2 TOTAL ENERGY:     -438.367501882 Eh
FINAL SINGLE POINT ENERGY      -438.367501882393

DIPOLE MOMENT
-------------
                                X             Y             Z
Electronic contribution:      4.53787      -2.79889      -3.50288
Nuclear contribution   :     -5.74816       3.42216       3.55913
                        -----------------------------------------
Total Dipole Moment    :     -1.21028       0.62327       0.05625
                        -----------------------------------------
Magnitude (a.u.)       :      1.36250
Magnitude (Debye)      :      3.46321

                             ****ORCA TERMINATED NORMALLY****
TOTAL RUN TIME: 0 days 0 hours 18 minutes 35 seconds 819 msec
