                         Program Version 3.0.3 - RELEASE   -
|  1> ! RI-MP2 RIJK def2-TZVP def2-TZVP/C def2-TZVP/JK TIGHTSCF
|  2> % maxcore 2000
|  3> % mp2 density relaxed end
|  4> *xyz 0 1
|  5>  N       -0.2848442373    -1.1808441442    -0.2531325470
|  6>  C       -0.1359231538    -0.0460766886    -0.0930236876
|  7>  C       -0.0042723918     1.3849122355     0.1431716508
|  8>  C       -0.5518293939     1.8225860626     1.5505250007
|  9>  N        0.2450303262     2.9678889766     1.9652387806
| 10>  C        1.5990444337     2.6544558100     1.5326346907
| 11>  C        1.4684740370     1.9529962198     0.1314307179
| 12>  C        2.5236846501     0.9792258174    -0.1118433362
| 13>  N        3.3938283926     0.2371286763    -0.2781212267
| 14>  H       -0.5703414674     1.8993312067    -0.6387896970
| 15>  H       -1.6163561436     2.0594816233     1.5214641309
| 16>  H       -0.4040764486     1.0021947549     2.2604066095
| 17>  H       -0.0842991203     3.8093206265     1.5012870515
| 18>  H        2.2263333510     3.5459459337     1.4886741096
| 19>  H        2.0523313356     1.9528897185     2.2405338636
| 20>  H        1.5322613707     2.7087833312    -0.6567412112
| 21> *
| 22>
| 23>                          ****END OF INPUT****

CARTESIAN COORDINATES (ANGSTROEM)
---------------------------------
  N     -0.284844   -1.180844   -0.253133
  C     -0.135923   -0.046077   -0.093024
  C     -0.004272    1.384912    0.143172
  C     -0.551829    1.822586    1.550525
  N      0.245030    2.967889    1.965239
  C      1.599044    2.654456    1.532635
  C      1.468474    1.952996    0.131431
  C      2.523685    0.979226   -0.111843
  N      3.393828    0.237129   -0.278121
  H     -0.570341    1.899331   -0.638790
  H     -1.616356    2.059482    1.521464
  H     -0.404076    1.002195    2.260407
  H     -0.084299    3.809321    1.501287
  H      2.226333    3.545946    1.488674
  H      2.052331    1.952890    2.240534
  H      1.532261    2.708783   -0.656741

 Total Charge           Charge          ....    0
 Multiplicity           Mult            ....    1
 Number of Electrons    NEL             ....   64
 Basis Dimension        Dim             ....  321

ORBITAL ENERGIES
----------------

  NO   OCC          E(Eh)            E(eV)
   0   2.0000     -15.587535      -424.1584
   1   2.0000     -15.582588      -424.0238
   2   2.0000     -15.582580      -424.0235
   3   2.0000     -11.315442      -307.9088
   4   2.0000     -11.314940      -307.8952
   5   2.0000     -11.298212      -307.4400
   6   2.0000     -11.298191      -307.4394
   7   2.0000     -11.283756      -307.0466
   8   2.0000     -11.283746      -307.0463
   9   2.0000      -1.278204       -34.7817
  10   2.0000      -1.231201       -33.5027
  11   2.0000      -1.226914       -33.3860
  12   2.0000      -1.108880       -30.1742
  13   2.0000      -1.044824       -28.4311
  14   2.0000      -0.903260       -24.5790
  15   2.0000      -0.880551       -23.9610
  16   2.0000      -0.772200       -21.0126
  17   2.0000      -0.738937       -20.1075
  18   2.0000      -0.671721       -18.2785
  19   2.0000      -0.668562       -18.1925
  20   2.0000      -0.619071       -16.8458
  21   2.0000      -0.605105       -16.4657
  22   2.0000      -0.572479       -15.5779
  23   2.0000      -0.566161       -15.4060
  24   2.0000      -0.556553       -15.1446
  25   2.0000      -0.552245       -15.0273
  26   2.0000      -0.545659       -14.8481
  27   2.0000      -0.485003       -13.1976
  28   2.0000      -0.474937       -12.9237
  29   2.0000      -0.465470       -12.6661
  30   2.0000      -0.459684       -12.5086
  31   2.0000      -0.416810       -11.3420
  32   0.0000       0.087608         2.3839
  33   0.0000       0.136254         3.7077
  34   0.0000       0.138481         3.7683
  35   0.0000       0.143827         3.9137
  36   0.0000       0.162764         4.4290

MULLIKEN ATOMIC CHARGES
-----------------------
   0 N :   -0.038868
   1 C :   -0.227273
   2 C :    0.054428
   3 C :   -0.189614
   4 N :   -0.293134
   5 C :   -0.189742
   6 C :    0.055317
   7 C :   -0.227542
   8 N :   -0.038835
   9 H :    0.144160
  10 H :    0.152884
  11 H :    0.143351
  12 H :    0.214463
  13 H :    0.152866
  14 H :    0.143359
  15 H :    0.144181
Sum of atomic charges:    0.0000000

LOEWDIN ATOMIC CHARGES
----------------------
   0 N :    0.081031
   1 C :   -0.174833
   2 C :   -0.197867
   3 C :   -0.251936
   4 N :   -0.005842
   5 C :   -0.251899
   6 C :   -0.197786
   7 C :   -0.174859
   8 N :    0.081021
   9 H :    0.175717
  10 H :    0.137954
  11 H :    0.145792
  12 H :    0.174084
  13 H :    0.137933
  14 H :    0.145783
  15 H :    0.175708

  Mayer bond orders larger than 0.1
B(  0-N ,  1-C ) :   2.8557 B(  1-C ,  2-C ) :   0.9367 B(  2-C ,  3-C ) :   0.8775
B(  2-C ,  6-C ) :   0.8864 B(  2-C ,  9-H ) :   0.8945 B(  3-C ,  4-N ) :   0.9696
B(  3-C , 10-H ) :   0.9315 B(  3-C , 11-H ) :   0.9170 B(  4-N ,  5-C ) :   0.9697
B(  4-N , 12-H ) :   0.8767 B(  5-C ,  6-C ) :   0.8772 B(  5-C , 13-H ) :   0.9315
B(  5-C , 14-H ) :   0.9170 B(  6-C ,  7-C ) :   0.9368 B(  6-C , 15-H ) :   0.8944
B(  7-C ,  8-N ) :   2.8557

MP2 TOTAL ENERGY:     -396.265997301 Eh
FINAL SINGLE POINT ENERGY      -396.265997300742

DIPOLE MOMENT
-------------
                                X             Y             Z
Electronic contribution:      2.02640      -5.32707      -3.46819
Nuclear contribution   :     -2.96253       7.75807       3.67522
                        -----------------------------------------
Total Dipole Moment    :     -0.93613       2.43100       0.20702
                        -----------------------------------------
Magnitude (a.u.)       :      2.61323
Magnitude (Debye)      :      6.64231

                             ****ORCA TERMINATED NORMALLY****
TOTAL RUN TIME: 0 days 0 hours 15 minutes 49 seconds 88 msec
