                         Program Version 3.0.3 - RELEASE   -
|  1> ! RI-MP2 RIJK def2-TZVP def2-TZVP/C def2-TZVP/JK TIGHTSCF
|  2> % maxcore 2000
|  3> % mp2 density relaxed end
|  4> *xyz 0 1
|  5>  C       -0.0122201744     1.4893658218    -0.2744856050
|  6>  C        0.0164189983    -0.0031935419     0.1087053987
|  7>  C        0.6973448126    -0.2760280837     1.4765562999
|  8>  C        2.1693458042     0.0670347269     1.4881846572
|  9>  C        3.1205201546    -0.7325273834     2.2971673367
| 10>  N        3.1466006628    -0.8158770510     0.8246264807
| 11>  C       -1.3442602251    -0.5509267509     0.1192977915
| 12>  N       -2.4173451302    -0.9799954170     0.1431199591
| 13>  H        1.0054028744     1.8741614656    -0.3724952794
| 14>  H       -0.5248627731     1.6350483813    -1.2281494700
| 15>  H       -0.5357592629     2.0746973587     0.4871094064
| 16>  H        0.5729278440    -0.5490622712    -0.6642056832
| 17>  H        0.1723690834     0.2962841620     2.2512994392
| 18>  H        0.5706233798    -1.3351992936     1.7292358759
| 19>  H        2.3999760826     1.1214592986     1.3516355970
| 20>  H        3.9890865463    -0.2582152470     2.7444468368
| 21>  H        2.7256688477    -1.5749746978     2.8595572897
| 22>  H        2.6881895450    -1.6758512572     0.5289244489
| 23> *
| 24>
| 25>                          ****END OF INPUT****

CARTESIAN COORDINATES (ANGSTROEM)
---------------------------------
  C     -0.012220    1.489366   -0.274486
  C      0.016419   -0.003194    0.108705
  C      0.697345   -0.276028    1.476556
  C      2.169346    0.067035    1.488185
  C      3.120520   -0.732527    2.297167
  N      3.146601   -0.815877    0.824626
  C     -1.344260   -0.550927    0.119298
  N     -2.417345   -0.979995    0.143120
  H      1.005403    1.874161   -0.372495
  H     -0.524863    1.635048   -1.228149
  H     -0.535759    2.074697    0.487109
  H      0.572928   -0.549062   -0.664206
  H      0.172369    0.296284    2.251299
  H      0.570623   -1.335199    1.729236
  H      2.399976    1.121459    1.351636
  H      3.989087   -0.258215    2.744447
  H      2.725669   -1.574975    2.859557
  H      2.688190   -1.675851    0.528924

 Total Charge           Charge          ....    0
 Multiplicity           Mult            ....    1
 Number of Electrons    NEL             ....   60
 Basis Dimension        Dim             ....  308

ORBITAL ENERGIES
----------------

  NO   OCC          E(Eh)            E(eV)
   0   2.0000     -15.570903      -423.7058
   1   2.0000     -15.569056      -423.6555
   2   2.0000     -11.291539      -307.2584
   3   2.0000     -11.276332      -306.8446
   4   2.0000     -11.271434      -306.7113
   5   2.0000     -11.267624      -306.6076
   6   2.0000     -11.260145      -306.4041
   7   2.0000     -11.246620      -306.0361
   8   2.0000      -1.274787       -34.6887
   9   2.0000      -1.220070       -33.1998
  10   2.0000      -1.113597       -30.3025
  11   2.0000      -0.988702       -26.9040
  12   2.0000      -0.914649       -24.8889
  13   2.0000      -0.884922       -24.0799
  14   2.0000      -0.813851       -22.1460
  15   2.0000      -0.712321       -19.3832
  16   2.0000      -0.687984       -18.7210
  17   2.0000      -0.665207       -18.1012
  18   2.0000      -0.627495       -17.0750
  19   2.0000      -0.601617       -16.3708
  20   2.0000      -0.575359       -15.6563
  21   2.0000      -0.556119       -15.1328
  22   2.0000      -0.538738       -14.6598
  23   2.0000      -0.530006       -14.4222
  24   2.0000      -0.518050       -14.0969
  25   2.0000      -0.492869       -13.4116
  26   2.0000      -0.482138       -13.1196
  27   2.0000      -0.456352       -12.4180
  28   2.0000      -0.453159       -12.3311
  29   2.0000      -0.401508       -10.9256
  30   0.0000       0.119988         3.2650
  31   0.0000       0.134229         3.6525
  32   0.0000       0.147245         4.0067
  33   0.0000       0.163210         4.4412
  34   0.0000       0.176458         4.8017

MULLIKEN ATOMIC CHARGES
-----------------------
   0 C :   -0.422158
   1 C :    0.065561
   2 C :   -0.271876
   3 C :   -0.040294
   4 C :   -0.186965
   5 N :   -0.370965
   6 C :   -0.191326
   7 N :   -0.054999
   8 H :    0.152370
   9 H :    0.154992
  10 H :    0.140929
  11 H :    0.131678
  12 H :    0.136980
  13 H :    0.146031
  14 H :    0.129976
  15 H :    0.128342
  16 H :    0.132424
  17 H :    0.219299
Sum of atomic charges:   -0.0000000

LOEWDIN ATOMIC CHARGES
----------------------
   0 C :   -0.265349
   1 C :   -0.261226
   2 C :   -0.220678
   3 C :   -0.282903
   4 C :   -0.262477
   5 N :   -0.021675
   6 C :   -0.174146
   7 N :    0.058677
   8 H :    0.129080
   9 H :    0.132770
  10 H :    0.131005
  11 H :    0.176142
  12 H :    0.152910
  13 H :    0.151649
  14 H :    0.143280
  15 H :    0.125902
  16 H :    0.122825
  17 H :    0.164215

  Mayer bond orders larger than 0.1
B(  0-C ,  1-C ) :   0.8975 B(  0-C ,  8-H ) :   0.9362 B(  0-C ,  9-H ) :   0.9338
B(  0-C , 10-H ) :   0.9283 B(  1-C ,  2-C ) :   0.8906 B(  1-C ,  6-C ) :   0.9096
B(  1-C , 11-H ) :   0.9137 B(  2-C ,  3-C ) :   0.9217 B(  2-C , 12-H ) :   0.9164
B(  2-C , 13-H ) :   0.9347 B(  3-C ,  4-C ) :   0.9475 B(  3-C ,  5-N ) :   0.9085
B(  3-C , 14-H ) :   0.9192 B(  4-C ,  5-N ) :   0.9290 B(  4-C , 15-H ) :   0.9225
B(  4-C , 16-H ) :   0.9206 B(  5-N , 17-H ) :   0.8736 B(  6-C ,  7-N ) :   2.8872

MP2 TOTAL ENERGY:     -343.370547031 Eh
FINAL SINGLE POINT ENERGY      -343.370547031153

DIPOLE MOMENT
-------------
                                X             Y             Z
Electronic contribution:     -4.55350      -3.08122      -1.33881
Nuclear contribution   :      5.50704       3.51204       1.76419
                        -----------------------------------------
Total Dipole Moment    :      0.95355       0.43082       0.42539
                        -----------------------------------------
Magnitude (a.u.)       :      1.12952
Magnitude (Debye)      :      2.87101

                             ****ORCA TERMINATED NORMALLY****
TOTAL RUN TIME: 0 days 0 hours 11 minutes 42 seconds 756 msec
