                         Program Version 3.0.3 - RELEASE   -
|  1> ! RI-MP2 RIJK def2-TZVP def2-TZVP/C def2-TZVP/JK TIGHTSCF
|  2> % maxcore 2000
|  3> % mp2 density relaxed end
|  4> *xyz 0 1
|  5>  O        0.0412770787    -0.0152647030     0.0024425547
|  6>  C       -0.0090927535     1.1879621964     0.0093809649
|  7>  N       -1.2103201218     1.9072608080     0.0295022156
|  8>  C       -1.1238432294     3.1794811842     0.0353681957
|  9>  O       -0.0177819673     3.9393919586     0.0248459940
| 10>  N        1.2365906622     3.3318592397     0.0048038365
| 11>  C        1.2345748291     2.0347663937    -0.0025030468
| 12>  C        2.5004042221     1.3930102850    -0.0219425406
| 13>  C        3.5553140941     0.8168445231    -0.0384571611
| 14>  H       -2.0046544524     3.8185782945     0.0506964540
| 15>  H        4.4878055782     0.3068572398    -0.0534011769
| 16> *
| 17>
| 18>                          ****END OF INPUT****

CARTESIAN COORDINATES (ANGSTROEM)
---------------------------------
  O      0.041277   -0.015265    0.002443
  C     -0.009093    1.187962    0.009381
  N     -1.210320    1.907261    0.029502
  C     -1.123843    3.179481    0.035368
  O     -0.017782    3.939392    0.024846
  N      1.236591    3.331859    0.004804
  C      1.234575    2.034766   -0.002503
  C      2.500404    1.393010   -0.021943
  C      3.555314    0.816845   -0.038457
  H     -2.004654    3.818578    0.050696
  H      4.487806    0.306857   -0.053401

 Total Charge           Charge          ....    0
 Multiplicity           Mult            ....    1
 Number of Electrons    NEL             ....   62
 Basis Dimension        Dim             ....  291

ORBITAL ENERGIES
----------------

  NO   OCC          E(Eh)            E(eV)
   0   2.0000     -20.694118      -563.1156
   1   2.0000     -20.570492      -559.7515
   2   2.0000     -15.700291      -427.2266
   3   2.0000     -15.601852      -424.5480
   4   2.0000     -11.405352      -310.3554
   5   2.0000     -11.394039      -310.0476
   6   2.0000     -11.356937      -309.0380
   7   2.0000     -11.271414      -306.7108
   8   2.0000     -11.266231      -306.5697
   9   2.0000      -1.539553       -41.8934
  10   2.0000      -1.427005       -38.8308
  11   2.0000      -1.280565       -34.8459
  12   2.0000      -1.249032       -33.9879
  13   2.0000      -1.071048       -29.1447
  14   2.0000      -0.974694       -26.5228
  15   2.0000      -0.944596       -25.7038
  16   2.0000      -0.825565       -22.4648
  17   2.0000      -0.795571       -21.6486
  18   2.0000      -0.753082       -20.4924
  19   2.0000      -0.723963       -19.7000
  20   2.0000      -0.710661       -19.3381
  21   2.0000      -0.665165       -18.1000
  22   2.0000      -0.619278       -16.8514
  23   2.0000      -0.593838       -16.1592
  24   2.0000      -0.567270       -15.4362
  25   2.0000      -0.531039       -14.4503
  26   2.0000      -0.513470       -13.9722
  27   2.0000      -0.452735       -12.3195
  28   2.0000      -0.449070       -12.2198
  29   2.0000      -0.427678       -11.6377
  30   2.0000      -0.400474       -10.8975
  31   0.0000       0.038405         1.0451
  32   0.0000       0.079514         2.1637
  33   0.0000       0.144125         3.9218
  34   0.0000       0.148133         4.0309
  35   0.0000       0.155407         4.2288

MULLIKEN ATOMIC CHARGES
-----------------------
   0 O :   -0.245820
   1 C :    0.236178
   2 N :   -0.223562
   3 C :    0.138912
   4 O :   -0.108855
   5 N :   -0.064520
   6 C :   -0.146483
   7 C :    0.090737
   8 C :   -0.058862
   9 H :    0.171875
  10 H :    0.210400
Sum of atomic charges:    0.0000000

LOEWDIN ATOMIC CHARGES
----------------------
   0 O :    0.180672
   1 C :   -0.394788
   2 N :    0.140022
   3 C :   -0.305086
   4 O :    0.250182
   5 N :    0.125872
   6 C :   -0.210048
   7 C :   -0.056438
   8 C :   -0.013086
   9 H :    0.147211
  10 H :    0.135487

  Mayer bond orders larger than 0.1
B(  0-O ,  1-C ) :   2.0182 B(  1-C ,  2-N ) :   1.1004 B(  1-C ,  6-C ) :   0.9210
B(  2-N ,  3-C ) :   1.6860 B(  3-C ,  4-O ) :   1.1030 B(  3-C ,  9-H ) :   0.9149
B(  4-O ,  5-N ) :   0.8162 B(  5-N ,  6-C ) :   1.6942 B(  6-C ,  7-C ) :   1.1864
B(  6-C ,  8-C ) :  -0.1483 B(  7-C ,  8-C ) :   2.5777 B(  8-C , 10-H ) :   0.8677

MP2 TOTAL ENERGY:     -450.734833076 Eh
FINAL SINGLE POINT ENERGY      -450.734833076301

DIPOLE MOMENT
-------------
                                X             Y             Z
Electronic contribution:     -0.84246       0.63937       0.01330
Nuclear contribution   :      1.11789       0.12969      -0.01288
                        -----------------------------------------
Total Dipole Moment    :      0.27543       0.76906       0.00042
                        -----------------------------------------
Magnitude (a.u.)       :      0.81690
Magnitude (Debye)      :      2.07638

                             ****ORCA TERMINATED NORMALLY****
TOTAL RUN TIME: 0 days 0 hours 13 minutes 18 seconds 872 msec
