                         Program Version 3.0.3 - RELEASE   -
|  1> ! RI-MP2 RIJK def2-TZVP def2-TZVP/C def2-TZVP/JK TIGHTSCF
|  2> % maxcore 2000
|  3> % mp2 density relaxed end
|  4> *xyz 0 1
|  5>  N        0.1786798176    -1.1502222440    -0.0059672448
|  6>  C        0.0750249415     0.0026926595     0.0018397478
|  7>  C       -0.0721336369     1.4030257118     0.0115211377
|  8>  C       -1.1609393250     2.2377088470     0.0315398775
|  9>  N       -0.7207372926     3.5518986979     0.0323644540
| 10>  C        0.5673729906     3.4530221706     0.0135772180
| 11>  O        1.0425852100     2.1882581769     0.0000491052
| 12>  C       -2.5332650229     1.8799811898     0.0490773825
| 13>  N       -3.6486455327     1.5751469699     0.0632395010
| 14>  H        1.2992722505     4.2453857506     0.0074934610
| 15> *
| 16>
| 17>                          ****END OF INPUT****

CARTESIAN COORDINATES (ANGSTROEM)
---------------------------------
  N      0.178680   -1.150222   -0.005967
  C      0.075025    0.002693    0.001840
  C     -0.072134    1.403026    0.011521
  C     -1.160939    2.237709    0.031540
  N     -0.720737    3.551899    0.032364
  C      0.567373    3.453022    0.013577
  O      1.042585    2.188258    0.000049
  C     -2.533265    1.879981    0.049077
  N     -3.648646    1.575147    0.063240
  H      1.299272    4.245386    0.007493

 Total Charge           Charge          ....    0
 Multiplicity           Mult            ....    1
 Number of Electrons    NEL             ....   60
 Basis Dimension        Dim             ....  285

ORBITAL ENERGIES
----------------

  NO   OCC          E(Eh)            E(eV)
   0   2.0000     -20.710944      -563.5734
   1   2.0000     -15.633557      -425.4107
   2   2.0000     -15.623776      -425.1446
   3   2.0000     -15.613165      -424.8558
   4   2.0000     -11.402499      -310.2778
   5   2.0000     -11.395509      -310.0876
   6   2.0000     -11.368389      -309.3496
   7   2.0000     -11.320688      -308.0516
   8   2.0000     -11.310733      -307.7807
   9   2.0000      -1.562287       -42.5120
  10   2.0000      -1.311765       -35.6949
  11   2.0000      -1.263658       -34.3859
  12   2.0000      -1.250566       -34.0296
  13   2.0000      -1.133511       -30.8444
  14   2.0000      -0.976311       -26.5668
  15   2.0000      -0.919320       -25.0160
  16   2.0000      -0.869604       -23.6631
  17   2.0000      -0.765275       -20.8242
  18   2.0000      -0.735945       -20.0261
  19   2.0000      -0.706493       -19.2246
  20   2.0000      -0.668366       -18.1872
  21   2.0000      -0.603267       -16.4157
  22   2.0000      -0.593311       -16.1448
  23   2.0000      -0.564389       -15.3578
  24   2.0000      -0.541808       -14.7433
  25   2.0000      -0.541366       -14.7313
  26   2.0000      -0.509820       -13.8729
  27   2.0000      -0.500379       -13.6160
  28   2.0000      -0.491915       -13.3857
  29   2.0000      -0.394313       -10.7298
  30   0.0000       0.024320         0.6618
  31   0.0000       0.108658         2.9567
  32   0.0000       0.121569         3.3081
  33   0.0000       0.127776         3.4770
  34   0.0000       0.145891         3.9699

MULLIKEN ATOMIC CHARGES
-----------------------
   0 N :   -0.019252
   1 C :   -0.145714
   2 C :    0.277795
   3 C :    0.196598
   4 N :   -0.239181
   5 C :    0.128002
   6 O :   -0.169985
   7 C :   -0.192373
   8 N :   -0.024466
   9 H :    0.188576
Sum of atomic charges:    0.0000000

LOEWDIN ATOMIC CHARGES
----------------------
   0 N :    0.126850
   1 C :   -0.139180
   2 C :   -0.198989
   3 C :   -0.200960
   4 N :    0.166328
   5 C :   -0.273369
   6 O :    0.392522
   7 C :   -0.132467
   8 N :    0.113470
   9 H :    0.145795

  Mayer bond orders larger than 0.1
B(  0-N ,  1-C ) :   2.7822 B(  1-C ,  2-C ) :   0.9436 B(  2-C ,  3-C ) :   1.4498
B(  2-C ,  6-O ) :   1.0518 B(  3-C ,  4-N ) :   1.1811 B(  3-C ,  7-C ) :   0.9406
B(  4-N ,  5-C ) :   1.6191 B(  5-C ,  6-O ) :   1.0851 B(  5-C ,  9-H ) :   0.9152
B(  7-C ,  8-N ) :   2.8161

MP2 TOTAL ENERGY:     -429.780814683 Eh
FINAL SINGLE POINT ENERGY      -429.780814683298

DIPOLE MOMENT
-------------
                                X             Y             Z
Electronic contribution:     -0.32416      -1.18290      -0.00177
Nuclear contribution   :      1.84819       2.38607      -0.01328
                        -----------------------------------------
Total Dipole Moment    :      1.52403       1.20316      -0.01505
                        -----------------------------------------
Magnitude (a.u.)       :      1.94178
Magnitude (Debye)      :      4.93560

                             ****ORCA TERMINATED NORMALLY****
TOTAL RUN TIME: 0 days 0 hours 18 minutes 43 seconds 759 msec
