                         Program Version 3.0.3 - RELEASE   -
|  1> ! RI-MP2 RIJK def2-TZVP def2-TZVP/C def2-TZVP/JK TIGHTSCF
|  2> % maxcore 2000
|  3> % mp2 density relaxed end
|  4> *xyz 0 1
|  5>  C       -0.0609891914     1.5449726211     0.0765114318
|  6>  C        0.0033579866     0.0270859999    -0.0044319444
|  7>  C        0.7079905243    -0.4817749115    -1.2646405871
|  8>  C        0.8088170125    -2.0210909551    -1.2832989921
|  9>  C        1.6198245824    -2.5668098947    -2.4573989063
| 10>  C        1.3135360254    -2.5375811714     0.0622304605
| 11>  O        2.0800081823    -3.4652869142     0.1746415516
| 12>  C        0.7322312051    -1.8272743118     1.2869784116
| 13>  O        0.7060912953    -0.4203443892     1.1528672893
| 14>  H        0.9472455849     1.9700327152     0.0616472800
| 15>  H       -0.6232862010     1.9520831218    -0.7688552366
| 16>  H       -0.5499483726     1.8554536513     1.0033807571
| 17>  H       -1.0231486779    -0.3835982249     0.0221838606
| 18>  H        0.1774177700    -0.1373021376    -2.1600432878
| 19>  H        1.7152868493    -0.0469235326    -1.2975583376
| 20>  H       -0.2223558017    -2.4080932708    -1.3505879870
| 21>  H        2.6487896209    -2.1949725115    -2.4242003827
| 22>  H        1.6647813562    -3.6572672709    -2.4265730772
| 23>  H        1.1757586596    -2.2580977985    -3.4086315597
| 24>  H       -0.2861234777    -2.2252008078     1.4582891649
| 25>  H        1.3441966073    -2.0667303766     2.1587974111
| 26> *
| 27>
| 28>                          ****END OF INPUT****

CARTESIAN COORDINATES (ANGSTROEM)
---------------------------------
  C     -0.060989    1.544973    0.076511
  C      0.003358    0.027086   -0.004432
  C      0.707991   -0.481775   -1.264641
  C      0.808817   -2.021091   -1.283299
  C      1.619825   -2.566810   -2.457399
  C      1.313536   -2.537581    0.062230
  O      2.080008   -3.465287    0.174642
  C      0.732231   -1.827274    1.286978
  O      0.706091   -0.420344    1.152867
  H      0.947246    1.970033    0.061647
  H     -0.623286    1.952083   -0.768855
  H     -0.549948    1.855454    1.003381
  H     -1.023149   -0.383598    0.022184
  H      0.177418   -0.137302   -2.160043
  H      1.715287   -0.046924   -1.297558
  H     -0.222356   -2.408093   -1.350588
  H      2.648790   -2.194973   -2.424200
  H      1.664781   -3.657267   -2.426573
  H      1.175759   -2.258098   -3.408632
  H     -0.286123   -2.225201    1.458289
  H      1.344197   -2.066730    2.158797

 Total Charge           Charge          ....    0
 Multiplicity           Mult            ....    1
 Number of Electrons    NEL             ....   70
 Basis Dimension        Dim             ....  351

ORBITAL ENERGIES
----------------

  NO   OCC          E(Eh)            E(eV)
   0   2.0000     -20.568011      -559.6840
   1   2.0000     -20.550234      -559.2003
   2   2.0000     -11.329115      -308.2809
   3   2.0000     -11.292449      -307.2832
   4   2.0000     -11.289368      -307.1993
   5   2.0000     -11.249307      -306.1092
   6   2.0000     -11.237677      -305.7927
   7   2.0000     -11.222738      -305.3862
   8   2.0000     -11.220068      -305.3136
   9   2.0000      -1.399956       -38.0947
  10   2.0000      -1.383624       -37.6503
  11   2.0000      -1.102248       -29.9937
  12   2.0000      -1.052575       -28.6420
  13   2.0000      -0.968728       -26.3604
  14   2.0000      -0.937357       -25.5068
  15   2.0000      -0.859575       -23.3902
  16   2.0000      -0.816831       -22.2271
  17   2.0000      -0.746928       -20.3249
  18   2.0000      -0.676288       -18.4027
  19   2.0000      -0.667401       -18.1609
  20   2.0000      -0.655669       -17.8417
  21   2.0000      -0.640782       -17.4366
  22   2.0000      -0.626413       -17.0456
  23   2.0000      -0.584663       -15.9095
  24   2.0000      -0.559405       -15.2222
  25   2.0000      -0.552796       -15.0424
  26   2.0000      -0.540686       -14.7128
  27   2.0000      -0.539854       -14.6902
  28   2.0000      -0.524779       -14.2800
  29   2.0000      -0.519988       -14.1496
  30   2.0000      -0.498494       -13.5647
  31   2.0000      -0.485970       -13.2239
  32   2.0000      -0.463091       -12.6013
  33   2.0000      -0.450368       -12.2551
  34   2.0000      -0.390363       -10.6223
  35   0.0000       0.113676         3.0933
  36   0.0000       0.146005         3.9730
  37   0.0000       0.150071         4.0836
  38   0.0000       0.161257         4.3880
  39   0.0000       0.176774         4.8103

MULLIKEN ATOMIC CHARGES
-----------------------
   0 C :   -0.370708
   1 C :    0.071056
   2 C :   -0.263384
   3 C :   -0.022006
   4 C :   -0.386383
   5 C :    0.126065
   6 O :   -0.273703
   7 C :   -0.073827
   8 O :   -0.295982
   9 H :    0.132089
  10 H :    0.125043
  11 H :    0.142384
  12 H :    0.077460
  13 H :    0.121896
  14 H :    0.118992
  15 H :    0.105364
  16 H :    0.130247
  17 H :    0.151864
  18 H :    0.131915
  19 H :    0.107555
  20 H :    0.144063
Sum of atomic charges:    0.0000000

LOEWDIN ATOMIC CHARGES
----------------------
   0 C :   -0.288012
   1 C :   -0.346459
   2 C :   -0.219217
   3 C :   -0.255129
   4 C :   -0.284859
   5 C :   -0.302125
   6 O :    0.161184
   7 C :   -0.283404
   8 O :    0.180053
   9 H :    0.128293
  10 H :    0.126966
  11 H :    0.128087
  12 H :    0.136512
  13 H :    0.144420
  14 H :    0.147628
  15 H :    0.169450
  16 H :    0.128565
  17 H :    0.131057
  18 H :    0.123962
  19 H :    0.131980
  20 H :    0.141046

  Mayer bond orders larger than 0.1
B(  0-C ,  1-C ) :   0.9128 B(  0-C ,  9-H ) :   0.9353 B(  0-C , 10-H ) :   0.9344
B(  0-C , 11-H ) :   0.9395 B(  1-C ,  2-C ) :   0.9287 B(  1-C ,  8-O ) :   0.9239
B(  1-C , 12-H ) :   0.9354 B(  2-C ,  3-C ) :   0.9049 B(  2-C , 13-H ) :   0.9204
B(  2-C , 14-H ) :   0.9117 B(  3-C ,  4-C ) :   0.9220 B(  3-C ,  5-C ) :   0.8977
B(  3-C , 15-H ) :   0.8979 B(  4-C , 16-H ) :   0.9320 B(  4-C , 17-H ) :   0.9327
B(  4-C , 18-H ) :   0.9384 B(  5-C ,  6-O ) :   2.0064 B(  5-C ,  7-C ) :   0.9085
B(  7-C ,  8-O ) :   0.9392 B(  7-C , 19-H ) :   0.9182 B(  7-C , 20-H ) :   0.9226

MP2 TOTAL ENERGY:     -423.552397065 Eh
FINAL SINGLE POINT ENERGY      -423.552397064928

DIPOLE MOMENT
-------------
                                X             Y             Z
Electronic contribution:      2.51334      -5.01419       5.26466
Nuclear contribution   :     -3.38608       5.57930      -5.81657
                        -----------------------------------------
Total Dipole Moment    :     -0.87274       0.56511      -0.55191
                        -----------------------------------------
Magnitude (a.u.)       :      1.17713
Magnitude (Debye)      :      2.99203

                             ****ORCA TERMINATED NORMALLY****
TOTAL RUN TIME: 0 days 0 hours 20 minutes 15 seconds 228 msec
