                         Program Version 3.0.3 - RELEASE   -
|  1> ! RI-MP2 RIJK def2-TZVP def2-TZVP/C def2-TZVP/JK TIGHTSCF
|  2> % maxcore 2000
|  3> % mp2 density relaxed end
|  4> *xyz 0 1
|  5>  C       -0.0599341540     1.5886910874     0.1031714019
|  6>  C       -0.0259570809     0.0515984471     0.0219638461
|  7>  C        0.7204378576    -0.4610310664    -1.1743117722
|  8>  C        2.0171604840    -0.8599873237    -1.2577384682
|  9>  N        2.9319660904    -0.9326668568    -0.2498590696
| 10>  C        2.4102635845    -1.3163884811    -2.6454554473
| 11>  C        1.1287568248    -1.1337724894    -3.4759729252
| 12>  C        0.0867334442    -0.5863770491    -2.4830178820
| 13>  O       -1.0651719882    -0.3129282351    -2.7633240045
| 14>  H        0.9490776337     2.0086241652     0.1795983255
| 15>  H       -0.5286498277     2.0018881032    -0.7940542125
| 16>  H       -0.6335322745     1.9242093617     0.9733055282
| 17>  H        0.3953309753    -0.3627231879     0.9477576269
| 18>  H       -1.0559861861    -0.3165617451    -0.0434104611
| 19>  H        2.7442737465    -0.4491114037     0.6130380087
| 20>  H        3.9057607030    -1.0217653020    -0.4880072519
| 21>  H        3.2497203690    -0.7185528587    -3.0233024853
| 22>  H        2.7566327961    -2.3566904969    -2.6207055641
| 23>  H        1.2533768075    -0.4289933958    -4.3029870259
| 24>  H        0.7647868149    -2.0697670830    -3.9089998074
| 25> *
| 26>
| 27>                          ****END OF INPUT****

CARTESIAN COORDINATES (ANGSTROEM)
---------------------------------
  C     -0.059934    1.588691    0.103171
  C     -0.025957    0.051598    0.021964
  C      0.720438   -0.461031   -1.174312
  C      2.017160   -0.859987   -1.257738
  N      2.931966   -0.932667   -0.249859
  C      2.410264   -1.316388   -2.645455
  C      1.128757   -1.133772   -3.475973
  C      0.086733   -0.586377   -2.483018
  O     -1.065172   -0.312928   -2.763324
  H      0.949078    2.008624    0.179598
  H     -0.528650    2.001888   -0.794054
  H     -0.633532    1.924209    0.973306
  H      0.395331   -0.362723    0.947758
  H     -1.055986   -0.316562   -0.043410
  H      2.744274   -0.449111    0.613038
  H      3.905761   -1.021765   -0.488007
  H      3.249720   -0.718553   -3.023302
  H      2.756633   -2.356690   -2.620706
  H      1.253377   -0.428993   -4.302987
  H      0.764787   -2.069767   -3.909000

 Total Charge           Charge          ....    0
 Multiplicity           Mult            ....    1
 Number of Electrons    NEL             ....   68
 Basis Dimension        Dim             ....  345

ORBITAL ENERGIES
----------------

  NO   OCC          E(Eh)            E(eV)
   0   2.0000     -20.508649      -558.0687
   1   2.0000     -15.591846      -424.2757
   2   2.0000     -11.305654      -307.6425
   3   2.0000     -11.301878      -307.5397
   4   2.0000     -11.249185      -306.1059
   5   2.0000     -11.230876      -305.6077
   6   2.0000     -11.223050      -305.3947
   7   2.0000     -11.209580      -305.0282
   8   2.0000     -11.209552      -305.0274
   9   2.0000      -1.353072       -36.8190
  10   2.0000      -1.252393       -34.0793
  11   2.0000      -1.119000       -30.4495
  12   2.0000      -1.046561       -28.4784
  13   2.0000      -0.961204       -26.1557
  14   2.0000      -0.920719       -25.0540
  15   2.0000      -0.843036       -22.9402
  16   2.0000      -0.794248       -21.6126
  17   2.0000      -0.737403       -20.0658
  18   2.0000      -0.681860       -18.5544
  19   2.0000      -0.667999       -18.1772
  20   2.0000      -0.648098       -17.6356
  21   2.0000      -0.621937       -16.9238
  22   2.0000      -0.576585       -15.6897
  23   2.0000      -0.574620       -15.6362
  24   2.0000      -0.556213       -15.1353
  25   2.0000      -0.546810       -14.8795
  26   2.0000      -0.529455       -14.4072
  27   2.0000      -0.520591       -14.1660
  28   2.0000      -0.496369       -13.5069
  29   2.0000      -0.489972       -13.3328
  30   2.0000      -0.480458       -13.0739
  31   2.0000      -0.467283       -12.7154
  32   2.0000      -0.384668       -10.4674
  33   2.0000      -0.318310        -8.6617
  34   0.0000       0.110651         3.0110
  35   0.0000       0.133673         3.6374
  36   0.0000       0.143419         3.9026
  37   0.0000       0.152770         4.1571
  38   0.0000       0.174213         4.7406

MULLIKEN ATOMIC CHARGES
-----------------------
   0 C :   -0.391730
   1 C :   -0.256801
   2 C :   -0.076497
   3 C :    0.164394
   4 N :   -0.502197
   5 C :   -0.213944
   6 C :   -0.208520
   7 C :    0.149200
   8 O :   -0.333633
   9 H :    0.110956
  10 H :    0.151767
  11 H :    0.129190
  12 H :    0.106412
  13 H :    0.140042
  14 H :    0.258601
  15 H :    0.258220
  16 H :    0.123400
  17 H :    0.132766
  18 H :    0.127883
  19 H :    0.130490
Sum of atomic charges:   -0.0000000

LOEWDIN ATOMIC CHARGES
----------------------
   0 C :   -0.309261
   1 C :   -0.252210
   2 C :   -0.155509
   3 C :   -0.213001
   4 N :   -0.018173
   5 C :   -0.210103
   6 C :   -0.206144
   7 C :   -0.319199
   8 O :    0.104735
   9 H :    0.115775
  10 H :    0.128886
  11 H :    0.119202
  12 H :    0.134452
  13 H :    0.153643
  14 H :    0.173204
  15 H :    0.173476
  16 H :    0.141923
  17 H :    0.144806
  18 H :    0.146472
  19 H :    0.147027

  Mayer bond orders larger than 0.1
B(  0-C ,  1-C ) :   0.9099 B(  0-C ,  9-H ) :   0.9369 B(  0-C , 10-H ) :   0.9396
B(  0-C , 11-H ) :   0.9388 B(  1-C ,  2-C ) :   0.9058 B(  1-C , 12-H ) :   0.9474
B(  1-C , 13-H ) :   0.9281 B(  2-C ,  3-C ) :   1.4485 B(  2-C ,  7-C ) :   1.0121
B(  3-C ,  4-N ) :   1.1192 B(  3-C ,  5-C ) :   0.9510 B(  4-N , 14-H ) :   0.8722
B(  4-N , 15-H ) :   0.8713 B(  5-C ,  6-C ) :   0.9523 B(  5-C , 16-H ) :   0.8983
B(  5-C , 17-H ) :   0.9105 B(  6-C ,  7-C ) :   0.9578 B(  6-C , 18-H ) :   0.9115
B(  6-C , 19-H ) :   0.9121 B(  7-C ,  8-O ) :   2.0005

MP2 TOTAL ENERGY:     -402.511626630 Eh
FINAL SINGLE POINT ENERGY      -402.511626630112

DIPOLE MOMENT
-------------
                                X             Y             Z
Electronic contribution:     -1.61191      -2.78781      -3.30946
Nuclear contribution   :      3.58540       2.64932       4.06668
                        -----------------------------------------
Total Dipole Moment    :      1.97349      -0.13849       0.75722
                        -----------------------------------------
Magnitude (a.u.)       :      2.11830
Magnitude (Debye)      :      5.38430

                             ****ORCA TERMINATED NORMALLY****
TOTAL RUN TIME: 0 days 0 hours 19 minutes 32 seconds 836 msec
