                         Program Version 3.0.3 - RELEASE   -
|  1> ! RI-MP2 RIJK def2-TZVP def2-TZVP/C def2-TZVP/JK TIGHTSCF
|  2> % maxcore 2000
|  3> % mp2 density relaxed end
|  4> *xyz 0 1
|  5>  C        0.7035334368     1.6181153211    -0.5681230929
|  6>  O        0.5969199578     0.3480409034    -1.1725157654
|  7>  C        0.6098559422    -0.7057024747    -0.2425651898
|  8>  C        0.5284498731    -2.0621833142    -0.9416833658
|  9>  O        0.2783809909    -3.0549468348    -0.2984215431
| 10>  C        0.7858132241    -2.0785853948    -2.4213017478
| 11>  O        1.0791644162    -3.3447315664    -3.0077083386
| 12>  C       -0.1578131197    -2.7475084518    -3.3606528317
| 13>  C       -1.4195562996    -3.4515458666    -2.9393707971
| 14>  H       -0.1333082993     1.8099212952     0.1204700035
| 15>  H        1.6441589684     1.7208049512    -0.0054767905
| 16>  H        0.6838955995     2.3616372494    -1.3678192921
| 17>  H        1.5349183518    -0.6988169400     0.3614338495
| 18>  H       -0.2316950772    -0.6409383306     0.4648181244
| 19>  H        1.3641748767    -1.2405272549    -2.8009834778
| 20>  H       -0.1718361134    -2.3270296224    -4.3689319630
| 21>  H       -1.3407036958    -3.8124649463    -1.9133558784
| 22>  H       -2.2781700365    -2.7771715625    -3.0261389702
| 23>  H       -1.5989166059    -4.3075472201    -3.5983796633
| 24> *
| 25>
| 26>                          ****END OF INPUT****

CARTESIAN COORDINATES (ANGSTROEM)
---------------------------------
  C      0.703533    1.618115   -0.568123
  O      0.596920    0.348041   -1.172516
  C      0.609856   -0.705702   -0.242565
  C      0.528450   -2.062183   -0.941683
  O      0.278381   -3.054947   -0.298422
  C      0.785813   -2.078585   -2.421302
  O      1.079164   -3.344732   -3.007708
  C     -0.157813   -2.747508   -3.360653
  C     -1.419556   -3.451546   -2.939371
  H     -0.133308    1.809921    0.120470
  H      1.644159    1.720805   -0.005477
  H      0.683896    2.361637   -1.367819
  H      1.534918   -0.698817    0.361434
  H     -0.231695   -0.640938    0.464818
  H      1.364175   -1.240527   -2.800983
  H     -0.171836   -2.327030   -4.368932
  H     -1.340704   -3.812465   -1.913356
  H     -2.278170   -2.777172   -3.026139
  H     -1.598917   -4.307547   -3.598380

 Total Charge           Charge          ....    0
 Multiplicity           Mult            ....    1
 Number of Electrons    NEL             ....   70
 Basis Dimension        Dim             ....  339

ORBITAL ENERGIES
----------------

  NO   OCC          E(Eh)            E(eV)
   0   2.0000     -20.581646      -560.0551
   1   2.0000     -20.575209      -559.8799
   2   2.0000     -20.552816      -559.2706
   3   2.0000     -11.340441      -308.5891
   4   2.0000     -11.301532      -307.5303
   5   2.0000     -11.301308      -307.5242
   6   2.0000     -11.292033      -307.2718
   7   2.0000     -11.290587      -307.2325
   8   2.0000     -11.221358      -305.3487
   9   2.0000      -1.428552       -38.8729
  10   2.0000      -1.405852       -38.2552
  11   2.0000      -1.388978       -37.7960
  12   2.0000      -1.032599       -28.0985
  13   2.0000      -1.012166       -27.5424
  14   2.0000      -0.946843       -25.7649
  15   2.0000      -0.907952       -24.7066
  16   2.0000      -0.838740       -22.8233
  17   2.0000      -0.747216       -20.3328
  18   2.0000      -0.720675       -19.6106
  19   2.0000      -0.691914       -18.8279
  20   2.0000      -0.683261       -18.5925
  21   2.0000      -0.662774       -18.0350
  22   2.0000      -0.639523       -17.4023
  23   2.0000      -0.595153       -16.1949
  24   2.0000      -0.593245       -16.1430
  25   2.0000      -0.581239       -15.8163
  26   2.0000      -0.565287       -15.3822
  27   2.0000      -0.561378       -15.2759
  28   2.0000      -0.521703       -14.1963
  29   2.0000      -0.514397       -13.9975
  30   2.0000      -0.510621       -13.8947
  31   2.0000      -0.462224       -12.5778
  32   2.0000      -0.449534       -12.2325
  33   2.0000      -0.429188       -11.6788
  34   2.0000      -0.415589       -11.3087
  35   0.0000       0.116551         3.1715
  36   0.0000       0.130462         3.5501
  37   0.0000       0.154363         4.2004
  38   0.0000       0.172024         4.6810
  39   0.0000       0.178986         4.8705

MULLIKEN ATOMIC CHARGES
-----------------------
   0 C :   -0.220275
   1 O :   -0.306210
   2 C :   -0.079567
   3 C :    0.195122
   4 O :   -0.289042
   5 C :    0.006919
   6 O :   -0.315333
   7 C :    0.077998
   8 C :   -0.405194
   9 H :    0.118650
  10 H :    0.118359
  11 H :    0.144188
  12 H :    0.120863
  13 H :    0.125688
  14 H :    0.152990
  15 H :    0.115235
  16 H :    0.173164
  17 H :    0.126729
  18 H :    0.139714
Sum of atomic charges:    0.0000000

LOEWDIN ATOMIC CHARGES
----------------------
   0 C :   -0.351651
   1 O :    0.135974
   2 C :   -0.297112
   3 C :   -0.314130
   4 O :    0.167199
   5 C :   -0.245988
   6 O :    0.193921
   7 C :   -0.279422
   8 C :   -0.293039
   9 H :    0.104819
  10 H :    0.104147
  11 H :    0.115569
  12 H :    0.137178
  13 H :    0.136232
  14 H :    0.148398
  15 H :    0.138162
  16 H :    0.137184
  17 H :    0.130405
  18 H :    0.132153

  Mayer bond orders larger than 0.1
B(  0-C ,  1-O ) :   0.9075 B(  0-C ,  9-H ) :   0.9360 B(  0-C , 10-H ) :   0.9370
B(  0-C , 11-H ) :   0.9388 B(  1-O ,  2-C ) :   0.9339 B(  2-C ,  3-C ) :   0.9386
B(  2-C , 12-H ) :   0.9075 B(  2-C , 13-H ) :   0.9152 B(  3-C ,  4-O ) :   1.9626
B(  3-C ,  5-C ) :   0.9043 B(  5-C ,  6-O ) :   0.8890 B(  5-C ,  7-C ) :   0.9290
B(  5-C , 14-H ) :   0.8970 B(  6-O ,  7-C ) :   0.9021 B(  7-C ,  8-C ) :   0.8950
B(  7-C , 15-H ) :   0.9245 B(  8-C , 16-H ) :   0.9312 B(  8-C , 17-H ) :   0.9252
B(  8-C , 18-H ) :   0.9316

MP2 TOTAL ENERGY:     -459.396991014 Eh
FINAL SINGLE POINT ENERGY      -459.396991014148

DIPOLE MOMENT
-------------
                                X             Y             Z
Electronic contribution:      3.27841      -5.08514      -0.31897
Nuclear contribution   :     -3.60596       6.54876       0.27619
                        -----------------------------------------
Total Dipole Moment    :     -0.32755       1.46362      -0.04278
                        -----------------------------------------
Magnitude (a.u.)       :      1.50044
Magnitude (Debye)      :      3.81380

                             ****ORCA TERMINATED NORMALLY****
TOTAL RUN TIME: 0 days 0 hours 15 minutes 2 seconds 32 msec
