                         Program Version 3.0.3 - RELEASE   -
|  1> ! RI-MP2 RIJK def2-TZVP def2-TZVP/C def2-TZVP/JK TIGHTSCF
|  2> % maxcore 2000
|  3> % mp2 density relaxed end
|  4> *xyz 0 1
|  5>  C       -0.1301243875     1.4785304243     0.0322492633
|  6>  C       -0.0110918391    -0.0087247536    -0.0533657329
|  7>  C        0.0544795511    -0.7836171120    -1.1358926778
|  8>  C        0.1350067840    -2.2537142061    -0.8166698791
|  9>  C        0.4300399744    -2.2651680771     0.6993094768
| 10>  C        0.0264055598    -0.8611742176     1.2172225281
| 11>  O        0.9956641168    -0.4398380613     2.1718340648
| 12>  C       -1.3121565669    -0.8614136699     1.8536484525
| 13>  N       -2.3562103411    -0.8199179259     2.3494860497
| 14>  H        0.7129097453     1.9084116956     0.5867464847
| 15>  H       -0.1471841573     1.9341387385    -0.9605009479
| 16>  H       -1.0476802597     1.7731795306     0.5575700743
| 17>  H        0.0280651433    -0.4091789960    -2.1541702018
| 18>  H       -0.8124432932    -2.7571669026    -1.0496738872
| 19>  H        0.9086844607    -2.7714658317    -1.3938062316
| 20>  H       -0.0676092593    -3.0704393205     1.2413269277
| 21>  H        1.5044503054    -2.3470419183     0.8823160111
| 22>  H        0.6721915133     0.3525753936     2.6149913652
| 23> *
| 24>
| 25>                          ****END OF INPUT****

CARTESIAN COORDINATES (ANGSTROEM)
---------------------------------
  C     -0.130124    1.478530    0.032249
  C     -0.011092   -0.008725   -0.053366
  C      0.054480   -0.783617   -1.135893
  C      0.135007   -2.253714   -0.816670
  C      0.430040   -2.265168    0.699309
  C      0.026406   -0.861174    1.217223
  O      0.995664   -0.439838    2.171834
  C     -1.312157   -0.861414    1.853648
  N     -2.356210   -0.819918    2.349486
  H      0.712910    1.908412    0.586746
  H     -0.147184    1.934139   -0.960501
  H     -1.047680    1.773180    0.557570
  H      0.028065   -0.409179   -2.154170
  H     -0.812443   -2.757167   -1.049674
  H      0.908684   -2.771466   -1.393806
  H     -0.067609   -3.070439    1.241327
  H      1.504450   -2.347042    0.882316
  H      0.672192    0.352575    2.614991

 Total Charge           Charge          ....    0
 Multiplicity           Mult            ....    1
 Number of Electrons    NEL             ....   66
 Basis Dimension        Dim             ....  333

ORBITAL ENERGIES
----------------

  NO   OCC          E(Eh)            E(eV)
   0   2.0000     -20.587155      -560.2050
   1   2.0000     -15.576805      -423.8664
   2   2.0000     -11.344387      -308.6965
   3   2.0000     -11.274339      -306.7904
   4   2.0000     -11.252712      -306.2019
   5   2.0000     -11.245864      -306.0155
   6   2.0000     -11.244942      -305.9904
   7   2.0000     -11.243544      -305.9524
   8   2.0000     -11.239502      -305.8424
   9   2.0000      -1.397543       -38.0291
  10   2.0000      -1.222504       -33.2660
  11   2.0000      -1.158587       -31.5267
  12   2.0000      -1.037030       -28.2190
  13   2.0000      -0.994123       -27.0515
  14   2.0000      -0.931248       -25.3406
  15   2.0000      -0.842268       -22.9193
  16   2.0000      -0.765554       -20.8318
  17   2.0000      -0.753879       -20.5141
  18   2.0000      -0.671618       -18.2757
  19   2.0000      -0.644792       -17.5457
  20   2.0000      -0.618635       -16.8339
  21   2.0000      -0.598640       -16.2898
  22   2.0000      -0.585816       -15.9409
  23   2.0000      -0.571102       -15.5405
  24   2.0000      -0.562639       -15.3102
  25   2.0000      -0.537806       -14.6344
  26   2.0000      -0.523704       -14.2507
  27   2.0000      -0.519596       -14.1389
  28   2.0000      -0.507365       -13.8061
  29   2.0000      -0.486291       -13.2326
  30   2.0000      -0.470926       -12.8146
  31   2.0000      -0.447124       -12.1669
  32   2.0000      -0.366635        -9.9766
  33   0.0000       0.119764         3.2589
  34   0.0000       0.132273         3.5993
  35   0.0000       0.139843         3.8053
  36   0.0000       0.160240         4.3603
  37   0.0000       0.175261         4.7691

MULLIKEN ATOMIC CHARGES
-----------------------
   0 C :   -0.490827
   1 C :   -0.011559
   2 C :   -0.174113
   3 C :   -0.195301
   4 C :   -0.278442
   5 C :    0.481342
   6 O :   -0.456232
   7 C :   -0.300841
   8 N :   -0.049737
   9 H :    0.150468
  10 H :    0.146929
  11 H :    0.163044
  12 H :    0.134663
  13 H :    0.130570
  14 H :    0.129243
  15 H :    0.150247
  16 H :    0.140765
  17 H :    0.329780
Sum of atomic charges:   -0.0000000

LOEWDIN ATOMIC CHARGES
----------------------
   0 C :   -0.270841
   1 C :   -0.150813
   2 C :   -0.116041
   3 C :   -0.233278
   4 C :   -0.173300
   5 C :   -0.323914
   6 O :    0.034357
   7 C :   -0.149321
   8 N :    0.068329
   9 H :    0.133358
  10 H :    0.135731
  11 H :    0.138351
  12 H :    0.141694
  13 H :    0.145315
  14 H :    0.140518
  15 H :    0.143649
  16 H :    0.153911
  17 H :    0.182294

  Mayer bond orders larger than 0.1
B(  0-C ,  1-C ) :   0.8679 B(  0-C ,  9-H ) :   0.9421 B(  0-C , 10-H ) :   0.9441
B(  0-C , 11-H ) :   0.9239 B(  1-C ,  2-C ) :   1.7328 B(  1-C ,  5-C ) :   0.8590
B(  2-C ,  3-C ) :   0.9385 B(  2-C , 12-H ) :   0.9162 B(  3-C ,  4-C ) :   0.9678
B(  3-C , 13-H ) :   0.9065 B(  3-C , 14-H ) :   0.9319 B(  4-C ,  5-C ) :   0.8215
B(  4-C , 15-H ) :   0.9291 B(  4-C , 16-H ) :   0.9283 B(  5-C ,  6-O ) :   0.9357
B(  5-C ,  7-C ) :   0.9319 B(  6-O , 17-H ) :   0.8330 B(  7-C ,  8-N ) :   2.8620

MP2 TOTAL ENERGY:     -401.287252678 Eh
FINAL SINGLE POINT ENERGY      -401.287252677635

DIPOLE MOMENT
-------------
                                X             Y             Z
Electronic contribution:     -2.57268      -0.89508       4.89158
Nuclear contribution   :      3.36345       1.16679      -5.80538
                        -----------------------------------------
Total Dipole Moment    :      0.79076       0.27171      -0.91381
                        -----------------------------------------
Magnitude (a.u.)       :      1.23862
Magnitude (Debye)      :      3.14832

                             ****ORCA TERMINATED NORMALLY****
TOTAL RUN TIME: 0 days 0 hours 18 minutes 45 seconds 15 msec
