                         Program Version 3.0.3 - RELEASE   -
|  1> ! RI-MP2 RIJK def2-TZVP def2-TZVP/C def2-TZVP/JK TIGHTSCF
|  2> % maxcore 2000
|  3> % mp2 density relaxed end
|  4> *xyz 0 1
|  5>  C        0.0735790749     1.5214275607    -0.0311041066
|  6>  C        0.0209411193     0.0679281964     0.0201577259
|  7>  C       -0.0156940088    -1.1358346550     0.0720930238
|  8>  C       -0.0429567213    -2.5819986783     0.0851815284
|  9>  N       -0.0928976245    -3.2979949944     1.4689653601
| 10>  C       -1.5796968118    -2.8967901751     1.4776268314
| 11>  C       -1.3948915804    -3.3659929072     0.0138581948
| 12>  C       -2.3890265340    -3.4001699871    -1.1180658346
| 13>  C       -0.5761715771    -4.5099944236     0.6547030031
| 14>  H        0.8058135395     1.8669392316    -0.7691258268
| 15>  H       -0.8985371582     1.9483211825    -0.3016323646
| 16>  H        0.3602921295     1.9393082412     0.9402935193
| 17>  H        0.7641769221    -2.9875945057    -0.5348118253
| 18>  H       -2.1876914715    -3.5212724073     2.1381263520
| 19>  H       -1.7449090919    -1.8342061945     1.6639573782
| 20>  H       -2.7458517501    -2.3909756618    -1.3495136988
| 21>  H       -1.9388017187    -3.8155512459    -2.0262586362
| 22>  H       -3.2573827100    -4.0162129038    -0.8604628872
| 23>  H        0.2113695309    -4.9828910265     0.0597126253
| 24>  H       -1.1136153678    -5.2445660964     1.2597727079
| 25> *
| 26>
| 27>                          ****END OF INPUT****

CARTESIAN COORDINATES (ANGSTROEM)
---------------------------------
  C      0.073579    1.521428   -0.031104
  C      0.020941    0.067928    0.020158
  C     -0.015694   -1.135835    0.072093
  C     -0.042957   -2.581999    0.085182
  N     -0.092898   -3.297995    1.468965
  C     -1.579697   -2.896790    1.477627
  C     -1.394892   -3.365993    0.013858
  C     -2.389027   -3.400170   -1.118066
  C     -0.576172   -4.509994    0.654703
  H      0.805814    1.866939   -0.769126
  H     -0.898537    1.948321   -0.301632
  H      0.360292    1.939308    0.940294
  H      0.764177   -2.987595   -0.534812
  H     -2.187691   -3.521272    2.138126
  H     -1.744909   -1.834206    1.663957
  H     -2.745852   -2.390976   -1.349514
  H     -1.938802   -3.815551   -2.026259
  H     -3.257383   -4.016213   -0.860463
  H      0.211370   -4.982891    0.059713
  H     -1.113615   -5.244566    1.259773

 Total Charge           Charge          ....    0
 Multiplicity           Mult            ....    1
 Number of Electrons    NEL             ....   66
 Basis Dimension        Dim             ....  345

ORBITAL ENERGIES
----------------

  NO   OCC          E(Eh)            E(eV)
   0   2.0000     -15.569344      -423.6634
   1   2.0000     -11.279728      -306.9370
   2   2.0000     -11.257294      -306.3266
   3   2.0000     -11.256699      -306.3103
   4   2.0000     -11.253126      -306.2131
   5   2.0000     -11.247724      -306.0661
   6   2.0000     -11.227163      -305.5066
   7   2.0000     -11.221945      -305.3647
   8   2.0000     -11.216463      -305.2155
   9   2.0000      -1.292913       -35.1820
  10   2.0000      -1.061762       -28.8920
  11   2.0000      -1.011119       -27.5140
  12   2.0000      -0.986913       -26.8553
  13   2.0000      -0.921639       -25.0791
  14   2.0000      -0.907366       -24.6907
  15   2.0000      -0.866928       -23.5903
  16   2.0000      -0.764286       -20.7973
  17   2.0000      -0.670365       -18.2415
  18   2.0000      -0.643234       -17.5033
  19   2.0000      -0.625470       -17.0199
  20   2.0000      -0.600436       -16.3387
  21   2.0000      -0.589136       -16.0312
  22   2.0000      -0.586805       -15.9678
  23   2.0000      -0.578342       -15.7375
  24   2.0000      -0.577991       -15.7279
  25   2.0000      -0.525152       -14.2901
  26   2.0000      -0.494544       -13.4572
  27   2.0000      -0.482772       -13.1369
  28   2.0000      -0.465130       -12.6568
  29   2.0000      -0.453013       -12.3271
  30   2.0000      -0.384787       -10.4706
  31   2.0000      -0.369035       -10.0420
  32   2.0000      -0.353737        -9.6257
  33   0.0000       0.129618         3.5271
  34   0.0000       0.142152         3.8682
  35   0.0000       0.160960         4.3799
  36   0.0000       0.175244         4.7686
  37   0.0000       0.181608         4.9418

MULLIKEN ATOMIC CHARGES
-----------------------
   0 C :   -0.482775
   1 C :    0.071594
   2 C :   -0.025669
   3 C :   -0.189453
   4 N :   -0.186283
   5 C :   -0.174667
   6 C :    0.013535
   7 C :   -0.370939
   8 C :   -0.132740
   9 H :    0.164139
  10 H :    0.161677
  11 H :    0.166921
  12 H :    0.114530
  13 H :    0.111942
  14 H :    0.129717
  15 H :    0.140525
  16 H :    0.131477
  17 H :    0.133499
  18 H :    0.106469
  19 H :    0.116501
Sum of atomic charges:    0.0000000

LOEWDIN ATOMIC CHARGES
----------------------
   0 C :   -0.293706
   1 C :   -0.089813
   2 C :   -0.068477
   3 C :   -0.197143
   4 N :    0.111415
   5 C :   -0.202242
   6 C :   -0.242741
   7 C :   -0.281973
   8 C :   -0.211718
   9 H :    0.141919
  10 H :    0.140677
  11 H :    0.143162
  12 H :    0.157323
  13 H :    0.123619
  14 H :    0.130410
  15 H :    0.132294
  16 H :    0.129336
  17 H :    0.129314
  18 H :    0.123400
  19 H :    0.124943

  Mayer bond orders larger than 0.1
B(  0-C ,  1-C ) :   0.8479 B(  0-C ,  9-H ) :   0.9501 B(  0-C , 10-H ) :   0.9454
B(  0-C , 11-H ) :   0.9451 B(  1-C ,  2-C ) :   2.6510 B(  1-C ,  3-C ) :  -0.1554
B(  2-C ,  3-C ) :   1.1745 B(  3-C ,  4-N ) :   0.9732 B(  3-C ,  6-C ) :   0.9016
B(  3-C , 12-H ) :   0.9019 B(  4-N ,  5-C ) :   0.9375 B(  4-N ,  8-C ) :   0.9243
B(  5-C ,  6-C ) :   0.9460 B(  5-C , 13-H ) :   0.9229 B(  5-C , 14-H ) :   0.9209
B(  6-C ,  7-C ) :   0.8412 B(  6-C ,  8-C ) :   0.9225 B(  7-C , 15-H ) :   0.9368
B(  7-C , 16-H ) :   0.9348 B(  7-C , 17-H ) :   0.9349 B(  8-C , 18-H ) :   0.9163
B(  8-C , 19-H ) :   0.9258

MP2 TOTAL ENERGY:     -365.246533572 Eh
FINAL SINGLE POINT ENERGY      -365.246533572193

DIPOLE MOMENT
-------------
                                X             Y             Z
Electronic contribution:      3.27752      -0.74715       2.14650
Nuclear contribution   :     -3.85781       0.96518      -2.75946
                        -----------------------------------------
Total Dipole Moment    :     -0.58029       0.21803      -0.61297
                        -----------------------------------------
Magnitude (a.u.)       :      0.87178
Magnitude (Debye)      :      2.21589

                             ****ORCA TERMINATED NORMALLY****
TOTAL RUN TIME: 0 days 0 hours 21 minutes 13 seconds 612 msec
