                         Program Version 3.0.3 - RELEASE   -
|  1> ! RI-MP2 RIJK def2-TZVP def2-TZVP/C def2-TZVP/JK TIGHTSCF
|  2> % maxcore 2000
|  3> % mp2 density relaxed end
|  4> *xyz 0 1
|  5>  C        0.1314730528     1.4668853630     0.0044051916
|  6>  C       -0.0381102635    -0.0158303638    -0.0327338544
|  7>  C       -1.1860996450    -0.7038263682    -0.1045054066
|  8>  C       -1.2150517819    -2.1768452901    -0.1273880057
|  9>  O       -2.2589484732    -2.8161444345    -0.1837604734
| 10>  C        0.1082740290    -2.7749403355    -0.0699620155
| 11>  C        1.2208409630    -2.0047325790    -0.0110551170
| 12>  N        2.5253568137    -2.4394469146    -0.0256927630
| 13>  O        1.1785186999    -0.6503593124     0.0158634669
| 14>  H        0.7370658972     1.8090615971    -0.8419243574
| 15>  H       -0.8405575104     1.9600138055    -0.0353105300
| 16>  H        0.6472876526     1.7760722079     0.9202236886
| 17>  H       -2.1310046027    -0.1761720310    -0.1424475942
| 18>  H        0.1952092021    -3.8543387866    -0.0812082047
| 19>  H        2.6606846644    -3.4036320912     0.2351078323
| 20>  H        3.1899693120    -1.8046160166     0.3917143328
| 21> *
| 22>
| 23>                          ****END OF INPUT****

CARTESIAN COORDINATES (ANGSTROEM)
---------------------------------
  C      0.131473    1.466885    0.004405
  C     -0.038110   -0.015830   -0.032734
  C     -1.186100   -0.703826   -0.104505
  C     -1.215052   -2.176845   -0.127388
  O     -2.258948   -2.816144   -0.183760
  C      0.108274   -2.774940   -0.069962
  C      1.220841   -2.004733   -0.011055
  N      2.525357   -2.439447   -0.025693
  O      1.178519   -0.650359    0.015863
  H      0.737066    1.809062   -0.841924
  H     -0.840558    1.960014   -0.035311
  H      0.647288    1.776072    0.920224
  H     -2.131005   -0.176172   -0.142448
  H      0.195209   -3.854339   -0.081208
  H      2.660685   -3.403632    0.235108
  H      3.189969   -1.804616    0.391714

 Total Charge           Charge          ....    0
 Multiplicity           Mult            ....    1
 Number of Electrons    NEL             ....   66
 Basis Dimension        Dim             ....  321

ORBITAL ENERGIES
----------------

  NO   OCC          E(Eh)            E(eV)
   0   2.0000     -20.644373      -561.7619
   1   2.0000     -20.503702      -557.9341
   2   2.0000     -15.599172      -424.4751
   3   2.0000     -11.374481      -309.5154
   4   2.0000     -11.334002      -308.4139
   5   2.0000     -11.314916      -307.8945
   6   2.0000     -11.251341      -306.1645
   7   2.0000     -11.231323      -305.6198
   8   2.0000     -11.217582      -305.2459
   9   2.0000      -1.485934       -40.4343
  10   2.0000      -1.347106       -36.6566
  11   2.0000      -1.249974       -34.0135
  12   2.0000      -1.097746       -29.8712
  13   2.0000      -1.065055       -28.9816
  14   2.0000      -0.974463       -26.5165
  15   2.0000      -0.887873       -24.1603
  16   2.0000      -0.832309       -22.6483
  17   2.0000      -0.741178       -20.1685
  18   2.0000      -0.728567       -19.8253
  19   2.0000      -0.693733       -18.8774
  20   2.0000      -0.680695       -18.5226
  21   2.0000      -0.669486       -18.2176
  22   2.0000      -0.614506       -16.7216
  23   2.0000      -0.600741       -16.3470
  24   2.0000      -0.589051       -16.0289
  25   2.0000      -0.574934       -15.6448
  26   2.0000      -0.558296       -15.1920
  27   2.0000      -0.543033       -14.7767
  28   2.0000      -0.524909       -14.2835
  29   2.0000      -0.506560       -13.7842
  30   2.0000      -0.401217       -10.9177
  31   2.0000      -0.365258        -9.9392
  32   2.0000      -0.338572        -9.2130
  33   0.0000       0.114228         3.1083
  34   0.0000       0.119511         3.2521
  35   0.0000       0.138265         3.7624
  36   0.0000       0.152302         4.1444
  37   0.0000       0.167269         4.5516

MULLIKEN ATOMIC CHARGES
-----------------------
   0 C :   -0.426248
   1 C :    0.276694
   2 C :   -0.311138
   3 C :    0.278012
   4 O :   -0.357978
   5 C :   -0.355972
   6 C :    0.385174
   7 N :   -0.500607
   8 O :   -0.244780
   9 H :    0.153276
  10 H :    0.153279
  11 H :    0.149893
  12 H :    0.139685
  13 H :    0.132224
  14 H :    0.263878
  15 H :    0.264605
Sum of atomic charges:    0.0000000

LOEWDIN ATOMIC CHARGES
----------------------
   0 C :   -0.260298
   1 C :   -0.247920
   2 C :   -0.114308
   3 C :   -0.371548
   4 O :    0.087157
   5 C :   -0.153241
   6 C :   -0.334867
   7 N :   -0.040046
   8 O :    0.351479
   9 H :    0.137861
  10 H :    0.139066
  11 H :    0.136885
  12 H :    0.159408
  13 H :    0.154781
  14 H :    0.178730
  15 H :    0.176861

  Mayer bond orders larger than 0.1
B(  0-C ,  1-C ) :   0.8823 B(  0-C ,  9-H ) :   0.9250 B(  0-C , 10-H ) :   0.9507
B(  0-C , 11-H ) :   0.9258 B(  1-C ,  2-C ) :   1.5755 B(  1-C ,  8-O ) :   0.9788
B(  2-C ,  3-C ) :   1.0205 B(  2-C , 12-H ) :   0.9158 B(  3-C ,  4-O ) :   1.8840
B(  3-C ,  5-C ) :   1.1213 B(  5-C ,  6-C ) :   1.4586 B(  5-C , 13-H ) :   0.9004
B(  6-C ,  7-N ) :   1.1015 B(  6-C ,  8-O ) :   1.0570 B(  7-N , 14-H ) :   0.8721
B(  7-N , 15-H ) :   0.8609

MP2 TOTAL ENERGY:     -437.212062448 Eh
FINAL SINGLE POINT ENERGY      -437.212062448485

DIPOLE MOMENT
-------------
                                X             Y             Z
Electronic contribution:     -1.67028      -4.40146      -0.29583
Nuclear contribution   :      3.60968       5.33101       0.76921
                        -----------------------------------------
Total Dipole Moment    :      1.93940       0.92955       0.47337
                        -----------------------------------------
Magnitude (a.u.)       :      2.20214
Magnitude (Debye)      :      5.59740

                             ****ORCA TERMINATED NORMALLY****
TOTAL RUN TIME: 0 days 0 hours 14 minutes 5 seconds 428 msec
