                         Program Version 3.0.3 - RELEASE   -
|  1> ! RI-MP2 RIJK def2-TZVP def2-TZVP/C def2-TZVP/JK TIGHTSCF
|  2> % maxcore 2000
|  3> % mp2 density relaxed end
|  4> *xyz 0 1
|  5>  C       -0.1389033514     1.5200367937    -0.0449689212
|  6>  C        0.0585351371     0.0431897226     0.0104610045
|  7>  C        0.3842796703    -0.9808717248    -1.0120421508
|  8>  C        1.4638315331    -1.6039382564    -0.1274715654
|  9>  C        0.6907550560    -0.9721132098     1.0554118076
| 10>  C       -0.6998044939    -1.6633913404     1.0198010851
| 11>  C       -0.8041281162    -3.1844509745     0.9961982835
| 12>  C       -1.6605163901    -1.0830645327     2.0557835745
| 13>  N       -0.9587580474    -0.9935504646    -0.3104959923
| 14>  H        0.8214290488     2.0470128292    -0.0764030641
| 15>  H       -0.7039383103     1.7844744160    -0.9444171738
| 16>  H       -0.6958548857     1.8906912097     0.8226250857
| 17>  H        0.3497706487    -0.9022081957    -2.0912248850
| 18>  H        1.6283712555    -2.6851647013    -0.1312271612
| 19>  H        2.4174603697    -1.0942235960    -0.2923187617
| 20>  H        1.1919454294    -0.7399640727     1.9950570045
| 21>  H       -0.4433546912    -3.6131301865     1.9380824518
| 22>  H       -1.8503655772    -3.4828646247     0.8707452683
| 23>  H       -0.2369169906    -3.6304952579     0.1774653267
| 24>  H       -1.5772174117     0.0051352321     2.1214634033
| 25>  H       -2.6953687137    -1.3267907574     1.7957425446
| 26>  H       -1.4492623692    -1.4987698478     3.0469600853
| 27> *
| 28>
| 29>                          ****END OF INPUT****

CARTESIAN COORDINATES (ANGSTROEM)
---------------------------------
  C     -0.138903    1.520037   -0.044969
  C      0.058535    0.043190    0.010461
  C      0.384280   -0.980872   -1.012042
  C      1.463832   -1.603938   -0.127472
  C      0.690755   -0.972113    1.055412
  C     -0.699804   -1.663391    1.019801
  C     -0.804128   -3.184451    0.996198
  C     -1.660516   -1.083065    2.055784
  N     -0.958758   -0.993550   -0.310496
  H      0.821429    2.047013   -0.076403
  H     -0.703938    1.784474   -0.944417
  H     -0.695855    1.890691    0.822625
  H      0.349771   -0.902208   -2.091225
  H      1.628371   -2.685165   -0.131227
  H      2.417460   -1.094224   -0.292319
  H      1.191945   -0.739964    1.995057
  H     -0.443355   -3.613130    1.938082
  H     -1.850366   -3.482865    0.870745
  H     -0.236917   -3.630495    0.177465
  H     -1.577217    0.005135    2.121463
  H     -2.695369   -1.326791    1.795743
  H     -1.449262   -1.498770    3.046960

 Total Charge           Charge          ....    0
 Multiplicity           Mult            ....    1
 Number of Electrons    NEL             ....   68
 Basis Dimension        Dim             ....  357

ORBITAL ENERGIES
----------------

  NO   OCC          E(Eh)            E(eV)
   0   2.0000     -15.550023      -423.1376
   1   2.0000     -11.260719      -306.4197
   2   2.0000     -11.260241      -306.4067
   3   2.0000     -11.251448      -306.1675
   4   2.0000     -11.236146      -305.7511
   5   2.0000     -11.228207      -305.5350
   6   2.0000     -11.224182      -305.4255
   7   2.0000     -11.209520      -305.0266
   8   2.0000     -11.207989      -304.9849
   9   2.0000      -1.308066       -35.5943
  10   2.0000      -1.058311       -28.7981
  11   2.0000      -1.023514       -27.8512
  12   2.0000      -0.988663       -26.9029
  13   2.0000      -0.933956       -25.4142
  14   2.0000      -0.896627       -24.3985
  15   2.0000      -0.815901       -22.2018
  16   2.0000      -0.736451       -20.0399
  17   2.0000      -0.696168       -18.9437
  18   2.0000      -0.667118       -18.1532
  19   2.0000      -0.630981       -17.1699
  20   2.0000      -0.620206       -16.8767
  21   2.0000      -0.587931       -15.9984
  22   2.0000      -0.565816       -15.3966
  23   2.0000      -0.562744       -15.3130
  24   2.0000      -0.542431       -14.7603
  25   2.0000      -0.533704       -14.5228
  26   2.0000      -0.520873       -14.1737
  27   2.0000      -0.512047       -13.9335
  28   2.0000      -0.490248       -13.3403
  29   2.0000      -0.466707       -12.6997
  30   2.0000      -0.429564       -11.6890
  31   2.0000      -0.417270       -11.3545
  32   2.0000      -0.396867       -10.7993
  33   2.0000      -0.357891        -9.7387
  34   0.0000       0.137698         3.7470
  35   0.0000       0.153740         4.1835
  36   0.0000       0.164393         4.4734
  37   0.0000       0.181950         4.9511
  38   0.0000       0.191562         5.2127

MULLIKEN ATOMIC CHARGES
-----------------------
   0 C :   -0.415937
   1 C :    0.067649
   2 C :   -0.107545
   3 C :   -0.243942
   4 C :   -0.061074
   5 C :    0.183687
   6 C :   -0.421535
   7 C :   -0.430877
   8 N :   -0.266612
   9 H :    0.135813
  10 H :    0.146796
  11 H :    0.131436
  12 H :    0.125486
  13 H :    0.115647
  14 H :    0.121148
  15 H :    0.128430
  16 H :    0.128498
  17 H :    0.136823
  18 H :    0.134596
  19 H :    0.126373
  20 H :    0.138949
  21 H :    0.126190
Sum of atomic charges:   -0.0000000

LOEWDIN ATOMIC CHARGES
----------------------
   0 C :   -0.276962
   1 C :   -0.219581
   2 C :   -0.189477
   3 C :   -0.210938
   4 C :   -0.126112
   5 C :   -0.316325
   6 C :   -0.269665
   7 C :   -0.262048
   8 N :    0.174530
   9 H :    0.130581
  10 H :    0.137854
  11 H :    0.127206
  12 H :    0.133709
  13 H :    0.121661
  14 H :    0.143440
  15 H :    0.133149
  16 H :    0.128453
  17 H :    0.131315
  18 H :    0.125492
  19 H :    0.127352
  20 H :    0.129397
  21 H :    0.126970

  Mayer bond orders larger than 0.1
B(  0-C ,  1-C ) :   0.7805 B(  0-C ,  9-H ) :   0.9468 B(  0-C , 10-H ) :   0.9529
B(  0-C , 11-H ) :   0.9385 B(  1-C ,  2-C ) :   0.8294 B(  1-C ,  4-C ) :   0.8903
B(  1-C ,  8-N ) :   0.8185 B(  2-C ,  3-C ) :   0.9143 B(  2-C ,  8-N ) :   0.8874
B(  2-C , 12-H ) :   0.9413 B(  3-C ,  4-C ) :   0.9150 B(  3-C , 13-H ) :   0.9261
B(  3-C , 14-H ) :   0.9140 B(  4-C ,  5-C ) :   0.9212 B(  4-C , 15-H ) :   0.9089
B(  5-C ,  6-C ) :   0.8989 B(  5-C ,  7-C ) :   0.9051 B(  5-C ,  8-N ) :   0.8577
B(  6-C , 16-H ) :   0.9329 B(  6-C , 17-H ) :   0.9380 B(  6-C , 18-H ) :   0.9354
B(  7-C , 19-H ) :   0.9306 B(  7-C , 20-H ) :   0.9407 B(  7-C , 21-H ) :   0.9387

MP2 TOTAL ENERGY:     -366.505282664 Eh
FINAL SINGLE POINT ENERGY      -366.505282663524

DIPOLE MOMENT
-------------
                                X             Y             Z
Electronic contribution:      1.12658       0.44192      -3.13618
Nuclear contribution   :     -0.55443      -0.30508       3.46643
                        -----------------------------------------
Total Dipole Moment    :      0.57215       0.13684       0.33025
                        -----------------------------------------
Magnitude (a.u.)       :      0.67465
Magnitude (Debye)      :      1.71482

                             ****ORCA TERMINATED NORMALLY****
TOTAL RUN TIME: 0 days 0 hours 23 minutes 10 seconds 368 msec
