                         Program Version 3.0.3 - RELEASE   -
|  1> ! RI-MP2 RIJK def2-TZVP def2-TZVP/C def2-TZVP/JK TIGHTSCF
|  2> % maxcore 2000
|  3> % mp2 density relaxed end
|  4> *xyz 0 1
|  5>  C        0.0632550104     1.4229488625     0.0904477675
|  6>  C       -0.0353098164    -0.0850130548     0.0909112428
|  7>  C       -0.6398401928    -0.7554680147    -1.1459617564
|  8>  C       -1.3533645095    -2.0290506317    -0.6302336978
|  9>  C       -1.3915591767    -1.8647099896     0.9132189051
| 10>  N       -0.5041072244    -0.7511557768     1.3011703836
| 11>  C        0.9344524555    -0.8707469618     0.9474127117
| 12>  C        1.6193008545    -2.1081614489     0.4963262711
| 13>  O        2.7819954212    -2.3266411719     0.7477423948
| 14>  H        0.7557258436     1.7667575044    -0.6853544690
| 15>  H       -0.9170130975     1.8697514692    -0.1105798273
| 16>  H        0.4151747476     1.7920712661     1.0563297982
| 17>  H       -1.3571284851    -0.0590523147    -1.5925127422
| 18>  H        0.1060685707    -0.9732604015    -1.9156199461
| 19>  H       -2.3613259010    -2.1179485057    -1.0431028551
| 20>  H       -0.8177425569    -2.9347536440    -0.9246055342
| 21>  H       -2.3952329485    -1.5832657576     1.2470830554
| 22>  H       -1.1182158687    -2.7782676764     1.4491209470
| 23>  H        1.5754150334    -0.2932834766     1.6096639068
| 24>  H        1.0273614805    -2.8366903656    -0.0921725857
| 25> *
| 26>
| 27>                          ****END OF INPUT****

CARTESIAN COORDINATES (ANGSTROEM)
---------------------------------
  C      0.063255    1.422949    0.090448
  C     -0.035310   -0.085013    0.090911
  C     -0.639840   -0.755468   -1.145962
  C     -1.353365   -2.029051   -0.630234
  C     -1.391559   -1.864710    0.913219
  N     -0.504107   -0.751156    1.301170
  C      0.934452   -0.870747    0.947413
  C      1.619301   -2.108161    0.496326
  O      2.781995   -2.326641    0.747742
  H      0.755726    1.766758   -0.685354
  H     -0.917013    1.869751   -0.110580
  H      0.415175    1.792071    1.056330
  H     -1.357128   -0.059052   -1.592513
  H      0.106069   -0.973260   -1.915620
  H     -2.361326   -2.117949   -1.043103
  H     -0.817743   -2.934754   -0.924606
  H     -2.395233   -1.583266    1.247083
  H     -1.118216   -2.778268    1.449121
  H      1.575415   -0.293283    1.609664
  H      1.027361   -2.836690   -0.092173

 Total Charge           Charge          ....    0
 Multiplicity           Mult            ....    1
 Number of Electrons    NEL             ....   68
 Basis Dimension        Dim             ....  345

ORBITAL ENERGIES
----------------

  NO   OCC          E(Eh)            E(eV)
   0   2.0000     -20.555924      -559.3551
   1   2.0000     -15.574715      -423.8095
   2   2.0000     -11.333558      -308.4018
   3   2.0000     -11.283937      -307.0515
   4   2.0000     -11.267523      -306.6049
   5   2.0000     -11.264425      -306.5206
   6   2.0000     -11.243560      -305.9528
   7   2.0000     -11.239844      -305.8517
   8   2.0000     -11.228564      -305.5448
   9   2.0000      -1.393557       -37.9206
  10   2.0000      -1.297894       -35.3175
  11   2.0000      -1.065689       -28.9989
  12   2.0000      -1.037737       -28.2383
  13   2.0000      -0.969043       -26.3690
  14   2.0000      -0.919827       -25.0298
  15   2.0000      -0.840863       -22.8811
  16   2.0000      -0.778396       -21.1812
  17   2.0000      -0.755805       -20.5665
  18   2.0000      -0.687566       -18.7096
  19   2.0000      -0.677805       -18.4440
  20   2.0000      -0.632682       -17.2162
  21   2.0000      -0.613868       -16.7042
  22   2.0000      -0.603518       -16.4226
  23   2.0000      -0.590877       -16.0786
  24   2.0000      -0.582138       -15.8408
  25   2.0000      -0.557795       -15.1784
  26   2.0000      -0.537126       -14.6159
  27   2.0000      -0.511152       -13.9092
  28   2.0000      -0.501422       -13.6444
  29   2.0000      -0.489255       -13.3133
  30   2.0000      -0.469574       -12.7778
  31   2.0000      -0.454447       -12.3661
  32   2.0000      -0.417540       -11.3618
  33   2.0000      -0.374709       -10.1963
  34   0.0000       0.114694         3.1210
  35   0.0000       0.128161         3.4874
  36   0.0000       0.143714         3.9107
  37   0.0000       0.159824         4.3490
  38   0.0000       0.176150         4.7933

MULLIKEN ATOMIC CHARGES
-----------------------
   0 C :   -0.414918
   1 C :    0.201118
   2 C :   -0.256647
   3 C :   -0.271749
   4 C :   -0.167828
   5 N :   -0.213237
   6 C :   -0.104819
   7 C :    0.071819
   8 O :   -0.265947
   9 H :    0.135582
  10 H :    0.129394
  11 H :    0.146701
  12 H :    0.128904
  13 H :    0.138124
  14 H :    0.127817
  15 H :    0.131513
  16 H :    0.133082
  17 H :    0.132899
  18 H :    0.128816
  19 H :    0.089376
Sum of atomic charges:    0.0000000

LOEWDIN ATOMIC CHARGES
----------------------
   0 C :   -0.261603
   1 C :   -0.274661
   2 C :   -0.214513
   3 C :   -0.260404
   4 C :   -0.268881
   5 N :    0.156467
   6 C :   -0.208260
   7 C :   -0.289330
   8 O :    0.130708
   9 H :    0.131152
  10 H :    0.129021
  11 H :    0.133793
  12 H :    0.145249
  13 H :    0.143571
  14 H :    0.136013
  15 H :    0.129052
  16 H :    0.135232
  17 H :    0.132389
  18 H :    0.156091
  19 H :    0.118915

  Mayer bond orders larger than 0.1
B(  0-C ,  1-C ) :   0.8743 B(  0-C ,  9-H ) :   0.9353 B(  0-C , 10-H ) :   0.9331
B(  0-C , 11-H ) :   0.9391 B(  1-C ,  2-C ) :   0.9132 B(  1-C ,  5-N ) :   0.8270
B(  1-C ,  6-C ) :   0.8376 B(  2-C ,  3-C ) :   0.9279 B(  2-C , 12-H ) :   0.9246
B(  2-C , 13-H ) :   0.9240 B(  3-C ,  4-C ) :   0.9187 B(  3-C , 14-H ) :   0.9276
B(  3-C , 15-H ) :   0.9374 B(  4-C ,  5-N ) :   0.9053 B(  4-C , 16-H ) :   0.9318
B(  4-C , 17-H ) :   0.9394 B(  5-N ,  6-C ) :   0.8982 B(  6-C ,  7-C ) :   0.8955
B(  6-C , 18-H ) :   0.9096 B(  7-C ,  8-O ) :   1.9676 B(  7-C , 19-H ) :   0.9468

MP2 TOTAL ENERGY:     -402.451430489 Eh
FINAL SINGLE POINT ENERGY      -402.451430488707

DIPOLE MOMENT
-------------
                                X             Y             Z
Electronic contribution:      5.47465      -2.94774       3.33770
Nuclear contribution   :     -6.60720       3.18115      -4.08822
                        -----------------------------------------
Total Dipole Moment    :     -1.13255       0.23341      -0.75051
                        -----------------------------------------
Magnitude (a.u.)       :      1.37855
Magnitude (Debye)      :      3.50400

                             ****ORCA TERMINATED NORMALLY****
TOTAL RUN TIME: 0 days 0 hours 19 minutes 37 seconds 225 msec
