                         Program Version 3.0.3 - RELEASE   -
|  1> ! RI-MP2 RIJK def2-TZVP def2-TZVP/C def2-TZVP/JK TIGHTSCF
|  2> % maxcore 2000
|  3> % mp2 density relaxed end
|  4> *xyz 0 1
|  5>  C        0.0968163809     1.2673977501    -0.1821283056
|  6>  O        0.0301778252    -0.1353701883    -0.2278337511
|  7>  C       -1.2690735317    -0.6324332178     0.0127759668
|  8>  C       -1.2279846637    -2.1536542999    -0.0487026393
|  9>  C       -2.6090938559    -2.7767534698     0.1592551701
| 10>  C       -3.5283578103    -2.7607546605    -1.1031525013
| 11>  C       -3.1136290318    -4.2292920904    -1.3941332277
| 12>  C       -2.6291455607    -4.3280804989     0.0770613841
| 13>  O       -1.3964844558    -4.9463199893     0.3617457645
| 14>  H        1.1325464056     1.5548214861    -0.3805995415
| 15>  H       -0.5521871484     1.7351909120    -0.9406359847
| 16>  H       -0.1971546511     1.6611964284     0.8045811139
| 17>  H       -1.6292344399    -0.2992551408     1.0027912905
| 18>  H       -1.9751147759    -0.2273844172    -0.7337897497
| 19>  H       -0.8069788620    -2.4551347939    -1.0144703209
| 20>  H       -0.5377508555    -2.5226467800     0.7161788142
| 21>  H       -3.0576085511    -2.3682635337     1.0713201069
| 22>  H       -4.5871323565    -2.6680121749    -0.8481188435
| 23>  H       -3.2929185035    -2.0209236989    -1.8719389274
| 24>  H       -3.8853989097    -4.9272601371    -1.7287437528
| 25>  H       -2.2631560194    -4.2835251897    -2.0790810164
| 26>  H       -3.4274434280    -4.7304458077     0.7184218641
| 27>  H       -1.4988221808    -5.8961673780     0.2467187669
| 28> *
| 29>
| 30>                          ****END OF INPUT****

CARTESIAN COORDINATES (ANGSTROEM)
---------------------------------
  C      0.096816    1.267398   -0.182128
  O      0.030178   -0.135370   -0.227834
  C     -1.269074   -0.632433    0.012776
  C     -1.227985   -2.153654   -0.048703
  C     -2.609094   -2.776753    0.159255
  C     -3.528358   -2.760755   -1.103153
  C     -3.113629   -4.229292   -1.394133
  C     -2.629146   -4.328080    0.077061
  O     -1.396484   -4.946320    0.361746
  H      1.132546    1.554821   -0.380600
  H     -0.552187    1.735191   -0.940636
  H     -0.197155    1.661196    0.804581
  H     -1.629234   -0.299255    1.002791
  H     -1.975115   -0.227384   -0.733790
  H     -0.806979   -2.455135   -1.014470
  H     -0.537751   -2.522647    0.716179
  H     -3.057609   -2.368264    1.071320
  H     -4.587132   -2.668012   -0.848119
  H     -3.292919   -2.020924   -1.871939
  H     -3.885399   -4.927260   -1.728744
  H     -2.263156   -4.283525   -2.079081
  H     -3.427443   -4.730446    0.718422
  H     -1.498822   -5.896167    0.246719

 Total Charge           Charge          ....    0
 Multiplicity           Mult            ....    1
 Number of Electrons    NEL             ....   72
 Basis Dimension        Dim             ....  363

ORBITAL ENERGIES
----------------

  NO   OCC          E(Eh)            E(eV)
   0   2.0000     -20.554297      -559.3109
   1   2.0000     -20.547656      -559.1302
   2   2.0000     -11.276602      -306.8519
   3   2.0000     -11.266324      -306.5723
   4   2.0000     -11.264984      -306.5358
   5   2.0000     -11.224316      -305.4292
   6   2.0000     -11.221464      -305.3515
   7   2.0000     -11.218597      -305.2735
   8   2.0000     -11.208772      -305.0062
   9   2.0000      -1.369098       -37.2551
  10   2.0000      -1.362047       -37.0632
  11   2.0000      -1.127434       -30.6790
  12   2.0000      -1.023685       -27.8559
  13   2.0000      -0.929430       -25.2911
  14   2.0000      -0.885060       -24.0837
  15   2.0000      -0.869367       -23.6567
  16   2.0000      -0.819158       -22.2904
  17   2.0000      -0.735573       -20.0160
  18   2.0000      -0.699718       -19.0403
  19   2.0000      -0.672139       -18.2898
  20   2.0000      -0.658823       -17.9275
  21   2.0000      -0.639815       -17.4103
  22   2.0000      -0.616997       -16.7894
  23   2.0000      -0.609671       -16.5900
  24   2.0000      -0.578116       -15.7313
  25   2.0000      -0.568991       -15.4830
  26   2.0000      -0.525637       -14.3033
  27   2.0000      -0.513419       -13.9708
  28   2.0000      -0.508062       -13.8251
  29   2.0000      -0.499757       -13.5991
  30   2.0000      -0.474362       -12.9080
  31   2.0000      -0.461122       -12.5478
  32   2.0000      -0.448565       -12.2061
  33   2.0000      -0.427804       -11.6411
  34   2.0000      -0.415805       -11.3146
  35   2.0000      -0.409323       -11.1383
  36   0.0000       0.135284         3.6813
  37   0.0000       0.143937         3.9167
  38   0.0000       0.159172         4.3313
  39   0.0000       0.161001         4.3811
  40   0.0000       0.181727         4.9451

MULLIKEN ATOMIC CHARGES
-----------------------
   0 C :   -0.213470
   1 O :   -0.298074
   2 C :   -0.062351
   3 C :   -0.214520
   4 C :   -0.033694
   5 C :   -0.270706
   6 C :   -0.235340
   7 C :    0.035263
   8 O :   -0.453369
   9 H :    0.137529
  10 H :    0.107279
  11 H :    0.108575
  12 H :    0.086589
  13 H :    0.089808
  14 H :    0.113403
  15 H :    0.135238
  16 H :    0.099359
  17 H :    0.119372
  18 H :    0.118890
  19 H :    0.118059
  20 H :    0.116403
  21 H :    0.081544
  22 H :    0.314214
Sum of atomic charges:    0.0000000

LOEWDIN ATOMIC CHARGES
----------------------
   0 C :   -0.366092
   1 O :    0.134729
   2 C :   -0.328729
   3 C :   -0.241677
   4 C :   -0.210709
   5 C :   -0.223001
   6 C :   -0.235024
   7 C :   -0.317179
   8 O :   -0.015090
   9 H :    0.112682
  10 H :    0.099631
  11 H :    0.099994
  12 H :    0.117407
  13 H :    0.116719
  14 H :    0.145038
  15 H :    0.147825
  16 H :    0.140959
  17 H :    0.131910
  18 H :    0.126627
  19 H :    0.120732
  20 H :    0.136975
  21 H :    0.130270
  22 H :    0.176002

  Mayer bond orders larger than 0.1
B(  0-C ,  1-O ) :   0.9252 B(  0-C ,  9-H ) :   0.9399 B(  0-C , 10-H ) :   0.9368
B(  0-C , 11-H ) :   0.9374 B(  1-O ,  2-C ) :   0.9676 B(  2-C ,  3-C ) :   0.9415
B(  2-C , 12-H ) :   0.9230 B(  2-C , 13-H ) :   0.9273 B(  3-C ,  4-C ) :   0.9173
B(  3-C , 14-H ) :   0.9189 B(  3-C , 15-H ) :   0.9257 B(  4-C ,  5-C ) :   0.8883
B(  4-C ,  7-C ) :   0.8871 B(  4-C , 16-H ) :   0.9227 B(  5-C ,  6-C ) :   0.9337
B(  5-C , 17-H ) :   0.9275 B(  5-C , 18-H ) :   0.9244 B(  6-C ,  7-C ) :   0.9203
B(  6-C , 19-H ) :   0.9273 B(  6-C , 20-H ) :   0.9153 B(  7-C ,  8-O ) :   1.0949
B(  7-C , 21-H ) :   0.9567 B(  8-O , 22-H ) :   0.8443

MP2 TOTAL ENERGY:     -424.695795599 Eh
FINAL SINGLE POINT ENERGY      -424.695795599463

DIPOLE MOMENT
-------------
                                X             Y             Z
Electronic contribution:      1.89352      -4.29185       1.35182
Nuclear contribution   :     -2.69226       4.15539      -1.41636
                        -----------------------------------------
Total Dipole Moment    :     -0.79874      -0.13646      -0.06454
                        -----------------------------------------
Magnitude (a.u.)       :      0.81288
Magnitude (Debye)      :      2.06617

                             ****ORCA TERMINATED NORMALLY****
TOTAL RUN TIME: 0 days 0 hours 17 minutes 5 seconds 419 msec
