                         Program Version 3.0.3 - RELEASE   -
|  1> ! RI-MP2 RIJK def2-TZVP def2-TZVP/C def2-TZVP/JK TIGHTSCF
|  2> % maxcore 2000
|  3> % mp2 density relaxed end
|  4> *xyz 0 1
|  5>  C       -0.0376835861     1.3036480082     0.0101677394
|  6>  C        1.2416333944     1.8393828662     0.0002967778
|  7>  C        1.9065639184     3.0873105960     0.0006065903
|  8>  C        3.2730381244     3.0800794908    -0.0129289050
|  9>  N        4.0306602506     1.9342160001    -0.0266979128
| 10>  C        3.4130341639     0.7971145124    -0.0268763880
| 11>  N        2.0484496239     0.7124654768    -0.0138729959
| 12>  N        1.3048041392    -0.4270402986    -0.0125852785
| 13>  N        0.0557725924    -0.0464500180     0.0008368625
| 14>  H       -0.9893384936     1.8081800095     0.0224388483
| 15>  H        1.3420305618     4.0110722543     0.0113452253
| 16>  H        3.8372564323     4.0061255379    -0.0133143537
| 17>  H        3.9435198185    -0.1488041056    -0.0372333398
| 18> *
| 19>
| 20>                          ****END OF INPUT****

CARTESIAN COORDINATES (ANGSTROEM)
---------------------------------
  C     -0.037684    1.303648    0.010168
  C      1.241633    1.839383    0.000297
  C      1.906564    3.087311    0.000607
  C      3.273038    3.080079   -0.012929
  N      4.030660    1.934216   -0.026698
  C      3.413034    0.797115   -0.026876
  N      2.048450    0.712465   -0.013873
  N      1.304804   -0.427040   -0.012585
  N      0.055773   -0.046450    0.000837
  H     -0.989338    1.808180    0.022439
  H      1.342031    4.011072    0.011345
  H      3.837256    4.006126   -0.013314
  H      3.943520   -0.148804   -0.037233

 Total Charge           Charge          ....    0
 Multiplicity           Mult            ....    1
 Number of Electrons    NEL             ....   62
 Basis Dimension        Dim             ....  303

ORBITAL ENERGIES
----------------

  NO   OCC          E(Eh)            E(eV)
   0   2.0000     -15.690368      -426.9566
   1   2.0000     -15.645356      -425.7318
   2   2.0000     -15.621524      -425.0833
   3   2.0000     -15.595054      -424.3630
   4   2.0000     -11.358640      -309.0843
   5   2.0000     -11.315589      -307.9128
   6   2.0000     -11.304369      -307.6075
   7   2.0000     -11.272359      -306.7365
   8   2.0000     -11.265272      -306.5436
   9   2.0000      -1.458939       -39.6998
  10   2.0000      -1.316118       -35.8134
  11   2.0000      -1.211431       -32.9647
  12   2.0000      -1.134925       -30.8829
  13   2.0000      -1.053461       -28.6661
  14   2.0000      -0.944208       -25.6932
  15   2.0000      -0.897605       -24.4251
  16   2.0000      -0.860149       -23.4058
  17   2.0000      -0.758271       -20.6336
  18   2.0000      -0.733734       -19.9659
  19   2.0000      -0.684778       -18.6337
  20   2.0000      -0.680982       -18.5305
  21   2.0000      -0.666825       -18.1452
  22   2.0000      -0.632335       -17.2067
  23   2.0000      -0.576708       -15.6930
  24   2.0000      -0.547884       -14.9087
  25   2.0000      -0.525039       -14.2870
  26   2.0000      -0.468123       -12.7383
  27   2.0000      -0.456031       -12.4092
  28   2.0000      -0.453975       -12.3533
  29   2.0000      -0.418236       -11.3808
  30   2.0000      -0.320718        -8.7272
  31   0.0000       0.072621         1.9761
  32   0.0000       0.091593         2.4924
  33   0.0000       0.150386         4.0922
  34   0.0000       0.167408         4.5554
  35   0.0000       0.173010         4.7078

MULLIKEN ATOMIC CHARGES
-----------------------
   0 C :   -0.132018
   1 C :    0.045784
   2 C :   -0.156270
   3 C :   -0.028814
   4 N :   -0.247556
   5 C :    0.052858
   6 N :    0.158530
   7 N :   -0.190985
   8 N :   -0.129705
   9 H :    0.152976
  10 H :    0.154178
  11 H :    0.147226
  12 H :    0.173795
Sum of atomic charges:    0.0000000

LOEWDIN ATOMIC CHARGES
----------------------
   0 C :   -0.235413
   1 C :   -0.196295
   2 C :   -0.108742
   3 C :   -0.208118
   4 N :    0.135821
   5 C :   -0.224524
   6 N :    0.241579
   7 N :   -0.017502
   8 N :    0.017504
   9 H :    0.141686
  10 H :    0.159960
  11 H :    0.144468
  12 H :    0.149576

  Mayer bond orders larger than 0.1
B(  0-C ,  1-C ) :   1.3259 B(  0-C ,  8-N ) :   1.4187 B(  0-C ,  9-H ) :   0.9406
B(  1-C ,  2-C ) :   1.1414 B(  1-C ,  6-N ) :   1.0610 B(  2-C ,  3-C ) :   1.4941
B(  2-C , 10-H ) :   0.9161 B(  3-C ,  4-N ) :   1.1728 B(  3-C , 11-H ) :   0.9435
B(  4-N ,  5-C ) :   1.6110 B(  5-C ,  6-N ) :   1.0728 B(  5-C , 12-H ) :   0.9164
B(  6-N ,  7-N ) :   0.9605 B(  7-N ,  8-N ) :   1.2316

MP2 TOTAL ENERGY:     -411.104286358 Eh
FINAL SINGLE POINT ENERGY      -411.104286358338

DIPOLE MOMENT
-------------
                                X             Y             Z
Electronic contribution:     -0.26296      -2.59489      -0.01189
Nuclear contribution   :      0.44132       4.01200       0.01839
                        -----------------------------------------
Total Dipole Moment    :      0.17836       1.41711       0.00650
                        -----------------------------------------
Magnitude (a.u.)       :      1.42830
Magnitude (Debye)      :      3.63046

                             ****ORCA TERMINATED NORMALLY****
TOTAL RUN TIME: 0 days 0 hours 15 minutes 7 seconds 232 msec
