                         Program Version 3.0.3 - RELEASE   -
|  1> ! RI-MP2 RIJK def2-TZVP def2-TZVP/C def2-TZVP/JK TIGHTSCF
|  2> % maxcore 2000
|  3> % mp2 density relaxed end
|  4> *xyz 0 1
|  5>  C        0.0078732099     1.3266336239    -0.0326865232
|  6>  C        1.3972084681     0.7166602893    -0.0418143902
|  7>  C        1.7623602702     0.2408411334     1.3780269220
|  8>  C        0.5116664113    -0.7145295896     1.3680994461
|  9>  C        0.1700538075    -0.1617075026    -0.0101455726
| 10>  O       -0.2106251291    -0.9440881346    -1.1005035581
| 11>  C        0.6343008912    -0.8484055093    -2.1793362982
| 12>  N        1.6842607000    -0.1688426301    -2.3486175096
| 13>  C        2.2375123615     0.6900842823    -1.2915615329
| 14>  H       -0.3555258498     1.8598509110     0.8425284712
| 15>  H       -0.3255071140     1.7320502372    -0.9825665135
| 16>  H        2.7039441744    -0.3115145066     1.4169475948
| 17>  H        1.7786577226     1.0166546554     2.1494238959
| 18>  H        0.8063556334    -1.7651188951     1.3273815471
| 19>  H       -0.2414155758    -0.5854164875     2.1511698712
| 20>  H        0.2563884209    -1.4859667304    -2.9756078827
| 21>  H        2.3921936585     1.6846688792    -1.7283849423
| 22>  H        3.2382042392     0.3057848841    -1.0589018550
| 23> *
| 24>
| 25>                          ****END OF INPUT****

CARTESIAN COORDINATES (ANGSTROEM)
---------------------------------
  C      0.007873    1.326634   -0.032687
  C      1.397208    0.716660   -0.041814
  C      1.762360    0.240841    1.378027
  C      0.511666   -0.714530    1.368099
  C      0.170054   -0.161708   -0.010146
  O     -0.210625   -0.944088   -1.100504
  C      0.634301   -0.848406   -2.179336
  N      1.684261   -0.168843   -2.348618
  C      2.237512    0.690084   -1.291562
  H     -0.355526    1.859851    0.842528
  H     -0.325507    1.732050   -0.982567
  H      2.703944   -0.311515    1.416948
  H      1.778658    1.016655    2.149424
  H      0.806356   -1.765119    1.327382
  H     -0.241416   -0.585416    2.151170
  H      0.256388   -1.485967   -2.975608
  H      2.392194    1.684669   -1.728385
  H      3.238204    0.305785   -1.058902

 Total Charge           Charge          ....    0
 Multiplicity           Mult            ....    1
 Number of Electrons    NEL             ....   66
 Basis Dimension        Dim             ....  333

ORBITAL ENERGIES
----------------

  NO   OCC          E(Eh)            E(eV)
   0   2.0000     -20.600014      -560.5549
   1   2.0000     -15.547797      -423.0771
   2   2.0000     -11.332413      -308.3706
   3   2.0000     -11.292124      -307.2743
   4   2.0000     -11.261554      -306.4425
   5   2.0000     -11.240069      -305.8578
   6   2.0000     -11.238497      -305.8150
   7   2.0000     -11.238356      -305.8112
   8   2.0000     -11.237397      -305.7851
   9   2.0000      -1.432715       -38.9862
  10   2.0000      -1.217336       -33.1254
  11   2.0000      -1.198755       -32.6198
  12   2.0000      -1.006412       -27.3859
  13   2.0000      -0.967543       -26.3282
  14   2.0000      -0.915975       -24.9250
  15   2.0000      -0.828432       -22.5428
  16   2.0000      -0.806645       -21.9499
  17   2.0000      -0.705795       -19.2057
  18   2.0000      -0.700573       -19.0635
  19   2.0000      -0.660952       -17.9854
  20   2.0000      -0.646632       -17.5958
  21   2.0000      -0.626983       -17.0611
  22   2.0000      -0.598444       -16.2845
  23   2.0000      -0.589825       -16.0500
  24   2.0000      -0.552452       -15.0330
  25   2.0000      -0.546826       -14.8799
  26   2.0000      -0.538568       -14.6552
  27   2.0000      -0.506060       -13.7706
  28   2.0000      -0.494730       -13.4623
  29   2.0000      -0.416698       -11.3389
  30   2.0000      -0.403699       -10.9852
  31   2.0000      -0.398229       -10.8364
  32   2.0000      -0.360708        -9.8154
  33   0.0000       0.136742         3.7209
  34   0.0000       0.161897         4.4054
  35   0.0000       0.166880         4.5410
  36   0.0000       0.171040         4.6542
  37   0.0000       0.180702         4.9171

MULLIKEN ATOMIC CHARGES
-----------------------
   0 C :   -0.294103
   1 C :    0.002852
   2 C :   -0.223551
   3 C :   -0.229185
   4 C :    0.179314
   5 O :   -0.260226
   6 C :    0.077613
   7 N :   -0.261874
   8 C :   -0.152667
   9 H :    0.132877
  10 H :    0.147918
  11 H :    0.116477
  12 H :    0.123806
  13 H :    0.119620
  14 H :    0.124600
  15 H :    0.135686
  16 H :    0.132895
  17 H :    0.127948
Sum of atomic charges:    0.0000000

LOEWDIN ATOMIC CHARGES
----------------------
   0 C :   -0.157530
   1 C :   -0.194160
   2 C :   -0.182591
   3 C :   -0.184186
   4 C :   -0.277537
   5 O :    0.269289
   6 C :   -0.341372
   7 N :    0.076513
   8 C :   -0.252794
   9 H :    0.137012
  10 H :    0.150905
  11 H :    0.136427
  12 H :    0.129089
  13 H :    0.142072
  14 H :    0.129116
  15 H :    0.134259
  16 H :    0.139694
  17 H :    0.145794

  Mayer bond orders larger than 0.1
B(  0-C ,  1-C ) :   0.8554 B(  0-C ,  4-C ) :   0.9012 B(  0-C ,  9-H ) :   0.9131
B(  0-C , 10-H ) :   0.9177 B(  1-C ,  2-C ) :   0.9365 B(  1-C ,  4-C ) :   0.8290
B(  1-C ,  8-C ) :   0.9369 B(  2-C ,  3-C ) :   0.9783 B(  2-C , 11-H ) :   0.9095
B(  2-C , 12-H ) :   0.9194 B(  3-C ,  4-C ) :   0.9588 B(  3-C , 13-H ) :   0.9055
B(  3-C , 14-H ) :   0.9209 B(  4-C ,  5-O ) :   0.9246 B(  5-O ,  6-C ) :   1.0260
B(  6-C ,  7-N ) :   1.8587 B(  6-C , 15-H ) :   0.9306 B(  7-N ,  8-C ) :   0.9190
B(  8-C , 16-H ) :   0.9363 B(  8-C , 17-H ) :   0.9164

MP2 TOTAL ENERGY:     -401.225938051 Eh
FINAL SINGLE POINT ENERGY      -401.225938051006

DIPOLE MOMENT
-------------
                                X             Y             Z
Electronic contribution:     -1.94111      -2.09799      -4.36071
Nuclear contribution   :      1.97761       2.28390       5.10212
                        -----------------------------------------
Total Dipole Moment    :      0.03650       0.18591       0.74141
                        -----------------------------------------
Magnitude (a.u.)       :      0.76524
Magnitude (Debye)      :      1.94508

                             ****ORCA TERMINATED NORMALLY****
TOTAL RUN TIME: 0 days 0 hours 25 minutes 14 seconds 113 msec
