                         Program Version 3.0.3 - RELEASE   -
|  1> ! RI-MP2 RIJK def2-TZVP def2-TZVP/C def2-TZVP/JK TIGHTSCF
|  2> % maxcore 2000
|  3> % mp2 density relaxed end
|  4> *xyz 0 1
|  5>  C        0.0139669739     1.4984399205     0.1015558344
|  6>  C       -0.0347674078    -0.0076280612    -0.1054705735
|  7>  C        0.7967142474    -0.4963317296    -1.2849589665
|  8>  C        0.8083861502    -2.0239468118    -1.3090705172
|  9>  C        1.4056157660    -2.5375211511     0.0029514369
| 10>  C        0.9049188945    -1.8423275585     1.2632380995
| 11>  O        1.0220426306    -2.3267744511     2.3562356105
| 12>  O        0.3805900758    -0.5972410740     1.1516724431
| 13>  H        1.0443131361     1.8311604112     0.2604031932
| 14>  H       -0.3884317746     2.0146676346    -0.7753711992
| 15>  H       -0.5771164395     1.7825388391     0.9755428795
| 16>  H       -1.0783287245    -0.3178814721    -0.2612018349
| 17>  H        0.3711502017    -0.0850842371    -2.2063757827
| 18>  H        1.8205786423    -0.1092887512    -1.1985017792
| 19>  H       -0.2175669895    -2.3950056732    -1.4277034892
| 20>  H        1.3809341341    -2.4053197411    -2.1600402884
| 21>  H        1.2511585739    -3.6089001533     0.1485816676
| 22>  H        2.4929843094    -2.3829137505     0.0000228462
| 23> *
| 24>
| 25>                          ****END OF INPUT****

CARTESIAN COORDINATES (ANGSTROEM)
---------------------------------
  C      0.013967    1.498440    0.101556
  C     -0.034767   -0.007628   -0.105471
  C      0.796714   -0.496332   -1.284959
  C      0.808386   -2.023947   -1.309071
  C      1.405616   -2.537521    0.002951
  C      0.904919   -1.842328    1.263238
  O      1.022043   -2.326774    2.356236
  O      0.380590   -0.597241    1.151672
  H      1.044313    1.831160    0.260403
  H     -0.388432    2.014668   -0.775371
  H     -0.577116    1.782539    0.975543
  H     -1.078329   -0.317881   -0.261202
  H      0.371150   -0.085084   -2.206376
  H      1.820579   -0.109289   -1.198502
  H     -0.217567   -2.395006   -1.427703
  H      1.380934   -2.405320   -2.160040
  H      1.251159   -3.608900    0.148582
  H      2.492984   -2.382914    0.000023

 Total Charge           Charge          ....    0
 Multiplicity           Mult            ....    1
 Number of Electrons    NEL             ....   62
 Basis Dimension        Dim             ....  308

ORBITAL ENERGIES
----------------

  NO   OCC          E(Eh)            E(eV)
   0   2.0000     -20.589671      -560.2734
   1   2.0000     -20.527055      -558.5696
   2   2.0000     -11.372510      -309.4617
   3   2.0000     -11.304882      -307.6215
   4   2.0000     -11.249223      -306.1069
   5   2.0000     -11.246504      -306.0329
   6   2.0000     -11.243531      -305.9520
   7   2.0000     -11.227978      -305.5288
   8   2.0000      -1.444769       -39.3142
   9   2.0000      -1.350821       -36.7577
  10   2.0000      -1.108694       -30.1691
  11   2.0000      -1.058283       -28.7973
  12   2.0000      -0.961053       -26.1516
  13   2.0000      -0.869546       -23.6616
  14   2.0000      -0.853508       -23.2251
  15   2.0000      -0.755143       -20.5485
  16   2.0000      -0.689156       -18.7529
  17   2.0000      -0.668513       -18.1912
  18   2.0000      -0.647812       -17.6279
  19   2.0000      -0.636297       -17.3145
  20   2.0000      -0.615086       -16.7373
  21   2.0000      -0.589182       -16.0325
  22   2.0000      -0.568079       -15.4582
  23   2.0000      -0.555048       -15.1036
  24   2.0000      -0.542212       -14.7543
  25   2.0000      -0.509901       -13.8751
  26   2.0000      -0.505031       -13.7426
  27   2.0000      -0.497998       -13.5512
  28   2.0000      -0.476194       -12.9579
  29   2.0000      -0.440394       -11.9837
  30   2.0000      -0.425626       -11.5819
  31   0.0000       0.118595         3.2271
  32   0.0000       0.144789         3.9399
  33   0.0000       0.149875         4.0783
  34   0.0000       0.165762         4.5106
  35   0.0000       0.174130         4.7383

MULLIKEN ATOMIC CHARGES
-----------------------
   0 C :   -0.370244
   1 C :    0.046902
   2 C :   -0.249302
   3 C :   -0.195700
   4 C :   -0.255136
   5 C :    0.223280
   6 O :   -0.292767
   7 O :   -0.204686
   8 H :    0.129994
   9 H :    0.125679
  10 H :    0.151437
  11 H :    0.095556
  12 H :    0.132759
  13 H :    0.119406
  14 H :    0.119354
  15 H :    0.133197
  16 H :    0.153394
  17 H :    0.136877
Sum of atomic charges:    0.0000000

LOEWDIN ATOMIC CHARGES
----------------------
   0 C :   -0.287191
   1 C :   -0.312389
   2 C :   -0.249070
   3 C :   -0.262963
   4 C :   -0.234719
   5 C :   -0.476206
   6 O :    0.130284
   7 O :    0.274018
   8 H :    0.127585
   9 H :    0.128188
  10 H :    0.130766
  11 H :    0.144352
  12 H :    0.146714
  13 H :    0.144936
  14 H :    0.141487
  15 H :    0.139359
  16 H :    0.154794
  17 H :    0.160056

  Mayer bond orders larger than 0.1
B(  0-C ,  1-C ) :   0.9340 B(  0-C ,  8-H ) :   0.9310 B(  0-C ,  9-H ) :   0.9321
B(  0-C , 10-H ) :   0.9376 B(  1-C ,  2-C ) :   0.9378 B(  1-C ,  7-O ) :   0.8552
B(  1-C , 11-H ) :   0.9282 B(  2-C ,  3-C ) :   0.9027 B(  2-C , 12-H ) :   0.9193
B(  2-C , 13-H ) :   0.9243 B(  3-C ,  4-C ) :   0.9042 B(  3-C , 14-H ) :   0.9306
B(  3-C , 15-H ) :   0.9295 B(  4-C ,  5-C ) :   0.9416 B(  4-C , 16-H ) :   0.9180
B(  4-C , 17-H ) :   0.9093 B(  5-C ,  6-O ) :   2.0258 B(  5-C ,  7-O ) :   1.1297

MP2 TOTAL ENERGY:     -384.360439025 Eh
FINAL SINGLE POINT ENERGY      -384.360439024966

DIPOLE MOMENT
-------------
                                X             Y             Z
Electronic contribution:      0.37446      -3.88758       7.15325
Nuclear contribution   :     -0.47106       4.31755      -8.93828
                        -----------------------------------------
Total Dipole Moment    :     -0.09660       0.42997      -1.78503
                        -----------------------------------------
Magnitude (a.u.)       :      1.83863
Magnitude (Debye)      :      4.67342

                             ****ORCA TERMINATED NORMALLY****
TOTAL RUN TIME: 0 days 0 hours 13 minutes 7 seconds 145 msec
