                         Program Version 3.0.3 - RELEASE   -
|  1> ! RI-MP2 RIJK def2-TZVP def2-TZVP/C def2-TZVP/JK TIGHTSCF
|  2> % maxcore 2000
|  3> % mp2 density relaxed end
|  4> *xyz 0 1
|  5>  O       -0.0260511926     1.2453348910    -0.5664209402
|  6>  C        0.0557069238    -0.0479118972     0.0103280786
|  7>  C        0.2946638668    -1.1604402731    -1.0579876774
|  8>  C       -1.2445180874    -1.3490310107    -1.1592919417
|  9>  C       -1.3996798446    -0.5630956789     0.1660754502
| 10>  O       -1.5928077110    -1.4504760592     1.2743355282
| 11>  C       -0.5544635485    -1.7107972133     2.1054974004
| 12>  N        0.5874842302    -1.1757348758     2.1824425806
| 13>  C        0.8828149146    -0.0621534319     1.2883213620
| 14>  H        0.8461572604     1.4730249642    -0.9072529936
| 15>  H        0.8213733077    -0.8372831317    -1.9590883241
| 16>  H        0.8029463709    -2.0330268708    -0.6394579738
| 17>  H       -1.6804691352    -0.8089303750    -2.0015922537
| 18>  H       -1.6329383332    -2.3681673362    -1.1383830436
| 19>  H       -2.1699050983     0.2079721435     0.2230211667
| 20>  H       -0.8346112535    -2.5140113487     2.7847478021
| 21>  H        1.9556144190    -0.0798739700     1.0544424450
| 22>  H        0.6929159009     0.8781349238     1.8228824343
| 23> *
| 24>
| 25>                          ****END OF INPUT****

CARTESIAN COORDINATES (ANGSTROEM)
---------------------------------
  O     -0.026051    1.245335   -0.566421
  C      0.055707   -0.047912    0.010328
  C      0.294664   -1.160440   -1.057988
  C     -1.244518   -1.349031   -1.159292
  C     -1.399680   -0.563096    0.166075
  O     -1.592808   -1.450476    1.274336
  C     -0.554464   -1.710797    2.105497
  N      0.587484   -1.175735    2.182443
  C      0.882815   -0.062153    1.288321
  H      0.846157    1.473025   -0.907253
  H      0.821373   -0.837283   -1.959088
  H      0.802946   -2.033027   -0.639458
  H     -1.680469   -0.808930   -2.001592
  H     -1.632938   -2.368167   -1.138383
  H     -2.169905    0.207972    0.223021
  H     -0.834611   -2.514011    2.784748
  H      1.955614   -0.079874    1.054442
  H      0.692916    0.878135    1.822882

 Total Charge           Charge          ....    0
 Multiplicity           Mult            ....    1
 Number of Electrons    NEL             ....   68
 Basis Dimension        Dim             ....  333

ORBITAL ENERGIES
----------------

  NO   OCC          E(Eh)            E(eV)
   0   2.0000     -20.596431      -560.4574
   1   2.0000     -20.572099      -559.7953
   2   2.0000     -15.545477      -423.0139
   3   2.0000     -11.332947      -308.3852
   4   2.0000     -11.296106      -307.3827
   5   2.0000     -11.293372      -307.3083
   6   2.0000     -11.255647      -306.2817
   7   2.0000     -11.232897      -305.6627
   8   2.0000     -11.231379      -305.6214
   9   2.0000      -1.429302       -38.8933
  10   2.0000      -1.380298       -37.5598
  11   2.0000      -1.218061       -33.1451
  12   2.0000      -1.129166       -30.7262
  13   2.0000      -0.985753       -26.8237
  14   2.0000      -0.933181       -25.3932
  15   2.0000      -0.874449       -23.7950
  16   2.0000      -0.827964       -22.5300
  17   2.0000      -0.721240       -19.6259
  18   2.0000      -0.712544       -19.3893
  19   2.0000      -0.697872       -18.9901
  20   2.0000      -0.680084       -18.5060
  21   2.0000      -0.650196       -17.6927
  22   2.0000      -0.612646       -16.6710
  23   2.0000      -0.600831       -16.3494
  24   2.0000      -0.573863       -15.6156
  25   2.0000      -0.566814       -15.4238
  26   2.0000      -0.553115       -15.0510
  27   2.0000      -0.530323       -14.4308
  28   2.0000      -0.501004       -13.6330
  29   2.0000      -0.480334       -13.0705
  30   2.0000      -0.461418       -12.5558
  31   2.0000      -0.434490       -11.8231
  32   2.0000      -0.395292       -10.7564
  33   2.0000      -0.386297       -10.5117
  34   0.0000       0.127248         3.4626
  35   0.0000       0.156609         4.2615
  36   0.0000       0.160617         4.3706
  37   0.0000       0.172216         4.6862
  38   0.0000       0.182138         4.9562

MULLIKEN ATOMIC CHARGES
-----------------------
   0 O :   -0.458203
   1 C :    0.160083
   2 C :   -0.316965
   3 C :   -0.209559
   4 C :    0.087045
   5 O :   -0.267749
   6 C :    0.081273
   7 N :   -0.280485
   8 C :   -0.134932
   9 H :    0.321384
  10 H :    0.119127
  11 H :    0.134404
  12 H :    0.122810
  13 H :    0.122992
  14 H :    0.127561
  15 H :    0.135986
  16 H :    0.120045
  17 H :    0.135182
Sum of atomic charges:    0.0000000

LOEWDIN ATOMIC CHARGES
----------------------
   0 O :    0.020211
   1 C :   -0.352125
   2 C :   -0.204092
   3 C :   -0.214662
   4 C :   -0.216210
   5 O :    0.251065
   6 C :   -0.362891
   7 N :    0.066834
   8 C :   -0.268328
   9 H :    0.180247
  10 H :    0.127456
  11 H :    0.142141
  12 H :    0.140382
  13 H :    0.132045
  14 H :    0.140323
  15 H :    0.134512
  16 H :    0.137083
  17 H :    0.146007

  Mayer bond orders larger than 0.1
B(  0-O ,  1-C ) :   1.0134 B(  0-O ,  9-H ) :   0.8380 B(  1-C ,  2-C ) :   0.9203
B(  1-C ,  4-C ) :   0.8927 B(  1-C ,  8-C ) :   0.9356 B(  2-C ,  3-C ) :   0.9561
B(  2-C , 10-H ) :   0.9206 B(  2-C , 11-H ) :   0.9041 B(  3-C ,  4-C ) :   0.9381
B(  3-C , 12-H ) :   0.9109 B(  3-C , 13-H ) :   0.9216 B(  4-C ,  5-O ) :   0.8580
B(  4-C , 14-H ) :   0.9277 B(  5-O ,  6-C ) :   1.0741 B(  6-C ,  7-N ) :   1.8287
B(  6-C , 15-H ) :   0.9292 B(  7-N ,  8-C ) :   0.9163 B(  8-C , 16-H ) :   0.9194
B(  8-C , 17-H ) :   0.9245

MP2 TOTAL ENERGY:     -438.361402568 Eh
FINAL SINGLE POINT ENERGY      -438.361402568341

DIPOLE MOMENT
-------------
                                X             Y             Z
Electronic contribution:     -1.47459       0.17683       3.73517
Nuclear contribution   :      1.68780      -0.07024      -4.51754
                        -----------------------------------------
Total Dipole Moment    :      0.21321       0.10658      -0.78236
                        -----------------------------------------
Magnitude (a.u.)       :      0.81787
Magnitude (Debye)      :      2.07886

                             ****ORCA TERMINATED NORMALLY****
TOTAL RUN TIME: 0 days 0 hours 17 minutes 58 seconds 241 msec
