                         Program Version 3.0.3 - RELEASE   -
|  1> ! RI-MP2 RIJK def2-TZVP def2-TZVP/C def2-TZVP/JK TIGHTSCF
|  2> % maxcore 2000
|  3> % mp2 density relaxed end
|  4> *xyz 0 1
|  5>  C       -0.0361326107    -1.2337575645    -0.0051131934
|  6>  C       -0.0187302075    -0.0336074710     0.0017928403
|  7>  C        0.0003511408     1.4267778462     0.0102438530
|  8>  N        1.3459657998     1.9913861534     0.0002342447
|  9>  C        2.1466539154     2.2792534871     1.0709276830
| 10>  N        3.3069535301     2.7328831407     0.6766126560
| 11>  N        3.2921060476     2.7436767773    -0.7064371039
| 12>  C        2.1235354084     2.2960594625    -1.0827758040
| 13>  H       -0.0479074465    -2.2962149641    -0.0112947527
| 14>  H       -0.5373059289     1.8182037308    -0.8597651384
| 15>  H       -0.5200910008     1.8078324982     0.8952057168
| 16>  H        1.8302982153     2.1428301764     2.0937231447
| 17>  H        1.7852470769     2.1755852769    -2.1005444360
| 18> *
| 19>
| 20>                          ****END OF INPUT****

CARTESIAN COORDINATES (ANGSTROEM)
---------------------------------
  C     -0.036133   -1.233758   -0.005113
  C     -0.018730   -0.033607    0.001793
  C      0.000351    1.426778    0.010244
  N      1.345966    1.991386    0.000234
  C      2.146654    2.279253    1.070928
  N      3.306954    2.732883    0.676613
  N      3.292106    2.743677   -0.706437
  C      2.123535    2.296059   -1.082776
  H     -0.047907   -2.296215   -0.011295
  H     -0.537306    1.818204   -0.859765
  H     -0.520091    1.807832    0.895206
  H      1.830298    2.142830    2.093723
  H      1.785247    2.175585   -2.100544

 Total Charge           Charge          ....    0
 Multiplicity           Mult            ....    1
 Number of Electrons    NEL             ....   56
 Basis Dimension        Dim             ....  278

ORBITAL ENERGIES
----------------

  NO   OCC          E(Eh)            E(eV)
   0   2.0000     -15.642769      -425.6614
   1   2.0000     -15.580998      -423.9805
   2   2.0000     -15.580350      -423.9629
   3   2.0000     -11.337818      -308.5177
   4   2.0000     -11.305643      -307.6422
   5   2.0000     -11.305601      -307.6410
   6   2.0000     -11.261933      -306.4528
   7   2.0000     -11.255233      -306.2705
   8   2.0000      -1.400918       -38.1209
   9   2.0000      -1.243825       -33.8462
  10   2.0000      -1.095163       -29.8009
  11   2.0000      -1.083213       -29.4757
  12   2.0000      -0.996570       -27.1180
  13   2.0000      -0.853998       -23.2385
  14   2.0000      -0.824681       -22.4407
  15   2.0000      -0.770036       -20.9538
  16   2.0000      -0.734986       -20.0000
  17   2.0000      -0.696842       -18.9620
  18   2.0000      -0.654459       -17.8087
  19   2.0000      -0.639061       -17.3897
  20   2.0000      -0.605929       -16.4882
  21   2.0000      -0.605842       -16.4858
  22   2.0000      -0.483134       -13.1467
  23   2.0000      -0.432846       -11.7783
  24   2.0000      -0.432276       -11.7628
  25   2.0000      -0.418461       -11.3869
  26   2.0000      -0.414463       -11.2781
  27   2.0000      -0.366521        -9.9735
  28   0.0000       0.110204         2.9988
  29   0.0000       0.138883         3.7792
  30   0.0000       0.142238         3.8705
  31   0.0000       0.153471         4.1762
  32   0.0000       0.157912         4.2970

MULLIKEN ATOMIC CHARGES
-----------------------
   0 C :   -0.114632
   1 C :   -0.015468
   2 C :   -0.340603
   3 N :   -0.032502
   4 C :   -0.009810
   5 N :   -0.181422
   6 N :   -0.181439
   7 C :   -0.009841
   8 H :    0.203877
   9 H :    0.183905
  10 H :    0.183955
  11 H :    0.157001
  12 H :    0.156980
Sum of atomic charges:   -0.0000000

LOEWDIN ATOMIC CHARGES
----------------------
   0 C :   -0.067708
   1 C :   -0.110031
   2 C :   -0.222369
   3 N :    0.237291
   4 C :   -0.309207
   5 N :    0.022901
   6 N :    0.022885
   7 C :   -0.309254
   8 H :    0.132454
   9 H :    0.163629
  10 H :    0.163616
  11 H :    0.137904
  12 H :    0.137890

  Mayer bond orders larger than 0.1
B(  0-C ,  1-C ) :   2.6540 B(  0-C ,  8-H ) :   0.8992 B(  1-C ,  2-C ) :   0.9940
B(  2-C ,  3-N ) :   0.8602 B(  2-C ,  9-H ) :   0.9403 B(  2-C , 10-H ) :   0.9404
B(  3-N ,  4-C ) :   1.1328 B(  3-N ,  7-C ) :   1.1328 B(  4-C ,  5-N ) :   1.6207
B(  4-C , 11-H ) :   0.9206 B(  5-N ,  6-N ) :   1.0642 B(  6-N ,  7-C ) :   1.6207
B(  7-C , 12-H ) :   0.9206

MP2 TOTAL ENERGY:     -356.982049004 Eh
FINAL SINGLE POINT ENERGY      -356.982049004326

DIPOLE MOMENT
-------------
                                X             Y             Z
Electronic contribution:      2.60663       1.11942      -0.01921
Nuclear contribution   :     -4.82828      -2.00623       0.03614
                        -----------------------------------------
Total Dipole Moment    :     -2.22165      -0.88681       0.01693
                        -----------------------------------------
Magnitude (a.u.)       :      2.39216
Magnitude (Debye)      :      6.08039

                             ****ORCA TERMINATED NORMALLY****
TOTAL RUN TIME: 0 days 0 hours 9 minutes 19 seconds 791 msec
