                         Program Version 3.0.3 - RELEASE   -
|  1> ! RI-MP2 RIJK def2-TZVP def2-TZVP/C def2-TZVP/JK TIGHTSCF
|  2> % maxcore 2000
|  3> % mp2 density relaxed end
|  4> *xyz 0 1
|  5>  C        0.0885924305     1.3841144645    -0.0666417691
|  6>  N        0.0905613691    -0.0533024987    -0.0069830793
|  7>  N        0.1356256608    -0.8211183572    -1.1678218271
|  8>  C        0.1101284955    -2.0452852880    -0.7319037276
|  9>  N        0.0322458326    -3.1735403601    -1.5302500386
| 10>  N        0.0749755200    -2.1223100247     0.6369716887
| 11>  C       -0.0289014519    -3.2908049971     1.4796687492
| 12>  C        0.0585760012    -0.8054101294     1.1355835143
| 13>  O        0.0193011597    -0.4628629977     2.3033385170
| 14>  H        0.9915435867     1.7558265422    -0.5619067456
| 15>  H       -0.7883879658     1.7513357220    -0.6095868825
| 16>  H        0.0598385873     1.7469303418     0.9621732735
| 17>  H        0.1402430823    -2.9290149041    -2.5068056853
| 18>  H        0.6796909584    -3.9077951060    -1.2704678518
| 19>  H        0.8915149062    -3.8858065141     1.4656599946
| 20>  H       -0.1945801817    -2.9286583640     2.4964015882
| 21>  H       -0.8675176209    -3.9210439793     1.1694070515
| 22> *
| 23>
| 24>                          ****END OF INPUT****

CARTESIAN COORDINATES (ANGSTROEM)
---------------------------------
  C      0.088592    1.384114   -0.066642
  N      0.090561   -0.053302   -0.006983
  N      0.135626   -0.821118   -1.167822
  C      0.110128   -2.045285   -0.731904
  N      0.032246   -3.173540   -1.530250
  N      0.074976   -2.122310    0.636972
  C     -0.028901   -3.290805    1.479669
  C      0.058576   -0.805410    1.135584
  O      0.019301   -0.462863    2.303339
  H      0.991544    1.755827   -0.561907
  H     -0.788388    1.751336   -0.609587
  H      0.059839    1.746930    0.962173
  H      0.140243   -2.929015   -2.506806
  H      0.679691   -3.907795   -1.270468
  H      0.891515   -3.885807    1.465660
  H     -0.194580   -2.928658    2.496402
  H     -0.867518   -3.921044    1.169407

 Total Charge           Charge          ....    0
 Multiplicity           Mult            ....    1
 Number of Electrons    NEL             ....   68
 Basis Dimension        Dim             ....  327

ORBITAL ENERGIES
----------------

  NO   OCC          E(Eh)            E(eV)
   0   2.0000     -20.509677      -558.0967
   1   2.0000     -15.617283      -424.9679
   2   2.0000     -15.613333      -424.8604
   3   2.0000     -15.598535      -424.4577
   4   2.0000     -15.577987      -423.8986
   5   2.0000     -11.373223      -309.4811
   6   2.0000     -11.355130      -308.9888
   7   2.0000     -11.279902      -306.9417
   8   2.0000     -11.257960      -306.3447
   9   2.0000      -1.426269       -38.8108
  10   2.0000      -1.348204       -36.6865
  11   2.0000      -1.264138       -34.3989
  12   2.0000      -1.223222       -33.2856
  13   2.0000      -1.106990       -30.1227
  14   2.0000      -0.996424       -27.1141
  15   2.0000      -0.937762       -25.5178
  16   2.0000      -0.836234       -22.7551
  17   2.0000      -0.805120       -21.9084
  18   2.0000      -0.728721       -19.8295
  19   2.0000      -0.692483       -18.8434
  20   2.0000      -0.684699       -18.6316
  21   2.0000      -0.662556       -18.0291
  22   2.0000      -0.624873       -17.0037
  23   2.0000      -0.620052       -16.8725
  24   2.0000      -0.614320       -16.7165
  25   2.0000      -0.567157       -15.4331
  26   2.0000      -0.563946       -15.3457
  27   2.0000      -0.551260       -15.0005
  28   2.0000      -0.533271       -14.5110
  29   2.0000      -0.495000       -13.4696
  30   2.0000      -0.463345       -12.6083
  31   2.0000      -0.431233       -11.7344
  32   2.0000      -0.419941       -11.4272
  33   2.0000      -0.319181        -8.6854
  34   0.0000       0.111292         3.0284
  35   0.0000       0.157001         4.2722
  36   0.0000       0.161544         4.3958
  37   0.0000       0.182463         4.9651
  38   0.0000       0.189369         5.1530

MULLIKEN ATOMIC CHARGES
-----------------------
   0 C :   -0.315794
   1 N :    0.000011
   2 N :   -0.270727
   3 C :    0.262561
   4 N :   -0.523497
   5 N :   -0.117729
   6 C :   -0.354571
   7 C :    0.259112
   8 O :   -0.410993
   9 H :    0.141817
  10 H :    0.142780
  11 H :    0.174275
  12 H :    0.265191
  13 H :    0.259489
  14 H :    0.140697
  15 H :    0.187258
  16 H :    0.160120
Sum of atomic charges:   -0.0000000

LOEWDIN ATOMIC CHARGES
----------------------
   0 C :   -0.286047
   1 N :    0.152044
   2 N :    0.037806
   3 C :   -0.435257
   4 N :   -0.067813
   5 N :    0.217072
   6 C :   -0.276556
   7 C :   -0.500082
   8 O :    0.036763
   9 H :    0.120997
  10 H :    0.121367
  11 H :    0.137885
  12 H :    0.181840
  13 H :    0.173424
  14 H :    0.118765
  15 H :    0.141989
  16 H :    0.125803

  Mayer bond orders larger than 0.1
B(  0-C ,  1-N ) :   0.8784 B(  0-C ,  9-H ) :   0.9321 B(  0-C , 10-H ) :   0.9319
B(  0-C , 11-H ) :   0.9238 B(  1-N ,  2-N ) :   0.8719 B(  1-N ,  7-C ) :   1.1708
B(  2-N ,  3-C ) :   1.6847 B(  3-C ,  4-N ) :   1.0563 B(  3-C ,  5-N ) :   1.1326
B(  4-N , 12-H ) :   0.8684 B(  4-N , 13-H ) :   0.8637 B(  5-N ,  6-C ) :   0.8597
B(  5-N ,  7-C ) :   1.0225 B(  6-C , 14-H ) :   0.9310 B(  6-C , 15-H ) :   0.9190
B(  6-C , 16-H ) :   0.9281 B(  7-C ,  8-O ) :   1.9165

MP2 TOTAL ENERGY:     -450.637882536 Eh
FINAL SINGLE POINT ENERGY      -450.637882535629

DIPOLE MOMENT
-------------
                                X             Y             Z
Electronic contribution:      0.03411       0.90472      -0.13187
Nuclear contribution   :      0.34940      -1.98010      -0.71958
                        -----------------------------------------
Total Dipole Moment    :      0.38350      -1.07537      -0.85144
                        -----------------------------------------
Magnitude (a.u.)       :      1.42424
Magnitude (Debye)      :      3.62013

                             ****ORCA TERMINATED NORMALLY****
TOTAL RUN TIME: 0 days 0 hours 18 minutes 0 seconds 993 msec
