                         Program Version 3.0.3 - RELEASE   -
|  1> ! RI-MP2 RIJK def2-TZVP def2-TZVP/C def2-TZVP/JK TIGHTSCF
|  2> % maxcore 2000
|  3> % mp2 density relaxed end
|  4> *xyz 0 1
|  5>  C        0.6371953898     1.7742676717    -0.1029852338
|  6>  C        0.2151183627     0.2973875071     0.0003201760
|  7>  C        0.7094422324    -0.5341151044    -1.1743925469
|  8>  C        0.1756552976    -0.3344498047    -2.5583962808
|  9>  C        1.6482873489    -1.4057886146    -0.7962838179
| 10>  C        1.9429176122    -1.3520565150     0.6805738679
| 11>  C        0.8296650379    -0.4396515231     1.2009147466
| 12>  C        0.7404582545     0.0236218939     2.5879465739
| 13>  O       -0.0957972474    -1.0379204227     2.1199408435
| 14>  H        1.7273496690     1.8692347843    -0.1461749210
| 15>  H        0.2259047725     2.2390063451    -1.0045738598
| 16>  H        0.2789797454     2.3496426682     0.7560669846
| 17>  H       -0.8780585110     0.2512754665     0.0894423505
| 18>  H        0.3411427303     0.6901426983    -2.9136691468
| 19>  H        0.6466255768    -1.0170802199    -3.2709982215
| 20>  H       -0.9083773286    -0.5036140332    -2.5907482038
| 21>  H        2.1606848100    -2.0861127630    -1.4686720775
| 22>  H        1.8901789128    -2.3278019937     1.1767114897
| 23>  H        2.9422227851    -0.9429629727     0.8858867137
| 24>  H        1.5098343412    -0.2658429539     3.3042421620
| 25>  H        0.2261374279     0.9548242056     2.8241831013
| 26> *
| 27>
| 28>                          ****END OF INPUT****

CARTESIAN COORDINATES (ANGSTROEM)
---------------------------------
  C      0.637195    1.774268   -0.102985
  C      0.215118    0.297388    0.000320
  C      0.709442   -0.534115   -1.174393
  C      0.175655   -0.334450   -2.558396
  C      1.648287   -1.405789   -0.796284
  C      1.942918   -1.352057    0.680574
  C      0.829665   -0.439652    1.200915
  C      0.740458    0.023622    2.587947
  O     -0.095797   -1.037920    2.119941
  H      1.727350    1.869235   -0.146175
  H      0.225905    2.239006   -1.004574
  H      0.278980    2.349643    0.756067
  H     -0.878059    0.251275    0.089442
  H      0.341143    0.690143   -2.913669
  H      0.646626   -1.017080   -3.270998
  H     -0.908377   -0.503614   -2.590748
  H      2.160685   -2.086113   -1.468672
  H      1.890179   -2.327802    1.176711
  H      2.942223   -0.942963    0.885887
  H      1.509834   -0.265843    3.304242
  H      0.226137    0.954824    2.824183

 Total Charge           Charge          ....    0
 Multiplicity           Mult            ....    1
 Number of Electrons    NEL             ....   68
 Basis Dimension        Dim             ....  351

ORBITAL ENERGIES
----------------

  NO   OCC          E(Eh)            E(eV)
   0   2.0000     -20.557571      -559.3999
   1   2.0000     -11.285334      -307.0895
   2   2.0000     -11.276120      -306.8388
   3   2.0000     -11.234356      -305.7024
   4   2.0000     -11.231226      -305.6172
   5   2.0000     -11.226597      -305.4912
   6   2.0000     -11.223856      -305.4167
   7   2.0000     -11.221241      -305.3455
   8   2.0000     -11.219056      -305.2860
   9   2.0000      -1.402841       -38.1733
  10   2.0000      -1.139758       -31.0144
  11   2.0000      -1.014717       -27.6118
  12   2.0000      -1.005053       -27.3489
  13   2.0000      -0.917565       -24.9682
  14   2.0000      -0.887252       -24.1433
  15   2.0000      -0.878858       -23.9149
  16   2.0000      -0.756827       -20.5943
  17   2.0000      -0.725476       -19.7412
  18   2.0000      -0.670660       -18.2496
  19   2.0000      -0.641998       -17.4696
  20   2.0000      -0.617977       -16.8160
  21   2.0000      -0.604177       -16.4405
  22   2.0000      -0.581563       -15.8251
  23   2.0000      -0.570032       -15.5113
  24   2.0000      -0.561341       -15.2749
  25   2.0000      -0.546427       -14.8690
  26   2.0000      -0.527284       -14.3481
  27   2.0000      -0.511955       -13.9310
  28   2.0000      -0.498333       -13.5603
  29   2.0000      -0.478815       -13.0292
  30   2.0000      -0.472264       -12.8510
  31   2.0000      -0.424688       -11.5563
  32   2.0000      -0.424026       -11.5383
  33   2.0000      -0.339036        -9.2256
  34   0.0000       0.131591         3.5808
  35   0.0000       0.155068         4.2196
  36   0.0000       0.160819         4.3761
  37   0.0000       0.168448         4.5837
  38   0.0000       0.178237         4.8501

MULLIKEN ATOMIC CHARGES
-----------------------
   0 C :   -0.442659
   1 C :    0.055109
   2 C :    0.003593
   3 C :   -0.450834
   4 C :   -0.217012
   5 C :   -0.161454
   6 C :    0.108012
   7 C :   -0.073242
   8 O :   -0.337666
   9 H :    0.133440
  10 H :    0.133879
  11 H :    0.130390
  12 H :    0.105385
  13 H :    0.138947
  14 H :    0.138756
  15 H :    0.143211
  16 H :    0.120089
  17 H :    0.130357
  18 H :    0.119357
  19 H :    0.112142
  20 H :    0.110199
Sum of atomic charges:   -0.0000000

LOEWDIN ATOMIC CHARGES
----------------------
   0 C :   -0.279568
   1 C :   -0.189010
   2 C :   -0.167571
   3 C :   -0.271594
   4 C :   -0.134610
   5 C :   -0.199845
   6 C :   -0.269462
   7 C :   -0.247850
   8 O :    0.159811
   9 H :    0.127203
  10 H :    0.123376
  11 H :    0.121999
  12 H :    0.162416
  13 H :    0.129405
  14 H :    0.130907
  15 H :    0.132653
  16 H :    0.137211
  17 H :    0.149105
  18 H :    0.144571
  19 H :    0.120623
  20 H :    0.120230

  Mayer bond orders larger than 0.1
B(  0-C ,  1-C ) :   0.8612 B(  0-C ,  9-H ) :   0.9332 B(  0-C , 10-H ) :   0.9368
B(  0-C , 11-H ) :   0.9376 B(  1-C ,  2-C ) :   0.9439 B(  1-C ,  6-C ) :   0.9095
B(  1-C , 12-H ) :   0.9046 B(  2-C ,  3-C ) :   0.8860 B(  2-C ,  4-C ) :   1.7497
B(  3-C , 13-H ) :   0.9290 B(  3-C , 14-H ) :   0.9504 B(  3-C , 15-H ) :   0.9352
B(  4-C ,  5-C ) :   0.9716 B(  4-C , 16-H ) :   0.9281 B(  5-C ,  6-C ) :   0.9320
B(  5-C , 17-H ) :   0.9141 B(  5-C , 18-H ) :   0.9052 B(  6-C ,  7-C ) :   0.9749
B(  6-C ,  8-O ) :   0.8797 B(  7-C ,  8-O ) :   0.8961 B(  7-C , 19-H ) :   0.9132
B(  7-C , 20-H ) :   0.9056

MP2 TOTAL ENERGY:     -386.408712892 Eh
FINAL SINGLE POINT ENERGY      -386.408712891692

DIPOLE MOMENT
-------------
                                X             Y             Z
Electronic contribution:     -0.76225      -4.14779       4.56935
Nuclear contribution   :      1.22032       4.66592      -4.86726
                        -----------------------------------------
Total Dipole Moment    :      0.45807       0.51812      -0.29791
                        -----------------------------------------
Magnitude (a.u.)       :      0.75302
Magnitude (Debye)      :      1.91401

                             ****ORCA TERMINATED NORMALLY****
TOTAL RUN TIME: 0 days 0 hours 20 minutes 12 seconds 769 msec
