                         Program Version 3.0.3 - RELEASE   -
|  1> ! RI-MP2 RIJK def2-TZVP def2-TZVP/C def2-TZVP/JK TIGHTSCF
|  2> % maxcore 2000
|  3> % mp2 density relaxed end
|  4> *xyz 0 1
|  5>  C       -0.0662342646     1.5723609680    -0.1469651079
|  6>  C       -0.0456722990     0.0575264394     0.0623723492
|  7>  N       -1.3689796156    -0.5470199539     0.0020141430
|  8>  C       -2.1049134430    -0.8918926439     1.1339135147
|  9>  O       -1.7659275275    -0.8353203417     2.2845310255
| 10>  O       -3.3108259674    -1.3141147772     0.6722793240
| 11>  N       -3.3413226652    -1.2500844008    -0.7564533706
| 12>  C       -2.1790720020    -0.7740750268    -1.0800537573
| 13>  N       -1.8054049020    -0.4549024822    -2.3670807024
| 14>  H        0.9511383347     1.9697959397    -0.0854261269
| 15>  H       -0.4802857244     1.8300459661    -1.1253433479
| 16>  H       -0.6711301199     2.0557847189     0.6248117400
| 17>  H        0.6032840966    -0.4328948207    -0.6722132768
| 18>  H        0.3374112181    -0.1928937432     1.0549045236
| 19>  H       -2.4880722284    -0.7768670106    -3.0418573303
| 20>  H       -0.8696117204    -0.7467734911    -2.6179356900
| 21> *
| 22>
| 23>                          ****END OF INPUT****

CARTESIAN COORDINATES (ANGSTROEM)
---------------------------------
  C     -0.066234    1.572361   -0.146965
  C     -0.045672    0.057526    0.062372
  N     -1.368980   -0.547020    0.002014
  C     -2.104913   -0.891893    1.133914
  O     -1.765928   -0.835320    2.284531
  O     -3.310826   -1.314115    0.672279
  N     -3.341323   -1.250084   -0.756453
  C     -2.179072   -0.774075   -1.080054
  N     -1.805405   -0.454902   -2.367081
  H      0.951138    1.969796   -0.085426
  H     -0.480286    1.830046   -1.125343
  H     -0.671130    2.055785    0.624812
  H      0.603284   -0.432895   -0.672213
  H      0.337411   -0.192894    1.054905
  H     -2.488072   -0.776867   -3.041857
  H     -0.869612   -0.746773   -2.617936

 Total Charge           Charge          ....    0
 Multiplicity           Mult            ....    1
 Number of Electrons    NEL             ....   68
 Basis Dimension        Dim             ....  321

ORBITAL ENERGIES
----------------

  NO   OCC          E(Eh)            E(eV)
   0   2.0000     -20.633354      -561.4621
   1   2.0000     -20.539719      -558.9142
   2   2.0000     -15.636773      -425.4982
   3   2.0000     -15.618150      -424.9915
   4   2.0000     -15.613327      -424.8602
   5   2.0000     -11.414023      -310.5914
   6   2.0000     -11.379942      -309.6640
   7   2.0000     -11.301326      -307.5247
   8   2.0000     -11.241607      -305.8997
   9   2.0000      -1.509082       -41.0642
  10   2.0000      -1.389330       -37.8056
  11   2.0000      -1.325345       -36.0645
  12   2.0000      -1.247835       -33.9553
  13   2.0000      -1.139326       -31.0026
  14   2.0000      -1.054478       -28.6938
  15   2.0000      -0.913285       -24.8517
  16   2.0000      -0.879630       -23.9360
  17   2.0000      -0.819944       -22.3118
  18   2.0000      -0.754035       -20.5183
  19   2.0000      -0.711766       -19.3681
  20   2.0000      -0.700283       -19.0557
  21   2.0000      -0.688267       -18.7287
  22   2.0000      -0.653570       -17.7845
  23   2.0000      -0.630984       -17.1699
  24   2.0000      -0.605754       -16.4834
  25   2.0000      -0.577530       -15.7154
  26   2.0000      -0.561797       -15.2873
  27   2.0000      -0.557394       -15.1675
  28   2.0000      -0.529396       -14.4056
  29   2.0000      -0.516733       -14.0610
  30   2.0000      -0.514620       -14.0035
  31   2.0000      -0.457311       -12.4441
  32   2.0000      -0.451602       -12.2887
  33   2.0000      -0.369637       -10.0583
  34   0.0000       0.099456         2.7063
  35   0.0000       0.142636         3.8813
  36   0.0000       0.155669         4.2360
  37   0.0000       0.173505         4.7213
  38   0.0000       0.179041         4.8720

MULLIKEN ATOMIC CHARGES
-----------------------
   0 C :   -0.388746
   1 C :   -0.188752
   2 N :   -0.120815
   3 C :    0.320790
   4 O :   -0.337137
   5 O :   -0.132952
   6 N :   -0.171663
   7 C :    0.268441
   8 N :   -0.518658
   9 H :    0.137725
  10 H :    0.145660
  11 H :    0.150708
  12 H :    0.125606
  13 H :    0.172085
  14 H :    0.272365
  15 H :    0.265343
Sum of atomic charges:    0.0000000

LOEWDIN ATOMIC CHARGES
----------------------
   0 C :   -0.307553
   1 C :   -0.264644
   2 N :    0.231449
   3 C :   -0.547905
   4 O :    0.100241
   5 O :    0.236674
   6 N :    0.014368
   7 C :   -0.447253
   8 N :   -0.050847
   9 H :    0.128307
  10 H :    0.125418
  11 H :    0.130880
  12 H :    0.133593
  13 H :    0.153942
  14 H :    0.186584
  15 H :    0.176746

  Mayer bond orders larger than 0.1
B(  0-C ,  1-C ) :   0.9196 B(  0-C ,  9-H ) :   0.9319 B(  0-C , 10-H ) :   0.9316
B(  0-C , 11-H ) :   0.9319 B(  1-C ,  2-N ) :   0.8367 B(  1-C , 12-H ) :   0.9365
B(  1-C , 13-H ) :   0.9147 B(  2-N ,  3-C ) :   1.0515 B(  2-N ,  7-C ) :   1.1114
B(  3-C ,  4-O ) :   1.9606 B(  3-C ,  5-O ) :   1.1292 B(  5-O ,  6-N ) :   0.7913
B(  6-N ,  7-C ) :   1.7046 B(  7-C ,  8-N ) :   1.0617 B(  8-N , 14-H ) :   0.8649
B(  8-N , 15-H ) :   0.8574

MP2 TOTAL ENERGY:     -470.479214538 Eh
FINAL SINGLE POINT ENERGY      -470.479214538389

DIPOLE MOMENT
-------------
                                X             Y             Z
Electronic contribution:     -7.50528      -6.19256       3.47642
Nuclear contribution   :      9.10769       6.64073      -5.33595
                        -----------------------------------------
Total Dipole Moment    :      1.60241       0.44817      -1.85953
                        -----------------------------------------
Magnitude (a.u.)       :      2.49528
Magnitude (Debye)      :      6.34249

                             ****ORCA TERMINATED NORMALLY****
TOTAL RUN TIME: 0 days 0 hours 16 minutes 37 seconds 281 msec
