                         Program Version 3.0.3 - RELEASE   -
|  1> ! RI-MP2 RIJK def2-TZVP def2-TZVP/C def2-TZVP/JK TIGHTSCF
|  2> % maxcore 2000
|  3> % mp2 density relaxed end
|  4> *xyz 0 1
|  5>  C       -0.2595362391     1.2653355449    -0.1444172393
|  6>  C        0.4880457671    -0.0398887369    -0.0407937132
|  7>  O        1.0854931468    -0.4162713832     0.9330314749
|  8>  C        0.4371646018    -0.9010974969    -1.3280447077
|  9>  O       -0.1242117253    -0.5426188240    -2.3322224308
| 10>  O        1.0950043687    -2.0550878558    -1.1703567501
| 11>  C        1.0984186938    -2.9377965790    -2.3164495361
| 12>  C       -0.0885998002    -3.7780088842    -2.3621840227
| 13>  C       -1.0569985283    -4.4864118438    -2.4047580961
| 14>  H       -1.3120724904     1.0764689623    -0.3791478334
| 15>  H       -0.1704143959     1.8121691939     0.7942027246
| 16>  H        0.1351725827     1.8597138115    -0.9744888938
| 17>  H        1.1806890353    -2.3388386657    -3.2277778458
| 18>  H        2.0001755729    -3.5424226008    -2.1949996815
| 19>  H       -1.9177513800    -5.1075007523    -2.4467724691
| 20> *
| 21>
| 22>                          ****END OF INPUT****

CARTESIAN COORDINATES (ANGSTROEM)
---------------------------------
  C     -0.259536    1.265336   -0.144417
  C      0.488046   -0.039889   -0.040794
  O      1.085493   -0.416271    0.933031
  C      0.437165   -0.901097   -1.328045
  O     -0.124212   -0.542619   -2.332222
  O      1.095004   -2.055088   -1.170357
  C      1.098419   -2.937797   -2.316450
  C     -0.088600   -3.778009   -2.362184
  C     -1.056999   -4.486412   -2.404758
  H     -1.312072    1.076469   -0.379148
  H     -0.170414    1.812169    0.794203
  H      0.135173    1.859714   -0.974489
  H      1.180689   -2.338839   -3.227778
  H      2.000176   -3.542423   -2.195000
  H     -1.917751   -5.107501   -2.446772

 Total Charge           Charge          ....    0
 Multiplicity           Mult            ....    1
 Number of Electrons    NEL             ....   66
 Basis Dimension        Dim             ....  315

ORBITAL ENERGIES
----------------

  NO   OCC          E(Eh)            E(eV)
   0   2.0000     -20.626858      -561.2853
   1   2.0000     -20.580796      -560.0319
   2   2.0000     -20.575456      -559.8866
   3   2.0000     -11.404372      -310.3287
   4   2.0000     -11.360342      -309.1306
   5   2.0000     -11.332926      -308.3846
   6   2.0000     -11.248923      -306.0988
   7   2.0000     -11.245775      -306.0131
   8   2.0000     -11.242870      -305.9340
   9   2.0000      -1.488783       -40.5118
  10   2.0000      -1.418713       -38.6051
  11   2.0000      -1.389598       -37.8129
  12   2.0000      -1.079964       -29.3873
  13   2.0000      -1.035689       -28.1825
  14   2.0000      -0.991374       -26.9767
  15   2.0000      -0.886318       -24.1179
  16   2.0000      -0.789250       -21.4766
  17   2.0000      -0.747124       -20.3303
  18   2.0000      -0.718139       -19.5416
  19   2.0000      -0.708292       -19.2736
  20   2.0000      -0.699423       -19.0323
  21   2.0000      -0.644953       -17.5501
  22   2.0000      -0.637450       -17.3459
  23   2.0000      -0.629075       -17.1180
  24   2.0000      -0.588185       -16.0053
  25   2.0000      -0.574973       -15.6458
  26   2.0000      -0.559360       -15.2210
  27   2.0000      -0.522722       -14.2240
  28   2.0000      -0.518049       -14.0968
  29   2.0000      -0.493597       -13.4315
  30   2.0000      -0.434637       -11.8271
  31   2.0000      -0.411871       -11.2076
  32   2.0000      -0.404707       -11.0126
  33   0.0000       0.073365         1.9964
  34   0.0000       0.135063         3.6753
  35   0.0000       0.148036         4.0283
  36   0.0000       0.157785         4.2936
  37   0.0000       0.163394         4.4462

MULLIKEN ATOMIC CHARGES
-----------------------
   0 C :   -0.376612
   1 C :    0.163983
   2 O :   -0.236746
   3 C :    0.304939
   4 O :   -0.313434
   5 O :   -0.207913
   6 C :   -0.129569
   7 C :   -0.063630
   8 C :   -0.135379
   9 H :    0.154738
  10 H :    0.156927
  11 H :    0.154141
  12 H :    0.167179
  13 H :    0.162642
  14 H :    0.198734
Sum of atomic charges:    0.0000000

LOEWDIN ATOMIC CHARGES
----------------------
   0 C :   -0.271535
   1 C :   -0.317701
   2 O :    0.190614
   3 C :   -0.455841
   4 O :    0.145907
   5 O :    0.284326
   6 C :   -0.254277
   7 C :   -0.109683
   8 C :   -0.072127
   9 H :    0.145522
  10 H :    0.134788
  11 H :    0.145071
  12 H :    0.152322
  13 H :    0.152277
  14 H :    0.130337

  Mayer bond orders larger than 0.1
B(  0-C ,  1-C ) :   0.9409 B(  0-C ,  9-H ) :   0.9040 B(  0-C , 10-H ) :   0.9338
B(  0-C , 11-H ) :   0.9044 B(  1-C ,  2-O ) :   1.9989 B(  1-C ,  3-C ) :   0.8532
B(  3-C ,  4-O ) :   1.8962 B(  3-C ,  5-O ) :   1.1647 B(  5-O ,  6-C ) :   0.8429
B(  6-C ,  7-C ) :   1.0362 B(  6-C , 12-H ) :   0.9617 B(  6-C , 13-H ) :   0.9152
B(  7-C ,  8-C ) :   2.6572 B(  8-C , 14-H ) :   0.9006

MP2 TOTAL ENERGY:     -457.012211104 Eh
FINAL SINGLE POINT ENERGY      -457.012211103915

DIPOLE MOMENT
-------------
                                X             Y             Z
Electronic contribution:      1.68342      -2.49241       0.57835
Nuclear contribution   :     -1.85899       2.43094      -1.06903
                        -----------------------------------------
Total Dipole Moment    :     -0.17558      -0.06147      -0.49068
                        -----------------------------------------
Magnitude (a.u.)       :      0.52476
Magnitude (Debye)      :      1.33384

                             ****ORCA TERMINATED NORMALLY****
TOTAL RUN TIME: 0 days 0 hours 14 minutes 12 seconds 822 msec
