                         Program Version 3.0.3 - RELEASE   -
|  1> ! RI-MP2 RIJK def2-TZVP def2-TZVP/C def2-TZVP/JK TIGHTSCF
|  2> % maxcore 2000
|  3> % mp2 density relaxed end
|  4> *xyz 0 1
|  5>  C        0.0394056071     1.4501734417    -0.1600798033
|  6>  N        0.0997337818     0.0133845231     0.0549340419
|  7>  C        1.4121287401    -0.6192013004     0.0096626286
|  8>  C        0.6621363018    -0.5328378358     1.2956178137
|  9>  C        1.1633589503     0.3121874912     2.4491866208
| 10>  C        0.0265042606     0.7446232270     3.3897933476
| 11>  N        0.4932799449     1.4853038141     4.5519117509
| 12>  C        0.7914146586     0.8811775951     5.7331176028
| 13>  O        0.6654888992    -0.3035907709     5.9608109732
| 14>  H        0.9081872236     2.0153239076     0.2149227111
| 15>  H       -0.0332925858     1.6368194182    -1.2364788716
| 16>  H       -0.8638778584     1.8537519436     0.3101971081
| 17>  H        1.4791546801    -1.5545498217    -0.5403215829
| 18>  H        2.2840584220     0.0279432635    -0.0916827412
| 19>  H        0.1317400019    -1.4276149768     1.6227530061
| 20>  H        1.8800309608    -0.2802546427     3.0299853873
| 21>  H        1.7054441515     1.1924566033     2.0879613429
| 22>  H       -0.7036369900     1.3589370329     2.8528298247
| 23>  H       -0.4935328382    -0.1391427906     3.7684761609
| 24>  H        0.6932247004     2.4681930278     4.4585491858
| 25>  H        1.1590786378     1.6070036798     6.4860356325
| 26> *
| 27>
| 28>                          ****END OF INPUT****

CARTESIAN COORDINATES (ANGSTROEM)
---------------------------------
  C      0.039406    1.450173   -0.160080
  N      0.099734    0.013385    0.054934
  C      1.412129   -0.619201    0.009663
  C      0.662136   -0.532838    1.295618
  C      1.163359    0.312187    2.449187
  C      0.026504    0.744623    3.389793
  N      0.493280    1.485304    4.551912
  C      0.791415    0.881178    5.733118
  O      0.665489   -0.303591    5.960811
  H      0.908187    2.015324    0.214923
  H     -0.033293    1.636819   -1.236479
  H     -0.863878    1.853752    0.310197
  H      1.479155   -1.554550   -0.540322
  H      2.284058    0.027943   -0.091683
  H      0.131740   -1.427615    1.622753
  H      1.880031   -0.280255    3.029985
  H      1.705444    1.192457    2.087961
  H     -0.703637    1.358937    2.852830
  H     -0.493533   -0.139143    3.768476
  H      0.693225    2.468193    4.458549
  H      1.159079    1.607004    6.486036

 Total Charge           Charge          ....    0
 Multiplicity           Mult            ....    1
 Number of Electrons    NEL             ....   70
 Basis Dimension        Dim             ....  351

ORBITAL ENERGIES
----------------

  NO   OCC          E(Eh)            E(eV)
   0   2.0000     -20.523315      -558.4678
   1   2.0000     -15.591529      -424.2671
   2   2.0000     -15.558461      -423.3672
   3   2.0000     -11.349936      -308.8475
   4   2.0000     -11.269543      -306.6598
   5   2.0000     -11.260795      -306.4218
   6   2.0000     -11.252129      -306.1860
   7   2.0000     -11.250730      -306.1479
   8   2.0000     -11.234133      -305.6963
   9   2.0000      -1.384009       -37.6608
  10   2.0000      -1.272405       -34.6239
  11   2.0000      -1.238073       -33.6897
  12   2.0000      -1.047622       -28.5073
  13   2.0000      -0.992397       -27.0045
  14   2.0000      -0.907324       -24.6895
  15   2.0000      -0.833385       -22.6776
  16   2.0000      -0.804970       -21.9044
  17   2.0000      -0.779214       -21.2035
  18   2.0000      -0.743051       -20.2194
  19   2.0000      -0.679276       -18.4840
  20   2.0000      -0.658459       -17.9176
  21   2.0000      -0.633121       -17.2281
  22   2.0000      -0.618020       -16.8172
  23   2.0000      -0.595167       -16.1953
  24   2.0000      -0.593826       -16.1588
  25   2.0000      -0.573813       -15.6142
  26   2.0000      -0.559325       -15.2200
  27   2.0000      -0.529480       -14.4079
  28   2.0000      -0.515180       -14.0188
  29   2.0000      -0.504486       -13.7278
  30   2.0000      -0.463178       -12.6037
  31   2.0000      -0.444700       -12.1009
  32   2.0000      -0.431847       -11.7512
  33   2.0000      -0.396211       -10.7815
  34   2.0000      -0.367105        -9.9894
  35   0.0000       0.119916         3.2631
  36   0.0000       0.149803         4.0763
  37   0.0000       0.163528         4.4498
  38   0.0000       0.169889         4.6229
  39   0.0000       0.175352         4.7716

MULLIKEN ATOMIC CHARGES
-----------------------
   0 C :   -0.299517
   1 N :   -0.222148
   2 C :   -0.176624
   3 C :   -0.061013
   4 C :   -0.231871
   5 C :   -0.134460
   6 N :   -0.328255
   7 C :    0.197872
   8 O :   -0.369103
   9 H :    0.103286
  10 H :    0.147070
  11 H :    0.129935
  12 H :    0.128851
  13 H :    0.114100
  14 H :    0.125802
  15 H :    0.150577
  16 H :    0.109171
  17 H :    0.143619
  18 H :    0.153381
  19 H :    0.239480
  20 H :    0.079847
Sum of atomic charges:   -0.0000000

LOEWDIN ATOMIC CHARGES
----------------------
   0 C :   -0.336799
   1 N :    0.084279
   2 C :   -0.247830
   3 C :   -0.257419
   4 C :   -0.258905
   5 C :   -0.272445
   6 N :    0.080937
   7 C :   -0.440041
   8 O :    0.054002
   9 H :    0.101948
  10 H :    0.120910
  11 H :    0.115354
  12 H :    0.124058
  13 H :    0.123574
  14 H :    0.146522
  15 H :    0.152600
  16 H :    0.135330
  17 H :    0.134085
  18 H :    0.148025
  19 H :    0.182902
  20 H :    0.108913

  Mayer bond orders larger than 0.1
B(  0-C ,  1-N ) :   0.8890 B(  0-C ,  9-H ) :   0.9272 B(  0-C , 10-H ) :   0.9372
B(  0-C , 11-H ) :   0.9378 B(  1-N ,  2-C ) :   0.8967 B(  1-N ,  3-C ) :   0.9164
B(  2-C ,  3-C ) :   0.9310 B(  2-C , 12-H ) :   0.9207 B(  2-C , 13-H ) :   0.9196
B(  3-C ,  4-C ) :   0.9215 B(  3-C , 14-H ) :   0.9173 B(  4-C ,  5-C ) :   0.9059
B(  4-C , 15-H ) :   0.9267 B(  4-C , 16-H ) :   0.9371 B(  5-C ,  6-N ) :   0.8311
B(  5-C , 17-H ) :   0.9419 B(  5-C , 18-H ) :   0.9186 B(  6-N ,  7-C ) :   1.1634
B(  6-N , 19-H ) :   0.8739 B(  7-C ,  8-O ) :   1.8822 B(  7-C , 20-H ) :   0.9300

MP2 TOTAL ENERGY:     -419.688016423 Eh
FINAL SINGLE POINT ENERGY      -419.688016422935

DIPOLE MOMENT
-------------
                                X             Y             Z
Electronic contribution:     -0.51290      -2.21023       7.30444
Nuclear contribution   :      0.93457       3.65896      -7.90423
                        -----------------------------------------
Total Dipole Moment    :      0.42168       1.44874      -0.59979
                        -----------------------------------------
Magnitude (a.u.)       :      1.62370
Magnitude (Debye)      :      4.12711

                             ****ORCA TERMINATED NORMALLY****
TOTAL RUN TIME: 0 days 0 hours 16 minutes 42 seconds 115 msec
