                         Program Version 3.0.3 - RELEASE   -
|  1> ! RI-MP2 RIJK def2-TZVP def2-TZVP/C def2-TZVP/JK TIGHTSCF
|  2> % maxcore 2000
|  3> % mp2 density relaxed end
|  4> *xyz 0 1
|  5>  C       -0.1118445934     1.5230791808    -0.0422587088
|  6>  N        0.0918017679     0.0823762960     0.1268693907
|  7>  C        1.3625099243    -0.5699272910    -0.1764854281
|  8>  C        2.4973374557     0.3005996743     0.3118964653
|  9>  O        3.5005520883     0.7461528036    -0.1699989105
| 10>  C        1.9382599244     0.2830920245     1.7683154513
| 11>  O        1.6204739635     1.4638951822     2.4619850304
| 12>  C        0.7530758809    -0.5403659500     1.2411477802
| 13>  C        0.0620668569    -1.6324209884     2.0030934028
| 14>  H        0.7255352871     2.1537074160     0.2711226212
| 15>  H       -0.3244621818     1.7080776246    -1.0992822579
| 16>  H       -0.9915286622     1.8110640201     0.5403199240
| 17>  H        1.3907677291    -1.3580915427    -0.9212680858
| 18>  H        2.6139728059    -0.3624344053     2.3560678722
| 19>  H        2.4343118801     1.9676246600     2.5766385198
| 20>  H       -0.5450959653    -1.2087604426     2.8108832715
| 21>  H       -0.6013425038    -2.1938576798     1.3411373057
| 22>  H        0.7855294324    -2.3195291323     2.4535645560
| 23> *
| 24>
| 25>                          ****END OF INPUT****

CARTESIAN COORDINATES (ANGSTROEM)
---------------------------------
  C     -0.111845    1.523079   -0.042259
  N      0.091802    0.082376    0.126869
  C      1.362510   -0.569927   -0.176485
  C      2.497337    0.300600    0.311896
  O      3.500552    0.746153   -0.169999
  C      1.938260    0.283092    1.768315
  O      1.620474    1.463895    2.461985
  C      0.753076   -0.540366    1.241148
  C      0.062067   -1.632421    2.003093
  H      0.725535    2.153707    0.271123
  H     -0.324462    1.708078   -1.099282
  H     -0.991529    1.811064    0.540320
  H      1.390768   -1.358092   -0.921268
  H      2.613973   -0.362434    2.356068
  H      2.434312    1.967625    2.576639
  H     -0.545096   -1.208760    2.810883
  H     -0.601343   -2.193858    1.341137
  H      0.785529   -2.319529    2.453565

 Total Charge           Charge          ....    0
 Multiplicity           Mult            ....    1
 Number of Electrons    NEL             ....   68
 Basis Dimension        Dim             ....  333

ORBITAL ENERGIES
----------------

  NO   OCC          E(Eh)            E(eV)
   0   2.0000     -20.580709      -560.0296
   1   2.0000     -20.562730      -559.5403
   2   2.0000     -15.583488      -424.0483
   3   2.0000     -11.342173      -308.6362
   4   2.0000     -11.308852      -307.7295
   5   2.0000     -11.292311      -307.2794
   6   2.0000     -11.277778      -306.8840
   7   2.0000     -11.251039      -306.1563
   8   2.0000     -11.233504      -305.6792
   9   2.0000      -1.409109       -38.3438
  10   2.0000      -1.385459       -37.7003
  11   2.0000      -1.308700       -35.6115
  12   2.0000      -1.069162       -29.0934
  13   2.0000      -1.001795       -27.2602
  14   2.0000      -0.960602       -26.1393
  15   2.0000      -0.873461       -23.7681
  16   2.0000      -0.763472       -20.7751
  17   2.0000      -0.756173       -20.5765
  18   2.0000      -0.723835       -19.6965
  19   2.0000      -0.680626       -18.5208
  20   2.0000      -0.671558       -18.2740
  21   2.0000      -0.623527       -16.9670
  22   2.0000      -0.611809       -16.6482
  23   2.0000      -0.596513       -16.2320
  24   2.0000      -0.585556       -15.9338
  25   2.0000      -0.575479       -15.6596
  26   2.0000      -0.563483       -15.3332
  27   2.0000      -0.535175       -14.5629
  28   2.0000      -0.519029       -14.1235
  29   2.0000      -0.513865       -13.9830
  30   2.0000      -0.468245       -12.7416
  31   2.0000      -0.428062       -11.6482
  32   2.0000      -0.411186       -11.1889
  33   2.0000      -0.376463       -10.2441
  34   0.0000       0.118614         3.2276
  35   0.0000       0.139420         3.7938
  36   0.0000       0.147250         4.0069
  37   0.0000       0.164687         4.4814
  38   0.0000       0.180944         4.9237

MULLIKEN ATOMIC CHARGES
-----------------------
   0 C :   -0.275820
   1 N :   -0.216169
   2 C :   -0.061798
   3 C :    0.059291
   4 O :   -0.254015
   5 C :    0.096607
   6 O :   -0.463600
   7 C :    0.112924
   8 C :   -0.408334
   9 H :    0.125821
  10 H :    0.138973
  11 H :    0.137305
  12 H :    0.148601
  13 H :    0.104282
  14 H :    0.331351
  15 H :    0.146665
  16 H :    0.149522
  17 H :    0.128394
Sum of atomic charges:    0.0000000

LOEWDIN ATOMIC CHARGES
----------------------
   0 C :   -0.307159
   1 N :    0.157528
   2 C :   -0.155081
   3 C :   -0.300591
   4 O :    0.160531
   5 C :   -0.275020
   6 O :   -0.007231
   7 C :   -0.237690
   8 C :   -0.265590
   9 H :    0.111701
  10 H :    0.120061
  11 H :    0.122671
  12 H :    0.138894
  13 H :    0.149604
  14 H :    0.185354
  15 H :    0.135985
  16 H :    0.136514
  17 H :    0.129518

  Mayer bond orders larger than 0.1
B(  0-C ,  1-N ) :   0.8706 B(  0-C ,  9-H ) :   0.9154 B(  0-C , 10-H ) :   0.9323
B(  0-C , 11-H ) :   0.9369 B(  1-N ,  2-C ) :   0.9037 B(  1-N ,  7-C ) :   0.8959
B(  2-C ,  3-C ) :   0.8437 B(  2-C ,  5-C ) :  -0.1221 B(  2-C ,  7-C ) :   0.8026
B(  2-C , 12-H ) :   0.9028 B(  3-C ,  4-O ) :   2.0266 B(  3-C ,  5-C ) :   0.8521
B(  5-C ,  6-O ) :   1.0633 B(  5-C ,  7-C ) :   0.9044 B(  5-C , 13-H ) :   0.9261
B(  6-O ,  7-C ) :  -0.1033 B(  6-O , 14-H ) :   0.8331 B(  7-C ,  8-C ) :   0.8876
B(  8-C , 15-H ) :   0.9323 B(  8-C , 16-H ) :   0.9438 B(  8-C , 17-H ) :   0.9331

MP2 TOTAL ENERGY:     -438.326534122 Eh
FINAL SINGLE POINT ENERGY      -438.326534121910

DIPOLE MOMENT
-------------
                                X             Y             Z
Electronic contribution:      5.68462       1.41113      -1.87578
Nuclear contribution   :     -5.90106      -1.72009       2.37751
                        -----------------------------------------
Total Dipole Moment    :     -0.21644      -0.30896       0.50173
                        -----------------------------------------
Magnitude (a.u.)       :      0.62772
Magnitude (Debye)      :      1.59555

                             ****ORCA TERMINATED NORMALLY****
TOTAL RUN TIME: 0 days 0 hours 19 minutes 15 seconds 788 msec
