                         Program Version 3.0.3 - RELEASE   -
|  1> ! RI-MP2 RIJK def2-TZVP def2-TZVP/C def2-TZVP/JK TIGHTSCF
|  2> % maxcore 2000
|  3> % mp2 density relaxed end
|  4> *xyz 0 1
|  5>  C       -0.1237173573     1.3995507770     0.6905189251
|  6>  C       -0.0819237087     0.0393295347     0.0999290805
|  7>  C       -0.9585587871    -0.7468287341    -0.5680084414
|  8>  N       -0.3527518935    -1.9584250146    -0.8877703091
|  9>  C        0.8458078072    -1.8581046493    -0.4083830173
| 10>  C        1.9530012133    -2.8524836428    -0.4495101393
| 11>  C        1.5515279391    -4.1359983749    -1.1673666898
| 12>  O        2.6844065857    -4.9913880868    -1.1371027686
| 13>  O        1.0903097109    -0.6705911144     0.2090008938
| 14>  H        0.6246842442     2.0589706043     0.2367540268
| 15>  H       -1.1100494246     1.8405015838     0.5294170746
| 16>  H        0.0693496346     1.3766360401     1.7689544879
| 17>  H       -1.9792598327    -0.5317006448    -0.8424896079
| 18>  H        2.8272979936    -2.4163791515    -0.9480653277
| 19>  H        2.2757581413    -3.0933764972     0.5707589849
| 20>  H        0.6851912489    -4.5862836293    -0.6629406465
| 21>  H        1.2419586597    -3.9031246350    -2.1958022351
| 22>  H        2.4515675352    -5.8087562251    -1.5862819410
| 23> *
| 24>
| 25>                          ****END OF INPUT****

CARTESIAN COORDINATES (ANGSTROEM)
---------------------------------
  C     -0.123717    1.399551    0.690519
  C     -0.081924    0.039330    0.099929
  C     -0.958559   -0.746829   -0.568008
  N     -0.352752   -1.958425   -0.887770
  C      0.845808   -1.858105   -0.408383
  C      1.953001   -2.852484   -0.449510
  C      1.551528   -4.135998   -1.167367
  O      2.684407   -4.991388   -1.137103
  O      1.090310   -0.670591    0.209001
  H      0.624684    2.058971    0.236754
  H     -1.110049    1.840502    0.529417
  H      0.069350    1.376636    1.768954
  H     -1.979260   -0.531701   -0.842490
  H      2.827298   -2.416379   -0.948065
  H      2.275758   -3.093376    0.570759
  H      0.685191   -4.586284   -0.662941
  H      1.241959   -3.903125   -2.195802
  H      2.451568   -5.808756   -1.586282

 Total Charge           Charge          ....    0
 Multiplicity           Mult            ....    1
 Number of Electrons    NEL             ....   68
 Basis Dimension        Dim             ....  333

ORBITAL ENERGIES
----------------

  NO   OCC          E(Eh)            E(eV)
   0   2.0000     -20.626315      -561.2706
   1   2.0000     -20.558299      -559.4197
   2   2.0000     -15.554023      -423.2465
   3   2.0000     -11.330697      -308.3239
   4   2.0000     -11.292031      -307.2718
   5   2.0000     -11.279062      -306.9189
   6   2.0000     -11.248578      -306.0894
   7   2.0000     -11.241874      -305.9069
   8   2.0000     -11.240875      -305.8798
   9   2.0000      -1.476779       -40.1852
  10   2.0000      -1.362827       -37.0844
  11   2.0000      -1.224557       -33.3219
  12   2.0000      -1.087211       -29.5845
  13   2.0000      -1.029188       -28.0056
  14   2.0000      -0.939114       -25.5546
  15   2.0000      -0.872475       -23.7413
  16   2.0000      -0.801988       -21.8232
  17   2.0000      -0.780770       -21.2458
  18   2.0000      -0.720519       -19.6063
  19   2.0000      -0.676771       -18.4159
  20   2.0000      -0.669240       -18.2109
  21   2.0000      -0.643137       -17.5006
  22   2.0000      -0.602869       -16.4049
  23   2.0000      -0.583641       -15.8817
  24   2.0000      -0.575324       -15.6554
  25   2.0000      -0.566020       -15.4022
  26   2.0000      -0.557652       -15.1745
  27   2.0000      -0.545235       -14.8366
  28   2.0000      -0.539090       -14.6694
  29   2.0000      -0.497519       -13.5382
  30   2.0000      -0.450996       -12.2722
  31   2.0000      -0.450541       -12.2598
  32   2.0000      -0.444276       -12.0894
  33   2.0000      -0.322944        -8.7877
  34   0.0000       0.136197         3.7061
  35   0.0000       0.142589         3.8800
  36   0.0000       0.148285         4.0351
  37   0.0000       0.162396         4.4190
  38   0.0000       0.185765         5.0549

MULLIKEN ATOMIC CHARGES
-----------------------
   0 C :   -0.408008
   1 C :    0.149910
   2 C :   -0.151968
   3 N :   -0.292239
   4 C :    0.230907
   5 C :   -0.172271
   6 C :   -0.059423
   7 O :   -0.464685
   8 O :   -0.221728
   9 H :    0.151013
  10 H :    0.147924
  11 H :    0.151014
  12 H :    0.137588
  13 H :    0.134901
  14 H :    0.134900
  15 H :    0.106976
  16 H :    0.106953
  17 H :    0.318237
Sum of atomic charges:   -0.0000000

LOEWDIN ATOMIC CHARGES
----------------------
   0 C :   -0.273495
   1 C :   -0.279626
   2 C :   -0.235808
   3 N :    0.116143
   4 C :   -0.339144
   5 C :   -0.232210
   6 C :   -0.338378
   7 O :   -0.051940
   8 O :    0.359727
   9 H :    0.136044
  10 H :    0.140187
  11 H :    0.136046
  12 H :    0.137190
  13 H :    0.155117
  14 H :    0.155120
  15 H :    0.120750
  16 H :    0.120744
  17 H :    0.173533

  Mayer bond orders larger than 0.1
B(  0-C ,  1-C ) :   0.8750 B(  0-C ,  9-H ) :   0.9290 B(  0-C , 10-H ) :   0.9483
B(  0-C , 11-H ) :   0.9290 B(  1-C ,  2-C ) :   1.5962 B(  1-C ,  8-O ) :   1.0057
B(  2-C ,  3-N ) :   1.1961 B(  2-C , 12-H ) :   0.9378 B(  3-N ,  4-C ) :   1.6050
B(  4-C ,  5-C ) :   0.9108 B(  4-C ,  8-O ) :   1.0646 B(  5-C ,  6-C ) :   0.9520
B(  5-C ,  7-O ) :  -0.1005 B(  5-C , 13-H ) :   0.9129 B(  5-C , 14-H ) :   0.9128
B(  6-C ,  7-O ) :   1.0145 B(  6-C , 15-H ) :   0.9310 B(  6-C , 16-H ) :   0.9310
B(  7-O , 17-H ) :   0.8486

MP2 TOTAL ENERGY:     -438.401805890 Eh
FINAL SINGLE POINT ENERGY      -438.401805889557

DIPOLE MOMENT
-------------
                                X             Y             Z
Electronic contribution:     -0.25314      -0.78829      -0.44226
Nuclear contribution   :     -0.02386       1.18746       0.51900
                        -----------------------------------------
Total Dipole Moment    :     -0.27700       0.39917       0.07674
                        -----------------------------------------
Magnitude (a.u.)       :      0.49189
Magnitude (Debye)      :      1.25029

                             ****ORCA TERMINATED NORMALLY****
TOTAL RUN TIME: 0 days 0 hours 15 minutes 12 seconds 848 msec
