                         Program Version 3.0.3 - RELEASE   -
|  1> ! RI-MP2 RIJK def2-TZVP def2-TZVP/C def2-TZVP/JK TIGHTSCF
|  2> % maxcore 2000
|  3> % mp2 density relaxed end
|  4> *xyz 0 1
|  5>  N       -0.3384780461     1.4428324619    -0.0939941413
|  6>  C       -0.2314635026     0.0385225933    -0.0391615376
|  7>  C       -1.1748469274    -0.9745717209    -0.0317666130
|  8>  C       -2.6685549232    -0.8132240059    -0.0006815617
|  9>  C       -3.2947342946    -0.3400005339    -1.3143891800
| 10>  O       -2.9587239474     1.0355725289    -1.5099008592
| 11>  C       -0.4512826371    -2.2074274348    -0.0390850435
| 12>  C        0.8906085862    -1.9157178681    -0.0380212585
| 13>  N        1.0108898906    -0.5463146741    -0.0424157644
| 14>  H       -0.2879571935     1.8712304037     0.8262869900
| 15>  H       -1.2285637267     1.6878420623    -0.5181889233
| 16>  H       -3.1287859133    -1.7727261159     0.2612084729
| 17>  H       -2.9726099591    -0.1007188924     0.7783051835
| 18>  H       -2.9207294918    -0.9542382086    -2.1450829116
| 19>  H       -4.3890486592    -0.4539495681    -1.2692459207
| 20>  H       -3.1206905277     1.2637245471    -2.4292708457
| 21>  H       -0.8830200057    -3.1978213706    -0.0235288847
| 22>  H        1.7595530698    -2.5530890560    -0.0258003454
| 23>  H        1.8649300889    -0.0219570178    -0.1206437460
| 24> *
| 25>
| 26>                          ****END OF INPUT****

CARTESIAN COORDINATES (ANGSTROEM)
---------------------------------
  N     -0.338478    1.442832   -0.093994
  C     -0.231464    0.038523   -0.039162
  C     -1.174847   -0.974572   -0.031767
  C     -2.668555   -0.813224   -0.000682
  C     -3.294734   -0.340001   -1.314389
  O     -2.958724    1.035573   -1.509901
  C     -0.451283   -2.207427   -0.039085
  C      0.890609   -1.915718   -0.038021
  N      1.010890   -0.546315   -0.042416
  H     -0.287957    1.871230    0.826287
  H     -1.228564    1.687842   -0.518189
  H     -3.128786   -1.772726    0.261208
  H     -2.972610   -0.100719    0.778305
  H     -2.920729   -0.954238   -2.145083
  H     -4.389049   -0.453950   -1.269246
  H     -3.120691    1.263725   -2.429271
  H     -0.883020   -3.197821   -0.023529
  H      1.759553   -2.553089   -0.025800
  H      1.864930   -0.021957   -0.120644

 Total Charge           Charge          ....    0
 Multiplicity           Mult            ....    1
 Number of Electrons    NEL             ....   68
 Basis Dimension        Dim             ....  339

ORBITAL ENERGIES
----------------

  NO   OCC          E(Eh)            E(eV)
   0   2.0000     -20.561250      -559.5001
   1   2.0000     -15.586215      -424.1225
   2   2.0000     -15.541597      -422.9083
   3   2.0000     -11.275411      -306.8195
   4   2.0000     -11.270034      -306.6732
   5   2.0000     -11.236636      -305.7644
   6   2.0000     -11.221514      -305.3529
   7   2.0000     -11.198497      -304.7266
   8   2.0000     -11.196726      -304.6784
   9   2.0000      -1.363627       -37.1062
  10   2.0000      -1.286979       -35.0205
  11   2.0000      -1.167600       -31.7720
  12   2.0000      -1.063326       -28.9346
  13   2.0000      -0.995022       -27.0759
  14   2.0000      -0.934585       -25.4314
  15   2.0000      -0.845662       -23.0116
  16   2.0000      -0.778859       -21.1938
  17   2.0000      -0.731053       -19.8930
  18   2.0000      -0.710542       -19.3348
  19   2.0000      -0.704368       -19.1668
  20   2.0000      -0.655432       -17.8352
  21   2.0000      -0.635550       -17.2942
  22   2.0000      -0.591739       -16.1020
  23   2.0000      -0.578491       -15.7416
  24   2.0000      -0.569016       -15.4837
  25   2.0000      -0.563212       -15.3258
  26   2.0000      -0.547449       -14.8968
  27   2.0000      -0.515820       -14.0362
  28   2.0000      -0.498885       -13.5753
  29   2.0000      -0.491180       -13.3657
  30   2.0000      -0.448087       -12.1931
  31   2.0000      -0.419606       -11.4181
  32   2.0000      -0.331645        -9.0245
  33   2.0000      -0.269659        -7.3378
  34   0.0000       0.132342         3.6012
  35   0.0000       0.149630         4.0717
  36   0.0000       0.162897         4.4327
  37   0.0000       0.164579         4.4784
  38   0.0000       0.183806         5.0016

MULLIKEN ATOMIC CHARGES
-----------------------
   0 N :   -0.535535
   1 C :    0.071321
   2 C :    0.067570
   3 C :   -0.269630
   4 C :   -0.036637
   5 O :   -0.505101
   6 C :   -0.252943
   7 C :   -0.077532
   8 N :   -0.252864
   9 H :    0.242578
  10 H :    0.272160
  11 H :    0.128862
  12 H :    0.122591
  13 H :    0.110832
  14 H :    0.097843
  15 H :    0.323580
  16 H :    0.115121
  17 H :    0.139795
  18 H :    0.237989
Sum of atomic charges:    0.0000000

LOEWDIN ATOMIC CHARGES
----------------------
   0 N :   -0.119689
   1 C :   -0.310258
   2 C :   -0.185816
   3 C :   -0.239495
   4 C :   -0.334469
   5 O :   -0.057297
   6 C :   -0.188803
   7 C :   -0.248710
   8 N :    0.194026
   9 H :    0.161955
  10 H :    0.166837
  11 H :    0.150738
  12 H :    0.147288
  13 H :    0.119679
  14 H :    0.114418
  15 H :    0.173528
  16 H :    0.136729
  17 H :    0.129368
  18 H :    0.189972

  Mayer bond orders larger than 0.1
B(  0-N ,  1-C ) :   1.0938 B(  0-N ,  9-H ) :   0.8765 B(  0-N , 10-H ) :   0.8694
B(  1-C ,  2-C ) :   1.4343 B(  1-C ,  8-N ) :   1.1633 B(  2-C ,  3-C ) :   0.8903
B(  2-C ,  6-C ) :   1.2214 B(  3-C ,  4-C ) :   0.9203 B(  3-C , 11-H ) :   0.9361
B(  3-C , 12-H ) :   0.9345 B(  4-C ,  5-O ) :   0.9443 B(  4-C , 13-H ) :   0.9298
B(  4-C , 14-H ) :   0.9302 B(  5-O , 15-H ) :   0.8446 B(  6-C ,  7-C ) :   1.4987
B(  6-C , 16-H ) :   0.9390 B(  7-C ,  8-N ) :   1.1072 B(  7-C , 17-H ) :   0.9218
B(  8-N , 18-H ) :   0.8682

MP2 TOTAL ENERGY:     -418.536079375 Eh
FINAL SINGLE POINT ENERGY      -418.536079375228

DIPOLE MOMENT
-------------
                                X             Y             Z
Electronic contribution:      4.06344       0.36691       0.53567
Nuclear contribution   :     -4.21547      -0.23948      -0.79559
                        -----------------------------------------
Total Dipole Moment    :     -0.15204       0.12743      -0.25991
                        -----------------------------------------
Magnitude (a.u.)       :      0.32697
Magnitude (Debye)      :      0.83109

                             ****ORCA TERMINATED NORMALLY****
TOTAL RUN TIME: 0 days 0 hours 18 minutes 10 seconds 664 msec
