                         Program Version 3.0.3 - RELEASE   -
|  1> ! RI-MP2 RIJK def2-TZVP def2-TZVP/C def2-TZVP/JK TIGHTSCF
|  2> % maxcore 2000
|  3> % mp2 density relaxed end
|  4> *xyz 0 1
|  5>  C       -0.0081146092     1.4080533732    -0.1302505256
|  6>  N        0.0408345441    -0.0438231199    -0.1034027743
|  7>  C       -1.0500411749    -0.6692666215     0.0403481123
|  8>  N       -2.3350192920    -0.1739181102     0.2409972512
|  9>  C       -3.4035455337    -1.1363383608     0.0234966681
| 10>  C       -2.6285319593    -2.4150305940    -0.2877117044
| 11>  O       -3.0465153798    -3.4101443673    -0.8190113863
| 12>  C       -1.1698427038    -2.1884990722     0.0948742654
| 13>  O       -0.2754526249    -2.8984179689    -0.7022437395
| 14>  H        0.9766549272     1.7995054113    -0.3963908260
| 15>  H       -0.7289921983     1.8006330714    -0.8671945381
| 16>  H       -0.2767734368     1.8299720415     0.8506414583
| 17>  H       -2.5142031255     0.8130245071     0.1660358342
| 18>  H       -4.0397157757    -1.2767848480     0.9085151502
| 19>  H       -4.0575599406    -0.8893068349    -0.8219954370
| 20>  H       -1.0801631263    -2.4752895584     1.1620912920
| 21>  H       -0.7753151305    -3.6436716185    -1.0652566306
| 22> *
| 23>
| 24>                          ****END OF INPUT****

CARTESIAN COORDINATES (ANGSTROEM)
---------------------------------
  C     -0.008115    1.408053   -0.130251
  N      0.040835   -0.043823   -0.103403
  C     -1.050041   -0.669267    0.040348
  N     -2.335019   -0.173918    0.240997
  C     -3.403546   -1.136338    0.023497
  C     -2.628532   -2.415031   -0.287712
  O     -3.046515   -3.410144   -0.819011
  C     -1.169843   -2.188499    0.094874
  O     -0.275453   -2.898418   -0.702244
  H      0.976655    1.799505   -0.396391
  H     -0.728992    1.800633   -0.867195
  H     -0.276773    1.829972    0.850641
  H     -2.514203    0.813025    0.166036
  H     -4.039716   -1.276785    0.908515
  H     -4.057560   -0.889307   -0.821995
  H     -1.080163   -2.475290    1.162091
  H     -0.775315   -3.643672   -1.065257

 Total Charge           Charge          ....    0
 Multiplicity           Mult            ....    1
 Number of Electrons    NEL             ....   68
 Basis Dimension        Dim             ....  327

ORBITAL ENERGIES
----------------

  NO   OCC          E(Eh)            E(eV)
   0   2.0000     -20.581708      -560.0568
   1   2.0000     -20.571462      -559.7780
   2   2.0000     -15.598528      -424.4575
   3   2.0000     -15.534808      -422.7236
   4   2.0000     -11.359436      -309.1060
   5   2.0000     -11.321798      -308.0818
   6   2.0000     -11.312061      -307.8168
   7   2.0000     -11.302392      -307.5537
   8   2.0000     -11.248156      -306.0779
   9   2.0000      -1.431099       -38.9422
  10   2.0000      -1.380692       -37.5706
  11   2.0000      -1.299762       -35.3683
  12   2.0000      -1.195178       -32.5224
  13   2.0000      -1.035140       -28.1676
  14   2.0000      -0.994838       -27.0709
  15   2.0000      -0.921825       -25.0841
  16   2.0000      -0.799913       -21.7667
  17   2.0000      -0.783961       -21.3327
  18   2.0000      -0.722461       -19.6592
  19   2.0000      -0.698815       -19.0157
  20   2.0000      -0.677169       -18.4267
  21   2.0000      -0.652801       -17.7636
  22   2.0000      -0.642927       -17.4949
  23   2.0000      -0.634584       -17.2679
  24   2.0000      -0.610075       -16.6010
  25   2.0000      -0.592821       -16.1315
  26   2.0000      -0.568022       -15.4567
  27   2.0000      -0.551888       -15.0176
  28   2.0000      -0.534696       -14.5498
  29   2.0000      -0.488977       -13.3057
  30   2.0000      -0.469346       -12.7716
  31   2.0000      -0.434555       -11.8249
  32   2.0000      -0.401324       -10.9206
  33   2.0000      -0.361231        -9.8296
  34   0.0000       0.103714         2.8222
  35   0.0000       0.117455         3.1961
  36   0.0000       0.140430         3.8213
  37   0.0000       0.163581         4.4513
  38   0.0000       0.176858         4.8126

MULLIKEN ATOMIC CHARGES
-----------------------
   0 C :   -0.326857
   1 N :   -0.215467
   2 C :    0.083480
   3 N :   -0.356736
   4 C :   -0.112261
   5 C :    0.130706
   6 O :   -0.277862
   7 C :    0.143593
   8 O :   -0.445762
   9 H :    0.153567
  10 H :    0.110631
  11 H :    0.134089
  12 H :    0.245375
  13 H :    0.142488
  14 H :    0.143276
  15 H :    0.117285
  16 H :    0.330454
Sum of atomic charges:    0.0000000

LOEWDIN ATOMIC CHARGES
----------------------
   0 C :   -0.346015
   1 N :    0.070082
   2 C :   -0.336319
   3 N :    0.095240
   4 C :   -0.238049
   5 C :   -0.295639
   6 O :    0.164442
   7 C :   -0.291396
   8 O :    0.022571
   9 H :    0.118328
  10 H :    0.104483
  11 H :    0.111446
  12 H :    0.180836
  13 H :    0.143495
  14 H :    0.143429
  15 H :    0.165205
  16 H :    0.187859

  Mayer bond orders larger than 0.1
B(  0-C ,  1-N ) :   0.8811 B(  0-C ,  9-H ) :   0.9497 B(  0-C , 10-H ) :   0.9228
B(  0-C , 11-H ) :   0.9253 B(  1-N ,  2-C ) :   1.9792 B(  2-C ,  3-N ) :   1.0589
B(  2-C ,  7-C ) :   0.8162 B(  3-N ,  4-C ) :   0.9117 B(  3-N , 12-H ) :   0.8733
B(  4-C ,  5-C ) :   0.9288 B(  4-C , 13-H ) :   0.8971 B(  4-C , 14-H ) :   0.9165
B(  5-C ,  6-O ) :   1.9945 B(  5-C ,  7-C ) :   0.9043 B(  7-C ,  8-O ) :   1.1295
B(  7-C , 15-H ) :   0.9414 B(  8-O , 16-H ) :   0.8194

MP2 TOTAL ENERGY:     -454.419071199 Eh
FINAL SINGLE POINT ENERGY      -454.419071198899

DIPOLE MOMENT
-------------
                                X             Y             Z
Electronic contribution:     -1.18060      -6.85306      -0.98144
Nuclear contribution   :     -0.17805       7.77233       1.42565
                        -----------------------------------------
Total Dipole Moment    :     -1.35864       0.91927       0.44421
                        -----------------------------------------
Magnitude (a.u.)       :      1.69950
Magnitude (Debye)      :      4.31978

                             ****ORCA TERMINATED NORMALLY****
TOTAL RUN TIME: 0 days 0 hours 15 minutes 51 seconds 41 msec
