                         Program Version 3.0.3 - RELEASE   -
|  1> ! RI-MP2 RIJK def2-TZVP def2-TZVP/C def2-TZVP/JK TIGHTSCF
|  2> % maxcore 2000
|  3> % mp2 density relaxed end
|  4> *xyz 0 1
|  5>  C       -0.0438997659     1.4952075820     0.0483232593
|  6>  C        0.0789645658    -0.0084036155     0.0138573685
|  7>  O       -0.6533081287    -0.6966858008     1.0683126018
|  8>  C        0.7784127650    -0.7307829898     1.0897324325
|  9>  C        1.4265396316    -2.0693508129     0.8126319735
| 10>  O        1.5100274203    -2.8606433048     1.9920052718
| 11>  C        0.7247732831    -2.8319512428    -0.3280205626
| 12>  C        0.3354679422    -1.9509928784    -1.4859185315
| 13>  C        0.0296945405    -0.6636265620    -1.3250224603
| 14>  H        0.7639955708     1.9627371389    -0.5249193784
| 15>  H       -0.9951527659     1.8124174294    -0.3929000070
| 16>  H       -0.0036848137     1.8630424150     1.0760065326
| 17>  H        1.2355130045    -0.1610846687     1.9004110754
| 18>  H        2.4692955475    -1.8758786738     0.5305016346
| 19>  H        0.6105143672    -2.9720180890     2.3215292198
| 20>  H        1.3655630934    -3.6562904701    -0.6543784394
| 21>  H       -0.1835837486    -3.2927660398     0.0850027676
| 22>  H        0.2681210958    -2.4080517123    -2.4692382945
| 23>  H       -0.2738099049    -0.0498925246    -2.1681562837
| 24> *
| 25>
| 26>                          ****END OF INPUT****

CARTESIAN COORDINATES (ANGSTROEM)
---------------------------------
  C     -0.043900    1.495208    0.048323
  C      0.078965   -0.008404    0.013857
  O     -0.653308   -0.696686    1.068313
  C      0.778413   -0.730783    1.089732
  C      1.426540   -2.069351    0.812632
  O      1.510027   -2.860643    1.992005
  C      0.724773   -2.831951   -0.328021
  C      0.335468   -1.950993   -1.485919
  C      0.029695   -0.663627   -1.325022
  H      0.763996    1.962737   -0.524919
  H     -0.995153    1.812417   -0.392900
  H     -0.003685    1.863042    1.076007
  H      1.235513   -0.161085    1.900411
  H      2.469296   -1.875879    0.530502
  H      0.610514   -2.972018    2.321529
  H      1.365563   -3.656290   -0.654378
  H     -0.183584   -3.292766    0.085003
  H      0.268121   -2.408052   -2.469238
  H     -0.273810   -0.049893   -2.168156

 Total Charge           Charge          ....    0
 Multiplicity           Mult            ....    1
 Number of Electrons    NEL             ....   68
 Basis Dimension        Dim             ....  339

ORBITAL ENERGIES
----------------

  NO   OCC          E(Eh)            E(eV)
   0   2.0000     -20.565804      -559.6240
   1   2.0000     -20.559050      -559.4402
   2   2.0000     -11.298416      -307.4455
   3   2.0000     -11.289527      -307.2037
   4   2.0000     -11.283149      -307.0301
   5   2.0000     -11.242595      -305.9266
   6   2.0000     -11.233757      -305.6861
   7   2.0000     -11.233294      -305.6735
   8   2.0000     -11.229405      -305.5677
   9   2.0000      -1.410283       -38.3758
  10   2.0000      -1.363602       -37.1055
  11   2.0000      -1.104618       -30.0582
  12   2.0000      -1.032232       -28.0885
  13   2.0000      -0.992161       -26.9981
  14   2.0000      -0.933777       -25.4094
  15   2.0000      -0.832353       -22.6495
  16   2.0000      -0.827431       -22.5156
  17   2.0000      -0.735359       -20.0101
  18   2.0000      -0.704473       -19.1697
  19   2.0000      -0.656204       -17.8562
  20   2.0000      -0.636556       -17.3216
  21   2.0000      -0.631181       -17.1753
  22   2.0000      -0.619147       -16.8478
  23   2.0000      -0.590097       -16.0574
  24   2.0000      -0.564797       -15.3689
  25   2.0000      -0.550240       -14.9728
  26   2.0000      -0.542984       -14.7754
  27   2.0000      -0.528788       -14.3890
  28   2.0000      -0.510433       -13.8896
  29   2.0000      -0.490969       -13.3599
  30   2.0000      -0.456311       -12.4168
  31   2.0000      -0.448350       -12.2002
  32   2.0000      -0.428582       -11.6623
  33   2.0000      -0.354341        -9.6421
  34   0.0000       0.128412         3.4943
  35   0.0000       0.138939         3.7807
  36   0.0000       0.154741         4.2107
  37   0.0000       0.162507         4.4221
  38   0.0000       0.171763         4.6739

MULLIKEN ATOMIC CHARGES
-----------------------
   0 C :   -0.430323
   1 C :    0.357034
   2 O :   -0.345319
   3 C :   -0.099800
   4 C :    0.115739
   5 O :   -0.465310
   6 C :   -0.183688
   7 C :   -0.121029
   8 C :   -0.298709
   9 H :    0.138337
  10 H :    0.139861
  11 H :    0.145740
  12 H :    0.119283
  13 H :    0.099277
  14 H :    0.321480
  15 H :    0.136435
  16 H :    0.114574
  17 H :    0.129619
  18 H :    0.126801
Sum of atomic charges:   -0.0000000

LOEWDIN ATOMIC CHARGES
----------------------
   0 C :   -0.262545
   1 C :   -0.297684
   2 O :    0.174916
   3 C :   -0.237085
   4 C :   -0.320556
   5 O :   -0.017047
   6 C :   -0.230261
   7 C :   -0.143471
   8 C :   -0.133493
   9 H :    0.132937
  10 H :    0.132174
  11 H :    0.133458
  12 H :    0.143275
  13 H :    0.154349
  14 H :    0.178659
  15 H :    0.145461
  16 H :    0.154036
  17 H :    0.144008
  18 H :    0.148872

  Mayer bond orders larger than 0.1
B(  0-C ,  1-C ) :   0.8698 B(  0-C ,  9-H ) :   0.9322 B(  0-C , 10-H ) :   0.9371
B(  0-C , 11-H ) :   0.9422 B(  1-C ,  2-O ) :   0.7994 B(  1-C ,  3-C ) :   0.9180
B(  1-C ,  8-C ) :   0.9333 B(  2-O ,  3-C ) :   0.9360 B(  3-C ,  4-C ) :   0.9460
B(  3-C , 12-H ) :   0.9357 B(  4-C ,  5-O ) :   0.8930 B(  4-C ,  6-C ) :   0.9608
B(  4-C , 13-H ) :   0.8977 B(  5-O , 14-H ) :   0.8388 B(  6-C ,  7-C ) :   0.9311
B(  6-C , 15-H ) :   0.9397 B(  6-C , 16-H ) :   0.8750 B(  7-C ,  8-C ) :   1.7927
B(  7-C , 17-H ) :   0.9274 B(  8-C , 18-H ) :   0.9338

MP2 TOTAL ENERGY:     -422.319171161 Eh
FINAL SINGLE POINT ENERGY      -422.319171161066

DIPOLE MOMENT
-------------
                                X             Y             Z
Electronic contribution:     -0.47911      -2.32205       2.21947
Nuclear contribution   :      0.54285       2.67532      -2.81062
                        -----------------------------------------
Total Dipole Moment    :      0.06374       0.35327      -0.59114
                        -----------------------------------------
Magnitude (a.u.)       :      0.69160
Magnitude (Debye)      :      1.75792

                             ****ORCA TERMINATED NORMALLY****
TOTAL RUN TIME: 0 days 0 hours 19 minutes 5 seconds 468 msec
