                         Program Version 3.0.3 - RELEASE   -
|  1> ! RI-MP2 RIJK def2-TZVP def2-TZVP/C def2-TZVP/JK TIGHTSCF
|  2> % maxcore 2000
|  3> % mp2 density relaxed end
|  4> *xyz 0 1
|  5>  C        0.0019896871     1.4677119577     0.1293761730
|  6>  C        1.5347101524     1.3986905174     0.0028661578
|  7>  O        2.1264471918     1.1137545087     1.2636268822
|  8>  C        1.2762906474     0.3195218192     2.0969700370
|  9>  C        0.4994170397    -0.7038335756     1.2356331848
| 10>  C        1.5165002755    -1.6761731880     0.6621271190
| 11>  C        2.0084787795    -1.1776146238    -0.4690826674
| 12>  C        1.2506104476     0.0697560132    -0.7979145657
| 13>  N       -0.0390815461    -0.0341329210    -0.0004045999
| 14>  H       -0.4402930729     1.8999261650     1.0287227837
| 15>  H       -0.4757728713     1.9090722394    -0.7493418670
| 16>  H        2.1155019185     2.2072660404    -0.4488801561
| 17>  H        1.9258353597    -0.1789005417     2.8226759943
| 18>  H        0.5843861560     0.9625184133     2.6592296225
| 19>  H       -0.3048273997    -1.1689535750     1.8153547234
| 20>  H        1.8457447996    -2.5652263048     1.1855788286
| 21>  H        2.8090864788    -1.5854958154    -1.0720931968
| 22>  H        1.0587603566     0.2483948409    -1.8608669634
| 23> *
| 24>
| 25>                          ****END OF INPUT****

CARTESIAN COORDINATES (ANGSTROEM)
---------------------------------
  C      0.001990    1.467712    0.129376
  C      1.534710    1.398691    0.002866
  O      2.126447    1.113755    1.263627
  C      1.276291    0.319522    2.096970
  C      0.499417   -0.703834    1.235633
  C      1.516500   -1.676173    0.662127
  C      2.008479   -1.177615   -0.469083
  C      1.250610    0.069756   -0.797915
  N     -0.039082   -0.034133   -0.000405
  H     -0.440293    1.899926    1.028723
  H     -0.475773    1.909072   -0.749342
  H      2.115502    2.207266   -0.448880
  H      1.925835   -0.178901    2.822676
  H      0.584386    0.962518    2.659230
  H     -0.304827   -1.168954    1.815355
  H      1.845745   -2.565226    1.185579
  H      2.809086   -1.585496   -1.072093
  H      1.058760    0.248395   -1.860867

 Total Charge           Charge          ....    0
 Multiplicity           Mult            ....    1
 Number of Electrons    NEL             ....   66
 Basis Dimension        Dim             ....  333

ORBITAL ENERGIES
----------------

  NO   OCC          E(Eh)            E(eV)
   0   2.0000     -20.555706      -559.3492
   1   2.0000     -15.553546      -423.2335
   2   2.0000     -11.286485      -307.1209
   3   2.0000     -11.277237      -306.8692
   4   2.0000     -11.263801      -306.5036
   5   2.0000     -11.259577      -306.3887
   6   2.0000     -11.252539      -306.1971
   7   2.0000     -11.230725      -305.6036
   8   2.0000     -11.227605      -305.5187
   9   2.0000      -1.383664       -37.6514
  10   2.0000      -1.249750       -34.0074
  11   2.0000      -1.084780       -29.5184
  12   2.0000      -1.028775       -27.9944
  13   2.0000      -0.914969       -24.8976
  14   2.0000      -0.892530       -24.2870
  15   2.0000      -0.867874       -23.6160
  16   2.0000      -0.758651       -20.6439
  17   2.0000      -0.728180       -19.8148
  18   2.0000      -0.703383       -19.1400
  19   2.0000      -0.666467       -18.1355
  20   2.0000      -0.652243       -17.7484
  21   2.0000      -0.612858       -16.6767
  22   2.0000      -0.582467       -15.8497
  23   2.0000      -0.564984       -15.3740
  24   2.0000      -0.557470       -15.1695
  25   2.0000      -0.534162       -14.5353
  26   2.0000      -0.515032       -14.0147
  27   2.0000      -0.494679       -13.4609
  28   2.0000      -0.479113       -13.0373
  29   2.0000      -0.464916       -12.6510
  30   2.0000      -0.414989       -11.2924
  31   2.0000      -0.378882       -10.3099
  32   2.0000      -0.332377        -9.0444
  33   0.0000       0.134520         3.6605
  34   0.0000       0.148585         4.0432
  35   0.0000       0.164461         4.4752
  36   0.0000       0.169255         4.6057
  37   0.0000       0.188471         5.1286

MULLIKEN ATOMIC CHARGES
-----------------------
   0 C :   -0.215173
   1 C :    0.094277
   2 O :   -0.315833
   3 C :   -0.090982
   4 C :    0.042010
   5 C :   -0.197307
   6 C :   -0.221866
   7 C :   -0.031321
   8 N :   -0.179488
   9 H :    0.128984
  10 H :    0.127874
  11 H :    0.116616
  12 H :    0.122713
  13 H :    0.108283
  14 H :    0.122753
  15 H :    0.134169
  16 H :    0.133888
  17 H :    0.120403
Sum of atomic charges:   -0.0000000

LOEWDIN ATOMIC CHARGES
----------------------
   0 C :   -0.243214
   1 C :   -0.272026
   2 O :    0.173780
   3 C :   -0.283726
   4 C :   -0.249552
   5 C :   -0.124351
   6 C :   -0.133158
   7 C :   -0.206072
   8 N :    0.127010
   9 H :    0.125178
  10 H :    0.136564
  11 H :    0.128614
  12 H :    0.133787
  13 H :    0.119861
  14 H :    0.144044
  15 H :    0.138700
  16 H :    0.139578
  17 H :    0.144982

  Mayer bond orders larger than 0.1
B(  0-C ,  1-C ) :   0.9154 B(  0-C ,  8-N ) :   0.9083 B(  0-C ,  9-H ) :   0.9261
B(  0-C , 10-H ) :   0.9222 B(  1-C ,  2-O ) :   0.9541 B(  1-C ,  7-C ) :   0.8782
B(  1-C , 11-H ) :   0.9219 B(  2-O ,  3-C ) :   0.9254 B(  3-C ,  4-C ) :   0.9099
B(  3-C , 12-H ) :   0.9156 B(  3-C , 13-H ) :   0.9298 B(  4-C ,  5-C ) :   0.9389
B(  4-C ,  8-N ) :   0.9436 B(  4-C , 14-H ) :   0.9105 B(  5-C ,  6-C ) :   1.8084
B(  5-C , 15-H ) :   0.9220 B(  6-C ,  7-C ) :   0.9814 B(  6-C , 16-H ) :   0.9209
B(  7-C ,  8-N ) :   0.9519 B(  7-C , 17-H ) :   0.8947

MP2 TOTAL ENERGY:     -401.218470737 Eh
FINAL SINGLE POINT ENERGY      -401.218470737401

DIPOLE MOMENT
-------------
                                X             Y             Z
Electronic contribution:      1.05795      -0.51752      -0.83985
Nuclear contribution   :     -1.02258       0.57575       0.94389
                        -----------------------------------------
Total Dipole Moment    :      0.03537       0.05823       0.10404
                        -----------------------------------------
Magnitude (a.u.)       :      0.12436
Magnitude (Debye)      :      0.31611

                             ****ORCA TERMINATED NORMALLY****
TOTAL RUN TIME: 0 days 0 hours 19 minutes 57 seconds 564 msec
