                         Program Version 3.0.3 - RELEASE   -
|  1> ! RI-MP2 RIJK def2-TZVP def2-TZVP/C def2-TZVP/JK TIGHTSCF
|  2> % maxcore 2000
|  3> % mp2 density relaxed end
|  4> *xyz 0 1
|  5>  C       -1.3000700313    -2.0352812497     0.1750123417
|  6>  C       -0.2565824323    -2.9222732477    -0.4978542035
|  7>  N        0.6308822281    -2.0939571773    -1.3307272679
|  8>  C        1.7283651295    -1.3288905150    -0.7722892285
|  9>  C        2.1287073433    -1.3695161580     0.6700467688
| 10>  O        2.5734020033    -0.3909776681     1.2211303896
| 11>  C        1.9708105705    -2.5203197676    -1.7028659960
| 12>  C        2.6198509146    -3.7725372440    -1.2103704311
| 13>  O        2.4274245193    -4.3086845813    -0.1436088038
| 14>  H       -0.8379866934    -1.3479344740     0.8913880133
| 15>  H       -1.8402952183    -1.4396376103    -0.5658844946
| 16>  H       -2.0200082008    -2.6516183763     0.7208933693
| 17>  H        0.2765252064    -3.5319874517     0.2373577242
| 18>  H       -0.7470369283    -3.6157568393    -1.1899941800
| 19>  H        1.8724478245    -0.3428085011    -1.2100079844
| 20>  H        1.9963589992    -2.3294034788     1.1984168022
| 21>  H        2.2460791742    -2.2727469094    -2.7271213188
| 22>  H        3.3241214216    -4.2149805303    -1.9484916104
| 23> *
| 24>
| 25>                          ****END OF INPUT****

CARTESIAN COORDINATES (ANGSTROEM)
---------------------------------
  C     -1.300070   -2.035281    0.175012
  C     -0.256582   -2.922273   -0.497854
  N      0.630882   -2.093957   -1.330727
  C      1.728365   -1.328891   -0.772289
  C      2.128707   -1.369516    0.670047
  O      2.573402   -0.390978    1.221130
  C      1.970811   -2.520320   -1.702866
  C      2.619851   -3.772537   -1.210370
  O      2.427425   -4.308685   -0.143609
  H     -0.837987   -1.347934    0.891388
  H     -1.840295   -1.439638   -0.565884
  H     -2.020008   -2.651618    0.720893
  H      0.276525   -3.531987    0.237358
  H     -0.747037   -3.615757   -1.189994
  H      1.872448   -0.342809   -1.210008
  H      1.996359   -2.329403    1.198417
  H      2.246079   -2.272747   -2.727121
  H      3.324121   -4.214981   -1.948492

 Total Charge           Charge          ....    0
 Multiplicity           Mult            ....    1
 Number of Electrons    NEL             ....   68
 Basis Dimension        Dim             ....  333

ORBITAL ENERGIES
----------------

  NO   OCC          E(Eh)            E(eV)
   0   2.0000     -20.579341      -559.9923
   1   2.0000     -20.565253      -559.6090
   2   2.0000     -15.598606      -424.4596
   3   2.0000     -11.359453      -309.1064
   4   2.0000     -11.339554      -308.5649
   5   2.0000     -11.300406      -307.4997
   6   2.0000     -11.297048      -307.4083
   7   2.0000     -11.268055      -306.6194
   8   2.0000     -11.226251      -305.4818
   9   2.0000      -1.420010       -38.6404
  10   2.0000      -1.402485       -38.1636
  11   2.0000      -1.307207       -35.5709
  12   2.0000      -1.065720       -28.9997
  13   2.0000      -0.970747       -26.4154
  14   2.0000      -0.954224       -25.9658
  15   2.0000      -0.876864       -23.8607
  16   2.0000      -0.791169       -21.5288
  17   2.0000      -0.783544       -21.3213
  18   2.0000      -0.721478       -19.6324
  19   2.0000      -0.693779       -18.8787
  20   2.0000      -0.670383       -18.2420
  21   2.0000      -0.645102       -17.5541
  22   2.0000      -0.630532       -17.1577
  23   2.0000      -0.611897       -16.6506
  24   2.0000      -0.592963       -16.1353
  25   2.0000      -0.561139       -15.2694
  26   2.0000      -0.553482       -15.0610
  27   2.0000      -0.536561       -14.6006
  28   2.0000      -0.515687       -14.0326
  29   2.0000      -0.510295       -13.8858
  30   2.0000      -0.483134       -13.1467
  31   2.0000      -0.441749       -12.0206
  32   2.0000      -0.427622       -11.6362
  33   2.0000      -0.392643       -10.6843
  34   0.0000       0.082365         2.2413
  35   0.0000       0.120924         3.2905
  36   0.0000       0.140007         3.8098
  37   0.0000       0.152840         4.1590
  38   0.0000       0.176375         4.7994

MULLIKEN ATOMIC CHARGES
-----------------------
   0 C :   -0.386565
   1 C :   -0.162308
   2 N :   -0.180606
   3 C :   -0.044370
   4 C :    0.056316
   5 O :   -0.257846
   6 C :   -0.061040
   7 C :    0.121123
   8 O :   -0.290523
   9 H :    0.133895
  10 H :    0.136331
  11 H :    0.136794
  12 H :    0.149045
  13 H :    0.125382
  14 H :    0.146822
  15 H :    0.135261
  16 H :    0.143539
  17 H :    0.098750
Sum of atomic charges:    0.0000000

LOEWDIN ATOMIC CHARGES
----------------------
   0 C :   -0.310846
   1 C :   -0.304971
   2 N :    0.159947
   3 C :   -0.212435
   4 C :   -0.282943
   5 O :    0.139946
   6 C :   -0.230499
   7 C :   -0.286643
   8 O :    0.131109
   9 H :    0.123651
  10 H :    0.126033
  11 H :    0.127116
  12 H :    0.129264
  13 H :    0.136641
  14 H :    0.155075
  15 H :    0.125255
  16 H :    0.153264
  17 H :    0.121036

  Mayer bond orders larger than 0.1
B(  0-C ,  1-C ) :   0.9237 B(  0-C ,  9-H ) :   0.9353 B(  0-C , 10-H ) :   0.9335
B(  0-C , 11-H ) :   0.9351 B(  1-C ,  2-N ) :   0.8512 B(  1-C , 12-H ) :   0.9249
B(  1-C , 13-H ) :   0.9249 B(  2-N ,  3-C ) :   0.8835 B(  2-N ,  6-C ) :   0.9153
B(  3-C ,  4-C ) :   0.8753 B(  3-C ,  6-C ) :   0.8184 B(  3-C , 14-H ) :   0.9110
B(  4-C ,  5-O ) :   1.9631 B(  4-C , 15-H ) :   0.9450 B(  6-C ,  7-C ) :   0.9225
B(  6-C , 16-H ) :   0.9009 B(  7-C ,  8-O ) :   1.8929 B(  7-C , 17-H ) :   0.9377

MP2 TOTAL ENERGY:     -438.333693403 Eh
FINAL SINGLE POINT ENERGY      -438.333693402913

DIPOLE MOMENT
-------------
                                X             Y             Z
Electronic contribution:      7.30537       0.41470       0.25458
Nuclear contribution   :     -7.64766      -0.87905      -1.22482
                        -----------------------------------------
Total Dipole Moment    :     -0.34229      -0.46435      -0.97024
                        -----------------------------------------
Magnitude (a.u.)       :      1.12878
Magnitude (Debye)      :      2.86914

                             ****ORCA TERMINATED NORMALLY****
TOTAL RUN TIME: 0 days 0 hours 17 minutes 35 seconds 561 msec
