                         Program Version 3.0.3 - RELEASE   -
|  1> ! RI-MP2 RIJK def2-TZVP def2-TZVP/C def2-TZVP/JK TIGHTSCF
|  2> % maxcore 2000
|  3> % mp2 density relaxed end
|  4> *xyz 0 1
|  5>  C       -0.0795101597     1.4852135089    -0.4973271252
|  6>  C       -0.0567048445     0.0439691495     0.0168045040
|  7>  C       -1.4548621180    -0.5779313260     0.1065910552
|  8>  O       -2.1235924917    -0.5713468346    -1.1513030130
|  9>  C       -1.4154559220    -2.0005039182     0.6972130787
| 10>  C       -2.8154291966    -2.5708778005     0.7694882717
| 11>  O       -3.6620146197    -2.2202858619     1.5519940742
| 12>  O       -3.0134813803    -3.5091611256    -0.1792483673
| 13>  C       -4.3389335302    -4.0529729917    -0.2288076007
| 14>  H        0.9338801664     1.8824607349    -0.6065072801
| 15>  H       -0.5795829012     1.5381025793    -1.4677019245
| 16>  H       -0.6236181799     2.1391912106     0.1926897687
| 17>  H        0.5621558926    -0.5812529421    -0.6434820934
| 18>  H        0.4139768527     0.0017756571     1.0070745994
| 19>  H       -2.0884379589     0.0395344643     0.7540261145
| 20>  H       -1.6541938884    -1.1742774212    -1.7394834344
| 21>  H       -0.7745009533    -2.6450180718     0.0871093386
| 22>  H       -1.0089714594    -1.9637489431     1.7121891608
| 23>  H       -4.5976790289    -4.5265476646     0.7214981402
| 24>  H       -5.0677553747    -3.2662523737    -0.4387975837
| 25>  H       -4.3284501142    -4.7894674195    -1.0324584437
| 26> *
| 27>
| 28>                          ****END OF INPUT****

CARTESIAN COORDINATES (ANGSTROEM)
---------------------------------
  C     -0.079510    1.485214   -0.497327
  C     -0.056705    0.043969    0.016805
  C     -1.454862   -0.577931    0.106591
  O     -2.123592   -0.571347   -1.151303
  C     -1.415456   -2.000504    0.697213
  C     -2.815429   -2.570878    0.769488
  O     -3.662015   -2.220286    1.551994
  O     -3.013481   -3.509161   -0.179248
  C     -4.338934   -4.052973   -0.228808
  H      0.933880    1.882461   -0.606507
  H     -0.579583    1.538103   -1.467702
  H     -0.623618    2.139191    0.192690
  H      0.562156   -0.581253   -0.643482
  H      0.413977    0.001776    1.007075
  H     -2.088438    0.039534    0.754026
  H     -1.654194   -1.174277   -1.739483
  H     -0.774501   -2.645018    0.087109
  H     -1.008971   -1.963749    1.712189
  H     -4.597679   -4.526548    0.721498
  H     -5.067755   -3.266252   -0.438798
  H     -4.328450   -4.789467   -1.032458

 Total Charge           Charge          ....    0
 Multiplicity           Mult            ....    1
 Number of Electrons    NEL             ....   72
 Basis Dimension        Dim             ....  351

ORBITAL ENERGIES
----------------

  NO   OCC          E(Eh)            E(eV)
   0   2.0000     -20.601300      -560.5899
   1   2.0000     -20.560873      -559.4898
   2   2.0000     -20.538747      -558.8877
   3   2.0000     -11.375813      -309.5516
   4   2.0000     -11.291686      -307.2624
   5   2.0000     -11.282388      -307.0094
   6   2.0000     -11.244550      -305.9798
   7   2.0000     -11.231147      -305.6150
   8   2.0000     -11.215525      -305.1899
   9   2.0000      -1.457845       -39.6700
  10   2.0000      -1.368528       -37.2395
  11   2.0000      -1.356714       -36.9181
  12   2.0000      -1.078344       -29.3432
  13   2.0000      -1.027533       -27.9606
  14   2.0000      -0.961345       -26.1595
  15   2.0000      -0.887704       -24.1557
  16   2.0000      -0.816664       -22.2225
  17   2.0000      -0.774725       -21.0813
  18   2.0000      -0.703067       -19.1314
  19   2.0000      -0.680136       -18.5074
  20   2.0000      -0.677704       -18.4413
  21   2.0000      -0.654771       -17.8172
  22   2.0000      -0.645336       -17.5605
  23   2.0000      -0.628339       -17.0980
  24   2.0000      -0.594963       -16.1898
  25   2.0000      -0.575294       -15.6545
  26   2.0000      -0.556182       -15.1345
  27   2.0000      -0.531607       -14.4658
  28   2.0000      -0.530114       -14.4251
  29   2.0000      -0.525013       -14.2863
  30   2.0000      -0.517114       -14.0714
  31   2.0000      -0.490839       -13.3564
  32   2.0000      -0.473328       -12.8799
  33   2.0000      -0.463925       -12.6241
  34   2.0000      -0.452783       -12.3209
  35   2.0000      -0.433777       -11.8037
  36   0.0000       0.125041         3.4025
  37   0.0000       0.153928         4.1886
  38   0.0000       0.161053         4.3825
  39   0.0000       0.166092         4.5196
  40   0.0000       0.179418         4.8822

MULLIKEN ATOMIC CHARGES
-----------------------
   0 C :   -0.373367
   1 C :   -0.193836
   2 C :    0.025892
   3 O :   -0.470477
   4 C :   -0.231600
   5 C :    0.344023
   6 O :   -0.335649
   7 O :   -0.260854
   8 C :   -0.222673
   9 H :    0.132802
  10 H :    0.136985
  11 H :    0.122716
  12 H :    0.099376
  13 H :    0.110482
  14 H :    0.110343
  15 H :    0.313465
  16 H :    0.131295
  17 H :    0.135307
  18 H :    0.139644
  19 H :    0.144985
  20 H :    0.141141
Sum of atomic charges:    0.0000000

LOEWDIN ATOMIC CHARGES
----------------------
   0 C :   -0.317190
   1 C :   -0.284477
   2 C :   -0.342818
   3 O :   -0.011186
   4 C :   -0.219571
   5 C :   -0.483294
   6 O :    0.124836
   7 O :    0.225006
   8 C :   -0.310298
   9 H :    0.120487
  10 H :    0.124779
  11 H :    0.122588
  12 H :    0.134842
  13 H :    0.140557
  14 H :    0.152979
  15 H :    0.176288
  16 H :    0.146721
  17 H :    0.156746
  18 H :    0.113722
  19 H :    0.115699
  20 H :    0.113587

  Mayer bond orders larger than 0.1
B(  0-C ,  1-C ) :   0.9300 B(  0-C ,  9-H ) :   0.9406 B(  0-C , 10-H ) :   0.9352
B(  0-C , 11-H ) :   0.9370 B(  1-C ,  2-C ) :   0.9367 B(  1-C , 12-H ) :   0.9144
B(  1-C , 13-H ) :   0.9316 B(  2-C ,  3-O ) :   0.8868 B(  2-C ,  4-C ) :   0.9455
B(  2-C , 14-H ) :   0.9228 B(  3-O , 15-H ) :   0.8404 B(  4-C ,  5-C ) :   0.9178
B(  4-C , 16-H ) :   0.9131 B(  4-C , 17-H ) :   0.9102 B(  5-C ,  6-O ) :   1.9210
B(  5-C ,  7-O ) :   1.1222 B(  7-O ,  8-C ) :   0.8421 B(  8-C , 18-H ) :   0.9394
B(  8-C , 19-H ) :   0.9381 B(  8-C , 20-H ) :   0.9339

MP2 TOTAL ENERGY:     -460.667697615 Eh
FINAL SINGLE POINT ENERGY      -460.667697614657

DIPOLE MOMENT
-------------
                                X             Y             Z
Electronic contribution:     -5.54698      -5.57828       2.00865
Nuclear contribution   :      6.31838       5.03983      -2.42581
                        -----------------------------------------
Total Dipole Moment    :      0.77141      -0.53844      -0.41716
                        -----------------------------------------
Magnitude (a.u.)       :      1.02908
Magnitude (Debye)      :      2.61572

                             ****ORCA TERMINATED NORMALLY****
TOTAL RUN TIME: 0 days 0 hours 16 minutes 15 seconds 357 msec
