                         Program Version 3.0.3 - RELEASE   -
|  1> ! RI-MP2 RIJK def2-TZVP def2-TZVP/C def2-TZVP/JK TIGHTSCF
|  2> % maxcore 2000
|  3> % mp2 density relaxed end
|  4> *xyz 0 1
|  5>  C        0.5130182019     1.6198271699    -0.0943309074
|  6>  N        0.8338711718     0.2014193985    -0.2001578977
|  7>  C       -0.1637325595    -0.5560949088    -0.9333697562
|  8>  C        0.1400903095    -2.0602551723    -0.8684982253
|  9>  O       -0.8885971679    -2.7349097460    -1.5472375345
| 10>  C       -0.8532255928    -4.1448211443    -1.4049624526
| 11>  C        1.4669085063    -2.3505499059    -1.4668318676
| 12>  N        2.4991510330    -2.5643534178    -1.9412131630
| 13>  H        0.3417226093     2.1186771311    -1.0643009223
| 14>  H       -0.3935753143     1.7460571557     0.5080904540
| 15>  H        1.3281137180     2.1385849790     0.4175049846
| 16>  H        1.7381606444     0.0940242736    -0.6495249202
| 17>  H       -1.1397305170    -0.4128696530    -0.4574294935
| 18>  H       -0.2742321609    -0.2681860642    -1.9933838735
| 19>  H        0.1898890511    -2.3623030671     0.1892221039
| 20>  H        0.0631245228    -4.5724400443    -1.8332098661
| 21>  H       -0.9233237923    -4.4417279833    -0.3482696054
| 22>  H       -1.7172712635    -4.5355421409    -1.9452400571
| 23> *
| 24>
| 25>                          ****END OF INPUT****

CARTESIAN COORDINATES (ANGSTROEM)
---------------------------------
  C      0.513018    1.619827   -0.094331
  N      0.833871    0.201419   -0.200158
  C     -0.163733   -0.556095   -0.933370
  C      0.140090   -2.060255   -0.868498
  O     -0.888597   -2.734910   -1.547238
  C     -0.853226   -4.144821   -1.404962
  C      1.466909   -2.350550   -1.466832
  N      2.499151   -2.564353   -1.941213
  H      0.341723    2.118677   -1.064301
  H     -0.393575    1.746057    0.508090
  H      1.328114    2.138585    0.417505
  H      1.738161    0.094024   -0.649525
  H     -1.139731   -0.412870   -0.457429
  H     -0.274232   -0.268186   -1.993384
  H      0.189889   -2.362303    0.189222
  H      0.063125   -4.572440   -1.833210
  H     -0.923324   -4.441728   -0.348270
  H     -1.717271   -4.535542   -1.945240

 Total Charge           Charge          ....    0
 Multiplicity           Mult            ....    1
 Number of Electrons    NEL             ....   62
 Basis Dimension        Dim             ....  308

ORBITAL ENERGIES
----------------

  NO   OCC          E(Eh)            E(eV)
   0   2.0000     -20.587647      -560.2184
   1   2.0000     -15.579191      -423.9313
   2   2.0000     -15.557903      -423.3521
   3   2.0000     -11.337789      -308.5169
   4   2.0000     -11.288462      -307.1747
   5   2.0000     -11.276350      -306.8451
   6   2.0000     -11.273252      -306.7608
   7   2.0000     -11.254050      -306.2383
   8   2.0000      -1.410912       -38.3929
   9   2.0000      -1.230083       -33.4723
  10   2.0000      -1.217176       -33.1210
  11   2.0000      -1.054346       -28.6902
  12   2.0000      -0.943606       -25.6768
  13   2.0000      -0.910339       -24.7716
  14   2.0000      -0.866816       -23.5873
  15   2.0000      -0.740707       -20.1557
  16   2.0000      -0.701618       -19.0920
  17   2.0000      -0.685908       -18.6645
  18   2.0000      -0.646518       -17.5926
  19   2.0000      -0.619661       -16.8618
  20   2.0000      -0.606613       -16.5068
  21   2.0000      -0.591805       -16.1038
  22   2.0000      -0.572101       -15.5677
  23   2.0000      -0.541525       -14.7357
  24   2.0000      -0.530692       -14.4409
  25   2.0000      -0.523894       -14.2559
  26   2.0000      -0.517908       -14.0930
  27   2.0000      -0.474697       -12.9172
  28   2.0000      -0.465468       -12.6660
  29   2.0000      -0.459717       -12.5095
  30   2.0000      -0.388414       -10.5693
  31   0.0000       0.128069         3.4849
  32   0.0000       0.141123         3.8402
  33   0.0000       0.163424         4.4470
  34   0.0000       0.168435         4.5833
  35   0.0000       0.172684         4.6990

MULLIKEN ATOMIC CHARGES
-----------------------
   0 C :   -0.301608
   1 N :   -0.366776
   2 C :   -0.124390
   3 C :    0.243792
   4 O :   -0.290256
   5 C :   -0.231945
   6 C :   -0.239389
   7 N :   -0.059141
   8 H :    0.114553
   9 H :    0.131043
  10 H :    0.141721
  11 H :    0.219924
  12 H :    0.126785
  13 H :    0.116707
  14 H :    0.111036
  15 H :    0.141569
  16 H :    0.119118
  17 H :    0.147258
Sum of atomic charges:   -0.0000000

LOEWDIN ATOMIC CHARGES
----------------------
   0 C :   -0.348668
   1 N :   -0.049108
   2 C :   -0.277207
   3 C :   -0.331211
   4 O :    0.176179
   5 C :   -0.337843
   6 C :   -0.174833
   7 N :    0.066646
   8 H :    0.101166
   9 H :    0.116086
  10 H :    0.117729
  11 H :    0.174488
  12 H :    0.142198
  13 H :    0.128512
  14 H :    0.160864
  15 H :    0.111663
  16 H :    0.105740
  17 H :    0.117599

  Mayer bond orders larger than 0.1
B(  0-C ,  1-N ) :   0.9272 B(  0-C ,  8-H ) :   0.9315 B(  0-C ,  9-H ) :   0.9402
B(  0-C , 10-H ) :   0.9388 B(  1-N ,  2-C ) :   0.9538 B(  1-N , 11-H ) :   0.8747
B(  2-C ,  3-C ) :   0.9221 B(  2-C , 12-H ) :   0.9225 B(  2-C , 13-H ) :   0.9025
B(  3-C ,  4-O ) :   0.9974 B(  3-C ,  6-C ) :   0.8483 B(  3-C , 14-H ) :   0.9245
B(  4-O ,  5-C ) :   0.8968 B(  5-C , 15-H ) :   0.9335 B(  5-C , 16-H ) :   0.9319
B(  5-C , 17-H ) :   0.9371 B(  6-C ,  7-N ) :   2.8549

MP2 TOTAL ENERGY:     -380.472505068 Eh
FINAL SINGLE POINT ENERGY      -380.472505068314

DIPOLE MOMENT
-------------
                                X             Y             Z
Electronic contribution:      3.50623      -4.49795      -2.60063
Nuclear contribution   :     -4.43572       4.72172       3.06058
                        -----------------------------------------
Total Dipole Moment    :     -0.92948       0.22377       0.45994
                        -----------------------------------------
Magnitude (a.u.)       :      1.06092
Magnitude (Debye)      :      2.69665

                             ****ORCA TERMINATED NORMALLY****
TOTAL RUN TIME: 0 days 0 hours 11 minutes 33 seconds 509 msec
