                         Program Version 3.0.3 - RELEASE   -
|  1> ! RI-MP2 RIJK def2-TZVP def2-TZVP/C def2-TZVP/JK TIGHTSCF
|  2> % maxcore 2000
|  3> % mp2 density relaxed end
|  4> *xyz 0 1
|  5>  N       -0.1745622824     1.2655452876    -0.1913471803
|  6>  C       -0.0163230906     0.0381968991     0.0157468427
|  7>  O        1.1594681124    -0.6230776632     0.2220691039
|  8>  C        0.8759389281    -1.9762483446     0.5785420452
|  9>  C       -0.5786342659    -2.1661201069     0.1404148967
| 10>  C       -0.9025967003    -3.0692044445    -1.0720228418
| 11>  O       -1.5871746190    -4.0111577375    -0.2220830279
| 12>  C       -1.4794569414    -3.1387760337     0.9192164388
| 13>  O       -1.0584211783    -0.8320406010     0.0557985586
| 14>  H        0.7200798055     1.7475621216    -0.1503956678
| 15>  H        1.5766630448    -2.6356971532     0.0624686145
| 16>  H        0.9919478511    -2.1020415364     1.6621116650
| 17>  H       -1.5730855844    -2.5885237036    -1.7940324687
| 18>  H       -0.0526682503    -3.5226660736    -1.5952825522
| 19>  H       -1.0267603832    -3.6379314736     1.7846044723
| 20>  H       -2.4397499159    -2.6953615567     1.2078505111
| 21> *
| 22>
| 23>                          ****END OF INPUT****

CARTESIAN COORDINATES (ANGSTROEM)
---------------------------------
  N     -0.174562    1.265545   -0.191347
  C     -0.016323    0.038197    0.015747
  O      1.159468   -0.623078    0.222069
  C      0.875939   -1.976248    0.578542
  C     -0.578634   -2.166120    0.140415
  C     -0.902597   -3.069204   -1.072023
  O     -1.587175   -4.011158   -0.222083
  C     -1.479457   -3.138776    0.919216
  O     -1.058421   -0.832041    0.055799
  H      0.720080    1.747562   -0.150396
  H      1.576663   -2.635697    0.062469
  H      0.991948   -2.102042    1.662112
  H     -1.573086   -2.588524   -1.794032
  H     -0.052668   -3.522666   -1.595283
  H     -1.026760   -3.637931    1.784604
  H     -2.439750   -2.695362    1.207851

 Total Charge           Charge          ....    0
 Multiplicity           Mult            ....    1
 Number of Electrons    NEL             ....   68
 Basis Dimension        Dim             ....  321

ORBITAL ENERGIES
----------------

  NO   OCC          E(Eh)            E(eV)
   0   2.0000     -20.622364      -561.1630
   1   2.0000     -20.619163      -561.0760
   2   2.0000     -20.572468      -559.8053
   3   2.0000     -15.533246      -422.6811
   4   2.0000     -11.400400      -310.2206
   5   2.0000     -11.330047      -308.3063
   6   2.0000     -11.323259      -308.1215
   7   2.0000     -11.303762      -307.5910
   8   2.0000     -11.301186      -307.5209
   9   2.0000      -1.511110       -41.1194
  10   2.0000      -1.409345       -38.3502
  11   2.0000      -1.389632       -37.8138
  12   2.0000      -1.211822       -32.9754
  13   2.0000      -1.064075       -28.9549
  14   2.0000      -0.964807       -26.2537
  15   2.0000      -0.952306       -25.9136
  16   2.0000      -0.842721       -22.9316
  17   2.0000      -0.816907       -22.2292
  18   2.0000      -0.734035       -19.9741
  19   2.0000      -0.724933       -19.7264
  20   2.0000      -0.695865       -18.9355
  21   2.0000      -0.689391       -18.7593
  22   2.0000      -0.661175       -17.9915
  23   2.0000      -0.635848       -17.3023
  24   2.0000      -0.611633       -16.6434
  25   2.0000      -0.584243       -15.8981
  26   2.0000      -0.573399       -15.6030
  27   2.0000      -0.561120       -15.2689
  28   2.0000      -0.547916       -14.9096
  29   2.0000      -0.498846       -13.5743
  30   2.0000      -0.461024       -12.5451
  31   2.0000      -0.453467       -12.3395
  32   2.0000      -0.441481       -12.0133
  33   2.0000      -0.402210       -10.9447
  34   0.0000       0.124741         3.3944
  35   0.0000       0.141615         3.8535
  36   0.0000       0.161052         4.3824
  37   0.0000       0.174582         4.7506
  38   0.0000       0.182368         4.9625

MULLIKEN ATOMIC CHARGES
-----------------------
   0 N :   -0.383568
   1 C :    0.270077
   2 O :   -0.269046
   3 C :   -0.069030
   4 C :    0.165235
   5 C :   -0.053924
   6 O :   -0.320620
   7 C :   -0.048329
   8 O :   -0.233836
   9 H :    0.235986
  10 H :    0.138179
  11 H :    0.118386
  12 H :    0.116785
  13 H :    0.106136
  14 H :    0.106175
  15 H :    0.121396
Sum of atomic charges:   -0.0000000

LOEWDIN ATOMIC CHARGES
----------------------
   0 N :   -0.071139
   1 C :   -0.529379
   2 O :    0.232575
   3 C :   -0.231745
   4 C :   -0.316685
   5 C :   -0.227690
   6 O :    0.119766
   7 C :   -0.227085
   8 O :    0.301358
   9 H :    0.176009
  10 H :    0.137165
  11 H :    0.132651
  12 H :    0.129197
  13 H :    0.121511
  14 H :    0.122754
  15 H :    0.130738

  Mayer bond orders larger than 0.1
B(  0-N ,  1-C ) :   2.0119 B(  0-N ,  9-H ) :   0.8458 B(  1-C ,  2-O ) :   1.0664
B(  1-C ,  8-O ) :   1.0631 B(  2-O ,  3-C ) :   0.8997 B(  3-C ,  4-C ) :   0.9203
B(  3-C , 10-H ) :   0.9191 B(  3-C , 11-H ) :   0.9189 B(  4-C ,  5-C ) :   0.9570
B(  4-C ,  7-C ) :   0.9577 B(  4-C ,  8-O ) :   0.9511 B(  5-C ,  6-O ) :   0.9624
B(  5-C , 12-H ) :   0.8969 B(  5-C , 13-H ) :   0.9062 B(  6-O ,  7-C ) :   0.9669
B(  7-C , 14-H ) :   0.9084 B(  7-C , 15-H ) :   0.9000

MP2 TOTAL ENERGY:     -474.260176011 Eh
FINAL SINGLE POINT ENERGY      -474.260176010891

DIPOLE MOMENT
-------------
                                X             Y             Z
Electronic contribution:     -0.09753       2.96464      -0.37115
Nuclear contribution   :      1.01535      -3.83564       0.77692
                        -----------------------------------------
Total Dipole Moment    :      0.91782      -0.87100       0.40577
                        -----------------------------------------
Magnitude (a.u.)       :      1.32879
Magnitude (Debye)      :      3.37750

                             ****ORCA TERMINATED NORMALLY****
TOTAL RUN TIME: 0 days 0 hours 15 minutes 5 seconds 158 msec
