                         Program Version 3.0.3 - RELEASE   -
|  1> ! RI-MP2 RIJK def2-TZVP def2-TZVP/C def2-TZVP/JK TIGHTSCF
|  2> % maxcore 2000
|  3> % mp2 density relaxed end
|  4> *xyz 0 1
|  5>  C       -0.5510894935     1.0874068764    -0.2476306973
|  6>  C       -0.0570591036    -0.3124248880     0.0501751481
|  7>  C        0.6818394443    -1.1965043335    -0.9297971081
|  8>  C        0.9415928784    -0.9107748029    -2.4021387016
|  9>  C        1.6249961447     0.3962826921    -2.8185520741
| 10>  C        3.0464621911     0.5793584875    -2.2639356229
| 11>  C        3.1449429353     0.9387436248    -0.8014103823
| 12>  C        2.4685141532     0.4231769836     0.2280538675
| 13>  C        1.4299352418    -0.6326754964     0.2598553259
| 14>  H        0.2402460015     1.7331616942    -0.6336041454
| 15>  H       -1.3703823231     1.0786712220    -0.9757612065
| 16>  H       -0.9326402136     1.5549266016     0.6668491503
| 17>  H       -0.7243288175    -0.8580030209     0.7136791045
| 18>  H        0.4332147630    -2.2483371916    -0.7976447148
| 19>  H        1.5590241828    -1.7363203106    -2.7844856224
| 20>  H       -0.0156141550    -0.9904156369    -2.9357815403
| 21>  H        1.6825665410     0.3952891902    -3.9144947587
| 22>  H        1.0138058980     1.2631574182    -2.5502026159
| 23>  H        3.6236405724    -0.3376422264    -2.4601689422
| 24>  H        3.5466942071     1.3649387242    -2.8416907023
| 25>  H        3.8807002638     1.7055515304    -0.5654897513
| 26>  H        2.7097458572     0.8152828446     1.2164784579
| 27>  H        1.6093214207    -1.3454963927     1.0632574118
| 28> *
| 29>
| 30>                          ****END OF INPUT****

CARTESIAN COORDINATES (ANGSTROEM)
---------------------------------
  C     -0.551089    1.087407   -0.247631
  C     -0.057059   -0.312425    0.050175
  C      0.681839   -1.196504   -0.929797
  C      0.941593   -0.910775   -2.402139
  C      1.624996    0.396283   -2.818552
  C      3.046462    0.579358   -2.263936
  C      3.144943    0.938744   -0.801410
  C      2.468514    0.423177    0.228054
  C      1.429935   -0.632675    0.259855
  H      0.240246    1.733162   -0.633604
  H     -1.370382    1.078671   -0.975761
  H     -0.932640    1.554927    0.666849
  H     -0.724329   -0.858003    0.713679
  H      0.433215   -2.248337   -0.797645
  H      1.559024   -1.736320   -2.784486
  H     -0.015614   -0.990416   -2.935782
  H      1.682567    0.395289   -3.914495
  H      1.013806    1.263157   -2.550203
  H      3.623641   -0.337642   -2.460169
  H      3.546694    1.364939   -2.841691
  H      3.880700    1.705552   -0.565490
  H      2.709746    0.815283    1.216478
  H      1.609321   -1.345496    1.063257

 Total Charge           Charge          ....    0
 Multiplicity           Mult            ....    1
 Number of Electrons    NEL             ....   68
 Basis Dimension        Dim             ....  363

ORBITAL ENERGIES
----------------

  NO   OCC          E(Eh)            E(eV)
   0   2.0000     -11.226242      -305.4816
   1   2.0000     -11.225404      -305.4588
   2   2.0000     -11.224843      -305.4435
   3   2.0000     -11.220668      -305.3299
   4   2.0000     -11.220453      -305.3240
   5   2.0000     -11.220338      -305.3209
   6   2.0000     -11.218088      -305.2597
   7   2.0000     -11.217070      -305.2320
   8   2.0000     -11.209982      -305.0391
   9   2.0000      -1.153174       -31.3795
  10   2.0000      -1.070953       -29.1421
  11   2.0000      -1.030314       -28.0363
  12   2.0000      -0.968283       -26.3483
  13   2.0000      -0.917010       -24.9531
  14   2.0000      -0.870496       -23.6874
  15   2.0000      -0.784583       -21.3496
  16   2.0000      -0.733813       -19.9681
  17   2.0000      -0.688394       -18.7322
  18   2.0000      -0.676976       -18.4215
  19   2.0000      -0.635657       -17.2971
  20   2.0000      -0.620411       -16.8822
  21   2.0000      -0.578284       -15.7359
  22   2.0000      -0.571887       -15.5618
  23   2.0000      -0.556226       -15.1357
  24   2.0000      -0.541375       -14.7316
  25   2.0000      -0.535711       -14.5774
  26   2.0000      -0.514927       -14.0119
  27   2.0000      -0.489322       -13.3151
  28   2.0000      -0.475966       -12.9517
  29   2.0000      -0.462115       -12.5748
  30   2.0000      -0.448844       -12.2137
  31   2.0000      -0.408211       -11.1080
  32   2.0000      -0.387763       -10.5516
  33   2.0000      -0.328726        -8.9451
  34   0.0000       0.131857         3.5880
  35   0.0000       0.146210         3.9786
  36   0.0000       0.165068         4.4917
  37   0.0000       0.166395         4.5278
  38   0.0000       0.171549         4.6681

MULLIKEN ATOMIC CHARGES
-----------------------
   0 C :   -0.413779
   1 C :   -0.089836
   2 C :   -0.117558
   3 C :   -0.207072
   4 C :   -0.228465
   5 C :   -0.149291
   6 C :   -0.192352
   7 C :   -0.213978
   8 C :   -0.070313
   9 H :    0.140765
  10 H :    0.131327
  11 H :    0.133252
  12 H :    0.113049
  13 H :    0.112929
  14 H :    0.109790
  15 H :    0.119122
  16 H :    0.118268
  17 H :    0.120773
  18 H :    0.114418
  19 H :    0.124235
  20 H :    0.112609
  21 H :    0.111499
  22 H :    0.120609
Sum of atomic charges:    0.0000000

LOEWDIN ATOMIC CHARGES
----------------------
   0 C :   -0.296254
   1 C :   -0.202627
   2 C :   -0.189339
   3 C :   -0.248686
   4 C :   -0.262793
   5 C :   -0.255210
   6 C :   -0.178836
   7 C :   -0.164686
   8 C :   -0.179572
   9 H :    0.125277
  10 H :    0.124588
  11 H :    0.126188
  12 H :    0.146112
  13 H :    0.153887
  14 H :    0.144548
  15 H :    0.144260
  16 H :    0.139397
  17 H :    0.137128
  18 H :    0.147334
  19 H :    0.142127
  20 H :    0.143265
  21 H :    0.149657
  22 H :    0.154234

  Mayer bond orders larger than 0.1
B(  0-C ,  1-C ) :   0.9139 B(  0-C ,  9-H ) :   0.9317 B(  0-C , 10-H ) :   0.9397
B(  0-C , 11-H ) :   0.9373 B(  1-C ,  2-C ) :   0.8767 B(  1-C ,  8-C ) :   0.8327
B(  1-C , 12-H ) :   0.9306 B(  2-C ,  3-C ) :   0.9412 B(  2-C ,  8-C ) :   0.8658
B(  2-C , 13-H ) :   0.9291 B(  3-C ,  4-C ) :   0.9306 B(  3-C , 14-H ) :   0.9296
B(  3-C , 15-H ) :   0.9273 B(  4-C ,  5-C ) :   0.8934 B(  4-C , 16-H ) :   0.9312
B(  4-C , 17-H ) :   0.9381 B(  5-C ,  6-C ) :   0.9317 B(  5-C , 18-H ) :   0.9163
B(  5-C , 19-H ) :   0.9345 B(  6-C ,  7-C ) :   1.8026 B(  6-C , 20-H ) :   0.9312
B(  7-C ,  8-C ) :   0.9487 B(  7-C , 21-H ) :   0.9300 B(  8-C , 22-H ) :   0.9265

MP2 TOTAL ENERGY:     -350.499295303 Eh
FINAL SINGLE POINT ENERGY      -350.499295303086

DIPOLE MOMENT
-------------
                                X             Y             Z
Electronic contribution:      2.00722      -1.57215       2.30884
Nuclear contribution   :     -2.11314       1.50632      -2.41910
                        -----------------------------------------
Total Dipole Moment    :     -0.10592      -0.06584      -0.11027
                        -----------------------------------------
Magnitude (a.u.)       :      0.16647
Magnitude (Debye)      :      0.42314

                             ****ORCA TERMINATED NORMALLY****
TOTAL RUN TIME: 0 days 0 hours 21 minutes 41 seconds 819 msec
