                         Program Version 3.0.3 - RELEASE   -
|  1> ! RI-MP2 RIJK def2-TZVP def2-TZVP/C def2-TZVP/JK TIGHTSCF
|  2> % maxcore 2000
|  3> % mp2 density relaxed end
|  4> *xyz 0 1
|  5>  N       -0.0781418145     0.5733322671    -0.8733419805
|  6>  C       -0.3035737667    -0.6670953674    -0.3008887300
|  7>  O        0.3568027942    -1.6511223850    -0.6232208915
|  8>  N       -1.3176184500    -0.6986446444     0.6149823828
|  9>  C       -1.7362210281    -1.9513630164     1.2371317814
| 10>  C       -2.7329045460    -2.8128929429     0.4629730317
| 11>  C       -2.8061579015    -2.7945106327    -1.0595934780
| 12>  C       -2.1873507577    -3.9687138941    -0.3614086696
| 13>  O       -0.8254247910    -4.2208385964    -0.4068586659
| 14>  H        0.7858654638     0.6115706129    -1.3921695842
| 15>  H       -0.2651195886     1.3922163584    -0.3148879714
| 16>  H       -1.9909057988     0.0507950123     0.5851750181
| 17>  H       -0.8235004190    -2.5262892979     1.4176219673
| 18>  H       -2.1594166147    -1.7005187734     2.2134657427
| 19>  H       -3.6741889318    -2.9816385661     0.9776633403
| 20>  H       -3.7827495048    -2.9043373349    -1.5197928822
| 21>  H       -2.1383965763    -2.1275568089    -1.5938111725
| 22>  H       -2.7418944867    -4.9019241905    -0.3405465600
| 23>  H       -0.3447308617    -3.3872486197    -0.5663238688
| 24> *
| 25>
| 26>                          ****END OF INPUT****

CARTESIAN COORDINATES (ANGSTROEM)
---------------------------------
  N     -0.078142    0.573332   -0.873342
  C     -0.303574   -0.667095   -0.300889
  O      0.356803   -1.651122   -0.623221
  N     -1.317618   -0.698645    0.614982
  C     -1.736221   -1.951363    1.237132
  C     -2.732905   -2.812893    0.462973
  C     -2.806158   -2.794511   -1.059593
  C     -2.187351   -3.968714   -0.361409
  O     -0.825425   -4.220839   -0.406859
  H      0.785865    0.611571   -1.392170
  H     -0.265120    1.392216   -0.314888
  H     -1.990906    0.050795    0.585175
  H     -0.823500   -2.526289    1.417622
  H     -2.159417   -1.700519    2.213466
  H     -3.674189   -2.981639    0.977663
  H     -3.782750   -2.904337   -1.519793
  H     -2.138397   -2.127557   -1.593811
  H     -2.741894   -4.901924   -0.340547
  H     -0.344731   -3.387249   -0.566324

 Total Charge           Charge          ....    0
 Multiplicity           Mult            ....    1
 Number of Electrons    NEL             ....   70
 Basis Dimension        Dim             ....  339

ORBITAL ENERGIES
----------------

  NO   OCC          E(Eh)            E(eV)
   0   2.0000     -20.529953      -558.6484
   1   2.0000     -20.525931      -558.5390
   2   2.0000     -15.590766      -424.2463
   3   2.0000     -15.590145      -424.2294
   4   2.0000     -11.389974      -309.9369
   5   2.0000     -11.271965      -306.7258
   6   2.0000     -11.269213      -306.6509
   7   2.0000     -11.225469      -305.4605
   8   2.0000     -11.219595      -305.3007
   9   2.0000      -1.405851       -38.2551
  10   2.0000      -1.345990       -36.6263
  11   2.0000      -1.252937       -34.0941
  12   2.0000      -1.202753       -32.7286
  13   2.0000      -1.116957       -30.3939
  14   2.0000      -0.966897       -26.3106
  15   2.0000      -0.830282       -22.5931
  16   2.0000      -0.813869       -22.1465
  17   2.0000      -0.784420       -21.3452
  18   2.0000      -0.759094       -20.6560
  19   2.0000      -0.710908       -19.3448
  20   2.0000      -0.686292       -18.6749
  21   2.0000      -0.666628       -18.1399
  22   2.0000      -0.634312       -17.2605
  23   2.0000      -0.615436       -16.7469
  24   2.0000      -0.602460       -16.3938
  25   2.0000      -0.579817       -15.7776
  26   2.0000      -0.545405       -14.8412
  27   2.0000      -0.536984       -14.6121
  28   2.0000      -0.521024       -14.1778
  29   2.0000      -0.510351       -13.8874
  30   2.0000      -0.464817       -12.6483
  31   2.0000      -0.439988       -11.9727
  32   2.0000      -0.413262       -11.2454
  33   2.0000      -0.406096       -11.0504
  34   2.0000      -0.364022        -9.9055
  35   0.0000       0.112941         3.0733
  36   0.0000       0.144221         3.9245
  37   0.0000       0.164810         4.4847
  38   0.0000       0.181697         4.9442
  39   0.0000       0.185614         5.0508

MULLIKEN ATOMIC CHARGES
-----------------------
   0 N :   -0.529982
   1 C :    0.448970
   2 O :   -0.466531
   3 N :   -0.360448
   4 C :   -0.219364
   5 C :   -0.124426
   6 C :   -0.267369
   7 C :    0.039582
   8 O :   -0.465341
   9 H :    0.270976
  10 H :    0.253447
  11 H :    0.237025
  12 H :    0.188543
  13 H :    0.143419
  14 H :    0.119390
  15 H :    0.125134
  16 H :    0.145095
  17 H :    0.113956
  18 H :    0.347924
Sum of atomic charges:    0.0000000

LOEWDIN ATOMIC CHARGES
----------------------
   0 N :   -0.058880
   1 C :   -0.576005
   2 O :    0.031014
   3 N :    0.092215
   4 C :   -0.261956
   5 C :   -0.226824
   6 C :   -0.223109
   7 C :   -0.325753
   8 O :    0.003690
   9 H :    0.178536
  10 H :    0.167533
  11 H :    0.185230
  12 H :    0.151604
  13 H :    0.139327
  14 H :    0.142889
  15 H :    0.130845
  16 H :    0.139373
  17 H :    0.137065
  18 H :    0.173209

  Mayer bond orders larger than 0.1
B(  0-N ,  1-C ) :   1.0834 B(  0-N ,  9-H ) :   0.8667 B(  0-N , 10-H ) :   0.8721
B(  1-C ,  2-O ) :   1.7545 B(  1-C ,  3-N ) :   1.1758 B(  3-N ,  4-C ) :   0.8615
B(  3-N , 11-H ) :   0.8717 B(  4-C ,  5-C ) :   0.8902 B(  4-C , 12-H ) :   0.9370
B(  4-C , 13-H ) :   0.9352 B(  5-C ,  6-C ) :   0.8753 B(  5-C ,  7-C ) :   0.8536
B(  5-C , 14-H ) :   0.9141 B(  6-C ,  7-C ) :   0.8934 B(  6-C , 15-H ) :   0.9214
B(  6-C , 16-H ) :   0.9142 B(  7-C ,  8-O ) :   1.0326 B(  7-C , 17-H ) :   0.9493
B(  8-O , 18-H ) :   0.7868

MP2 TOTAL ENERGY:     -455.637205299 Eh
FINAL SINGLE POINT ENERGY      -455.637205298788

DIPOLE MOMENT
-------------
                                X             Y             Z
Electronic contribution:      3.58281       0.45321      -0.48683
Nuclear contribution   :     -4.38923       1.46053       0.99574
                        -----------------------------------------
Total Dipole Moment    :     -0.80643       1.91374       0.50891
                        -----------------------------------------
Magnitude (a.u.)       :      2.13815
Magnitude (Debye)      :      5.43476

                             ****ORCA TERMINATED NORMALLY****
TOTAL RUN TIME: 0 days 0 hours 16 minutes 0 seconds 102 msec
