                         Program Version 3.0.3 - RELEASE   -
|  1> ! RI-MP2 RIJK def2-TZVP def2-TZVP/C def2-TZVP/JK TIGHTSCF
|  2> % maxcore 2000
|  3> % mp2 density relaxed end
|  4> *xyz 0 1
|  5>  C       -0.1145930266     1.4987435137    -0.1026659592
|  6>  C       -0.0039764723     0.0124544999     0.0585032743
|  7>  C        1.2343921121    -0.7946447414    -0.2422644271
|  8>  C        0.6516211292    -0.8008783434     1.1653877679
|  9>  C        1.4169516978    -0.2563099171     2.3417029151
| 10>  N       -0.2621945726    -1.8909821400     1.4436812969
| 11>  C       -1.2366661894    -1.7444658712     0.6279990716
| 12>  N       -2.2941989282    -2.5959567349     0.4440870489
| 13>  O       -1.2342642362    -0.6689802499    -0.2094189483
| 14>  H        0.8254584850     1.9790936852     0.1810513731
| 15>  H       -0.3282936985     1.7684195152    -1.1426826227
| 16>  H       -0.9127995440     1.9039909515     0.5274327133
| 17>  H        1.1447542121    -1.6939226844    -0.8431852438
| 18>  H        2.1442365338    -0.2231695433    -0.3986996604
| 19>  H        2.0277610032     0.6051650736     2.0557179709
| 20>  H        0.7362148401     0.0510896303     3.1420583787
| 21>  H        2.0842560172    -1.0242795254     2.7461226722
| 22>  H       -2.4305243043    -3.2360663073     1.2115955647
| 23>  H       -3.1395684986    -2.1568532711     0.1110595738
| 24> *
| 25>
| 26>                          ****END OF INPUT****

CARTESIAN COORDINATES (ANGSTROEM)
---------------------------------
  C     -0.114593    1.498744   -0.102666
  C     -0.003976    0.012454    0.058503
  C      1.234392   -0.794645   -0.242264
  C      0.651621   -0.800878    1.165388
  C      1.416952   -0.256310    2.341703
  N     -0.262195   -1.890982    1.443681
  C     -1.236666   -1.744466    0.627999
  N     -2.294199   -2.595957    0.444087
  O     -1.234264   -0.668980   -0.209419
  H      0.825458    1.979094    0.181051
  H     -0.328294    1.768420   -1.142683
  H     -0.912800    1.903991    0.527433
  H      1.144754   -1.693923   -0.843185
  H      2.144237   -0.223170   -0.398700
  H      2.027761    0.605165    2.055718
  H      0.736215    0.051090    3.142058
  H      2.084256   -1.024280    2.746123
  H     -2.430524   -3.236066    1.211596
  H     -3.139568   -2.156853    0.111060

 Total Charge           Charge          ....    0
 Multiplicity           Mult            ....    1
 Number of Electrons    NEL             ....   68
 Basis Dimension        Dim             ....  339

ORBITAL ENERGIES
----------------

  NO   OCC          E(Eh)            E(eV)
   0   2.0000     -20.596638      -560.4630
   1   2.0000     -15.580389      -423.9639
   2   2.0000     -15.522474      -422.3880
   3   2.0000     -11.360575      -309.1370
   4   2.0000     -11.291700      -307.2628
   5   2.0000     -11.262579      -306.4704
   6   2.0000     -11.227816      -305.5244
   7   2.0000     -11.221894      -305.3633
   8   2.0000     -11.215332      -305.1847
   9   2.0000      -1.449809       -39.4513
  10   2.0000      -1.239261       -33.7220
  11   2.0000      -1.205105       -32.7926
  12   2.0000      -1.104540       -30.0561
  13   2.0000      -0.986738       -26.8505
  14   2.0000      -0.958436       -26.0804
  15   2.0000      -0.848706       -23.0945
  16   2.0000      -0.786408       -21.3992
  17   2.0000      -0.765605       -20.8332
  18   2.0000      -0.697519       -18.9805
  19   2.0000      -0.679769       -18.4974
  20   2.0000      -0.664942       -18.0940
  21   2.0000      -0.625383       -17.0175
  22   2.0000      -0.597923       -16.2703
  23   2.0000      -0.573569       -15.6076
  24   2.0000      -0.569415       -15.4946
  25   2.0000      -0.558539       -15.1986
  26   2.0000      -0.545540       -14.8449
  27   2.0000      -0.535609       -14.5747
  28   2.0000      -0.522832       -14.2270
  29   2.0000      -0.497100       -13.5268
  30   2.0000      -0.448670       -12.2089
  31   2.0000      -0.437896       -11.9158
  32   2.0000      -0.375529       -10.2187
  33   2.0000      -0.336668        -9.1612
  34   0.0000       0.132097         3.5945
  35   0.0000       0.144859         3.9418
  36   0.0000       0.177732         4.8363
  37   0.0000       0.185783         5.0554
  38   0.0000       0.192779         5.2458

MULLIKEN ATOMIC CHARGES
-----------------------
   0 C :   -0.403472
   1 C :    0.157468
   2 C :   -0.280513
   3 C :    0.134872
   4 C :   -0.398814
   5 N :   -0.319970
   6 C :    0.303070
   7 N :   -0.505087
   8 O :   -0.282805
   9 H :    0.128587
  10 H :    0.144456
  11 H :    0.136462
  12 H :    0.139048
  13 H :    0.126634
  14 H :    0.114618
  15 H :    0.129839
  16 H :    0.142701
  17 H :    0.269428
  18 H :    0.263480
Sum of atomic charges:    0.0000000

LOEWDIN ATOMIC CHARGES
----------------------
   0 C :   -0.266415
   1 C :   -0.284124
   2 C :   -0.171333
   3 C :   -0.285765
   4 C :   -0.265769
   5 N :    0.097330
   6 C :   -0.480317
   7 N :   -0.046384
   8 O :    0.279404
   9 H :    0.134019
  10 H :    0.132315
  11 H :    0.131581
  12 H :    0.141372
  13 H :    0.140315
  14 H :    0.126005
  15 H :    0.128994
  16 H :    0.132751
  17 H :    0.180387
  18 H :    0.175633

  Mayer bond orders larger than 0.1
B(  0-C ,  1-C ) :   0.9075 B(  0-C ,  9-H ) :   0.9321 B(  0-C , 10-H ) :   0.9385
B(  0-C , 11-H ) :   0.9341 B(  1-C ,  2-C ) :   0.8878 B(  1-C ,  3-C ) :   0.8579
B(  1-C ,  8-O ) :   0.8890 B(  2-C ,  3-C ) :   0.8561 B(  2-C , 12-H ) :   0.8933
B(  2-C , 13-H ) :   0.9221 B(  3-C ,  4-C ) :   0.9048 B(  3-C ,  5-N ) :   0.9757
B(  4-C , 14-H ) :   0.9308 B(  4-C , 15-H ) :   0.9351 B(  4-C , 16-H ) :   0.9426
B(  5-N ,  6-C ) :   1.7933 B(  6-C ,  7-N ) :   1.1073 B(  6-C ,  8-O ) :   1.0909
B(  7-N , 17-H ) :   0.8678 B(  7-N , 18-H ) :   0.8660

MP2 TOTAL ENERGY:     -418.523160951 Eh
FINAL SINGLE POINT ENERGY      -418.523160951363

DIPOLE MOMENT
-------------
                                X             Y             Z
Electronic contribution:     -4.61202      -5.05715      -1.45648
Nuclear contribution   :      4.22259       5.56868       1.38899
                        -----------------------------------------
Total Dipole Moment    :     -0.38943       0.51152      -0.06749
                        -----------------------------------------
Magnitude (a.u.)       :      0.64642
Magnitude (Debye)      :      1.64308

                             ****ORCA TERMINATED NORMALLY****
TOTAL RUN TIME: 0 days 0 hours 18 minutes 19 seconds 694 msec
