                         Program Version 3.0.3 - RELEASE   -
|  1> ! RI-MP2 RIJK def2-TZVP def2-TZVP/C def2-TZVP/JK TIGHTSCF
|  2> % maxcore 2000
|  3> % mp2 density relaxed end
|  4> *xyz 0 1
|  5>  O        0.1011696360     1.3207223702    -0.1608902743
|  6>  C        0.0045245258    -0.0419511720    -0.0159971026
|  7>  C       -0.3782121425    -0.6968252960     1.2532861562
|  8>  C       -1.3885922025    -0.7410439461     0.0957083233
|  9>  C       -2.5444127710     0.1629807235     0.1643086138
| 10>  O       -2.5006951182     1.2544767573     0.7028788141
| 11>  C       -3.8203658823    -0.3355448644    -0.5328986354
| 12>  C       -4.9338424804     0.6022217420    -0.4671753886
| 13>  N       -5.8317740143     1.3263878203    -0.4272639933
| 14>  H       -0.6417759145     1.7231219330     0.3195727333
| 15>  H        0.7086849320    -0.5505756900    -0.6661803982
| 16>  H        0.0794094304    -1.6407538284     1.5271101485
| 17>  H       -0.6545415692    -0.0520090108     2.0812864391
| 18>  H       -1.5245225073    -1.6825402309    -0.4240906506
| 19>  H       -3.5824759407    -0.5540653467    -1.5815710448
| 20>  H       -4.1163713113    -1.2926365611    -0.0857079704
| 21> *
| 22>
| 23>                          ****END OF INPUT****

CARTESIAN COORDINATES (ANGSTROEM)
---------------------------------
  O      0.101170    1.320722   -0.160890
  C      0.004525   -0.041951   -0.015997
  C     -0.378212   -0.696825    1.253286
  C     -1.388592   -0.741044    0.095708
  C     -2.544413    0.162981    0.164309
  O     -2.500695    1.254477    0.702879
  C     -3.820366   -0.335545   -0.532899
  C     -4.933842    0.602222   -0.467175
  N     -5.831774    1.326388   -0.427264
  H     -0.641776    1.723122    0.319573
  H      0.708685   -0.550576   -0.666180
  H      0.079409   -1.640754    1.527110
  H     -0.654542   -0.052009    2.081286
  H     -1.524523   -1.682540   -0.424091
  H     -3.582476   -0.554065   -1.581571
  H     -4.116371   -1.292637   -0.085708

 Total Charge           Charge          ....    0
 Multiplicity           Mult            ....    1
 Number of Electrons    NEL             ....   66
 Basis Dimension        Dim             ....  321

ORBITAL ENERGIES
----------------

  NO   OCC          E(Eh)            E(eV)
   0   2.0000     -20.576134      -559.9051
   1   2.0000     -20.572890      -559.8168
   2   2.0000     -15.577904      -423.8963
   3   2.0000     -11.374926      -309.5275
   4   2.0000     -11.324536      -308.1563
   5   2.0000     -11.310248      -307.7675
   6   2.0000     -11.281890      -306.9958
   7   2.0000     -11.268632      -306.6351
   8   2.0000     -11.264128      -306.5125
   9   2.0000      -1.427126       -38.8341
  10   2.0000      -1.389549       -37.8115
  11   2.0000      -1.225900       -33.3584
  12   2.0000      -1.162993       -31.6467
  13   2.0000      -1.085076       -29.5264
  14   2.0000      -0.935283       -25.4504
  15   2.0000      -0.857211       -23.3259
  16   2.0000      -0.785165       -21.3654
  17   2.0000      -0.737665       -20.0729
  18   2.0000      -0.718721       -19.5574
  19   2.0000      -0.700396       -19.0588
  20   2.0000      -0.667723       -18.1697
  21   2.0000      -0.656341       -17.8599
  22   2.0000      -0.624783       -17.0012
  23   2.0000      -0.596234       -16.2244
  24   2.0000      -0.585045       -15.9199
  25   2.0000      -0.567459       -15.4413
  26   2.0000      -0.561364       -15.2755
  27   2.0000      -0.542303       -14.7568
  28   2.0000      -0.480147       -13.0655
  29   2.0000      -0.468736       -12.7550
  30   2.0000      -0.456822       -12.4308
  31   2.0000      -0.448003       -12.1908
  32   2.0000      -0.406214       -11.0536
  33   0.0000       0.104460         2.8425
  34   0.0000       0.106146         2.8884
  35   0.0000       0.139676         3.8008
  36   0.0000       0.148702         4.0464
  37   0.0000       0.168467         4.5842

MULLIKEN ATOMIC CHARGES
-----------------------
   0 O :   -0.437046
   1 C :    0.065849
   2 C :   -0.230281
   3 C :   -0.221057
   4 C :    0.239718
   5 O :   -0.345728
   6 C :   -0.163671
   7 C :   -0.162499
   8 N :   -0.040972
   9 H :    0.345098
  10 H :    0.138379
  11 H :    0.146915
  12 H :    0.159562
  13 H :    0.142018
  14 H :    0.181761
  15 H :    0.181954
Sum of atomic charges:   -0.0000000

LOEWDIN ATOMIC CHARGES
----------------------
   0 O :    0.029602
   1 C :   -0.300750
   2 C :   -0.188209
   3 C :   -0.187634
   4 C :   -0.308791
   5 O :    0.144693
   6 C :   -0.212487
   7 C :   -0.183261
   8 N :    0.073527
   9 H :    0.186617
  10 H :    0.147391
  11 H :    0.140616
  12 H :    0.148848
  13 H :    0.152989
  14 H :    0.179097
  15 H :    0.177753

  Mayer bond orders larger than 0.1
B(  0-O ,  1-C ) :   1.0647 B(  0-O ,  9-H ) :   0.7915 B(  1-C ,  2-C ) :   0.9138
B(  1-C ,  3-C ) :   0.7989 B(  1-C , 10-H ) :   0.9430 B(  2-C ,  3-C ) :   0.8098
B(  2-C , 11-H ) :   0.9185 B(  2-C , 12-H ) :   0.9159 B(  3-C ,  4-C ) :   0.9876
B(  3-C , 13-H ) :   0.9075 B(  4-C ,  5-O ) :   1.7985 B(  4-C ,  6-C ) :   0.8966
B(  6-C ,  7-C ) :   0.9573 B(  6-C , 14-H ) :   0.8889 B(  6-C , 15-H ) :   0.8889
B(  7-C ,  8-N ) :   2.8651

MP2 TOTAL ENERGY:     -437.174292302 Eh
FINAL SINGLE POINT ENERGY      -437.174292301733

DIPOLE MOMENT
-------------
                                X             Y             Z
Electronic contribution:     -4.88664       3.95287      -0.64965
Nuclear contribution   :      5.93330      -6.02704       0.58459
                        -----------------------------------------
Total Dipole Moment    :      1.04666      -2.07417      -0.06506
                        -----------------------------------------
Magnitude (a.u.)       :      2.32420
Magnitude (Debye)      :      5.90766

                             ****ORCA TERMINATED NORMALLY****
TOTAL RUN TIME: 0 days 0 hours 14 minutes 23 seconds 952 msec
