                         Program Version 3.0.3 - RELEASE   -
|  1> ! RI-MP2 RIJK def2-TZVP def2-TZVP/C def2-TZVP/JK TIGHTSCF
|  2> % maxcore 2000
|  3> % mp2 density relaxed end
|  4> *xyz 0 1
|  5>  C        0.0201331958     1.4714122339    -0.0866799264
|  6>  C       -0.0522127471    -0.0129984501    -0.0909516172
|  7>  C       -1.0778181838    -0.9081803577    -0.0033471240
|  8>  N       -2.4532206583    -0.7258936953     0.1758115785
|  9>  C       -0.4228025318    -2.1769019357    -0.0564512197
| 10>  C       -1.0877674875    -3.5169506617    -0.0117255603
| 11>  O       -2.1588831557    -3.5995356252    -0.9556234971
| 12>  N        0.8771148437    -2.0502211812    -0.1803200319
| 13>  O        1.1236115665    -0.6907615034    -0.1889457816
| 14>  H        0.3803994512     1.8615255969     0.8725767994
| 15>  H        0.6985739050     1.8315147411    -0.8664243730
| 16>  H       -0.9686281412     1.9019660197    -0.2696287078
| 17>  H       -2.7814100561     0.1889436357    -0.1042829455
| 18>  H       -2.9793384465    -1.4513415401    -0.2983156737
| 19>  H       -0.3415183619    -4.3064758968    -0.1623693575
| 20>  H       -1.5572132798    -3.6751062058     0.9648256521
| 21>  H       -1.7732585524    -3.5152257743    -1.8345493644
| 22> *
| 23>
| 24>                          ****END OF INPUT****

CARTESIAN COORDINATES (ANGSTROEM)
---------------------------------
  C      0.020133    1.471412   -0.086680
  C     -0.052213   -0.012998   -0.090952
  C     -1.077818   -0.908180   -0.003347
  N     -2.453221   -0.725894    0.175812
  C     -0.422803   -2.176902   -0.056451
  C     -1.087767   -3.516951   -0.011726
  O     -2.158883   -3.599536   -0.955623
  N      0.877115   -2.050221   -0.180320
  O      1.123612   -0.690762   -0.188946
  H      0.380399    1.861526    0.872577
  H      0.698574    1.831515   -0.866424
  H     -0.968628    1.901966   -0.269629
  H     -2.781410    0.188944   -0.104283
  H     -2.979338   -1.451342   -0.298316
  H     -0.341518   -4.306476   -0.162369
  H     -1.557213   -3.675106    0.964826
  H     -1.773259   -3.515226   -1.834549

 Total Charge           Charge          ....    0
 Multiplicity           Mult            ....    1
 Number of Electrons    NEL             ....   68
 Basis Dimension        Dim             ....  327

ORBITAL ENERGIES
----------------

  NO   OCC          E(Eh)            E(eV)
   0   2.0000     -20.630656      -561.3887
   1   2.0000     -20.578561      -559.9711
   2   2.0000     -15.617869      -424.9838
   3   2.0000     -15.567061      -423.6013
   4   2.0000     -11.299569      -307.4769
   5   2.0000     -11.298110      -307.4372
   6   2.0000     -11.275872      -306.8321
   7   2.0000     -11.267232      -306.5970
   8   2.0000     -11.245950      -306.0178
   9   2.0000      -1.482663       -40.3453
  10   2.0000      -1.380440       -37.5637
  11   2.0000      -1.220422       -33.2094
  12   2.0000      -1.161539       -31.6071
  13   2.0000      -1.061492       -28.8847
  14   2.0000      -0.969199       -26.3732
  15   2.0000      -0.961017       -26.1506
  16   2.0000      -0.796080       -21.6624
  17   2.0000      -0.792758       -21.5721
  18   2.0000      -0.722933       -19.6720
  19   2.0000      -0.677962       -18.4483
  20   2.0000      -0.665923       -18.1207
  21   2.0000      -0.659673       -17.9506
  22   2.0000      -0.645486       -17.5646
  23   2.0000      -0.618959       -16.8427
  24   2.0000      -0.584662       -15.9094
  25   2.0000      -0.574603       -15.6357
  26   2.0000      -0.574271       -15.6267
  27   2.0000      -0.551373       -15.0036
  28   2.0000      -0.519125       -14.1261
  29   2.0000      -0.502990       -13.6871
  30   2.0000      -0.480826       -13.0840
  31   2.0000      -0.464951       -12.6520
  32   2.0000      -0.398761       -10.8508
  33   2.0000      -0.315025        -8.5723
  34   0.0000       0.117441         3.1957
  35   0.0000       0.126672         3.4469
  36   0.0000       0.144813         3.9406
  37   0.0000       0.168073         4.5735
  38   0.0000       0.179249         4.8776

MULLIKEN ATOMIC CHARGES
-----------------------
   0 C :   -0.427935
   1 C :    0.130791
   2 C :    0.047049
   3 N :   -0.532548
   4 C :   -0.019552
   5 C :   -0.033214
   6 O :   -0.488464
   7 N :   -0.116018
   8 O :   -0.114870
   9 H :    0.157367
  10 H :    0.159060
  11 H :    0.129702
  12 H :    0.236791
  13 H :    0.272396
  14 H :    0.140915
  15 H :    0.134886
  16 H :    0.323646
Sum of atomic charges:    0.0000000

LOEWDIN ATOMIC CHARGES
----------------------
   0 C :   -0.273773
   1 C :   -0.286598
   2 C :   -0.248700
   3 N :   -0.082253
   4 C :   -0.288836
   5 C :   -0.295762
   6 O :   -0.052379
   7 N :    0.047916
   8 O :    0.278014
   9 H :    0.137505
  10 H :    0.139192
  11 H :    0.133535
  12 H :    0.164892
  13 H :    0.173637
  14 H :    0.133229
  15 H :    0.142159
  16 H :    0.178220

  Mayer bond orders larger than 0.1
B(  0-C ,  1-C ) :   0.8639 B(  0-C ,  9-H ) :   0.9269 B(  0-C , 10-H ) :   0.9385
B(  0-C , 11-H ) :   0.9480 B(  1-C ,  2-C ) :   1.4710 B(  1-C ,  7-N ) :   0.1086
B(  1-C ,  8-O ) :   1.0949 B(  2-C ,  3-N ) :   1.0397 B(  2-C ,  4-C ) :   1.1972
B(  3-N , 12-H ) :   0.8795 B(  3-N , 13-H ) :   0.8589 B(  4-C ,  5-C ) :   0.8963
B(  4-C ,  7-N ) :   1.6215 B(  5-C ,  6-O ) :   0.8560 B(  5-C , 14-H ) :   0.9441
B(  5-C , 15-H ) :   0.9298 B(  6-O , 16-H ) :   0.8419 B(  7-N ,  8-O ) :   0.8962

MP2 TOTAL ENERGY:     -454.401925927 Eh
FINAL SINGLE POINT ENERGY      -454.401925926719

DIPOLE MOMENT
-------------
                                X             Y             Z
Electronic contribution:      3.34582      -2.87747      -0.24699
Nuclear contribution   :     -4.08739       3.59616      -0.25092
                        -----------------------------------------
Total Dipole Moment    :     -0.74157       0.71870      -0.49791
                        -----------------------------------------
Magnitude (a.u.)       :      1.14646
Magnitude (Debye)      :      2.91406

                             ****ORCA TERMINATED NORMALLY****
TOTAL RUN TIME: 0 days 0 hours 15 minutes 59 seconds 895 msec
