                         Program Version 3.0.3 - RELEASE   -
|  1> ! RI-MP2 RIJK def2-TZVP def2-TZVP/C def2-TZVP/JK TIGHTSCF
|  2> % maxcore 2000
|  3> % mp2 density relaxed end
|  4> *xyz 0 1
|  5>  C        0.2125205076     1.3515958331     0.1821143169
|  6>  C       -0.0860693034    -0.1041469466     0.0718190683
|  7>  N        0.0757978442    -0.8245904364    -0.9698205608
|  8>  C       -0.3709375599    -2.1454625333    -0.6432149826
|  9>  C        0.1997643665    -2.9251579956     0.6081086208
| 10>  N        1.1961979823    -2.3227518615     1.4457403999
| 11>  C        0.7220351896    -1.1960965973     1.7993952845
| 12>  N       -0.5932358203    -0.8273181041     1.2655784131
| 13>  C       -1.0618821185    -2.1177696816     0.6852774688
| 14>  H        0.9344477975     1.5602583749     0.9778422320
| 15>  H        0.6124355479     1.7175800715    -0.7638309510
| 16>  H       -0.7040927802     1.8963969477     0.4325390674
| 17>  H       -0.6898863371    -2.7700849300    -1.4671578293
| 18>  H        0.2156414815    -4.0033006757     0.5197996929
| 19>  H        1.2586219437    -0.4716726630     2.4013650097
| 20>  H       -2.0599703613    -2.4629735423     0.9273096596
| 21> *
| 22>
| 23>                          ****END OF INPUT****

CARTESIAN COORDINATES (ANGSTROEM)
---------------------------------
  C      0.212521    1.351596    0.182114
  C     -0.086069   -0.104147    0.071819
  N      0.075798   -0.824590   -0.969821
  C     -0.370938   -2.145463   -0.643215
  C      0.199764   -2.925158    0.608109
  N      1.196198   -2.322752    1.445740
  C      0.722035   -1.196097    1.799395
  N     -0.593236   -0.827318    1.265578
  C     -1.061882   -2.117770    0.685277
  H      0.934448    1.560258    0.977842
  H      0.612436    1.717580   -0.763831
  H     -0.704093    1.896397    0.432539
  H     -0.689886   -2.770085   -1.467158
  H      0.215641   -4.003301    0.519800
  H      1.258622   -0.471673    2.401365
  H     -2.059970   -2.462974    0.927310

 Total Charge           Charge          ....    0
 Multiplicity           Mult            ....    1
 Number of Electrons    NEL             ....   64
 Basis Dimension        Dim             ....  321

ORBITAL ENERGIES
----------------

  NO   OCC          E(Eh)            E(eV)
   0   2.0000     -15.596132      -424.3923
   1   2.0000     -15.570843      -423.7042
   2   2.0000     -15.563328      -423.4997
   3   2.0000     -11.324886      -308.1658
   4   2.0000     -11.318688      -307.9972
   5   2.0000     -11.277945      -306.8885
   6   2.0000     -11.276930      -306.8609
   7   2.0000     -11.271265      -306.7067
   8   2.0000     -11.244714      -305.9842
   9   2.0000      -1.364697       -37.1353
  10   2.0000      -1.245179       -33.8830
  11   2.0000      -1.153122       -31.3780
  12   2.0000      -1.111423       -30.2433
  13   2.0000      -1.004459       -27.3327
  14   2.0000      -0.876711       -23.8565
  15   2.0000      -0.828454       -22.5434
  16   2.0000      -0.789277       -21.4773
  17   2.0000      -0.755283       -20.5523
  18   2.0000      -0.725051       -19.7296
  19   2.0000      -0.663723       -18.0608
  20   2.0000      -0.620798       -16.8928
  21   2.0000      -0.599381       -16.3100
  22   2.0000      -0.592737       -16.1292
  23   2.0000      -0.570003       -15.5106
  24   2.0000      -0.556000       -15.1295
  25   2.0000      -0.535756       -14.5787
  26   2.0000      -0.503152       -13.6915
  27   2.0000      -0.478594       -13.0232
  28   2.0000      -0.453823       -12.3492
  29   2.0000      -0.451507       -12.2861
  30   2.0000      -0.386711       -10.5229
  31   2.0000      -0.344768        -9.3816
  32   0.0000       0.120726         3.2851
  33   0.0000       0.136779         3.7219
  34   0.0000       0.155011         4.2181
  35   0.0000       0.161310         4.3895
  36   0.0000       0.179155         4.8751

MULLIKEN ATOMIC CHARGES
-----------------------
   0 C :   -0.429395
   1 C :    0.167489
   2 N :   -0.221553
   3 C :   -0.039469
   4 C :   -0.060139
   5 N :   -0.213140
   6 C :    0.000881
   7 N :   -0.173389
   8 C :   -0.069348
   9 H :    0.143992
  10 H :    0.162637
  11 H :    0.154153
  12 H :    0.143396
  13 H :    0.142999
  14 H :    0.148613
  15 H :    0.142273
Sum of atomic charges:    0.0000000

LOEWDIN ATOMIC CHARGES
----------------------
   0 C :   -0.261741
   1 C :   -0.287309
   2 N :    0.149310
   3 C :   -0.212278
   4 C :   -0.212194
   5 N :    0.129674
   6 C :   -0.243603
   7 N :    0.146174
   8 C :   -0.193874
   9 H :    0.135462
  10 H :    0.141431
  11 H :    0.141135
  12 H :    0.147155
  13 H :    0.146753
  14 H :    0.136968
  15 H :    0.136937

  Mayer bond orders larger than 0.1
B(  0-C ,  1-C ) :   0.8819 B(  0-C ,  9-H ) :   0.9229 B(  0-C , 10-H ) :   0.9464
B(  0-C , 11-H ) :   0.9262 B(  1-C ,  2-N ) :   1.8452 B(  1-C ,  7-N ) :   0.8834
B(  2-N ,  3-C ) :   0.9847 B(  3-C ,  4-C ) :   0.7865 B(  3-C ,  8-C ) :   0.8658
B(  3-C , 12-H ) :   0.9354 B(  4-C ,  5-N ) :   0.9948 B(  4-C ,  8-C ) :   0.8740
B(  4-C , 13-H ) :   0.9338 B(  5-N ,  6-C ) :   1.8134 B(  6-C ,  7-N ) :   0.9253
B(  6-C , 14-H ) :   0.9169 B(  7-N ,  8-C ) :   0.9376 B(  8-C , 15-H ) :   0.9206

MP2 TOTAL ENERGY:     -396.215026756 Eh
FINAL SINGLE POINT ENERGY      -396.215026756011

DIPOLE MOMENT
-------------
                                X             Y             Z
Electronic contribution:      0.10070      -3.45756       0.56528
Nuclear contribution   :     -0.64426       3.65743      -0.40604
                        -----------------------------------------
Total Dipole Moment    :     -0.54357       0.19987       0.15923
                        -----------------------------------------
Magnitude (a.u.)       :      0.60064
Magnitude (Debye)      :      1.52671

                             ****ORCA TERMINATED NORMALLY****
TOTAL RUN TIME: 0 days 0 hours 18 minutes 16 seconds 333 msec
