                         Program Version 3.0.3 - RELEASE   -
|  1> ! RI-MP2 RIJK def2-TZVP def2-TZVP/C def2-TZVP/JK TIGHTSCF
|  2> % maxcore 2000
|  3> % mp2 density relaxed end
|  4> *xyz 0 1
|  5>  O       -0.0283694364    -0.0120799657    -0.0403544656
|  6>  C        0.0027332364     1.1813051185     0.0103741188
|  7>  O       -1.1316290973     1.9383074221     0.0800905155
|  8>  C       -0.8296367615     3.3492952169     0.0500607834
|  9>  C        0.0307049526     3.6673882977     1.2696781794
| 10>  O        1.2174149554     2.8712271799     1.1999057760
| 11>  C        1.2333577519     2.0886048937     0.0042901489
| 12>  C        1.1191391772     3.0259320302    -1.2010580571
| 13>  O       -0.1621923137     3.6764257982    -1.1342492560
| 14>  H       -1.7867179050     3.8694266912     0.0471189816
| 15>  H        0.2960993277     4.7311748121     1.2686049309
| 16>  H       -0.5115446549     3.4318921543     2.1924784569
| 17>  H        2.1491382372     1.5000140463     0.0040191682
| 18>  H        1.9166082130     3.7769639383    -1.1592790852
| 19>  H        1.1832371173     2.4819136763    -2.1495625257
| 20> *
| 21>
| 22>                          ****END OF INPUT****

CARTESIAN COORDINATES (ANGSTROEM)
---------------------------------
  O     -0.028369   -0.012080   -0.040354
  C      0.002733    1.181305    0.010374
  O     -1.131629    1.938307    0.080091
  C     -0.829637    3.349295    0.050061
  C      0.030705    3.667388    1.269678
  O      1.217415    2.871227    1.199906
  C      1.233358    2.088605    0.004290
  C      1.119139    3.025932   -1.201058
  O     -0.162192    3.676426   -1.134249
  H     -1.786718    3.869427    0.047119
  H      0.296099    4.731175    1.268605
  H     -0.511545    3.431892    2.192478
  H      2.149138    1.500014    0.004019
  H      1.916608    3.776964   -1.159279
  H      1.183237    2.481914   -2.149563

 Total Charge           Charge          ....    0
 Multiplicity           Mult            ....    1
 Number of Electrons    NEL             ....   68
 Basis Dimension        Dim             ....  315

ORBITAL ENERGIES
----------------

  NO   OCC          E(Eh)            E(eV)
   0   2.0000     -20.616148      -560.9939
   1   2.0000     -20.596793      -560.4672
   2   2.0000     -20.595246      -560.4251
   3   2.0000     -20.558584      -559.4275
   4   2.0000     -11.392085      -309.9944
   5   2.0000     -11.372698      -309.4669
   6   2.0000     -11.325899      -308.1934
   7   2.0000     -11.313923      -307.8675
   8   2.0000     -11.308254      -307.7132
   9   2.0000      -1.496017       -40.7087
  10   2.0000      -1.424009       -38.7493
  11   2.0000      -1.399145       -38.0727
  12   2.0000      -1.368819       -37.2475
  13   2.0000      -1.091300       -29.6958
  14   2.0000      -0.989584       -26.9280
  15   2.0000      -0.940628       -25.5958
  16   2.0000      -0.890055       -24.2196
  17   2.0000      -0.765396       -20.8275
  18   2.0000      -0.760970       -20.7071
  19   2.0000      -0.733518       -19.9600
  20   2.0000      -0.715990       -19.4831
  21   2.0000      -0.669716       -18.2239
  22   2.0000      -0.640265       -17.4225
  23   2.0000      -0.629573       -17.1316
  24   2.0000      -0.620174       -16.8758
  25   2.0000      -0.611354       -16.6358
  26   2.0000      -0.587068       -15.9749
  27   2.0000      -0.582864       -15.8605
  28   2.0000      -0.574510       -15.6332
  29   2.0000      -0.530401       -14.4330
  30   2.0000      -0.490785       -13.3550
  31   2.0000      -0.470587       -12.8053
  32   2.0000      -0.449619       -12.2348
  33   2.0000      -0.430643       -11.7184
  34   0.0000       0.130441         3.5495
  35   0.0000       0.151851         4.1321
  36   0.0000       0.155583         4.2336
  37   0.0000       0.176974         4.8157
  38   0.0000       0.185645         5.0517

MULLIKEN ATOMIC CHARGES
-----------------------
   0 O :   -0.261121
   1 C :    0.200708
   2 O :   -0.224288
   3 C :    0.169491
   4 C :   -0.069200
   5 O :   -0.315304
   6 C :    0.090823
   7 C :   -0.090661
   8 O :   -0.302416
   9 H :    0.147237
  10 H :    0.121858
  11 H :    0.125720
  12 H :    0.150934
  13 H :    0.122829
  14 H :    0.133391
Sum of atomic charges:    0.0000000

LOEWDIN ATOMIC CHARGES
----------------------
   0 O :    0.157915
   1 C :   -0.444434
   2 O :    0.269029
   3 C :   -0.378910
   4 C :   -0.275071
   5 O :    0.178735
   6 C :   -0.289778
   7 C :   -0.254827
   8 O :    0.184940
   9 H :    0.149508
  10 H :    0.134750
  11 H :    0.135032
  12 H :    0.161639
  13 H :    0.134347
  14 H :    0.137126

  Mayer bond orders larger than 0.1
B(  0-O ,  1-C ) :   2.0442 B(  1-C ,  2-O ) :   1.1056 B(  1-C ,  6-C ) :   0.9282
B(  2-O ,  3-C ) :   0.8790 B(  3-C ,  4-C ) :   0.9731 B(  3-C ,  8-O ) :   1.0073
B(  3-C ,  9-H ) :   0.9172 B(  4-C ,  5-O ) :   0.9230 B(  4-C , 10-H ) :   0.9252
B(  4-C , 11-H ) :   0.9184 B(  5-O ,  6-C ) :   0.8990 B(  6-C ,  7-C ) :   0.9321
B(  6-C , 12-H ) :   0.9031 B(  7-C ,  8-O ) :   0.9019 B(  7-C , 13-H ) :   0.9176
B(  7-C , 14-H ) :   0.9150

MP2 TOTAL ENERGY:     -494.168139632 Eh
FINAL SINGLE POINT ENERGY      -494.168139632450

DIPOLE MOMENT
-------------
                                X             Y             Z
Electronic contribution:     -1.75798      -3.61183      -0.04743
Nuclear contribution   :      2.15745       4.90227       0.03965
                        -----------------------------------------
Total Dipole Moment    :      0.39947       1.29044      -0.00778
                        -----------------------------------------
Magnitude (a.u.)       :      1.35088
Magnitude (Debye)      :      3.43366

                             ****ORCA TERMINATED NORMALLY****
TOTAL RUN TIME: 0 days 0 hours 15 minutes 30 seconds 262 msec
