                         Program Version 3.0.3 - RELEASE   -
|  1> ! RI-MP2 RIJK def2-TZVP def2-TZVP/C def2-TZVP/JK TIGHTSCF
|  2> % maxcore 2000
|  3> % mp2 density relaxed end
|  4> *xyz 0 1
|  5>  C       -0.0338081646     1.5498311435    -0.0017885002
|  6>  C       -0.0117254607     0.0541204799     0.0269090771
|  7>  C       -0.0254642986    -0.7842880593    -1.0608843061
|  8>  N        0.0037984560    -2.0928623420    -0.6199352616
|  9>  C        0.0363967669    -2.1321502872     0.7335837568
| 10>  C        0.0276477838    -0.8188662114     1.1615138464
| 11>  N        0.0551618622    -0.4514228796     2.5436902702
| 12>  O        0.0873158759    -1.3573027715     3.3753870046
| 13>  O        0.0449895438     0.7471478862     2.8191254201
| 14>  H        0.8484641331     1.9708829785     0.4882565165
| 15>  H       -0.0655484164     1.9094163522    -1.0341576021
| 16>  H       -0.9011701307     1.9458942689     0.5335243170
| 17>  H       -0.0537896863    -0.5547974183    -2.1139177302
| 18>  H        0.0012763176    -2.9023596367    -1.2166185134
| 19>  H        0.0629504280    -3.0457120632     1.3010231448
| 20> *
| 21>
| 22>                          ****END OF INPUT****

CARTESIAN COORDINATES (ANGSTROEM)
---------------------------------
  C     -0.033808    1.549831   -0.001789
  C     -0.011725    0.054120    0.026909
  C     -0.025464   -0.784288   -1.060884
  N      0.003798   -2.092862   -0.619935
  C      0.036397   -2.132150    0.733584
  C      0.027648   -0.818866    1.161514
  N      0.055162   -0.451423    2.543690
  O      0.087316   -1.357303    3.375387
  O      0.044990    0.747148    2.819125
  H      0.848464    1.970883    0.488257
  H     -0.065548    1.909416   -1.034158
  H     -0.901170    1.945894    0.533524
  H     -0.053790   -0.554797   -2.113918
  H      0.001276   -2.902360   -1.216619
  H      0.062950   -3.045712    1.301023

 Total Charge           Charge          ....    0
 Multiplicity           Mult            ....    1
 Number of Electrons    NEL             ....   66
 Basis Dimension        Dim             ....  315

ORBITAL ENERGIES
----------------

  NO   OCC          E(Eh)            E(eV)
   0   2.0000     -20.584515      -560.1331
   1   2.0000     -20.581035      -560.0384
   2   2.0000     -15.840247      -431.0350
   3   2.0000     -15.644622      -425.7118
   4   2.0000     -11.304606      -307.6140
   5   2.0000     -11.281408      -306.9827
   6   2.0000     -11.277242      -306.8694
   7   2.0000     -11.256859      -306.3147
   8   2.0000     -11.229116      -305.5598
   9   2.0000      -1.586693       -43.1761
  10   2.0000      -1.379292       -37.5324
  11   2.0000      -1.333531       -36.2872
  12   2.0000      -1.125141       -30.6166
  13   2.0000      -1.055747       -28.7283
  14   2.0000      -0.962008       -26.1776
  15   2.0000      -0.951742       -25.8982
  16   2.0000      -0.807005       -21.9597
  17   2.0000      -0.791386       -21.5347
  18   2.0000      -0.761518       -20.7220
  19   2.0000      -0.713581       -19.4175
  20   2.0000      -0.707414       -19.2497
  21   2.0000      -0.695458       -18.9244
  22   2.0000      -0.624379       -16.9902
  23   2.0000      -0.611393       -16.6368
  24   2.0000      -0.609963       -16.5979
  25   2.0000      -0.561747       -15.2859
  26   2.0000      -0.559675       -15.2295
  27   2.0000      -0.533141       -14.5075
  28   2.0000      -0.482935       -13.1413
  29   2.0000      -0.478577       -13.0227
  30   2.0000      -0.441399       -12.0111
  31   2.0000      -0.381671       -10.3858
  32   2.0000      -0.332256        -9.0411
  33   0.0000       0.071022         1.9326
  34   0.0000       0.111400         3.0314
  35   0.0000       0.148392         4.0380
  36   0.0000       0.151465         4.1216
  37   0.0000       0.166636         4.5344

MULLIKEN ATOMIC CHARGES
-----------------------
   0 C :   -0.376975
   1 C :   -0.016306
   2 C :   -0.093005
   3 N :   -0.226228
   4 C :   -0.072154
   5 C :   -0.022618
   6 N :    0.424807
   7 O :   -0.322097
   8 O :   -0.313782
   9 H :    0.151494
  10 H :    0.127556
  11 H :    0.151612
  12 H :    0.154486
  13 H :    0.256323
  14 H :    0.176886
Sum of atomic charges:   -0.0000000

LOEWDIN ATOMIC CHARGES
----------------------
   0 C :   -0.269185
   1 C :   -0.174347
   2 C :   -0.190737
   3 N :    0.199502
   4 C :   -0.190013
   5 C :   -0.191822
   6 N :   -0.042638
   7 O :   -0.017990
   8 O :   -0.005879
   9 H :    0.135832
  10 H :    0.128927
  11 H :    0.135833
  12 H :    0.138712
  13 H :    0.198198
  14 H :    0.145609

  Mayer bond orders larger than 0.1
B(  0-C ,  1-C ) :   0.8837 B(  0-C ,  9-H ) :   0.9305 B(  0-C , 10-H ) :   0.9395
B(  0-C , 11-H ) :   0.9306 B(  1-C ,  2-C ) :   1.5134 B(  1-C ,  5-C ) :   1.2581
B(  2-C ,  3-N ) :   1.1095 B(  2-C , 12-H ) :   0.9062 B(  3-N ,  4-C ) :   1.1869
B(  3-N , 13-H ) :   0.8725 B(  4-C ,  5-C ) :   1.4707 B(  4-C , 14-H ) :   0.8796
B(  5-C ,  6-N ) :   0.9521 B(  6-N ,  7-O ) :   1.4357 B(  6-N ,  8-O ) :   1.4339
B(  7-O ,  8-O ) :   0.1640

MP2 TOTAL ENERGY:     -453.171022097 Eh
FINAL SINGLE POINT ENERGY      -453.171022096690

DIPOLE MOMENT
-------------
                                X             Y             Z
Electronic contribution:      0.18457      -3.48067       5.69181
Nuclear contribution   :     -0.22252       2.56465      -7.85175
                        -----------------------------------------
Total Dipole Moment    :     -0.03795      -0.91602      -2.15994
                        -----------------------------------------
Magnitude (a.u.)       :      2.34647
Magnitude (Debye)      :      5.96424

                             ****ORCA TERMINATED NORMALLY****
TOTAL RUN TIME: 0 days 0 hours 17 minutes 14 seconds 622 msec
