                         Program Version 3.0.3 - RELEASE   -
|  1> ! RI-MP2 RIJK def2-TZVP def2-TZVP/C def2-TZVP/JK TIGHTSCF
|  2> % maxcore 2000
|  3> % mp2 density relaxed end
|  4> *xyz 0 1
|  5>  C       -0.0117656721     1.5213511848    -0.0448009676
|  6>  C        0.0125692561     0.0178371535    -0.0435540574
|  7>  C       -1.1277049512    -0.7313757969     0.0186850832
|  8>  N       -2.3953795402    -0.2572157461     0.0612703372
|  9>  C       -1.0209992524    -2.1964921256     0.0200036490
| 10>  N       -2.0727840320    -2.9126093982     0.1031492730
| 11>  O        0.2211352138    -2.7458705852    -0.0639902639
| 12>  N        1.4085143243    -1.9878438722    -0.1364548568
| 13>  C        1.2415342421    -0.7076902267    -0.1203393311
| 14>  H        0.9966460112     1.9329574431    -0.1324212690
| 15>  H       -0.6038944946     1.9145850461    -0.8809508904
| 16>  H       -0.4489468748     1.9239855271     0.8788375028
| 17>  H       -2.5756872609     0.7065217204     0.2790772112
| 18>  H       -3.1135798040    -0.9465260518     0.2320107466
| 19>  H       -1.8460102814    -3.9063199872     0.0977249000
| 20>  H        2.1808461962    -0.1617682251    -0.1771108869
| 21> *
| 22>
| 23>                          ****END OF INPUT****

CARTESIAN COORDINATES (ANGSTROEM)
---------------------------------
  C     -0.011766    1.521351   -0.044801
  C      0.012569    0.017837   -0.043554
  C     -1.127705   -0.731376    0.018685
  N     -2.395380   -0.257216    0.061270
  C     -1.020999   -2.196492    0.020004
  N     -2.072784   -2.912609    0.103149
  O      0.221135   -2.745871   -0.063990
  N      1.408514   -1.987844   -0.136455
  C      1.241534   -0.707690   -0.120339
  H      0.996646    1.932957   -0.132421
  H     -0.603894    1.914585   -0.880951
  H     -0.448947    1.923986    0.878838
  H     -2.575687    0.706522    0.279077
  H     -3.113580   -0.946526    0.232011
  H     -1.846010   -3.906320    0.097725
  H      2.180846   -0.161768   -0.177111

 Total Charge           Charge          ....    0
 Multiplicity           Mult            ....    1
 Number of Electrons    NEL             ....   66
 Basis Dimension        Dim             ....  321

ORBITAL ENERGIES
----------------

  NO   OCC          E(Eh)            E(eV)
   0   2.0000     -20.627108      -561.2922
   1   2.0000     -15.627853      -425.2555
   2   2.0000     -15.588742      -424.1912
   3   2.0000     -15.540899      -422.8894
   4   2.0000     -11.354986      -308.9849
   5   2.0000     -11.316683      -307.9426
   6   2.0000     -11.292409      -307.2821
   7   2.0000     -11.252107      -306.1854
   8   2.0000     -11.249204      -306.1064
   9   2.0000      -1.464710       -39.8568
  10   2.0000      -1.268500       -34.5177
  11   2.0000      -1.221568       -33.2406
  12   2.0000      -1.156166       -31.4609
  13   2.0000      -1.083751       -29.4904
  14   2.0000      -0.981382       -26.7048
  15   2.0000      -0.884915       -24.0798
  16   2.0000      -0.853665       -23.2294
  17   2.0000      -0.771768       -21.0009
  18   2.0000      -0.742190       -20.1960
  19   2.0000      -0.691176       -18.8079
  20   2.0000      -0.656346       -17.8601
  21   2.0000      -0.654147       -17.8002
  22   2.0000      -0.626503       -17.0480
  23   2.0000      -0.597167       -16.2497
  24   2.0000      -0.590302       -16.0629
  25   2.0000      -0.570044       -15.5117
  26   2.0000      -0.529791       -14.4163
  27   2.0000      -0.520988       -14.1768
  28   2.0000      -0.493638       -13.4326
  29   2.0000      -0.475942       -12.9510
  30   2.0000      -0.436302       -11.8724
  31   2.0000      -0.406036       -11.0488
  32   2.0000      -0.310912        -8.4603
  33   0.0000       0.077661         2.1133
  34   0.0000       0.116509         3.1704
  35   0.0000       0.156859         4.2684
  36   0.0000       0.162548         4.4232
  37   0.0000       0.171610         4.6697

MULLIKEN ATOMIC CHARGES
-----------------------
   0 C :   -0.479418
   1 C :    0.039074
   2 C :    0.173566
   3 N :   -0.483889
   4 C :    0.173679
   5 N :   -0.471259
   6 O :   -0.133689
   7 N :   -0.098897
   8 C :   -0.084509
   9 H :    0.147314
  10 H :    0.159013
  11 H :    0.150935
  12 H :    0.257195
  13 H :    0.290018
  14 H :    0.224504
  15 H :    0.136363
Sum of atomic charges:   -0.0000000

LOEWDIN ATOMIC CHARGES
----------------------
   0 C :   -0.267244
   1 C :   -0.187319
   2 C :   -0.205088
   3 N :    0.015383
   4 C :   -0.384454
   5 N :   -0.086767
   6 O :    0.235405
   7 N :    0.046974
   8 C :   -0.247983
   9 H :    0.134969
  10 H :    0.134291
  11 H :    0.131842
  12 H :    0.172115
  13 H :    0.187077
  14 H :    0.167126
  15 H :    0.153675

  Mayer bond orders larger than 0.1
B(  0-C ,  1-C ) :   0.8687 B(  0-C ,  9-H ) :   0.9372 B(  0-C , 10-H ) :   0.9356
B(  0-C , 11-H ) :   0.9337 B(  1-C ,  2-C ) :   1.4917 B(  1-C ,  8-C ) :   1.1065
B(  2-C ,  3-N ) :   1.1734 B(  2-C ,  4-C ) :   1.0168 B(  3-N , 12-H ) :   0.8669
B(  3-N , 13-H ) :   0.8389 B(  4-C ,  5-N ) :   1.8746 B(  4-C ,  6-O ) :   1.1385
B(  5-N , 14-H ) :   0.8571 B(  6-O ,  7-N ) :   0.7976 B(  7-N ,  8-C ) :   1.7199
B(  8-C , 15-H ) :   0.9312

MP2 TOTAL ENERGY:     -433.330844900 Eh
FINAL SINGLE POINT ENERGY      -433.330844899985

DIPOLE MOMENT
-------------
                                X             Y             Z
Electronic contribution:      1.73407      -7.11091      -0.20018
Nuclear contribution   :     -2.15464       8.68020       0.40322
                        -----------------------------------------
Total Dipole Moment    :     -0.42057       1.56929       0.20303
                        -----------------------------------------
Magnitude (a.u.)       :      1.63731
Magnitude (Debye)      :      4.16170

                             ****ORCA TERMINATED NORMALLY****
TOTAL RUN TIME: 0 days 0 hours 16 minutes 48 seconds 780 msec
