                         Program Version 3.0.3 - RELEASE   -
|  1> ! RI-MP2 RIJK def2-TZVP def2-TZVP/C def2-TZVP/JK TIGHTSCF
|  2> % maxcore 2000
|  3> % mp2 density relaxed end
|  4> *xyz 0 1
|  5>  N        0.0360201351     1.3496963765    -0.1577010565
|  6>  C       -0.0376571501    -0.0217345410    -0.0103803475
|  7>  N       -1.1755917223    -0.5975631585     0.0174938213
|  8>  C       -1.1956593677    -2.0663244765     0.0489659117
|  9>  C        0.1347724562    -2.6834392486    -0.4142530781
| 10>  O        1.2135272329    -2.0927918622     0.2871264450
| 11>  C        1.3124157972    -0.7197283655     0.0043458132
| 12>  C       -1.5686878157    -2.5404092293     1.3856857046
| 13>  C       -1.8704933774    -2.9474949748     2.4751338484
| 14>  H        0.8157808565     1.8146052253     0.2829676382
| 15>  H       -0.8500117467     1.8169881579    -0.0216279407
| 16>  H       -1.9776332144    -2.3910141384    -0.6523710144
| 17>  H        0.1703412617    -3.7542188129    -0.2038083324
| 18>  H        0.2469263190    -2.5281695773    -1.4998629737
| 19>  H        1.8035652670    -0.5442723587    -0.9692243223
| 20>  H        1.9535155023    -0.2808999211     0.7778999421
| 21>  H       -2.1393687936    -3.3005903250     3.4396809312
| 22> *
| 23>
| 24>                          ****END OF INPUT****

CARTESIAN COORDINATES (ANGSTROEM)
---------------------------------
  N      0.036020    1.349696   -0.157701
  C     -0.037657   -0.021735   -0.010380
  N     -1.175592   -0.597563    0.017494
  C     -1.195659   -2.066324    0.048966
  C      0.134772   -2.683439   -0.414253
  O      1.213527   -2.092792    0.287126
  C      1.312416   -0.719728    0.004346
  C     -1.568688   -2.540409    1.385686
  C     -1.870493   -2.947495    2.475134
  H      0.815781    1.814605    0.282968
  H     -0.850012    1.816988   -0.021628
  H     -1.977633   -2.391014   -0.652371
  H      0.170341   -3.754219   -0.203808
  H      0.246926   -2.528170   -1.499863
  H      1.803565   -0.544272   -0.969224
  H      1.953516   -0.280900    0.777900
  H     -2.139369   -3.300590    3.439681

 Total Charge           Charge          ....    0
 Multiplicity           Mult            ....    1
 Number of Electrons    NEL             ....   66
 Basis Dimension        Dim             ....  327

ORBITAL ENERGIES
----------------

  NO   OCC          E(Eh)            E(eV)
   0   2.0000     -20.570570      -559.7537
   1   2.0000     -15.575948      -423.8431
   2   2.0000     -15.538795      -422.8321
   3   2.0000     -11.320593      -308.0490
   4   2.0000     -11.300527      -307.5030
   5   2.0000     -11.286112      -307.1107
   6   2.0000     -11.282585      -307.0148
   7   2.0000     -11.225241      -305.4544
   8   2.0000     -11.214728      -305.1683
   9   2.0000      -1.399686       -38.0874
  10   2.0000      -1.271511       -34.5996
  11   2.0000      -1.177567       -32.0432
  12   2.0000      -1.056986       -28.7620
  13   2.0000      -1.002735       -27.2858
  14   2.0000      -0.943833       -25.6830
  15   2.0000      -0.884789       -24.0763
  16   2.0000      -0.767418       -20.8825
  17   2.0000      -0.723725       -19.6936
  18   2.0000      -0.707269       -19.2458
  19   2.0000      -0.692925       -18.8554
  20   2.0000      -0.682628       -18.5753
  21   2.0000      -0.656638       -17.8680
  22   2.0000      -0.624852       -17.0031
  23   2.0000      -0.596819       -16.2403
  24   2.0000      -0.579226       -15.7615
  25   2.0000      -0.551484       -15.0066
  26   2.0000      -0.523587       -14.2475
  27   2.0000      -0.501411       -13.6441
  28   2.0000      -0.458534       -12.4773
  29   2.0000      -0.405989       -11.0475
  30   2.0000      -0.385027       -10.4771
  31   2.0000      -0.373292       -10.1578
  32   2.0000      -0.365387        -9.9427
  33   0.0000       0.123787         3.3684
  34   0.0000       0.143900         3.9157
  35   0.0000       0.159680         4.3451
  36   0.0000       0.170580         4.6417
  37   0.0000       0.176096         4.7918

MULLIKEN ATOMIC CHARGES
-----------------------
   0 N :   -0.500006
   1 C :    0.147268
   2 N :   -0.275513
   3 C :    0.002398
   4 C :   -0.079091
   5 O :   -0.311938
   6 C :   -0.066004
   7 C :   -0.072735
   8 C :   -0.160145
   9 H :    0.248506
  10 H :    0.257291
  11 H :    0.118271
  12 H :    0.136679
  13 H :    0.113815
  14 H :    0.119316
  15 H :    0.133678
  16 H :    0.188210
Sum of atomic charges:   -0.0000000

LOEWDIN ATOMIC CHARGES
----------------------
   0 N :   -0.051321
   1 C :   -0.373168
   2 N :    0.115903
   3 C :   -0.288087
   4 C :   -0.279258
   5 O :    0.172153
   6 C :   -0.294433
   7 C :   -0.082139
   8 C :   -0.095816
   9 H :    0.168057
  10 H :    0.173424
  11 H :    0.167558
  12 H :    0.139020
  13 H :    0.126530
  14 H :    0.135085
  15 H :    0.140385
  16 H :    0.126105

  Mayer bond orders larger than 0.1
B(  0-N ,  1-C ) :   1.0672 B(  0-N ,  9-H ) :   0.8718 B(  0-N , 10-H ) :   0.8625
B(  1-C ,  2-N ) :   1.8292 B(  1-C ,  6-C ) :   0.9208 B(  2-N ,  3-C ) :   0.9363
B(  3-C ,  4-C ) :   0.9156 B(  3-C ,  7-C ) :   1.1317 B(  3-C , 11-H ) :   0.8991
B(  4-C ,  5-O ) :   0.9116 B(  4-C , 12-H ) :   0.9250 B(  4-C , 13-H ) :   0.9368
B(  5-O ,  6-C ) :   0.9641 B(  6-C , 14-H ) :   0.9280 B(  6-C , 15-H ) :   0.9070
B(  7-C ,  8-C ) :   2.5933 B(  8-C , 16-H ) :   0.8977

MP2 TOTAL ENERGY:     -417.263257711 Eh
FINAL SINGLE POINT ENERGY      -417.263257710800

DIPOLE MOMENT
-------------
                                X             Y             Z
Electronic contribution:     -1.63840      -0.79260       1.56695
Nuclear contribution   :      2.17259       1.32512      -1.68692
                        -----------------------------------------
Total Dipole Moment    :      0.53419       0.53251      -0.11998
                        -----------------------------------------
Magnitude (a.u.)       :      0.76376
Magnitude (Debye)      :      1.94131

                             ****ORCA TERMINATED NORMALLY****
TOTAL RUN TIME: 0 days 0 hours 16 minutes 17 seconds 492 msec
