                         Program Version 3.0.3 - RELEASE   -
|  1> ! RI-MP2 RIJK def2-TZVP def2-TZVP/C def2-TZVP/JK TIGHTSCF
|  2> % maxcore 2000
|  3> % mp2 density relaxed end
|  4> *xyz 0 1
|  5>  C       -0.6150427393     1.4737425116     0.2991769927
|  6>  C       -0.2252497023     0.0058757101     0.2394346157
|  7>  O       -1.3759866845    -0.7448111538    -0.0887639008
|  8>  C       -1.1487365924    -2.1314636747    -0.2585756846
|  9>  C       -1.0412334208    -2.9023215908     1.0912529546
| 10>  C       -2.4243695123    -3.4728035985     1.3286563483
| 11>  O       -3.4714627698    -2.5030545043     1.2083947361
| 12>  C       -3.2157773696    -3.3694601546     0.0966858804
| 13>  C       -2.3765054683    -2.7297030706    -0.9893880835
| 14>  H        0.2537210101     2.0900639158     0.5494748231
| 15>  H       -1.0116406902     1.8040921863    -0.6650227151
| 16>  H       -1.3861583566     1.6329775024     1.0579773645
| 17>  H        0.5608716440    -0.1572236754    -0.5186140740
| 18>  H        0.1948277887    -0.3138104102     1.2071290811
| 19>  H       -0.2332338844    -2.2691754976    -0.8533602389
| 20>  H       -0.3156007180    -3.7216885319     1.0190585231
| 21>  H       -0.7153587634    -2.2437887884     1.9013047517
| 22>  H       -2.5866066642    -4.2471379581     2.0752141442
| 23>  H       -4.0171887217    -4.0609552658    -0.1528951862
| 24>  H       -2.9048987703    -1.9421592450    -1.5323971767
| 25>  H       -2.0686031946    -3.4952580364    -1.7110725958
| 26> *
| 27>
| 28>                          ****END OF INPUT****

CARTESIAN COORDINATES (ANGSTROEM)
---------------------------------
  C     -0.615043    1.473743    0.299177
  C     -0.225250    0.005876    0.239435
  O     -1.375987   -0.744811   -0.088764
  C     -1.148737   -2.131464   -0.258576
  C     -1.041233   -2.902322    1.091253
  C     -2.424370   -3.472804    1.328656
  O     -3.471463   -2.503055    1.208395
  C     -3.215777   -3.369460    0.096686
  C     -2.376505   -2.729703   -0.989388
  H      0.253721    2.090064    0.549475
  H     -1.011641    1.804092   -0.665023
  H     -1.386158    1.632978    1.057977
  H      0.560872   -0.157224   -0.518614
  H      0.194828   -0.313810    1.207129
  H     -0.233234   -2.269175   -0.853360
  H     -0.315601   -3.721689    1.019059
  H     -0.715359   -2.243789    1.901305
  H     -2.586607   -4.247138    2.075214
  H     -4.017189   -4.060955   -0.152895
  H     -2.904899   -1.942159   -1.532397
  H     -2.068603   -3.495258   -1.711073

 Total Charge           Charge          ....    0
 Multiplicity           Mult            ....    1
 Number of Electrons    NEL             ....   70
 Basis Dimension        Dim             ....  351

ORBITAL ENERGIES
----------------

  NO   OCC          E(Eh)            E(eV)
   0   2.0000     -20.556811      -559.3793
   1   2.0000     -20.546396      -559.0959
   2   2.0000     -11.283570      -307.0416
   3   2.0000     -11.278834      -306.9127
   4   2.0000     -11.277876      -306.8866
   5   2.0000     -11.271275      -306.7070
   6   2.0000     -11.228205      -305.5350
   7   2.0000     -11.225452      -305.4601
   8   2.0000     -11.210133      -305.0432
   9   2.0000      -1.406409       -38.2703
  10   2.0000      -1.369984       -37.2791
  11   2.0000      -1.084366       -29.5071
  12   2.0000      -1.006631       -27.3918
  13   2.0000      -0.982192       -26.7268
  14   2.0000      -0.903036       -24.5729
  15   2.0000      -0.834633       -22.7115
  16   2.0000      -0.786987       -21.4150
  17   2.0000      -0.784896       -21.3581
  18   2.0000      -0.717076       -19.5126
  19   2.0000      -0.676039       -18.3959
  20   2.0000      -0.648286       -17.6408
  21   2.0000      -0.610197       -16.6043
  22   2.0000      -0.605452       -16.4752
  23   2.0000      -0.576922       -15.6989
  24   2.0000      -0.566475       -15.4146
  25   2.0000      -0.548868       -14.9355
  26   2.0000      -0.523875       -14.2554
  27   2.0000      -0.516296       -14.0491
  28   2.0000      -0.508501       -13.8370
  29   2.0000      -0.501474       -13.6458
  30   2.0000      -0.486469       -13.2375
  31   2.0000      -0.467920       -12.7327
  32   2.0000      -0.432345       -11.7647
  33   2.0000      -0.413875       -11.2621
  34   2.0000      -0.404123       -10.9968
  35   0.0000       0.137950         3.7538
  36   0.0000       0.154312         4.1990
  37   0.0000       0.168275         4.5790
  38   0.0000       0.171339         4.6624
  39   0.0000       0.187795         5.1102

MULLIKEN ATOMIC CHARGES
-----------------------
   0 C :   -0.363533
   1 C :   -0.058398
   2 O :   -0.289342
   3 C :    0.076518
   4 C :   -0.220524
   5 C :    0.009999
   6 O :   -0.321226
   7 C :   -0.030747
   8 C :   -0.146561
   9 H :    0.118918
  10 H :    0.127180
  11 H :    0.135161
  12 H :    0.086379
  13 H :    0.086760
  14 H :    0.084942
  15 H :    0.111431
  16 H :    0.119291
  17 H :    0.121041
  18 H :    0.119551
  19 H :    0.122521
  20 H :    0.110638
Sum of atomic charges:   -0.0000000

LOEWDIN ATOMIC CHARGES
----------------------
   0 C :   -0.316554
   1 C :   -0.355840
   2 O :    0.184720
   3 C :   -0.295604
   4 C :   -0.221724
   5 C :   -0.265879
   6 O :    0.173431
   7 C :   -0.264248
   8 C :   -0.214371
   9 H :    0.123003
  10 H :    0.123353
  11 H :    0.125679
  12 H :    0.114353
  13 H :    0.113453
  14 H :    0.131249
  15 H :    0.143151
  16 H :    0.143614
  17 H :    0.132753
  18 H :    0.132994
  19 H :    0.148603
  20 H :    0.143867

  Mayer bond orders larger than 0.1
B(  0-C ,  1-C ) :   0.9573 B(  0-C ,  9-H ) :   0.9323 B(  0-C , 10-H ) :   0.9363
B(  0-C , 11-H ) :   0.9361 B(  1-C ,  2-O ) :   0.9239 B(  1-C , 12-H ) :   0.9220
B(  1-C , 13-H ) :   0.9181 B(  2-O ,  3-C ) :   0.9503 B(  3-C ,  4-C ) :   0.9255
B(  3-C ,  8-C ) :   0.9098 B(  3-C , 14-H ) :   0.9425 B(  4-C ,  5-C ) :   0.9370
B(  4-C , 15-H ) :   0.9045 B(  4-C , 16-H ) :   0.9156 B(  5-C ,  6-O ) :   0.9339
B(  5-C ,  7-C ) :   0.9437 B(  5-C , 17-H ) :   0.9291 B(  6-O ,  7-C ) :   0.9255
B(  7-C ,  8-C ) :   0.9711 B(  7-C , 18-H ) :   0.9289 B(  8-C , 19-H ) :   0.9038
B(  8-C , 20-H ) :   0.9066

MP2 TOTAL ENERGY:     -423.506822347 Eh
FINAL SINGLE POINT ENERGY      -423.506822346544

DIPOLE MOMENT
-------------
                                X             Y             Z
Electronic contribution:     -5.52345      -4.64776       1.17588
Nuclear contribution   :      6.35660       4.03735      -1.45379
                        -----------------------------------------
Total Dipole Moment    :      0.83315      -0.61041      -0.27791
                        -----------------------------------------
Magnitude (a.u.)       :      1.06957
Magnitude (Debye)      :      2.71863

                             ****ORCA TERMINATED NORMALLY****
TOTAL RUN TIME: 0 days 0 hours 22 minutes 15 seconds 980 msec
