                         Program Version 3.0.3 - RELEASE   -
|  1> ! RI-MP2 RIJK def2-TZVP def2-TZVP/C def2-TZVP/JK TIGHTSCF
|  2> % maxcore 2000
|  3> % mp2 density relaxed end
|  4> *xyz 0 1
|  5>  C        0.1648530823     1.4880172307    -0.2634103338
|  6>  C        0.2187929824    -0.0264571820    -0.0744408840
|  7>  C        1.0342959047    -0.8039161684    -1.1388836181
|  8>  O        2.2867376389    -0.1963891435    -1.4525807782
|  9>  C        1.2645966916    -2.1439253809    -0.4486841041
| 10>  C        2.4351658567    -2.2621389738     0.4497066390
| 11>  N        1.1072702682    -1.9844748489     1.0157097564
| 12>  C        0.7714243776    -0.5535049897     1.2827227336
| 13>  C        1.9100432177     0.2659234768     1.8960460395
| 14>  H        1.1600810527     1.9400281490    -0.2213568409
| 15>  H       -0.2861465294     1.7469624513    -1.2288019587
| 16>  H       -0.4429255589     1.9619884274     0.5138834861
| 17>  H       -0.8038068167    -0.4180904170    -0.1561238328
| 18>  H        0.4498294701    -0.9389720743    -2.0596878019
| 19>  H        2.1064211693     0.6388255417    -1.8957054731
| 20>  H        0.8115967433    -3.0262474758    -0.8918672627
| 21>  H        2.8248550180    -3.2467108646     0.6956090774
| 22>  H        3.1810064941    -1.4780596054     0.4010336272
| 23>  H       -0.0449239615    -0.5740701445     2.0135689167
| 24>  H        2.7068006529     0.4760618619     1.1788141322
| 25>  H        1.5292259138     1.2247832946     2.2616920489
| 26>  H        2.3395287024    -0.2678031148     2.7493133714
| 27> *
| 28>
| 29>                          ****END OF INPUT****

CARTESIAN COORDINATES (ANGSTROEM)
---------------------------------
  C      0.164853    1.488017   -0.263410
  C      0.218793   -0.026457   -0.074441
  C      1.034296   -0.803916   -1.138884
  O      2.286738   -0.196389   -1.452581
  C      1.264597   -2.143925   -0.448684
  C      2.435166   -2.262139    0.449707
  N      1.107270   -1.984475    1.015710
  C      0.771424   -0.553505    1.282723
  C      1.910043    0.265923    1.896046
  H      1.160081    1.940028   -0.221357
  H     -0.286147    1.746962   -1.228802
  H     -0.442926    1.961988    0.513883
  H     -0.803807   -0.418090   -0.156124
  H      0.449829   -0.938972   -2.059688
  H      2.106421    0.638826   -1.895705
  H      0.811597   -3.026247   -0.891867
  H      2.824855   -3.246711    0.695609
  H      3.181006   -1.478060    0.401034
  H     -0.044924   -0.574070    2.013569
  H      2.706801    0.476062    1.178814
  H      1.529226    1.224783    2.261692
  H      2.339529   -0.267803    2.749313

 Total Charge           Charge          ....    0
 Multiplicity           Mult            ....    1
 Number of Electrons    NEL             ....   70
 Basis Dimension        Dim             ....  357

ORBITAL ENERGIES
----------------

  NO   OCC          E(Eh)            E(eV)
   0   2.0000     -20.558805      -559.4335
   1   2.0000     -15.546822      -423.0505
   2   2.0000     -11.284019      -307.0538
   3   2.0000     -11.251182      -306.1602
   4   2.0000     -11.247563      -306.0617
   5   2.0000     -11.243322      -305.9463
   6   2.0000     -11.230333      -305.5929
   7   2.0000     -11.224038      -305.4216
   8   2.0000     -11.209449      -305.0246
   9   2.0000      -1.366636       -37.1881
  10   2.0000      -1.266024       -34.4503
  11   2.0000      -1.077431       -29.3184
  12   2.0000      -1.010097       -27.4861
  13   2.0000      -0.949981       -25.8503
  14   2.0000      -0.912513       -24.8307
  15   2.0000      -0.822429       -22.3794
  16   2.0000      -0.773995       -21.0615
  17   2.0000      -0.756568       -20.5873
  18   2.0000      -0.711809       -19.3693
  19   2.0000      -0.662741       -18.0341
  20   2.0000      -0.645432       -17.5631
  21   2.0000      -0.609730       -16.5916
  22   2.0000      -0.590660       -16.0727
  23   2.0000      -0.579851       -15.7786
  24   2.0000      -0.547427       -14.8963
  25   2.0000      -0.544049       -14.8043
  26   2.0000      -0.541929       -14.7466
  27   2.0000      -0.524288       -14.2666
  28   2.0000      -0.511056       -13.9065
  29   2.0000      -0.480751       -13.0819
  30   2.0000      -0.469969       -12.7885
  31   2.0000      -0.448666       -12.2088
  32   2.0000      -0.430726       -11.7206
  33   2.0000      -0.419492       -11.4150
  34   2.0000      -0.361704        -9.8425
  35   0.0000       0.121773         3.3136
  36   0.0000       0.151947         4.1347
  37   0.0000       0.162251         4.4151
  38   0.0000       0.176392         4.7999
  39   0.0000       0.191237         5.2038

MULLIKEN ATOMIC CHARGES
-----------------------
   0 C :   -0.496623
   1 C :   -0.010923
   2 C :   -0.002155
   3 O :   -0.461731
   4 C :   -0.055042
   5 C :   -0.187784
   6 N :   -0.224119
   7 C :    0.039230
   8 C :   -0.469320
   9 H :    0.143387
  10 H :    0.142377
  11 H :    0.144175
  12 H :    0.099215
  13 H :    0.099422
  14 H :    0.315685
  15 H :    0.129187
  16 H :    0.123158
  17 H :    0.141450
  18 H :    0.102261
  19 H :    0.147176
  20 H :    0.132531
  21 H :    0.148447
Sum of atomic charges:    0.0000000

LOEWDIN ATOMIC CHARGES
----------------------
   0 C :   -0.303714
   1 C :   -0.240464
   2 C :   -0.300211
   3 O :   -0.015170
   4 C :   -0.223330
   5 C :   -0.237891
   6 N :    0.125548
   7 C :   -0.270020
   8 C :   -0.300026
   9 H :    0.123159
  10 H :    0.124878
  11 H :    0.129310
  12 H :    0.161217
  13 H :    0.136078
  14 H :    0.172055
  15 H :    0.137305
  16 H :    0.125099
  17 H :    0.131000
  18 H :    0.147136
  19 H :    0.123505
  20 H :    0.125458
  21 H :    0.129078

  Mayer bond orders larger than 0.1
B(  0-C ,  1-C ) :   0.8458 B(  0-C ,  9-H ) :   0.9424 B(  0-C , 10-H ) :   0.9381
B(  0-C , 11-H ) :   0.9388 B(  1-C ,  2-C ) :   0.9339 B(  1-C ,  7-C ) :   0.8942
B(  1-C , 12-H ) :   0.9139 B(  2-C ,  3-O ) :   1.0250 B(  2-C ,  4-C ) :   0.9023
B(  2-C , 13-H ) :   0.9409 B(  3-O , 14-H ) :   0.8433 B(  4-C ,  5-C ) :   0.9722
B(  4-C ,  6-N ) :   0.9229 B(  4-C , 15-H ) :   0.9063 B(  5-C ,  6-N ) :   0.8883
B(  5-C , 16-H ) :   0.9258 B(  5-C , 17-H ) :   0.8991 B(  6-N ,  7-C ) :   0.9122
B(  7-C ,  8-C ) :   0.9046 B(  7-C , 18-H ) :   0.9221 B(  8-C , 19-H ) :   0.9354
B(  8-C , 20-H ) :   0.9329 B(  8-C , 21-H ) :   0.9368

MP2 TOTAL ENERGY:     -403.643913073 Eh
FINAL SINGLE POINT ENERGY      -403.643913072662

DIPOLE MOMENT
-------------
                                X             Y             Z
Electronic contribution:      0.58190      -5.22243      -2.15595
Nuclear contribution   :     -0.89414       5.96400       1.71229
                        -----------------------------------------
Total Dipole Moment    :     -0.31224       0.74157      -0.44366
                        -----------------------------------------
Magnitude (a.u.)       :      0.91883
Magnitude (Debye)      :      2.33548

                             ****ORCA TERMINATED NORMALLY****
TOTAL RUN TIME: 0 days 0 hours 25 minutes 43 seconds 272 msec
