                         Program Version 3.0.3 - RELEASE   -
|  1> ! RI-MP2 RIJK def2-TZVP def2-TZVP/C def2-TZVP/JK TIGHTSCF
|  2> % maxcore 2000
|  3> % mp2 density relaxed end
|  4> *xyz 0 1
|  5>  C       -0.0276366400     1.5733245184    -0.4590242983
|  6>  C       -0.0553629472     0.1203427843    -0.0538998872
|  7>  N        1.2141270350    -0.6022546826    -0.0534697344
|  8>  C        0.5257714757    -0.3987841047     1.2314983572
|  9>  C        1.2036616335     0.5037441805     2.2309394705
| 10>  N        0.8784112080     0.2227327915     3.5307553410
| 11>  O        1.9621248095     1.4046328121     1.9329645094
| 12>  H        0.8648412608     2.0584599065    -0.0637613255
| 13>  H       -0.0254671876     1.6558323913    -1.5512220480
| 14>  H       -0.9147791739     2.0947530545    -0.0833600374
| 15>  H       -0.9348631353    -0.4305890696    -0.3895264321
| 16>  H        1.0924191027    -1.5643807811    -0.3575394256
| 17>  H        0.0142052816    -1.2569059040     1.6657309968
| 18>  H        0.1883614859    -0.4630483521     3.7804581963
| 19>  H        1.2259658815     0.8394947549     4.2464450975
| 20> *
| 21>
| 22>                          ****END OF INPUT****

CARTESIAN COORDINATES (ANGSTROEM)
---------------------------------
  C     -0.027637    1.573325   -0.459024
  C     -0.055363    0.120343   -0.053900
  N      1.214127   -0.602255   -0.053470
  C      0.525771   -0.398784    1.231498
  C      1.203662    0.503744    2.230939
  N      0.878411    0.222733    3.530755
  O      1.962125    1.404633    1.932965
  H      0.864841    2.058460   -0.063761
  H     -0.025467    1.655832   -1.551222
  H     -0.914779    2.094753   -0.083360
  H     -0.934863   -0.430589   -0.389526
  H      1.092419   -1.564381   -0.357539
  H      0.014205   -1.256906    1.665731
  H      0.188361   -0.463048    3.780458
  H      1.225966    0.839495    4.246445

 Total Charge           Charge          ....    0
 Multiplicity           Mult            ....    1
 Number of Electrons    NEL             ....   54
 Basis Dimension        Dim             ....  265

ORBITAL ENERGIES
----------------

  NO   OCC          E(Eh)            E(eV)
   0   2.0000     -20.512508      -558.1737
   1   2.0000     -15.583785      -424.0564
   2   2.0000     -15.568340      -423.6361
   3   2.0000     -11.351044      -308.8776
   4   2.0000     -11.275683      -306.8269
   5   2.0000     -11.274590      -306.7972
   6   2.0000     -11.209472      -305.0252
   7   2.0000      -1.380027       -37.5524
   8   2.0000      -1.272888       -34.6370
   9   2.0000      -1.210005       -32.9259
  10   2.0000      -0.989288       -26.9199
  11   2.0000      -0.939104       -25.5543
  12   2.0000      -0.825722       -22.4690
  13   2.0000      -0.775166       -21.0933
  14   2.0000      -0.728913       -19.8347
  15   2.0000      -0.711634       -19.3645
  16   2.0000      -0.654513       -17.8102
  17   2.0000      -0.603885       -16.4325
  18   2.0000      -0.590941       -16.0803
  19   2.0000      -0.567898       -15.4533
  20   2.0000      -0.546295       -14.8655
  21   2.0000      -0.529829       -14.4174
  22   2.0000      -0.477790       -13.0013
  23   2.0000      -0.460345       -12.5266
  24   2.0000      -0.426506       -11.6058
  25   2.0000      -0.414048       -11.2668
  26   2.0000      -0.397446       -10.8151
  27   0.0000       0.120148         3.2694
  28   0.0000       0.138306         3.7635
  29   0.0000       0.162598         4.4245
  30   0.0000       0.169748         4.6191
  31   0.0000       0.183652         4.9974

MULLIKEN ATOMIC CHARGES
-----------------------
   0 C :   -0.404245
   1 C :   -0.006620
   2 N :   -0.388087
   3 C :   -0.028064
   4 C :    0.250826
   5 N :   -0.477758
   6 O :   -0.347567
   7 H :    0.184668
   8 H :    0.126420
   9 H :    0.115443
  10 H :    0.116638
  11 H :    0.220774
  12 H :    0.122736
  13 H :    0.254570
  14 H :    0.260266
Sum of atomic charges:   -0.0000000

LOEWDIN ATOMIC CHARGES
----------------------
   0 C :   -0.293990
   1 C :   -0.274527
   2 N :    0.025730
   3 C :   -0.236908
   4 C :   -0.467877
   5 N :   -0.021129
   6 O :    0.095645
   7 H :    0.140049
   8 H :    0.126728
   9 H :    0.125044
  10 H :    0.135757
  11 H :    0.168205
  12 H :    0.136966
  13 H :    0.167151
  14 H :    0.173157

  Mayer bond orders larger than 0.1
B(  0-C ,  1-C ) :   0.8959 B(  0-C ,  7-H ) :   0.9318 B(  0-C ,  8-H ) :   0.9299
B(  0-C ,  9-H ) :   0.9335 B(  1-C ,  2-N ) :   0.9242 B(  1-C ,  3-C ) :   0.8871
B(  1-C , 10-H ) :   0.9260 B(  2-N ,  3-C ) :   0.8816 B(  2-N , 11-H ) :   0.8635
B(  3-C ,  4-C ) :   0.8988 B(  3-C , 12-H ) :   0.9008 B(  4-C ,  5-N ) :   1.1401
B(  4-C ,  6-O ) :   2.0040 B(  5-N , 13-H ) :   0.8735 B(  5-N , 14-H ) :   0.8562

MP2 TOTAL ENERGY:     -341.281466535 Eh
FINAL SINGLE POINT ENERGY      -341.281466534921

DIPOLE MOMENT
-------------
                                X             Y             Z
Electronic contribution:      3.29090      -0.72350       3.00725
Nuclear contribution   :     -4.71033      -0.36708      -2.35742
                        -----------------------------------------
Total Dipole Moment    :     -1.41943      -1.09058       0.64983
                        -----------------------------------------
Magnitude (a.u.)       :      1.90432
Magnitude (Debye)      :      4.84038

                             ****ORCA TERMINATED NORMALLY****
TOTAL RUN TIME: 0 days 0 hours 7 minutes 25 seconds 375 msec
