                         Program Version 3.0.3 - RELEASE   -
|  1> ! RI-MP2 RIJK def2-TZVP def2-TZVP/C def2-TZVP/JK TIGHTSCF
|  2> % maxcore 2000
|  3> % mp2 density relaxed end
|  4> *xyz 0 1
|  5>  O       -0.0890846767     1.3232700019     0.0784186488
|  6>  C       -0.0035447591    -0.0511353559     0.0095142623
|  7>  C       -0.3088111831    -0.8752427763    -1.2276894002
|  8>  C       -1.2412998968    -0.9067572583    -0.0231646508
|  9>  C       -0.5879357690    -2.1956545824     0.5032603251
| 10>  O        0.2625456301    -1.8010774010     1.5722473975
| 11>  C        1.0552961965    -0.9005066352     0.8098031292
| 12>  O        1.6347569045    -1.7387186329    -0.1838310399
| 13>  C        0.4039496595    -2.1558110584    -0.7672753299
| 14>  H        0.6097021459     1.7001407482    -0.4677736185
| 15>  H       -0.4465478119    -0.4747986761    -2.2235835662
| 16>  H       -2.2476304656    -0.5328588532     0.1085648129
| 17>  H       -1.1658152065    -3.0827541984     0.7444704561
| 18>  H        1.8015435559    -0.3922383715     1.4138264697
| 19>  H        0.5315532061    -3.0168533206    -1.4166735862
| 20> *
| 21>
| 22>                          ****END OF INPUT****

CARTESIAN COORDINATES (ANGSTROEM)
---------------------------------
  O     -0.089085    1.323270    0.078419
  C     -0.003545   -0.051135    0.009514
  C     -0.308811   -0.875243   -1.227689
  C     -1.241300   -0.906757   -0.023165
  C     -0.587936   -2.195655    0.503260
  O      0.262546   -1.801077    1.572247
  C      1.055296   -0.900507    0.809803
  O      1.634757   -1.738719   -0.183831
  C      0.403950   -2.155811   -0.767275
  H      0.609702    1.700141   -0.467774
  H     -0.446548   -0.474799   -2.223584
  H     -2.247630   -0.532859    0.108565
  H     -1.165815   -3.082754    0.744470
  H      1.801544   -0.392238    1.413826
  H      0.531553   -3.016853   -1.416674

 Total Charge           Charge          ....    0
 Multiplicity           Mult            ....    1
 Number of Electrons    NEL             ....   66
 Basis Dimension        Dim             ....  315

ORBITAL ENERGIES
----------------

  NO   OCC          E(Eh)            E(eV)
   0   2.0000     -20.585972      -560.1728
   1   2.0000     -20.567677      -559.6750
   2   2.0000     -20.566545      -559.6441
   3   2.0000     -11.339693      -308.5687
   4   2.0000     -11.302528      -307.5574
   5   2.0000     -11.297681      -307.4255
   6   2.0000     -11.296699      -307.3988
   7   2.0000     -11.247463      -306.0590
   8   2.0000     -11.245788      -306.0134
   9   2.0000      -1.461580       -39.7716
  10   2.0000      -1.394316       -37.9413
  11   2.0000      -1.340094       -36.4658
  12   2.0000      -1.188881       -32.3511
  13   2.0000      -1.001466       -27.2513
  14   2.0000      -0.894266       -24.3342
  15   2.0000      -0.864746       -23.5309
  16   2.0000      -0.808029       -21.9876
  17   2.0000      -0.775907       -21.1135
  18   2.0000      -0.755476       -20.5575
  19   2.0000      -0.705148       -19.1881
  20   2.0000      -0.657219       -17.8838
  21   2.0000      -0.649424       -17.6717
  22   2.0000      -0.622849       -16.9486
  23   2.0000      -0.598460       -16.2849
  24   2.0000      -0.590976       -16.0813
  25   2.0000      -0.561793       -15.2872
  26   2.0000      -0.551990       -15.0204
  27   2.0000      -0.502196       -13.6654
  28   2.0000      -0.459277       -12.4976
  29   2.0000      -0.447552       -12.1785
  30   2.0000      -0.446430       -12.1480
  31   2.0000      -0.410419       -11.1681
  32   2.0000      -0.400528       -10.8989
  33   0.0000       0.133191         3.6243
  34   0.0000       0.154205         4.1961
  35   0.0000       0.176175         4.7940
  36   0.0000       0.181363         4.9351
  37   0.0000       0.191089         5.1998

MULLIKEN ATOMIC CHARGES
-----------------------
   0 O :   -0.447829
   1 C :    0.242592
   2 C :   -0.245930
   3 C :   -0.196481
   4 C :    0.050047
   5 O :   -0.281591
   6 C :    0.042722
   7 O :   -0.285642
   8 C :    0.063487
   9 H :    0.336002
  10 H :    0.148339
  11 H :    0.155561
  12 H :    0.142796
  13 H :    0.133553
  14 H :    0.142373
Sum of atomic charges:   -0.0000000

LOEWDIN ATOMIC CHARGES
----------------------
   0 O :    0.045193
   1 C :   -0.303727
   2 C :   -0.135624
   3 C :   -0.121948
   4 C :   -0.225655
   5 O :    0.204930
   6 C :   -0.321175
   7 O :    0.198673
   8 C :   -0.226945
   9 H :    0.190339
  10 H :    0.138628
  11 H :    0.142710
  12 H :    0.138052
  13 H :    0.139167
  14 H :    0.137381

  Mayer bond orders larger than 0.1
B(  0-O ,  1-C ) :   1.0519 B(  0-O ,  9-H ) :   0.8325 B(  1-C ,  2-C ) :   0.8573
B(  1-C ,  3-C ) :   0.8889 B(  1-C ,  6-C ) :   0.9652 B(  2-C ,  3-C ) :   0.8045
B(  2-C ,  8-C ) :   0.8854 B(  2-C , 10-H ) :   0.9163 B(  3-C ,  4-C ) :   0.9051
B(  3-C , 11-H ) :   0.9043 B(  4-C ,  5-O ) :   0.9727 B(  4-C ,  8-C ) :   0.8937
B(  4-C , 12-H ) :   0.9237 B(  5-O ,  6-C ) :   0.9972 B(  6-C ,  7-O ) :   0.9976
B(  6-C , 13-H ) :   0.9112 B(  7-O ,  8-C ) :   0.9727 B(  8-C , 14-H ) :   0.9164

MP2 TOTAL ENERGY:     -456.991477705 Eh
FINAL SINGLE POINT ENERGY      -456.991477704974

DIPOLE MOMENT
-------------
                                X             Y             Z
Electronic contribution:      1.46951      -0.04034       1.44860
Nuclear contribution   :     -1.72493       0.21314      -2.30208
                        -----------------------------------------
Total Dipole Moment    :     -0.25542       0.17280      -0.85348
                        -----------------------------------------
Magnitude (a.u.)       :      0.90748
Magnitude (Debye)      :      2.30663

                             ****ORCA TERMINATED NORMALLY****
TOTAL RUN TIME: 0 days 0 hours 15 minutes 36 seconds 675 msec
