                         Program Version 3.0.3 - RELEASE   -
|  1> ! RI-MP2 RIJK def2-TZVP def2-TZVP/C def2-TZVP/JK TIGHTSCF
|  2> % maxcore 2000
|  3> % mp2 density relaxed end
|  4> *xyz 0 1
|  5>  C       -0.2154527540     1.5444646498     0.0388937760
|  6>  C        0.0295710266     0.0391593588    -0.0103467951
|  7>  C        0.8959759322    -0.4695432056    -1.2066809898
|  8>  C        2.0148893893    -1.2539432933    -0.4734433174
|  9>  C        2.7113640993    -2.3524803468    -1.2374489149
| 10>  C        2.9200956831    -0.2272250838     0.2444370658
| 11>  O        2.0684218365     0.2506324713     1.2957255965
| 12>  C        0.8739081333    -0.5207567281     1.1566749037
| 13>  O        1.3051491555    -1.7743788326     0.6766122111
| 14>  H        0.7308537769     2.0901955737     0.0832061220
| 15>  H       -0.7703312597     1.8809049597    -0.8426521655
| 16>  H       -0.7999447902     1.8210933311     0.9233688345
| 17>  H       -0.9306208918    -0.4877391433    -0.0048783649
| 18>  H        0.3311024573    -1.1347354517    -1.8644636451
| 19>  H        1.2961486221     0.3475660056    -1.8140531133
| 20>  H        3.2601670270    -1.9364783811    -2.0882833326
| 21>  H        3.4205100863    -2.8821282132    -0.5947965153
| 22>  H        1.9842119337    -3.0740682320    -1.6203929825
| 23>  H        3.8102238462    -0.7010746331     0.6761808680
| 24>  H        3.2290901324     0.6007946184    -0.4032105784
| 25>  H        0.3866238580    -0.6115628938     2.1279870270
| 26> *
| 27>
| 28>                          ****END OF INPUT****

CARTESIAN COORDINATES (ANGSTROEM)
---------------------------------
  C     -0.215453    1.544465    0.038894
  C      0.029571    0.039159   -0.010347
  C      0.895976   -0.469543   -1.206681
  C      2.014889   -1.253943   -0.473443
  C      2.711364   -2.352480   -1.237449
  C      2.920096   -0.227225    0.244437
  O      2.068422    0.250632    1.295726
  C      0.873908   -0.520757    1.156675
  O      1.305149   -1.774379    0.676612
  H      0.730854    2.090196    0.083206
  H     -0.770331    1.880905   -0.842652
  H     -0.799945    1.821093    0.923369
  H     -0.930621   -0.487739   -0.004878
  H      0.331102   -1.134735   -1.864464
  H      1.296149    0.347566   -1.814053
  H      3.260167   -1.936478   -2.088283
  H      3.420510   -2.882128   -0.594797
  H      1.984212   -3.074068   -1.620393
  H      3.810224   -0.701075    0.676181
  H      3.229090    0.600795   -0.403211
  H      0.386624   -0.611563    2.127987

 Total Charge           Charge          ....    0
 Multiplicity           Mult            ....    1
 Number of Electrons    NEL             ....   70
 Basis Dimension        Dim             ....  351

ORBITAL ENERGIES
----------------

  NO   OCC          E(Eh)            E(eV)
   0   2.0000     -20.558276      -559.4191
   1   2.0000     -20.553777      -559.2967
   2   2.0000     -11.324607      -308.1582
   3   2.0000     -11.291340      -307.2530
   4   2.0000     -11.275273      -306.8158
   5   2.0000     -11.230901      -305.6083
   6   2.0000     -11.227099      -305.5049
   7   2.0000     -11.225327      -305.4567
   8   2.0000     -11.214383      -305.1589
   9   2.0000      -1.440842       -39.2073
  10   2.0000      -1.324029       -36.0287
  11   2.0000      -1.079275       -29.3686
  12   2.0000      -1.062119       -28.9017
  13   2.0000      -0.946977       -25.7685
  14   2.0000      -0.934398       -25.4263
  15   2.0000      -0.863468       -23.4962
  16   2.0000      -0.792934       -21.5768
  17   2.0000      -0.771562       -20.9953
  18   2.0000      -0.698269       -19.0009
  19   2.0000      -0.683675       -18.6037
  20   2.0000      -0.647906       -17.6304
  21   2.0000      -0.611518       -16.6403
  22   2.0000      -0.582542       -15.8518
  23   2.0000      -0.572998       -15.5921
  24   2.0000      -0.567407       -15.4399
  25   2.0000      -0.564688       -15.3659
  26   2.0000      -0.543470       -14.7886
  27   2.0000      -0.522866       -14.2279
  28   2.0000      -0.517922       -14.0934
  29   2.0000      -0.504340       -13.7238
  30   2.0000      -0.489105       -13.3092
  31   2.0000      -0.468832       -12.7576
  32   2.0000      -0.462770       -12.5926
  33   2.0000      -0.430207       -11.7065
  34   2.0000      -0.408962       -11.1284
  35   0.0000       0.131756         3.5853
  36   0.0000       0.147417         4.0114
  37   0.0000       0.166675         4.5355
  38   0.0000       0.184779         5.0281
  39   0.0000       0.190131         5.1737

MULLIKEN ATOMIC CHARGES
-----------------------
   0 C :   -0.432732
   1 C :   -0.027033
   2 C :   -0.268738
   3 C :    0.173248
   4 C :   -0.409619
   5 C :   -0.054735
   6 O :   -0.335407
   7 C :    0.178415
   8 O :   -0.308675
   9 H :    0.141137
  10 H :    0.132337
  11 H :    0.127923
  12 H :    0.093684
  13 H :    0.122234
  14 H :    0.119614
  15 H :    0.134566
  16 H :    0.143898
  17 H :    0.141140
  18 H :    0.100750
  19 H :    0.100194
  20 H :    0.127799
Sum of atomic charges:    0.0000000

LOEWDIN ATOMIC CHARGES
----------------------
   0 C :   -0.296668
   1 C :   -0.250073
   2 C :   -0.185078
   3 C :   -0.358643
   4 C :   -0.265085
   5 C :   -0.251709
   6 O :    0.158061
   7 C :   -0.358668
   8 O :    0.217636
   9 H :    0.127291
  10 H :    0.123314
  11 H :    0.124896
  12 H :    0.151708
  13 H :    0.138672
  14 H :    0.139684
  15 H :    0.133545
  16 H :    0.132722
  17 H :    0.132742
  18 H :    0.124579
  19 H :    0.124606
  20 H :    0.136466

  Mayer bond orders larger than 0.1
B(  0-C ,  1-C ) :   0.9012 B(  0-C ,  9-H ) :   0.9305 B(  0-C , 10-H ) :   0.9359
B(  0-C , 11-H ) :   0.9395 B(  1-C ,  2-C ) :   0.9467 B(  1-C ,  7-C ) :   0.9597
B(  1-C , 12-H ) :   0.9101 B(  2-C ,  3-C ) :   0.9427 B(  2-C , 13-H ) :   0.9125
B(  2-C , 14-H ) :   0.9144 B(  3-C ,  4-C ) :   0.8549 B(  3-C ,  5-C ) :   0.9681
B(  3-C ,  8-O ) :   0.9075 B(  4-C , 15-H ) :   0.9365 B(  4-C , 16-H ) :   0.9426
B(  4-C , 17-H ) :   0.9413 B(  5-C ,  6-O ) :   0.9352 B(  5-C , 18-H ) :   0.9201
B(  5-C , 19-H ) :   0.9120 B(  6-O ,  7-C ) :   0.9403 B(  7-C ,  8-O ) :   0.9935
B(  7-C , 20-H ) :   0.9152

MP2 TOTAL ENERGY:     -423.551298367 Eh
FINAL SINGLE POINT ENERGY      -423.551298366859

DIPOLE MOMENT
-------------
                                X             Y             Z
Electronic contribution:      0.87200      -2.01490       5.03137
Nuclear contribution   :     -0.92078       2.08024      -5.78141
                        -----------------------------------------
Total Dipole Moment    :     -0.04878       0.06535      -0.75005
                        -----------------------------------------
Magnitude (a.u.)       :      0.75447
Magnitude (Debye)      :      1.91770

                             ****ORCA TERMINATED NORMALLY****
TOTAL RUN TIME: 0 days 0 hours 19 minutes 8 seconds 96 msec
