                         Program Version 3.0.3 - RELEASE   -
|  1> ! RI-MP2 RIJK def2-TZVP def2-TZVP/C def2-TZVP/JK TIGHTSCF
|  2> % maxcore 2000
|  3> % mp2 density relaxed end
|  4> *xyz 0 1
|  5>  O        0.0245539415    -0.0284699718     0.0026123583
|  6>  C       -0.0167410410     1.1801406035     0.0085890230
|  7>  C       -1.2450252315     2.1171461319     0.0326195347
|  8>  C       -0.6586145790     3.5128083952     0.0305692106
|  9>  C        0.6723135370     3.4016749729     0.0099775105
| 10>  C        1.9368372785     4.2303113691    -0.0048259529
| 11>  C        3.0138303346     3.1510788372    -0.0264372762
| 12>  C        2.4569818277     1.9336971989    -0.0241503753
| 13>  N        1.0646835620     2.0425595608    -0.0028745818
| 14>  H       -1.8785113000     1.9044633796    -0.8367307150
| 15>  H       -1.8511912503     1.8955385884     0.9190605941
| 16>  H       -1.2327855090     4.4264888589     0.0439772170
| 17>  H        1.9873704105     4.8899290250    -0.8805879294
| 18>  H        2.0137692127     4.8810069158     0.8756810708
| 19>  H        4.0734749655     3.3574494557    -0.0413224665
| 20>  H        2.9116451607     0.9547289388    -0.0359194918
| 21> *
| 22>
| 23>                          ****END OF INPUT****

CARTESIAN COORDINATES (ANGSTROEM)
---------------------------------
  O      0.024554   -0.028470    0.002612
  C     -0.016741    1.180141    0.008589
  C     -1.245025    2.117146    0.032620
  C     -0.658615    3.512808    0.030569
  C      0.672314    3.401675    0.009978
  C      1.936837    4.230311   -0.004826
  C      3.013830    3.151079   -0.026437
  C      2.456982    1.933697   -0.024150
  N      1.064684    2.042560   -0.002875
  H     -1.878511    1.904463   -0.836731
  H     -1.851191    1.895539    0.919061
  H     -1.232786    4.426489    0.043977
  H      1.987370    4.889929   -0.880588
  H      2.013769    4.881007    0.875681
  H      4.073475    3.357449   -0.041322
  H      2.911645    0.954729   -0.035919

 Total Charge           Charge          ....    0
 Multiplicity           Mult            ....    1
 Number of Electrons    NEL             ....   64
 Basis Dimension        Dim             ....  321

ORBITAL ENERGIES
----------------

  NO   OCC          E(Eh)            E(eV)
   0   2.0000     -20.527243      -558.5747
   1   2.0000     -15.603832      -424.6018
   2   2.0000     -11.358795      -309.0885
   3   2.0000     -11.287989      -307.1618
   4   2.0000     -11.286194      -307.1129
   5   2.0000     -11.259464      -306.3856
   6   2.0000     -11.249804      -306.1227
   7   2.0000     -11.240405      -305.8670
   8   2.0000     -11.230243      -305.5905
   9   2.0000      -1.392928       -37.9035
  10   2.0000      -1.308109       -35.5955
  11   2.0000      -1.115258       -30.3477
  12   2.0000      -1.067485       -29.0477
  13   2.0000      -0.979213       -26.6457
  14   2.0000      -0.922206       -25.0945
  15   2.0000      -0.830189       -22.5906
  16   2.0000      -0.804105       -21.8808
  17   2.0000      -0.724571       -19.7166
  18   2.0000      -0.677304       -18.4304
  19   2.0000      -0.656271       -17.8580
  20   2.0000      -0.622149       -16.9295
  21   2.0000      -0.617092       -16.7919
  22   2.0000      -0.602561       -16.3965
  23   2.0000      -0.587054       -15.9746
  24   2.0000      -0.575182       -15.6515
  25   2.0000      -0.551694       -15.0124
  26   2.0000      -0.547473       -14.8975
  27   2.0000      -0.509932       -13.8760
  28   2.0000      -0.485578       -13.2132
  29   2.0000      -0.423425       -11.5220
  30   2.0000      -0.390159       -10.6168
  31   2.0000      -0.297890        -8.1060
  32   0.0000       0.129415         3.5216
  33   0.0000       0.136249         3.7075
  34   0.0000       0.137011         3.7283
  35   0.0000       0.153762         4.1841
  36   0.0000       0.171268         4.6604

MULLIKEN ATOMIC CHARGES
-----------------------
   0 O :   -0.333672
   1 C :    0.137037
   2 C :   -0.118574
   3 C :   -0.283043
   4 C :    0.023092
   5 C :   -0.129636
   6 C :   -0.198948
   7 C :   -0.106856
   8 N :   -0.012249
   9 H :    0.145163
  10 H :    0.145235
  11 H :    0.143142
  12 H :    0.139472
  13 H :    0.139472
  14 H :    0.145865
  15 H :    0.164499
Sum of atomic charges:    0.0000000

LOEWDIN ATOMIC CHARGES
----------------------
   0 O :    0.097237
   1 C :   -0.383518
   2 C :   -0.198990
   3 C :   -0.162812
   4 C :   -0.156671
   5 C :   -0.193917
   6 C :   -0.165123
   7 C :   -0.162774
   8 N :    0.276193
   9 H :    0.157738
  10 H :    0.157767
  11 H :    0.139266
  12 H :    0.153290
  13 H :    0.153296
  14 H :    0.139952
  15 H :    0.149065

  Mayer bond orders larger than 0.1
B(  0-O ,  1-C ) :   1.9896 B(  1-C ,  2-C ) :   0.9509 B(  1-C ,  8-N ) :   1.0447
B(  2-C ,  3-C ) :   0.9333 B(  2-C ,  9-H ) :   0.8940 B(  2-C , 10-H ) :   0.8939
B(  3-C ,  4-C ) :   1.6765 B(  3-C , 11-H ) :   0.9210 B(  4-C ,  5-C ) :   0.9796
B(  4-C ,  8-N ) :   0.9535 B(  5-C ,  6-C ) :   0.9568 B(  5-C , 12-H ) :   0.8964
B(  5-C , 13-H ) :   0.8964 B(  6-C ,  7-C ) :   1.7271 B(  6-C , 14-H ) :   0.9298
B(  7-C ,  8-N ) :   0.9931 B(  7-C , 15-H ) :   0.9246

MP2 TOTAL ENERGY:     -400.096115248 Eh
FINAL SINGLE POINT ENERGY      -400.096115247852

DIPOLE MOMENT
-------------
                                X             Y             Z
Electronic contribution:     -0.15847      -4.03097      -0.01944
Nuclear contribution   :      0.47189       5.43311       0.02174
                        -----------------------------------------
Total Dipole Moment    :      0.31342       1.40214       0.00231
                        -----------------------------------------
Magnitude (a.u.)       :      1.43675
Magnitude (Debye)      :      3.65192

                             ****ORCA TERMINATED NORMALLY****
TOTAL RUN TIME: 0 days 0 hours 17 minutes 32 seconds 481 msec
