                         Program Version 3.0.3 - RELEASE   -
|  1> ! RI-MP2 RIJK def2-TZVP def2-TZVP/C def2-TZVP/JK TIGHTSCF
|  2> % maxcore 2000
|  3> % mp2 density relaxed end
|  4> *xyz 0 1
|  5>  N        0.0113306222    -1.1539461226    -0.3852751242
|  6>  C       -0.0051546407    -0.0184911375    -0.1713751571
|  7>  C       -0.0170139497     1.4078985009     0.1025283005
|  8>  N       -1.1196583876     2.0175561192     0.0277088484
|  9>  C       -1.2651475614     3.4581612273     0.1225701894
| 10>  C       -0.4825614053     4.1763606636     1.2183181512
| 11>  O        0.9227403790     4.0979178501     1.0211589268
| 12>  C        1.4577170558     2.8673657991     1.3379090877
| 13>  O        1.2468349473     1.8450487195     0.3526103669
| 14>  H       -0.9735549860     3.8846908190    -0.8475910858
| 15>  H       -2.3299641831     3.6757186411     0.2586460514
| 16>  H       -0.7355705387     5.2400549237     1.2042491005
| 17>  H       -0.7455475546     3.7680006089     2.2060529609
| 18>  H        2.5414645726     2.9747301960     1.3774382615
| 19>  H        1.0601999803     2.4946799317     2.2949004618
| 20> *
| 21>
| 22>                          ****END OF INPUT****

CARTESIAN COORDINATES (ANGSTROEM)
---------------------------------
  N      0.011331   -1.153946   -0.385275
  C     -0.005155   -0.018491   -0.171375
  C     -0.017014    1.407899    0.102528
  N     -1.119658    2.017556    0.027709
  C     -1.265148    3.458161    0.122570
  C     -0.482561    4.176361    1.218318
  O      0.922740    4.097918    1.021159
  C      1.457717    2.867366    1.337909
  O      1.246835    1.845049    0.352610
  H     -0.973555    3.884691   -0.847591
  H     -2.329964    3.675719    0.258646
  H     -0.735571    5.240055    1.204249
  H     -0.745548    3.768001    2.206053
  H      2.541465    2.974730    1.377438
  H      1.060200    2.494680    2.294900

 Total Charge           Charge          ....    0
 Multiplicity           Mult            ....    1
 Number of Electrons    NEL             ....   66
 Basis Dimension        Dim             ....  315

ORBITAL ENERGIES
----------------

  NO   OCC          E(Eh)            E(eV)
   0   2.0000     -20.625071      -561.2367
   1   2.0000     -20.599991      -560.5543
   2   2.0000     -15.594328      -424.3432
   3   2.0000     -15.590203      -424.2310
   4   2.0000     -11.397464      -310.1408
   5   2.0000     -11.371440      -309.4326
   6   2.0000     -11.310418      -307.7721
   7   2.0000     -11.287015      -307.1353
   8   2.0000     -11.286936      -307.1331
   9   2.0000      -1.477760       -40.2119
  10   2.0000      -1.410080       -38.3702
  11   2.0000      -1.268583       -34.5199
  12   2.0000      -1.226750       -33.3816
  13   2.0000      -1.053907       -28.6783
  14   2.0000      -1.017128       -27.6775
  15   2.0000      -0.884869       -24.0785
  16   2.0000      -0.863849       -23.5065
  17   2.0000      -0.776537       -21.1306
  18   2.0000      -0.732721       -19.9383
  19   2.0000      -0.715370       -19.4662
  20   2.0000      -0.692985       -18.8571
  21   2.0000      -0.650918       -17.7124
  22   2.0000      -0.632006       -17.1978
  23   2.0000      -0.602466       -16.3939
  24   2.0000      -0.572959       -15.5910
  25   2.0000      -0.567259       -15.4359
  26   2.0000      -0.555544       -15.1171
  27   2.0000      -0.524229       -14.2650
  28   2.0000      -0.500687       -13.6244
  29   2.0000      -0.490644       -13.3511
  30   2.0000      -0.485887       -13.2217
  31   2.0000      -0.438724       -11.9383
  32   2.0000      -0.418896       -11.3987
  33   0.0000       0.083858         2.2819
  34   0.0000       0.132532         3.6064
  35   0.0000       0.153077         4.1654
  36   0.0000       0.161667         4.3992
  37   0.0000       0.180000         4.8981

MULLIKEN ATOMIC CHARGES
-----------------------
   0 N :   -0.050217
   1 C :   -0.118137
   2 C :    0.276263
   3 N :   -0.222992
   4 C :   -0.107078
   5 C :   -0.094683
   6 O :   -0.283957
   7 C :    0.047840
   8 O :   -0.253888
   9 H :    0.137064
  10 H :    0.142824
  11 H :    0.140610
  12 H :    0.115430
  13 H :    0.152673
  14 H :    0.118249
Sum of atomic charges:    0.0000000

LOEWDIN ATOMIC CHARGES
----------------------
   0 N :    0.091710
   1 C :   -0.128982
   2 C :   -0.382604
   3 N :    0.150200
   4 C :   -0.293154
   5 C :   -0.314640
   6 O :    0.184586
   7 C :   -0.368051
   8 O :    0.251212
   9 H :    0.150617
  10 H :    0.144659
  11 H :    0.138797
  12 H :    0.126477
  13 H :    0.132392
  14 H :    0.116781

  Mayer bond orders larger than 0.1
B(  0-N ,  1-C ) :   2.8212 B(  1-C ,  2-C ) :   0.9259 B(  2-C ,  3-N ) :   1.8524
B(  2-C ,  8-O ) :   1.0694 B(  3-N ,  4-C ) :   0.8895 B(  4-C ,  5-C ) :   0.9256
B(  4-C ,  9-H ) :   0.9122 B(  4-C , 10-H ) :   0.9239 B(  5-C ,  6-O ) :   0.8849
B(  5-C , 11-H ) :   0.9231 B(  5-C , 12-H ) :   0.9321 B(  6-O ,  7-C ) :   1.0245
B(  7-C ,  8-O ) :   0.8725 B(  7-C , 13-H ) :   0.9276 B(  7-C , 14-H ) :   0.9364

MP2 TOTAL ENERGY:     -453.208581722 Eh
FINAL SINGLE POINT ENERGY      -453.208581722041

DIPOLE MOMENT
-------------
                                X             Y             Z
Electronic contribution:      1.68580      -6.74025      -2.76149
Nuclear contribution   :     -1.72425       8.53015       3.64409
                        -----------------------------------------
Total Dipole Moment    :     -0.03845       1.78990       0.88260
                        -----------------------------------------
Magnitude (a.u.)       :      1.99605
Magnitude (Debye)      :      5.07355

                             ****ORCA TERMINATED NORMALLY****
TOTAL RUN TIME: 0 days 0 hours 15 minutes 47 seconds 561 msec
