                         Program Version 3.0.3 - RELEASE   -
|  1> ! RI-MP2 RIJK def2-TZVP def2-TZVP/C def2-TZVP/JK TIGHTSCF
|  2> % maxcore 2000
|  3> % mp2 density relaxed end
|  4> *xyz 0 1
|  5>  C       -0.0190010218     1.5736472376     0.0050431176
|  6>  C       -0.0825828707     0.0458715170    -0.0549873115
|  7>  C        0.7789558811    -0.5223631650    -1.1896532293
|  8>  N        0.7458061768    -1.9723383888    -1.2689943882
|  9>  C        1.7236783104    -2.8274492326    -0.8834528446
| 10>  N        1.3743129468    -4.0922756556    -1.0374295975
| 11>  C        0.1090878302    -4.0441623055    -1.5433261349
| 12>  O       -0.5771345620    -5.1715401727    -1.8356113049
| 13>  C       -0.3207756634    -2.7507064063    -1.7012921785
| 14>  H        1.0050892393     1.9241026660     0.1752098802
| 15>  H       -0.3725184179     2.0248865207    -0.9286567291
| 16>  H       -0.6410631450     1.9604081151     0.8169395513
| 17>  H        0.2554977265    -0.3874287788     0.8933915060
| 18>  H       -1.1186748195    -0.2828954662    -0.1939484947
| 19>  H        0.4545917317    -0.1099906457    -2.1525618373
| 20>  H        1.8245069994    -0.2276256159    -1.0521341327
| 21>  H        2.6720312272    -2.4773950571    -0.5034896954
| 22>  H        0.0104268854    -5.9040933674    -1.6138706514
| 23>  H       -1.2365289945    -2.3256709388    -2.0720100752
| 24> *
| 25>
| 26>                          ****END OF INPUT****

CARTESIAN COORDINATES (ANGSTROEM)
---------------------------------
  C     -0.019001    1.573647    0.005043
  C     -0.082583    0.045872   -0.054987
  C      0.778956   -0.522363   -1.189653
  N      0.745806   -1.972338   -1.268994
  C      1.723678   -2.827449   -0.883453
  N      1.374313   -4.092276   -1.037430
  C      0.109088   -4.044162   -1.543326
  O     -0.577135   -5.171540   -1.835611
  C     -0.320776   -2.750706   -1.701292
  H      1.005089    1.924103    0.175210
  H     -0.372518    2.024887   -0.928657
  H     -0.641063    1.960408    0.816940
  H      0.255498   -0.387429    0.893392
  H     -1.118675   -0.282895   -0.193948
  H      0.454592   -0.109991   -2.152562
  H      1.824507   -0.227626   -1.052134
  H      2.672031   -2.477395   -0.503490
  H      0.010427   -5.904093   -1.613871
  H     -1.236529   -2.325671   -2.072010

 Total Charge           Charge          ....    0
 Multiplicity           Mult            ....    1
 Number of Electrons    NEL             ....   68
 Basis Dimension        Dim             ....  339

ORBITAL ENERGIES
----------------

  NO   OCC          E(Eh)            E(eV)
   0   2.0000     -20.575769      -559.8952
   1   2.0000     -15.617095      -424.9628
   2   2.0000     -15.541080      -422.8943
   3   2.0000     -11.301671      -307.5341
   4   2.0000     -11.296295      -307.3878
   5   2.0000     -11.284439      -307.0652
   6   2.0000     -11.238890      -305.8258
   7   2.0000     -11.238768      -305.8224
   8   2.0000     -11.230054      -305.5853
   9   2.0000      -1.403772       -38.1986
  10   2.0000      -1.336121       -36.3577
  11   2.0000      -1.184771       -32.2392
  12   2.0000      -1.067527       -29.0489
  13   2.0000      -1.001309       -27.2470
  14   2.0000      -0.946866       -25.7655
  15   2.0000      -0.840086       -22.8599
  16   2.0000      -0.814820       -22.1724
  17   2.0000      -0.788052       -21.4440
  18   2.0000      -0.726341       -19.7647
  19   2.0000      -0.677718       -18.4416
  20   2.0000      -0.654358       -17.8060
  21   2.0000      -0.630075       -17.1452
  22   2.0000      -0.619670       -16.8621
  23   2.0000      -0.597703       -16.2643
  24   2.0000      -0.586405       -15.9569
  25   2.0000      -0.556114       -15.1326
  26   2.0000      -0.551206       -14.9991
  27   2.0000      -0.540123       -14.6975
  28   2.0000      -0.518503       -14.1092
  29   2.0000      -0.497890       -13.5483
  30   2.0000      -0.493546       -13.4301
  31   2.0000      -0.444192       -12.0871
  32   2.0000      -0.378967       -10.3122
  33   2.0000      -0.297584        -8.0977
  34   0.0000       0.122880         3.3437
  35   0.0000       0.144727         3.9382
  36   0.0000       0.157870         4.2958
  37   0.0000       0.163353         4.4451
  38   0.0000       0.168829         4.5941

MULLIKEN ATOMIC CHARGES
-----------------------
   0 C :   -0.393169
   1 C :   -0.183349
   2 C :   -0.226948
   3 N :    0.024005
   4 C :   -0.017165
   5 N :   -0.327534
   6 C :    0.207404
   7 O :   -0.447793
   8 C :   -0.194570
   9 H :    0.127683
  10 H :    0.127042
  11 H :    0.143535
  12 H :    0.122498
  13 H :    0.122628
  14 H :    0.142037
  15 H :    0.138530
  16 H :    0.145531
  17 H :    0.339490
  18 H :    0.150145
Sum of atomic charges:    0.0000000

LOEWDIN ATOMIC CHARGES
----------------------
   0 C :   -0.316369
   1 C :   -0.289905
   2 C :   -0.243672
   3 N :    0.247482
   4 C :   -0.310902
   5 N :    0.080377
   6 C :   -0.411525
   7 O :    0.059872
   8 C :   -0.216260
   9 H :    0.122357
  10 H :    0.122434
  11 H :    0.125603
  12 H :    0.139661
  13 H :    0.138564
  14 H :    0.141192
  15 H :    0.143919
  16 H :    0.131690
  17 H :    0.197934
  18 H :    0.137545

  Mayer bond orders larger than 0.1
B(  0-C ,  1-C ) :   0.9167 B(  0-C ,  9-H ) :   0.9377 B(  0-C , 10-H ) :   0.9354
B(  0-C , 11-H ) :   0.9390 B(  1-C ,  2-C ) :   0.9169 B(  1-C , 12-H ) :   0.9289
B(  1-C , 13-H ) :   0.9323 B(  2-C ,  3-N ) :   0.8782 B(  2-C , 14-H ) :   0.9314
B(  2-C , 15-H ) :   0.9296 B(  3-N ,  4-C ) :   1.1994 B(  3-N ,  8-C ) :   1.0773
B(  4-C ,  5-N ) :   1.5082 B(  4-C , 16-H ) :   0.9224 B(  5-N ,  6-C ) :   1.3055
B(  6-C ,  7-O ) :   1.0822 B(  6-C ,  8-C ) :   1.5118 B(  7-O , 17-H ) :   0.8200
B(  8-C , 18-H ) :   0.9105

MP2 TOTAL ENERGY:     -418.544656312 Eh
FINAL SINGLE POINT ENERGY      -418.544656311520

DIPOLE MOMENT
-------------
                                X             Y             Z
Electronic contribution:      1.08351     -13.58298      -3.46234
Nuclear contribution   :     -1.02119      15.01954       3.64394
                        -----------------------------------------
Total Dipole Moment    :      0.06233       1.43655       0.18160
                        -----------------------------------------
Magnitude (a.u.)       :      1.44933
Magnitude (Debye)      :      3.68390

                             ****ORCA TERMINATED NORMALLY****
TOTAL RUN TIME: 0 days 0 hours 16 minutes 18 seconds 342 msec
