                         Program Version 3.0.3 - RELEASE   -
|  1> ! RI-MP2 RIJK def2-TZVP def2-TZVP/C def2-TZVP/JK TIGHTSCF
|  2> % maxcore 2000
|  3> % mp2 density relaxed end
|  4> *xyz 0 1
|  5>  C        0.3467216273     1.5590586918    -0.1583090217
|  6>  C        0.1233302052     0.0780349426     0.0646604886
|  7>  O        0.9291933266    -0.7630001220    -0.8057142389
|  8>  C        1.2675736726    -1.6582017190     0.2904063609
|  9>  C        0.8286003191    -3.0756328733     0.0245467994
| 10>  C        2.6893932756    -1.3734382028     0.8543840197
| 11>  C        3.7784874692    -0.9656481706    -0.1259270860
| 12>  C        2.0728698327    -0.2814581002     1.7894370470
| 13>  C        0.6426097945    -0.6587982049     1.3137382281
| 14>  H        1.3901513385     1.8441093437    -0.0026000898
| 15>  H        0.0753851914     1.8240974154    -1.1852994398
| 16>  H       -0.2820569081     2.1455844368     0.5205441885
| 17>  H       -0.9419319895    -0.1505993643    -0.0964750115
| 18>  H        1.3821554468    -3.4897750951    -0.8262111236
| 19>  H        1.0154300162    -3.7132511254     0.8947569408
| 20>  H       -0.2379783570    -3.1182457686    -0.2168814929
| 21>  H        3.0211116274    -2.2328667931     1.4486920110
| 22>  H        3.4185926085    -0.1730065066    -0.7871077761
| 23>  H        4.6657542130    -0.6030933730     0.4044554422
| 24>  H        4.0878658550    -1.8086919236    -0.7537660468
| 25>  H        2.2432309825    -0.4578402378     2.8538129409
| 26>  H        2.3822402667     0.7431429221     1.5672766035
| 27>  H       -0.0855713842    -0.9361376019     2.0759042666
| 28> *
| 29>
| 30>                          ****END OF INPUT****

CARTESIAN COORDINATES (ANGSTROEM)
---------------------------------
  C      0.346722    1.559059   -0.158309
  C      0.123330    0.078035    0.064660
  O      0.929193   -0.763000   -0.805714
  C      1.267574   -1.658202    0.290406
  C      0.828600   -3.075633    0.024547
  C      2.689393   -1.373438    0.854384
  C      3.778487   -0.965648   -0.125927
  C      2.072870   -0.281458    1.789437
  C      0.642610   -0.658798    1.313738
  H      1.390151    1.844109   -0.002600
  H      0.075385    1.824097   -1.185299
  H     -0.282057    2.145584    0.520544
  H     -0.941932   -0.150599   -0.096475
  H      1.382155   -3.489775   -0.826211
  H      1.015430   -3.713251    0.894757
  H     -0.237978   -3.118246   -0.216881
  H      3.021112   -2.232867    1.448692
  H      3.418593   -0.173007   -0.787108
  H      4.665754   -0.603093    0.404455
  H      4.087866   -1.808692   -0.753766
  H      2.243231   -0.457840    2.853813
  H      2.382240    0.743143    1.567277
  H     -0.085571   -0.936138    2.075904

 Total Charge           Charge          ....    0
 Multiplicity           Mult            ....    1
 Number of Electrons    NEL             ....   70
 Basis Dimension        Dim             ....  363

ORBITAL ENERGIES
----------------

  NO   OCC          E(Eh)            E(eV)
   0   2.0000     -20.536367      -558.8230
   1   2.0000     -11.278056      -306.8915
   2   2.0000     -11.277514      -306.8768
   3   2.0000     -11.224758      -305.4412
   4   2.0000     -11.223141      -305.3972
   5   2.0000     -11.219930      -305.3098
   6   2.0000     -11.213862      -305.1447
   7   2.0000     -11.213585      -305.1371
   8   2.0000     -11.205398      -304.9144
   9   2.0000      -1.370407       -37.2907
  10   2.0000      -1.110046       -30.2059
  11   2.0000      -1.029126       -28.0039
  12   2.0000      -0.986272       -26.8378
  13   2.0000      -0.965346       -26.2684
  14   2.0000      -0.882130       -24.0040
  15   2.0000      -0.835050       -22.7229
  16   2.0000      -0.783835       -21.3292
  17   2.0000      -0.692099       -18.8330
  18   2.0000      -0.676102       -18.3977
  19   2.0000      -0.630257       -17.1502
  20   2.0000      -0.628707       -17.1080
  21   2.0000      -0.600998       -16.3540
  22   2.0000      -0.572974       -15.5914
  23   2.0000      -0.558833       -15.2066
  24   2.0000      -0.554162       -15.0795
  25   2.0000      -0.546914       -14.8823
  26   2.0000      -0.539105       -14.6698
  27   2.0000      -0.532676       -14.4949
  28   2.0000      -0.504199       -13.7200
  29   2.0000      -0.482975       -13.1424
  30   2.0000      -0.468382       -12.7453
  31   2.0000      -0.446192       -12.1415
  32   2.0000      -0.437456       -11.9038
  33   2.0000      -0.400265       -10.8918
  34   2.0000      -0.383884       -10.4460
  35   0.0000       0.134159         3.6507
  36   0.0000       0.151521         4.1231
  37   0.0000       0.157322         4.2810
  38   0.0000       0.170909         4.6507
  39   0.0000       0.189362         5.1528

MULLIKEN ATOMIC CHARGES
-----------------------
   0 C :   -0.403605
   1 C :    0.047248
   2 O :   -0.354053
   3 C :    0.227438
   4 C :   -0.411180
   5 C :   -0.035632
   6 C :   -0.442669
   7 C :   -0.305915
   8 C :   -0.039723
   9 H :    0.124540
  10 H :    0.141036
  11 H :    0.129288
  12 H :    0.080165
  13 H :    0.136853
  14 H :    0.126013
  15 H :    0.133833
  16 H :    0.090037
  17 H :    0.145507
  18 H :    0.130206
  19 H :    0.124808
  20 H :    0.119282
  21 H :    0.120135
  22 H :    0.116388
Sum of atomic charges:    0.0000000

LOEWDIN ATOMIC CHARGES
----------------------
   0 C :   -0.296889
   1 C :   -0.288362
   2 O :    0.174098
   3 C :   -0.279652
   4 C :   -0.275080
   5 C :   -0.215445
   6 C :   -0.299709
   7 C :   -0.192821
   8 C :   -0.154807
   9 H :    0.121354
  10 H :    0.130110
  11 H :    0.128904
  12 H :    0.137269
  13 H :    0.132982
  14 H :    0.128039
  15 H :    0.129342
  16 H :    0.149607
  17 H :    0.127657
  18 H :    0.123397
  19 H :    0.124152
  20 H :    0.130232
  21 H :    0.130818
  22 H :    0.134804

  Mayer bond orders larger than 0.1
B(  0-C ,  1-C ) :   0.9127 B(  0-C ,  9-H ) :   0.9380 B(  0-C , 10-H ) :   0.9354
B(  0-C , 11-H ) :   0.9300 B(  1-C ,  2-O ) :   0.9137 B(  1-C ,  8-C ) :   0.9286
B(  1-C , 12-H ) :   0.9178 B(  2-O ,  3-C ) :   0.8824 B(  3-C ,  4-C ) :   0.8922
B(  3-C ,  5-C ) :   0.9267 B(  3-C ,  8-C ) :   0.8961 B(  4-C , 13-H ) :   0.9345
B(  4-C , 14-H ) :   0.9373 B(  4-C , 15-H ) :   0.9369 B(  5-C ,  6-C ) :   0.8766
B(  5-C ,  7-C ) :   0.9584 B(  5-C , 16-H ) :   0.9135 B(  6-C , 17-H ) :   0.9364
B(  6-C , 18-H ) :   0.9385 B(  6-C , 19-H ) :   0.9361 B(  7-C ,  8-C ) :   0.9227
B(  7-C , 20-H ) :   0.9167 B(  7-C , 21-H ) :   0.9240 B(  8-C , 22-H ) :   0.9022

MP2 TOTAL ENERGY:     -387.597596670 Eh
FINAL SINGLE POINT ENERGY      -387.597596669529

DIPOLE MOMENT
-------------
                                X             Y             Z
Electronic contribution:     -2.33843      -0.83835      -0.54848
Nuclear contribution   :      2.20159       0.80326       1.17220
                        -----------------------------------------
Total Dipole Moment    :     -0.13684      -0.03509       0.62372
                        -----------------------------------------
Magnitude (a.u.)       :      0.63952
Magnitude (Debye)      :      1.62553

                             ****ORCA TERMINATED NORMALLY****
TOTAL RUN TIME: 0 days 0 hours 21 minutes 13 seconds 533 msec
