                         Program Version 3.0.3 - RELEASE   -
|  1> ! RI-MP2 RIJK def2-TZVP def2-TZVP/C def2-TZVP/JK TIGHTSCF
|  2> % maxcore 2000
|  3> % mp2 density relaxed end
|  4> *xyz 0 1
|  5>  O       -0.0885811811     1.4453605773    -0.0875059313
|  6>  C        0.0396442899     0.0370301227     0.0294900120
|  7>  C       -1.3812424889    -0.5315078174     0.0419261317
|  8>  N       -2.0912854874    -0.2577140281    -1.1856214429
|  9>  C       -2.4749459942    -1.3950809298    -1.8648298610
| 10>  O       -3.0248618754    -1.4470090751    -2.9441714839
| 11>  C       -2.0551953141    -2.5238024481    -0.9732413313
| 12>  C       -1.4314648679    -2.0388535314     0.1008094321
| 13>  H        0.7846108137     1.8222017004    -0.2285206598
| 14>  H        0.5905338271    -0.3945811558    -0.8185179469
| 15>  H        0.5561901942    -0.2468777442     0.9598078700
| 16>  H       -1.9023674240    -0.0911202674     0.9064009197
| 17>  H       -2.1242773327     0.6600514147    -1.5961917672
| 18>  H       -2.2538595495    -3.5559039699    -1.2245848471
| 19>  H       -1.0092427997    -2.5961468677     0.9274285960
| 20> *
| 21>
| 22>                          ****END OF INPUT****

CARTESIAN COORDINATES (ANGSTROEM)
---------------------------------
  O     -0.088581    1.445361   -0.087506
  C      0.039644    0.037030    0.029490
  C     -1.381242   -0.531508    0.041926
  N     -2.091285   -0.257714   -1.185621
  C     -2.474946   -1.395081   -1.864830
  O     -3.024862   -1.447009   -2.944171
  C     -2.055195   -2.523802   -0.973241
  C     -1.431465   -2.038854    0.100809
  H      0.784611    1.822202   -0.228521
  H      0.590534   -0.394581   -0.818518
  H      0.556190   -0.246878    0.959808
  H     -1.902367   -0.091120    0.906401
  H     -2.124277    0.660051   -1.596192
  H     -2.253860   -3.555904   -1.224585
  H     -1.009243   -2.596147    0.927429

 Total Charge           Charge          ....    0
 Multiplicity           Mult            ....    1
 Number of Electrons    NEL             ....   60
 Basis Dimension        Dim             ....  290

ORBITAL ENERGIES
----------------

  NO   OCC          E(Eh)            E(eV)
   0   2.0000     -20.578839      -559.9787
   1   2.0000     -20.512937      -558.1854
   2   2.0000     -15.575338      -423.8265
   3   2.0000     -11.346287      -308.7482
   4   2.0000     -11.300348      -307.4981
   5   2.0000     -11.289327      -307.1982
   6   2.0000     -11.266261      -306.5706
   7   2.0000     -11.248426      -306.0852
   8   2.0000      -1.385378       -37.6980
   9   2.0000      -1.375006       -37.4158
  10   2.0000      -1.258100       -34.2346
  11   2.0000      -1.075944       -29.2779
  12   2.0000      -1.021598       -27.7991
  13   2.0000      -0.887278       -24.1441
  14   2.0000      -0.812515       -22.1097
  15   2.0000      -0.787662       -21.4334
  16   2.0000      -0.719789       -19.5864
  17   2.0000      -0.702188       -19.1075
  18   2.0000      -0.664989       -18.0953
  19   2.0000      -0.624649       -16.9976
  20   2.0000      -0.618828       -16.8392
  21   2.0000      -0.605067       -16.4647
  22   2.0000      -0.585197       -15.9240
  23   2.0000      -0.562492       -15.3062
  24   2.0000      -0.536264       -14.5925
  25   2.0000      -0.518528       -14.1099
  26   2.0000      -0.472567       -12.8592
  27   2.0000      -0.420035       -11.4297
  28   2.0000      -0.396695       -10.7946
  29   2.0000      -0.386665       -10.5217
  30   0.0000       0.102231         2.7819
  31   0.0000       0.122678         3.3383
  32   0.0000       0.145926         3.9709
  33   0.0000       0.170446         4.6381
  34   0.0000       0.177408         4.8275

MULLIKEN ATOMIC CHARGES
-----------------------
   0 O :   -0.473731
   1 C :   -0.084843
   2 C :    0.137928
   3 N :   -0.310880
   4 C :    0.224651
   5 O :   -0.345400
   6 C :   -0.143837
   7 C :   -0.215728
   8 H :    0.324920
   9 H :    0.114205
  10 H :    0.099391
  11 H :    0.120633
  12 H :    0.252609
  13 H :    0.151782
  14 H :    0.148301
Sum of atomic charges:    0.0000000

LOEWDIN ATOMIC CHARGES
----------------------
   0 O :   -0.046189
   1 C :   -0.323700
   2 C :   -0.268317
   3 N :    0.150944
   4 C :   -0.437245
   5 O :    0.082501
   6 C :   -0.106313
   7 C :   -0.113262
   8 H :    0.176998
   9 H :    0.123884
  10 H :    0.120719
  11 H :    0.160823
  12 H :    0.188573
  13 H :    0.147184
  14 H :    0.143400

  Mayer bond orders larger than 0.1
B(  0-O ,  1-C ) :   1.0033 B(  0-O ,  8-H ) :   0.8436 B(  1-C ,  2-C ) :   0.8953
B(  1-C ,  9-H ) :   0.9154 B(  1-C , 10-H ) :   0.9290 B(  2-C ,  3-N ) :   0.8986
B(  2-C ,  7-C ) :   0.9291 B(  2-C , 11-H ) :   0.9052 B(  3-N ,  4-C ) :   1.1487
B(  3-N , 12-H ) :   0.8580 B(  4-C ,  5-O ) :   1.9787 B(  4-C ,  6-C ) :   0.9592
B(  6-C ,  7-C ) :   1.7252 B(  6-C , 13-H ) :   0.9253 B(  7-C , 14-H ) :   0.9146

MP2 TOTAL ENERGY:     -399.189074740 Eh
FINAL SINGLE POINT ENERGY      -399.189074739768

DIPOLE MOMENT
-------------
                                X             Y             Z
Electronic contribution:     -3.49181      -0.67943      -3.31804
Nuclear contribution   :      4.96766       0.86295       4.67334
                        -----------------------------------------
Total Dipole Moment    :      1.47585       0.18352       1.35530
                        -----------------------------------------
Magnitude (a.u.)       :      2.01213
Magnitude (Debye)      :      5.11442

                             ****ORCA TERMINATED NORMALLY****
TOTAL RUN TIME: 0 days 0 hours 9 minutes 54 seconds 180 msec
