                         Program Version 3.0.3 - RELEASE   -
|  1> ! RI-MP2 RIJK def2-TZVP def2-TZVP/C def2-TZVP/JK TIGHTSCF
|  2> % maxcore 2000
|  3> % mp2 density relaxed end
|  4> *xyz 0 1
|  5>  C        0.6215220094    -0.5874228334     1.4160092503
|  6>  C       -0.1684862359    -0.2072543635     0.1647746966
|  7>  N        0.6267228937    -0.4595650944    -1.0408706246
|  8>  C       -0.0629509073    -0.3602842046    -2.3943332727
|  9>  C        1.1369386102    -1.1660950886    -2.9498307120
| 10>  C        0.6401277133    -1.8688846571    -1.6432088822
| 11>  C       -0.8106909034    -1.7082931054    -2.1702083435
| 12>  C        1.2936265366    -3.0322017390    -0.9744667965
| 13>  O        0.8146805551    -4.1373204867    -0.9222371731
| 14>  H        0.7876631745    -1.6690594331     1.4683259487
| 15>  H        1.5970774835    -0.0934310339     1.4194035731
| 16>  H        0.0767826182    -0.2962609786     2.3192988255
| 17>  H       -1.1485200625    -0.7080361185     0.1861823460
| 18>  H       -0.3697547870     0.8713940049     0.1721725940
| 19>  H       -0.4617069576     0.5880507996    -2.7577048013
| 20>  H        0.9866690741    -1.7160075547    -3.8794528772
| 21>  H        2.1078719205    -0.6773802631    -2.8743248850
| 22>  H       -1.6144216480    -1.7299938626    -1.4365409779
| 23>  H       -1.0791186873    -2.2852808097    -3.0576945413
| 24>  H        2.2897754100    -2.8017121977    -0.5341202969
| 25> *
| 26>
| 27>                          ****END OF INPUT****

CARTESIAN COORDINATES (ANGSTROEM)
---------------------------------
  C      0.621522   -0.587423    1.416009
  C     -0.168486   -0.207254    0.164775
  N      0.626723   -0.459565   -1.040871
  C     -0.062951   -0.360284   -2.394333
  C      1.136939   -1.166095   -2.949831
  C      0.640128   -1.868885   -1.643209
  C     -0.810691   -1.708293   -2.170208
  C      1.293627   -3.032202   -0.974467
  O      0.814681   -4.137320   -0.922237
  H      0.787663   -1.669059    1.468326
  H      1.597077   -0.093431    1.419404
  H      0.076783   -0.296261    2.319299
  H     -1.148520   -0.708036    0.186182
  H     -0.369755    0.871394    0.172173
  H     -0.461707    0.588051   -2.757705
  H      0.986669   -1.716008   -3.879453
  H      2.107872   -0.677380   -2.874325
  H     -1.614422   -1.729994   -1.436541
  H     -1.079119   -2.285281   -3.057695
  H      2.289775   -2.801712   -0.534120

 Total Charge           Charge          ....    0
 Multiplicity           Mult            ....    1
 Number of Electrons    NEL             ....   68
 Basis Dimension        Dim             ....  345

ORBITAL ENERGIES
----------------

  NO   OCC          E(Eh)            E(eV)
   0   2.0000     -20.563486      -559.5609
   1   2.0000     -15.565674      -423.5635
   2   2.0000     -11.335067      -308.4428
   3   2.0000     -11.290892      -307.2408
   4   2.0000     -11.285760      -307.1011
   5   2.0000     -11.251743      -306.1755
   6   2.0000     -11.247017      -306.0469
   7   2.0000     -11.241140      -305.8870
   8   2.0000     -11.217788      -305.2515
   9   2.0000      -1.400352       -38.1055
  10   2.0000      -1.297030       -35.2940
  11   2.0000      -1.088442       -29.6180
  12   2.0000      -0.971317       -26.4309
  13   2.0000      -0.950425       -25.8624
  14   2.0000      -0.927382       -25.2353
  15   2.0000      -0.836161       -22.7531
  16   2.0000      -0.805838       -21.9280
  17   2.0000      -0.730512       -19.8782
  18   2.0000      -0.703214       -19.1354
  19   2.0000      -0.661835       -18.0095
  20   2.0000      -0.651871       -17.7383
  21   2.0000      -0.634940       -17.2776
  22   2.0000      -0.594035       -16.1645
  23   2.0000      -0.571637       -15.5550
  24   2.0000      -0.549031       -14.9399
  25   2.0000      -0.537313       -14.6210
  26   2.0000      -0.510896       -13.9022
  27   2.0000      -0.505871       -13.7655
  28   2.0000      -0.500164       -13.6102
  29   2.0000      -0.476452       -12.9649
  30   2.0000      -0.469587       -12.7781
  31   2.0000      -0.455044       -12.3824
  32   2.0000      -0.410488       -11.1700
  33   2.0000      -0.376201       -10.2370
  34   0.0000       0.117255         3.1907
  35   0.0000       0.143075         3.8933
  36   0.0000       0.154365         4.2005
  37   0.0000       0.163606         4.4520
  38   0.0000       0.171435         4.6650

MULLIKEN ATOMIC CHARGES
-----------------------
   0 C :   -0.386093
   1 C :   -0.142148
   2 N :   -0.185469
   3 C :   -0.102825
   4 C :   -0.145851
   5 C :    0.052765
   6 C :   -0.193748
   7 C :    0.018228
   8 O :   -0.252263
   9 H :    0.128093
  10 H :    0.132596
  11 H :    0.130605
  12 H :    0.085040
  13 H :    0.118957
  14 H :    0.142445
  15 H :    0.128623
  16 H :    0.119886
  17 H :    0.129025
  18 H :    0.124601
  19 H :    0.097532
Sum of atomic charges:    0.0000000

LOEWDIN ATOMIC CHARGES
----------------------
   0 C :   -0.317792
   1 C :   -0.322462
   2 N :    0.142166
   3 C :   -0.195019
   4 C :   -0.164501
   5 C :   -0.240387
   6 C :   -0.176125
   7 C :   -0.266368
   8 O :    0.144805
   9 H :    0.120911
  10 H :    0.123918
  11 H :    0.123584
  12 H :    0.119579
  13 H :    0.134308
  14 H :    0.124179
  15 H :    0.132814
  16 H :    0.134649
  17 H :    0.128199
  18 H :    0.134075
  19 H :    0.119466

  Mayer bond orders larger than 0.1
B(  0-C ,  1-C ) :   0.9329 B(  0-C ,  9-H ) :   0.9338 B(  0-C , 10-H ) :   0.9365
B(  0-C , 11-H ) :   0.9357 B(  1-C ,  2-N ) :   0.9133 B(  1-C , 12-H ) :   0.9117
B(  1-C , 13-H ) :   0.9274 B(  2-N ,  3-C ) :   0.8703 B(  2-N ,  5-C ) :   0.8648
B(  3-C ,  4-C ) :   0.9181 B(  3-C ,  6-C ) :   0.9235 B(  3-C , 14-H ) :   0.8924
B(  4-C ,  5-C ) :   0.8607 B(  4-C , 15-H ) :   0.9211 B(  4-C , 16-H ) :   0.9108
B(  5-C ,  6-C ) :   0.8542 B(  5-C ,  7-C ) :   0.7631 B(  5-C ,  8-O ) :  -0.1085
B(  5-C , 19-H ) :  -0.1056 B(  6-C , 17-H ) :   0.9215 B(  6-C , 18-H ) :   0.9225
B(  7-C ,  8-O ) :   2.0302 B(  7-C , 19-H ) :   0.9767

MP2 TOTAL ENERGY:     -402.386501172 Eh
FINAL SINGLE POINT ENERGY      -402.386501172172

DIPOLE MOMENT
-------------
                                X             Y             Z
Electronic contribution:      1.49443      -4.99553      -3.46636
Nuclear contribution   :     -1.70383       5.80542       3.21628
                        -----------------------------------------
Total Dipole Moment    :     -0.20941       0.80989      -0.25008
                        -----------------------------------------
Magnitude (a.u.)       :      0.87311
Magnitude (Debye)      :      2.21926

                             ****ORCA TERMINATED NORMALLY****
TOTAL RUN TIME: 0 days 0 hours 31 minutes 10 seconds 141 msec
