                         Program Version 3.0.3 - RELEASE   -
|  1> ! RI-MP2 RIJK def2-TZVP def2-TZVP/C def2-TZVP/JK TIGHTSCF
|  2> % maxcore 2000
|  3> % mp2 density relaxed end
|  4> *xyz 0 1
|  5>  C       -0.0255972053     1.6017566291    -0.0268607169
|  6>  C        0.0688233055     0.0870348850     0.0271701179
|  7>  C        1.0261398411    -0.6592453714    -0.9433754648
|  8>  C        1.3744286570    -1.6424028042     0.2079314290
|  9>  C        2.8177875619    -2.0197652257     0.4668100657
| 10>  O        3.6268686269    -0.8802844061     0.8033280974
| 11>  C        3.0329719001     0.0720291821     1.5632607824
| 12>  N        1.8098119330     0.2514456958     1.8311785847
| 13>  C        0.8101120500    -0.6084951597     1.2257647142
| 14>  H        0.9571652779     2.0615932926     0.1069337834
| 15>  H       -0.4305290871     1.9271426055    -0.9917629784
| 16>  H       -0.6805664759     1.9886910513     0.7607752479
| 17>  H       -0.9320748847    -0.3535196646    -0.0472530220
| 18>  H        0.5943555460    -1.0867562534    -1.8513577615
| 19>  H        1.8861076606    -0.0423078306    -1.2229668873
| 20>  H        0.7642898802    -2.5493357246     0.1620828359
| 21>  H        2.8774344452    -2.7310011150     1.3017811183
| 22>  H        3.2976838884    -2.4730281211    -0.4053157438
| 23>  H        3.7901501401     0.7495160788     1.9559756367
| 24>  H        0.1590538391    -0.9883117139     2.0186030011
| 25> *
| 26>
| 27>                          ****END OF INPUT****

CARTESIAN COORDINATES (ANGSTROEM)
---------------------------------
  C     -0.025597    1.601757   -0.026861
  C      0.068823    0.087035    0.027170
  C      1.026140   -0.659245   -0.943375
  C      1.374429   -1.642403    0.207931
  C      2.817788   -2.019765    0.466810
  O      3.626869   -0.880284    0.803328
  C      3.032972    0.072029    1.563261
  N      1.809812    0.251446    1.831179
  C      0.810112   -0.608495    1.225765
  H      0.957165    2.061593    0.106934
  H     -0.430529    1.927143   -0.991763
  H     -0.680566    1.988691    0.760775
  H     -0.932075   -0.353520   -0.047253
  H      0.594356   -1.086756   -1.851358
  H      1.886108   -0.042308   -1.222967
  H      0.764290   -2.549336    0.162083
  H      2.877434   -2.731001    1.301781
  H      3.297684   -2.473028   -0.405316
  H      3.790150    0.749516    1.955976
  H      0.159054   -0.988312    2.018603

 Total Charge           Charge          ....    0
 Multiplicity           Mult            ....    1
 Number of Electrons    NEL             ....   68
 Basis Dimension        Dim             ....  345

ORBITAL ENERGIES
----------------

  NO   OCC          E(Eh)            E(eV)
   0   2.0000     -20.591161      -560.3140
   1   2.0000     -15.540726      -422.8846
   2   2.0000     -11.327911      -308.2481
   3   2.0000     -11.289971      -307.2157
   4   2.0000     -11.255133      -306.2677
   5   2.0000     -11.233790      -305.6870
   6   2.0000     -11.227520      -305.5164
   7   2.0000     -11.221644      -305.3565
   8   2.0000     -11.205127      -304.9070
   9   2.0000      -1.422758       -38.7152
  10   2.0000      -1.220735       -33.2179
  11   2.0000      -1.126197       -30.6454
  12   2.0000      -1.013769       -27.5861
  13   2.0000      -0.947817       -25.7914
  14   2.0000      -0.912109       -24.8198
  15   2.0000      -0.847324       -23.0568
  16   2.0000      -0.788787       -21.4640
  17   2.0000      -0.716940       -19.5089
  18   2.0000      -0.696146       -18.9431
  19   2.0000      -0.674750       -18.3609
  20   2.0000      -0.657962       -17.9041
  21   2.0000      -0.629268       -17.1233
  22   2.0000      -0.584282       -15.8991
  23   2.0000      -0.570318       -15.5192
  24   2.0000      -0.566143       -15.4055
  25   2.0000      -0.543549       -14.7907
  26   2.0000      -0.538535       -14.6543
  27   2.0000      -0.498124       -13.5547
  28   2.0000      -0.496346       -13.5063
  29   2.0000      -0.461900       -12.5689
  30   2.0000      -0.455994       -12.4082
  31   2.0000      -0.430631       -11.7181
  32   2.0000      -0.387774       -10.5519
  33   2.0000      -0.375210       -10.2100
  34   0.0000       0.128691         3.5019
  35   0.0000       0.154485         4.2038
  36   0.0000       0.160850         4.3769
  37   0.0000       0.171890         4.6774
  38   0.0000       0.186071         5.0632

MULLIKEN ATOMIC CHARGES
-----------------------
   0 C :   -0.410141
   1 C :   -0.025149
   2 C :   -0.293094
   3 C :   -0.119295
   4 C :   -0.054327
   5 O :   -0.268776
   6 C :    0.077249
   7 N :   -0.306348
   8 C :    0.055175
   9 H :    0.130873
  10 H :    0.128254
  11 H :    0.129660
  12 H :    0.094150
  13 H :    0.122789
  14 H :    0.123426
  15 H :    0.114314
  16 H :    0.118581
  17 H :    0.129650
  18 H :    0.131745
  19 H :    0.121264
Sum of atomic charges:    0.0000000

LOEWDIN ATOMIC CHARGES
----------------------
   0 C :   -0.300233
   1 C :   -0.231204
   2 C :   -0.196548
   3 C :   -0.223982
   4 C :   -0.264404
   5 O :    0.217643
   6 C :   -0.359287
   7 N :    0.097032
   8 C :   -0.223171
   9 H :    0.125898
  10 H :    0.123661
  11 H :    0.126448
  12 H :    0.150930
  13 H :    0.125032
  14 H :    0.141057
  15 H :    0.155280
  16 H :    0.132391
  17 H :    0.133976
  18 H :    0.132329
  19 H :    0.137152

  Mayer bond orders larger than 0.1
B(  0-C ,  1-C ) :   0.8902 B(  0-C ,  9-H ) :   0.9333 B(  0-C , 10-H ) :   0.9389
B(  0-C , 11-H ) :   0.9371 B(  1-C ,  2-C ) :   0.9354 B(  1-C ,  8-C ) :   0.9109
B(  1-C , 12-H ) :   0.9267 B(  2-C ,  3-C ) :   0.9256 B(  2-C , 13-H ) :   0.9229
B(  2-C , 14-H ) :   0.9089 B(  3-C ,  4-C ) :   0.9226 B(  3-C ,  8-C ) :   0.9295
B(  3-C , 15-H ) :   0.9032 B(  4-C ,  5-O ) :   0.8644 B(  4-C , 16-H ) :   0.9361
B(  4-C , 17-H ) :   0.9297 B(  5-O ,  6-C ) :   1.0620 B(  6-C ,  7-N ) :   1.8198
B(  6-C , 18-H ) :   0.9298 B(  7-N ,  8-C ) :   0.8819 B(  8-C , 19-H ) :   0.9288

MP2 TOTAL ENERGY:     -402.461154620 Eh
FINAL SINGLE POINT ENERGY      -402.461154620033

DIPOLE MOMENT
-------------
                                X             Y             Z
Electronic contribution:      5.15701      -1.71679       3.70284
Nuclear contribution   :     -5.35693       1.01539      -4.13156
                        -----------------------------------------
Total Dipole Moment    :     -0.19992      -0.70140      -0.42872
                        -----------------------------------------
Magnitude (a.u.)       :      0.84601
Magnitude (Debye)      :      2.15039

                             ****ORCA TERMINATED NORMALLY****
TOTAL RUN TIME: 0 days 0 hours 19 minutes 44 seconds 277 msec
