                         Program Version 3.0.3 - RELEASE   -
|  1> ! RI-MP2 RIJK def2-TZVP def2-TZVP/C def2-TZVP/JK TIGHTSCF
|  2> % maxcore 2000
|  3> % mp2 density relaxed end
|  4> *xyz 0 1
|  5>  C       -0.0196882339     1.5315932862    -0.0420035166
|  6>  C        0.0564889736     0.0142200086    -0.0673259341
|  7>  C       -1.1671982805    -0.6484068207     0.5495381341
|  8>  C        0.6953027144    -0.7610265260    -1.1720923767
|  9>  C        1.9005108851    -0.0313214099    -1.7823804224
| 10>  C        2.5420631703    -0.0570284190    -0.3677344861
| 11>  O        3.6423880406     0.2032932548     0.0313109861
| 12>  C        1.3566600843    -0.7415481386     0.2413263901
| 13>  H        0.8689294044     2.0142877384    -0.4528582725
| 14>  H       -0.8874295950     1.8799781386    -0.6142568769
| 15>  H       -0.1387869435     1.8864817422     0.9874096480
| 16>  H       -2.0739887341    -0.3527517876     0.0100956212
| 17>  H       -1.0961746394    -1.7397084845     0.5172667311
| 18>  H       -1.2896775402    -0.3481432993     1.5956487146
| 19>  H        0.2061705030    -1.6120196430    -1.6298365045
| 20>  H        2.4888777081    -0.6640603419    -2.4539486469
| 21>  H        1.7311432410     0.9346838613    -2.2646404965
| 22>  H        1.3850184016    -1.4914944197     1.0232182980
| 23> *
| 24>
| 25>                          ****END OF INPUT****

CARTESIAN COORDINATES (ANGSTROEM)
---------------------------------
  C     -0.019688    1.531593   -0.042004
  C      0.056489    0.014220   -0.067326
  C     -1.167198   -0.648407    0.549538
  C      0.695303   -0.761027   -1.172092
  C      1.900511   -0.031321   -1.782380
  C      2.542063   -0.057028   -0.367734
  O      3.642388    0.203293    0.031311
  C      1.356660   -0.741548    0.241326
  H      0.868929    2.014288   -0.452858
  H     -0.887430    1.879978   -0.614257
  H     -0.138787    1.886482    0.987410
  H     -2.073989   -0.352752    0.010096
  H     -1.096175   -1.739708    0.517267
  H     -1.289678   -0.348143    1.595649
  H      0.206171   -1.612020   -1.629837
  H      2.488878   -0.664060   -2.453949
  H      1.731143    0.934684   -2.264640
  H      1.385018   -1.491494    1.023218

 Total Charge           Charge          ....    0
 Multiplicity           Mult            ....    1
 Number of Electrons    NEL             ....   60
 Basis Dimension        Dim             ....  308

ORBITAL ENERGIES
----------------

  NO   OCC          E(Eh)            E(eV)
   0   2.0000     -20.542218      -558.9822
   1   2.0000     -11.330659      -308.3229
   2   2.0000     -11.267002      -306.5907
   3   2.0000     -11.256283      -306.2990
   4   2.0000     -11.244939      -305.9903
   5   2.0000     -11.243670      -305.9558
   6   2.0000     -11.232303      -305.6465
   7   2.0000     -11.228101      -305.5322
   8   2.0000      -1.386547       -37.7299
   9   2.0000      -1.210952       -32.9517
  10   2.0000      -1.046265       -28.4703
  11   2.0000      -0.958804       -26.0904
  12   2.0000      -0.933697       -25.4072
  13   2.0000      -0.870530       -23.6883
  14   2.0000      -0.751762       -20.4565
  15   2.0000      -0.724729       -19.7209
  16   2.0000      -0.675468       -18.3804
  17   2.0000      -0.645106       -17.5542
  18   2.0000      -0.633795       -17.2465
  19   2.0000      -0.603529       -16.4228
  20   2.0000      -0.575984       -15.6733
  21   2.0000      -0.560587       -15.2543
  22   2.0000      -0.557212       -15.1625
  23   2.0000      -0.548397       -14.9226
  24   2.0000      -0.524628       -14.2759
  25   2.0000      -0.513909       -13.9842
  26   2.0000      -0.493311       -13.4237
  27   2.0000      -0.420903       -11.4533
  28   2.0000      -0.401203       -10.9173
  29   2.0000      -0.389629       -10.6023
  30   0.0000       0.128624         3.5000
  31   0.0000       0.139005         3.7825
  32   0.0000       0.158486         4.3126
  33   0.0000       0.160503         4.3675
  34   0.0000       0.186232         5.0676

MULLIKEN ATOMIC CHARGES
-----------------------
   0 C :   -0.380723
   1 C :    0.104961
   2 C :   -0.434872
   3 C :   -0.145304
   4 C :   -0.236820
   5 C :    0.104239
   6 O :   -0.263233
   7 C :   -0.147313
   8 H :    0.142644
   9 H :    0.131470
  10 H :    0.136517
  11 H :    0.139402
  12 H :    0.136996
  13 H :    0.142001
  14 H :    0.146147
  15 H :    0.137243
  16 H :    0.136901
  17 H :    0.149743
Sum of atomic charges:    0.0000000

LOEWDIN ATOMIC CHARGES
----------------------
   0 C :   -0.256797
   1 C :   -0.253489
   2 C :   -0.256479
   3 C :   -0.132597
   4 C :   -0.187884
   5 C :   -0.313073
   6 O :    0.152674
   7 C :   -0.106536
   8 H :    0.131378
   9 H :    0.129434
  10 H :    0.131897
  11 H :    0.129895
  12 H :    0.130524
  13 H :    0.129558
  14 H :    0.142083
  15 H :    0.149751
  16 H :    0.134365
  17 H :    0.145296

  Mayer bond orders larger than 0.1
B(  0-C ,  1-C ) :   0.9233 B(  0-C ,  8-H ) :   0.9293 B(  0-C ,  9-H ) :   0.9341
B(  0-C , 10-H ) :   0.9349 B(  1-C ,  2-C ) :   0.8906 B(  1-C ,  3-C ) :   0.8851
B(  1-C ,  7-C ) :   0.7935 B(  2-C , 11-H ) :   0.9384 B(  2-C , 12-H ) :   0.9292
B(  2-C , 13-H ) :   0.9412 B(  3-C ,  4-C ) :   0.9213 B(  3-C ,  7-C ) :   0.8264
B(  3-C , 14-H ) :   0.9179 B(  4-C ,  5-C ) :   0.9345 B(  4-C ,  7-C ) :  -0.1251
B(  4-C , 15-H ) :   0.8997 B(  4-C , 16-H ) :   0.9123 B(  5-C ,  6-O ) :   2.0334
B(  5-C ,  7-C ) :   0.8768 B(  7-C , 17-H ) :   0.9111

MP2 TOTAL ENERGY:     -347.191019784 Eh
FINAL SINGLE POINT ENERGY      -347.191019783858

DIPOLE MOMENT
-------------
                                X             Y             Z
Electronic contribution:      8.11632      -1.15151      -0.19787
Nuclear contribution   :     -9.39541       0.86839      -0.13354
                        -----------------------------------------
Total Dipole Moment    :     -1.27909      -0.28311      -0.33140
                        -----------------------------------------
Magnitude (a.u.)       :      1.35131
Magnitude (Debye)      :      3.43477

                             ****ORCA TERMINATED NORMALLY****
TOTAL RUN TIME: 0 days 0 hours 15 minutes 36 seconds 639 msec
