                         Program Version 3.0.3 - RELEASE   -
|  1> ! RI-MP2 RIJK def2-TZVP def2-TZVP/C def2-TZVP/JK TIGHTSCF
|  2> % maxcore 2000
|  3> % mp2 density relaxed end
|  4> *xyz 0 1
|  5>  C       -0.1055626440     1.3862899893    -0.0330754089
|  6>  N        0.2163894520    -0.0307452442    -0.0500772148
|  7>  C        0.0128701260    -0.7664699858     1.1839560350
|  8>  C        0.0919124655    -0.7083038878    -1.2296257417
|  9>  N        0.0532478864    -2.0410902058    -1.3297251971
| 10>  N       -0.0058393905    -2.1940495766    -2.6580215812
| 11>  C       -0.0623252862    -3.4897681190    -3.2969647292
| 12>  N       -0.0193361151    -1.0633496801    -3.3326539191
| 13>  N        0.0379577842    -0.0970742459    -2.4474259409
| 14>  H        0.4318006194     1.8642965936     0.7915552639
| 15>  H        0.2050347459     1.8413952777    -0.9731078412
| 16>  H       -1.1828442837     1.5708329451     0.1028710474
| 17>  H       -1.0532831644    -0.9187965836     1.4155536154
| 18>  H        0.4892470722    -1.7451530297     1.1122726399
| 19>  H        0.4679836423    -0.2097308949     2.0082487563
| 20>  H       -0.9459390602    -4.0348455433    -2.9562171849
| 21>  H       -0.1162287990    -3.3196878682    -4.3715619214
| 22>  H        0.8326055393    -4.0663021406    -3.0506699675
| 23> *
| 24>
| 25>                          ****END OF INPUT****

CARTESIAN COORDINATES (ANGSTROEM)
---------------------------------
  C     -0.105563    1.386290   -0.033075
  N      0.216389   -0.030745   -0.050077
  C      0.012870   -0.766470    1.183956
  C      0.091912   -0.708304   -1.229626
  N      0.053248   -2.041090   -1.329725
  N     -0.005839   -2.194050   -2.658022
  C     -0.062325   -3.489768   -3.296965
  N     -0.019336   -1.063350   -3.332654
  N      0.037958   -0.097074   -2.447426
  H      0.431801    1.864297    0.791555
  H      0.205035    1.841395   -0.973108
  H     -1.182844    1.570833    0.102871
  H     -1.053283   -0.918797    1.415554
  H      0.489247   -1.745153    1.112273
  H      0.467984   -0.209731    2.008249
  H     -0.945939   -4.034846   -2.956217
  H     -0.116229   -3.319688   -4.371562
  H      0.832606   -4.066302   -3.050670

 Total Charge           Charge          ....    0
 Multiplicity           Mult            ....    1
 Number of Electrons    NEL             ....   68
 Basis Dimension        Dim             ....  333

ORBITAL ENERGIES
----------------

  NO   OCC          E(Eh)            E(eV)
   0   2.0000     -15.689402      -426.9303
   1   2.0000     -15.660019      -426.1308
   2   2.0000     -15.592159      -424.2842
   3   2.0000     -15.584743      -424.0824
   4   2.0000     -15.576207      -423.8501
   5   2.0000     -11.326172      -308.2008
   6   2.0000     -11.286944      -307.1334
   7   2.0000     -11.255856      -306.2874
   8   2.0000     -11.253592      -306.2258
   9   2.0000      -1.486383       -40.4465
  10   2.0000      -1.275566       -34.7099
  11   2.0000      -1.246914       -33.9303
  12   2.0000      -1.157822       -31.5059
  13   2.0000      -1.009999       -27.4835
  14   2.0000      -0.968468       -26.3534
  15   2.0000      -0.922023       -25.0895
  16   2.0000      -0.840975       -22.8841
  17   2.0000      -0.807336       -21.9687
  18   2.0000      -0.717960       -19.5367
  19   2.0000      -0.697909       -18.9911
  20   2.0000      -0.657612       -17.8945
  21   2.0000      -0.640633       -17.4325
  22   2.0000      -0.618711       -16.8360
  23   2.0000      -0.589693       -16.0464
  24   2.0000      -0.583181       -15.8692
  25   2.0000      -0.555601       -15.1187
  26   2.0000      -0.552290       -15.0286
  27   2.0000      -0.549205       -14.9446
  28   2.0000      -0.533288       -14.5115
  29   2.0000      -0.478978       -13.0336
  30   2.0000      -0.451946       -12.2981
  31   2.0000      -0.449089       -12.2203
  32   2.0000      -0.424656       -11.5555
  33   2.0000      -0.321433        -8.7466
  34   0.0000       0.127586         3.4718
  35   0.0000       0.141305         3.8451
  36   0.0000       0.148375         4.0375
  37   0.0000       0.183065         4.9815
  38   0.0000       0.196635         5.3507

MULLIKEN ATOMIC CHARGES
-----------------------
   0 C :   -0.306089
   1 N :   -0.155218
   2 C :   -0.302801
   3 C :    0.186596
   4 N :   -0.302485
   5 N :    0.232513
   6 C :   -0.314731
   7 N :   -0.190026
   8 N :   -0.185224
   9 H :    0.131825
  10 H :    0.176191
  11 H :    0.120568
  12 H :    0.123106
  13 H :    0.160495
  14 H :    0.134214
  15 H :    0.157615
  16 H :    0.175524
  17 H :    0.157928
Sum of atomic charges:    0.0000000

LOEWDIN ATOMIC CHARGES
----------------------
   0 C :   -0.295486
   1 N :    0.117609
   2 C :   -0.297936
   3 C :   -0.436680
   4 N :    0.035238
   5 N :    0.088637
   6 C :   -0.272441
   7 N :   -0.049148
   8 N :   -0.002023
   9 H :    0.118462
  10 H :    0.131390
  11 H :    0.111335
  12 H :    0.111415
  13 H :    0.127450
  14 H :    0.120089
  15 H :    0.128336
  16 H :    0.135344
  17 H :    0.128406

  Mayer bond orders larger than 0.1
B(  0-C ,  1-N ) :   0.8937 B(  0-C ,  9-H ) :   0.9349 B(  0-C , 10-H ) :   0.9278
B(  0-C , 11-H ) :   0.9279 B(  1-N ,  2-C ) :   0.8996 B(  1-N ,  3-C ) :   1.1453
B(  2-C , 12-H ) :   0.9285 B(  2-C , 13-H ) :   0.9300 B(  2-C , 14-H ) :   0.9339
B(  3-C ,  4-N ) :   1.4040 B(  3-C ,  8-N ) :   1.3630 B(  4-N ,  5-N ) :   1.0371
B(  4-N ,  7-N ) :   0.1052 B(  5-N ,  6-C ) :   0.8627 B(  5-N ,  7-N ) :   1.1081
B(  6-C , 15-H ) :   0.9259 B(  6-C , 16-H ) :   0.9222 B(  6-C , 17-H ) :   0.9261
B(  7-N ,  8-N ) :   1.2119

MP2 TOTAL ENERGY:     -430.712344762 Eh
FINAL SINGLE POINT ENERGY      -430.712344762485

DIPOLE MOMENT
-------------
                                X             Y             Z
Electronic contribution:      0.84316      -0.84794      -6.02319
Nuclear contribution   :     -0.97070       0.04232       6.65172
                        -----------------------------------------
Total Dipole Moment    :     -0.12754      -0.80562       0.62852
                        -----------------------------------------
Magnitude (a.u.)       :      1.02972
Magnitude (Debye)      :      2.61734

                             ****ORCA TERMINATED NORMALLY****
TOTAL RUN TIME: 0 days 0 hours 17 minutes 38 seconds 810 msec
