                         Program Version 3.0.3 - RELEASE   -
|  1> ! RI-MP2 RIJK def2-TZVP def2-TZVP/C def2-TZVP/JK TIGHTSCF
|  2> % maxcore 2000
|  3> % mp2 density relaxed end
|  4> *xyz 0 1
|  5>  C       -0.0192930974     1.2960605456    -1.0202767018
|  6>  C        0.4366832839     0.1992086087    -0.0385668844
|  7>  C        1.1982746497    -0.8980455310    -0.7579130561
|  8>  O        2.4107842808    -0.9659675618    -0.7038975335
|  9>  C        0.3696122952    -1.9063767699    -1.5466981114
| 10>  C        0.8735468266    -2.2981218408    -2.9492754301
| 11>  O        0.0809983269    -2.4630051466    -3.8599239420
| 12>  N        2.2120702460    -2.4857446369    -3.0438461375
| 13>  C        2.8554336407    -2.8393992917    -4.2935039078
| 14>  H        0.8420416006     1.7623072024    -1.5070738590
| 15>  H       -0.6747239191     0.8966819996    -1.8002134054
| 16>  H       -0.5703723876     2.0743577508    -0.4859281409
| 17>  H        1.0980615248     0.6217551552     0.7220735836
| 18>  H       -0.4389880597    -0.2338233157     0.4597206779
| 19>  H        0.3494337002    -2.8220520234    -0.9390495233
| 20>  H       -0.6638259361    -1.5785925087    -1.6620526099
| 21>  H        2.7671535272    -2.1931560865    -2.2493962317
| 22>  H        2.0770676605    -3.1309804609    -4.9993834578
| 23>  H        3.4158304897    -1.9961314219    -4.7151658440
| 24>  H        3.5457759571    -3.6767170164    -4.1491094947
| 25> *
| 26>
| 27>                          ****END OF INPUT****

CARTESIAN COORDINATES (ANGSTROEM)
---------------------------------
  C     -0.019293    1.296061   -1.020277
  C      0.436683    0.199209   -0.038567
  C      1.198275   -0.898046   -0.757913
  O      2.410784   -0.965968   -0.703898
  C      0.369612   -1.906377   -1.546698
  C      0.873547   -2.298122   -2.949275
  O      0.080998   -2.463005   -3.859924
  N      2.212070   -2.485745   -3.043846
  C      2.855434   -2.839399   -4.293504
  H      0.842042    1.762307   -1.507074
  H     -0.674724    0.896682   -1.800213
  H     -0.570372    2.074358   -0.485928
  H      1.098062    0.621755    0.722074
  H     -0.438988   -0.233823    0.459721
  H      0.349434   -2.822052   -0.939050
  H     -0.663826   -1.578593   -1.662053
  H      2.767154   -2.193156   -2.249396
  H      2.077068   -3.130980   -4.999383
  H      3.415830   -1.996131   -4.715166
  H      3.545776   -3.676717   -4.149109

 Total Charge           Charge          ....    0
 Multiplicity           Mult            ....    1
 Number of Electrons    NEL             ....   70
 Basis Dimension        Dim             ....  345

ORBITAL ENERGIES
----------------

  NO   OCC          E(Eh)            E(eV)
   0   2.0000     -20.564671      -559.5932
   1   2.0000     -20.513659      -558.2050
   2   2.0000     -15.573901      -423.7874
   3   2.0000     -11.353010      -308.9311
   4   2.0000     -11.351506      -308.8902
   5   2.0000     -11.257597      -306.3348
   6   2.0000     -11.253031      -306.2106
   7   2.0000     -11.252136      -306.1862
   8   2.0000     -11.241795      -305.9048
   9   2.0000      -1.409971       -38.3673
  10   2.0000      -1.378629       -37.5144
  11   2.0000      -1.224745       -33.3270
  12   2.0000      -1.084756       -29.5177
  13   2.0000      -1.031550       -28.0699
  14   2.0000      -0.942718       -25.6527
  15   2.0000      -0.896251       -24.3882
  16   2.0000      -0.787543       -21.4301
  17   2.0000      -0.766492       -20.8573
  18   2.0000      -0.696083       -18.9414
  19   2.0000      -0.678516       -18.4634
  20   2.0000      -0.666949       -18.1486
  21   2.0000      -0.637707       -17.3529
  22   2.0000      -0.621267       -16.9055
  23   2.0000      -0.607700       -16.5364
  24   2.0000      -0.599332       -16.3087
  25   2.0000      -0.571231       -15.5440
  26   2.0000      -0.556905       -15.1542
  27   2.0000      -0.546508       -14.8712
  28   2.0000      -0.539541       -14.6817
  29   2.0000      -0.521953       -14.2031
  30   2.0000      -0.513036       -13.9604
  31   2.0000      -0.504981       -13.7412
  32   2.0000      -0.438144       -11.9225
  33   2.0000      -0.414325       -11.2743
  34   2.0000      -0.386307       -10.5120
  35   0.0000       0.107935         2.9371
  36   0.0000       0.139909         3.8071
  37   0.0000       0.151217         4.1148
  38   0.0000       0.157910         4.2970
  39   0.0000       0.174497         4.7483

MULLIKEN ATOMIC CHARGES
-----------------------
   0 C :   -0.415256
   1 C :   -0.218016
   2 C :    0.258188
   3 O :   -0.333589
   4 C :   -0.275417
   5 C :    0.242481
   6 O :   -0.376270
   7 N :   -0.303115
   8 C :   -0.288404
   9 H :    0.143552
  10 H :    0.141136
  11 H :    0.143831
  12 H :    0.133979
  13 H :    0.130870
  14 H :    0.157650
  15 H :    0.155932
  16 H :    0.260227
  17 H :    0.172370
  18 H :    0.133968
  19 H :    0.135885
Sum of atomic charges:   -0.0000000

LOEWDIN ATOMIC CHARGES
----------------------
   0 C :   -0.301577
   1 C :   -0.256006
   2 C :   -0.315189
   3 O :    0.133043
   4 C :   -0.199646
   5 C :   -0.463984
   6 O :    0.070715
   7 N :    0.089239
   8 C :   -0.311238
   9 H :    0.127715
  10 H :    0.125731
  11 H :    0.126428
  12 H :    0.146795
  13 H :    0.147286
  14 H :    0.171966
  15 H :    0.157290
  16 H :    0.187570
  17 H :    0.132817
  18 H :    0.115005
  19 H :    0.116040

  Mayer bond orders larger than 0.1
B(  0-C ,  1-C ) :   0.9024 B(  0-C ,  9-H ) :   0.9361 B(  0-C , 10-H ) :   0.9302
B(  0-C , 11-H ) :   0.9335 B(  1-C ,  2-C ) :   0.9157 B(  1-C , 12-H ) :   0.9301
B(  1-C , 13-H ) :   0.9194 B(  2-C ,  3-O ) :   1.8719 B(  2-C ,  4-C ) :   0.8743
B(  4-C ,  5-C ) :   0.9167 B(  4-C , 14-H ) :   0.8769 B(  4-C , 15-H ) :   0.9276
B(  5-C ,  6-O ) :   1.9414 B(  5-C ,  7-N ) :   1.1975 B(  7-N ,  8-C ) :   0.8597
B(  7-N , 16-H ) :   0.8367 B(  8-C , 17-H ) :   0.9281 B(  8-C , 18-H ) :   0.9352
B(  8-C , 19-H ) :   0.9360

MP2 TOTAL ENERGY:     -439.616275443 Eh
FINAL SINGLE POINT ENERGY      -439.616275442957

DIPOLE MOMENT
-------------
                                X             Y             Z
Electronic contribution:      1.22215      -4.13733      -0.29617
Nuclear contribution   :     -1.06199       4.52262       1.11743
                        -----------------------------------------
Total Dipole Moment    :      0.16016       0.38529       0.82126
                        -----------------------------------------
Magnitude (a.u.)       :      0.92118
Magnitude (Debye)      :      2.34145

                             ****ORCA TERMINATED NORMALLY****
TOTAL RUN TIME: 0 days 0 hours 17 minutes 14 seconds 263 msec
