                         Program Version 3.0.3 - RELEASE   -
|  1> ! RI-MP2 RIJK def2-TZVP def2-TZVP/C def2-TZVP/JK TIGHTSCF
|  2> % maxcore 2000
|  3> % mp2 density relaxed end
|  4> *xyz 0 1
|  5>  C        0.0247168160     1.3697202200     0.0329386543
|  6>  O        1.3041932585     1.9437114725    -0.0074597107
|  7>  C        2.0883868923     1.6601190926     1.1549882323
|  8>  C        1.8591037200     0.2246326033     1.4902845902
|  9>  C        0.9108226219    -0.5393178627     0.8659699202
| 10>  O        0.0410939346    -0.0512438300    -0.0529820614
| 11>  N        0.9358460723    -1.8370468466     1.2725097148
| 12>  C        1.9104898250    -1.8766598828     2.1597305885
| 13>  N        2.5039186219    -0.6596897087     2.3352532106
| 14>  H       -0.4967375730     1.6555940966     0.9612187682
| 15>  H       -0.5113164720     1.7268805111    -0.8462168224
| 16>  H        3.1250010509     1.8757268581     0.8709232196
| 17>  H        1.8199094485     2.3452725832     1.9770233504
| 18>  H        2.2244135720    -2.7516564913     2.7076769754
| 19>  H        3.2648775811    -0.4541351755     2.9602492697
| 20> *
| 21>
| 22>                          ****END OF INPUT****

CARTESIAN COORDINATES (ANGSTROEM)
---------------------------------
  C      0.024717    1.369720    0.032939
  O      1.304193    1.943711   -0.007460
  C      2.088387    1.660119    1.154988
  C      1.859104    0.224633    1.490285
  C      0.910823   -0.539318    0.865970
  O      0.041094   -0.051244   -0.052982
  N      0.935846   -1.837047    1.272510
  C      1.910490   -1.876660    2.159731
  N      2.503919   -0.659690    2.335253
  H     -0.496738    1.655594    0.961219
  H     -0.511316    1.726881   -0.846217
  H      3.125001    1.875727    0.870923
  H      1.819909    2.345273    1.977023
  H      2.224414   -2.751656    2.707677
  H      3.264878   -0.454135    2.960249

 Total Charge           Charge          ....    0
 Multiplicity           Mult            ....    1
 Number of Electrons    NEL             ....   66
 Basis Dimension        Dim             ....  315

ORBITAL ENERGIES
----------------

  NO   OCC          E(Eh)            E(eV)
   0   2.0000     -20.582668      -560.0829
   1   2.0000     -20.577451      -559.9409
   2   2.0000     -15.628477      -425.2725
   3   2.0000     -15.550472      -423.1498
   4   2.0000     -11.340320      -308.5858
   5   2.0000     -11.307348      -307.6886
   6   2.0000     -11.305830      -307.6473
   7   2.0000     -11.302016      -307.5435
   8   2.0000     -11.256048      -306.2926
   9   2.0000      -1.445383       -39.3309
  10   2.0000      -1.371441       -37.3188
  11   2.0000      -1.341631       -36.5076
  12   2.0000      -1.176239       -32.0071
  13   2.0000      -1.051989       -28.6261
  14   2.0000      -0.945367       -25.7248
  15   2.0000      -0.911816       -24.8118
  16   2.0000      -0.842928       -22.9372
  17   2.0000      -0.779748       -21.2180
  18   2.0000      -0.751736       -20.4558
  19   2.0000      -0.698196       -18.9989
  20   2.0000      -0.693322       -18.8662
  21   2.0000      -0.656383       -17.8611
  22   2.0000      -0.628824       -17.1112
  23   2.0000      -0.618243       -16.8232
  24   2.0000      -0.610731       -16.6188
  25   2.0000      -0.583496       -15.8777
  26   2.0000      -0.550036       -14.9672
  27   2.0000      -0.527273       -14.3478
  28   2.0000      -0.486765       -13.2456
  29   2.0000      -0.462573       -12.5873
  30   2.0000      -0.442425       -12.0390
  31   2.0000      -0.398143       -10.8340
  32   2.0000      -0.304489        -8.2856
  33   0.0000       0.117097         3.1864
  34   0.0000       0.148229         4.0335
  35   0.0000       0.151894         4.1332
  36   0.0000       0.176531         4.8037
  37   0.0000       0.189075         5.1450

MULLIKEN ATOMIC CHARGES
-----------------------
   0 C :    0.083512
   1 O :   -0.298652
   2 C :   -0.039727
   3 C :   -0.024465
   4 C :    0.157443
   5 O :   -0.270995
   6 N :   -0.264680
   7 C :    0.053268
   8 N :   -0.291231
   9 H :    0.093397
  10 H :    0.141899
  11 H :    0.134774
  12 H :    0.121125
  13 H :    0.152552
  14 H :    0.251782
Sum of atomic charges:    0.0000000

LOEWDIN ATOMIC CHARGES
----------------------
   0 C :   -0.355672
   1 O :    0.167915
   2 C :   -0.275690
   3 C :   -0.243899
   4 C :   -0.361902
   5 O :    0.241428
   6 N :    0.117973
   7 C :   -0.309970
   8 N :    0.189700
   9 H :    0.114544
  10 H :    0.127059
  11 H :    0.137491
  12 H :    0.125968
  13 H :    0.130796
  14 H :    0.194259

  Mayer bond orders larger than 0.1
B(  0-C ,  1-O ) :   0.9662 B(  0-C ,  5-O ) :   0.9188 B(  0-C ,  9-H ) :   0.9266
B(  0-C , 10-H ) :   0.9284 B(  1-O ,  2-C ) :   0.9388 B(  2-C ,  3-C ) :   0.8889
B(  2-C , 11-H ) :   0.9154 B(  2-C , 12-H ) :   0.9519 B(  3-C ,  4-C ) :   1.4923
B(  3-C ,  8-N ) :   1.0498 B(  4-C ,  5-O ) :   1.0661 B(  4-C ,  6-N ) :   1.3589
B(  6-N ,  7-C ) :   1.5043 B(  7-C ,  8-N ) :   1.1737 B(  7-C , 13-H ) :   0.9276
B(  8-N , 14-H ) :   0.8656

MP2 TOTAL ENERGY:     -453.236296825 Eh
FINAL SINGLE POINT ENERGY      -453.236296825197

DIPOLE MOMENT
-------------
                                X             Y             Z
Electronic contribution:     -0.53897      -2.82325      -1.10276
Nuclear contribution   :      1.65316       3.69903       2.41687
                        -----------------------------------------
Total Dipole Moment    :      1.11418       0.87578       1.31411
                        -----------------------------------------
Magnitude (a.u.)       :      1.93269
Magnitude (Debye)      :      4.91250

                             ****ORCA TERMINATED NORMALLY****
TOTAL RUN TIME: 0 days 0 hours 16 minutes 6 seconds 296 msec
