                         Program Version 3.0.3 - RELEASE   -
|  1> ! RI-MP2 RIJK def2-TZVP def2-TZVP/C def2-TZVP/JK TIGHTSCF
|  2> % maxcore 2000
|  3> % mp2 density relaxed end
|  4> *xyz 0 1
|  5>  C       -0.1441140185     1.8710985240    -0.4025233669
|  6>  C        0.6129869566     0.6069707019     0.0005802512
|  7>  N        1.1215864587    -0.0742631829    -1.1750702886
|  8>  C        2.0024759129    -0.9834712084    -1.0447072994
|  9>  N        2.4979559664    -1.5070964562     0.1454657125
| 10>  N        2.5394026939    -1.5696261844    -2.2101446806
| 11>  C        2.3379690554    -0.8715796652    -3.4794292509
| 12>  C        3.0727230028    -2.8431167150    -2.2313421464
| 13>  O        3.5112631893    -3.3874762213    -3.2199005042
| 14>  H        0.5174884179     2.5597911924    -0.9361180297
| 15>  H       -0.9736885046     1.6195359711    -1.0691346783
| 16>  H       -0.5451411963     2.3851156766     0.4767095407
| 17>  H        1.4252214471     0.8825540383     0.6990582720
| 18>  H       -0.0648817475    -0.0549410002     0.5633313549
| 19>  H        2.1941239878    -1.0099380670     0.9686695245
| 20>  H        3.4858287452    -1.7152313272     0.1636853831
| 21>  H        2.6720098605     0.1629700162    -3.3872730939
| 22>  H        2.9185007520    -1.4009900428    -4.2329668411
| 23>  H        1.2801392365    -0.8651902823    -3.7517635993
| 24>  H        3.0496352039    -3.3287487177    -1.2433391095
| 25> *
| 26>
| 27>                          ****END OF INPUT****

CARTESIAN COORDINATES (ANGSTROEM)
---------------------------------
  C     -0.144114    1.871099   -0.402523
  C      0.612987    0.606971    0.000580
  N      1.121586   -0.074263   -1.175070
  C      2.002476   -0.983471   -1.044707
  N      2.497956   -1.507096    0.145466
  N      2.539403   -1.569626   -2.210145
  C      2.337969   -0.871580   -3.479429
  C      3.072723   -2.843117   -2.231342
  O      3.511263   -3.387476   -3.219901
  H      0.517488    2.559791   -0.936118
  H     -0.973689    1.619536   -1.069135
  H     -0.545141    2.385116    0.476710
  H      1.425221    0.882554    0.699058
  H     -0.064882   -0.054941    0.563331
  H      2.194124   -1.009938    0.968670
  H      3.485829   -1.715231    0.163685
  H      2.672010    0.162970   -3.387273
  H      2.918501   -1.400990   -4.232967
  H      1.280139   -0.865190   -3.751764
  H      3.049635   -3.328749   -1.243339

 Total Charge           Charge          ....    0
 Multiplicity           Mult            ....    1
 Number of Electrons    NEL             ....   70
 Basis Dimension        Dim             ....  345

ORBITAL ENERGIES
----------------

  NO   OCC          E(Eh)            E(eV)
   0   2.0000     -20.536350      -558.8225
   1   2.0000     -15.608780      -424.7365
   2   2.0000     -15.596866      -424.4123
   3   2.0000     -15.533814      -422.6966
   4   2.0000     -11.360931      -309.1466
   5   2.0000     -11.358341      -309.0762
   6   2.0000     -11.259151      -306.3771
   7   2.0000     -11.252321      -306.1912
   8   2.0000     -11.212948      -305.1198
   9   2.0000      -1.398227       -38.0477
  10   2.0000      -1.322569       -35.9889
  11   2.0000      -1.219260       -33.1777
  12   2.0000      -1.181150       -32.1407
  13   2.0000      -1.017300       -27.6821
  14   2.0000      -0.965224       -26.2651
  15   2.0000      -0.891779       -24.2665
  16   2.0000      -0.814365       -22.1600
  17   2.0000      -0.773893       -21.0587
  18   2.0000      -0.752391       -20.4736
  19   2.0000      -0.713976       -19.4283
  20   2.0000      -0.660538       -17.9742
  21   2.0000      -0.650095       -17.6900
  22   2.0000      -0.639085       -17.3904
  23   2.0000      -0.619350       -16.8534
  24   2.0000      -0.597604       -16.2616
  25   2.0000      -0.551615       -15.0102
  26   2.0000      -0.546437       -14.8693
  27   2.0000      -0.537848       -14.6356
  28   2.0000      -0.528054       -14.3691
  29   2.0000      -0.525621       -14.3029
  30   2.0000      -0.493761       -13.4359
  31   2.0000      -0.446801       -12.1581
  32   2.0000      -0.420112       -11.4318
  33   2.0000      -0.411670       -11.2021
  34   2.0000      -0.359874        -9.7927
  35   0.0000       0.112817         3.0699
  36   0.0000       0.133643         3.6366
  37   0.0000       0.153238         4.1698
  38   0.0000       0.156695         4.2639
  39   0.0000       0.182880         4.9764

MULLIKEN ATOMIC CHARGES
-----------------------
   0 C :   -0.348859
   1 C :   -0.160378
   2 N :   -0.290897
   3 C :    0.293424
   4 N :   -0.551185
   5 N :   -0.090249
   6 C :   -0.299022
   7 C :    0.115322
   8 O :   -0.340025
   9 H :    0.119973
  10 H :    0.128891
  11 H :    0.117358
  12 H :    0.079480
  13 H :    0.125815
  14 H :    0.257287
  15 H :    0.263400
  16 H :    0.137804
  17 H :    0.174868
  18 H :    0.147726
  19 H :    0.119268
Sum of atomic charges:    0.0000000

LOEWDIN ATOMIC CHARGES
----------------------
   0 C :   -0.318373
   1 C :   -0.337831
   2 N :    0.080272
   3 C :   -0.409479
   4 N :   -0.059994
   5 N :    0.184232
   6 C :   -0.272404
   7 C :   -0.394273
   8 O :    0.077252
   9 H :    0.121080
  10 H :    0.123514
  11 H :    0.118918
  12 H :    0.116810
  13 H :    0.128704
  14 H :    0.170783
  15 H :    0.172635
  16 H :    0.122433
  17 H :    0.131017
  18 H :    0.123655
  19 H :    0.121047

  Mayer bond orders larger than 0.1
B(  0-C ,  1-C ) :   0.9563 B(  0-C ,  9-H ) :   0.9360 B(  0-C , 10-H ) :   0.9401
B(  0-C , 11-H ) :   0.9354 B(  1-C ,  2-N ) :   0.9031 B(  1-C , 12-H ) :   0.9137
B(  1-C , 13-H ) :   0.9166 B(  2-N ,  3-C ) :   1.8059 B(  3-C ,  4-N ) :   1.0430
B(  3-C ,  5-N ) :   1.0224 B(  4-N , 14-H ) :   0.8773 B(  4-N , 15-H ) :   0.8614
B(  5-N ,  6-C ) :   0.8572 B(  5-N ,  7-C ) :   1.0845 B(  6-C , 16-H ) :   0.9325
B(  6-C , 17-H ) :   0.9136 B(  6-C , 18-H ) :   0.9349 B(  7-C ,  8-O ) :   1.9117
B(  7-C , 19-H ) :   0.9302

MP2 TOTAL ENERGY:     -435.776429411 Eh
FINAL SINGLE POINT ENERGY      -435.776429410536

DIPOLE MOMENT
-------------
                                X             Y             Z
Electronic contribution:      5.30070      -8.50494      -3.11977
Nuclear contribution   :     -5.23353       9.29402       4.51565
                        -----------------------------------------
Total Dipole Moment    :      0.06717       0.78908       1.39587
                        -----------------------------------------
Magnitude (a.u.)       :      1.60487
Magnitude (Debye)      :      4.07926

                             ****ORCA TERMINATED NORMALLY****
TOTAL RUN TIME: 0 days 0 hours 16 minutes 42 seconds 898 msec
