                         Program Version 3.0.3 - RELEASE   -
|  1> ! RI-MP2 RIJK def2-TZVP def2-TZVP/C def2-TZVP/JK TIGHTSCF
|  2> % maxcore 2000
|  3> % mp2 density relaxed end
|  4> *xyz 0 1
|  5>  N       -0.1337197708     1.3647046809    -0.0747175239
|  6>  C        0.1211720349     0.0137624546     0.1316758983
|  7>  O        1.1972834564    -0.4232412389     0.4496197047
|  8>  N       -1.0489402135    -0.7533646140     0.0087837518
|  9>  C       -1.0938179074    -2.1502510507    -0.1306540194
| 10>  N       -2.3737197471    -2.6422161148     0.0983313252
| 11>  O       -0.1660276261    -2.8347703798    -0.4780944925
| 12>  H        0.7140445014     1.9118881064    -0.1032930579
| 13>  H       -0.8047564175     1.6131491867    -0.7867169863
| 14>  H       -1.9282671418    -0.2612337717     0.0217311319
| 15>  H       -2.9202493093    -2.2092247063     0.8282504036
| 16>  H       -2.3962605493    -3.6512515025     0.1147632045
| 17> *
| 18>
| 19>                          ****END OF INPUT****

CARTESIAN COORDINATES (ANGSTROEM)
---------------------------------
  N     -0.133720    1.364705   -0.074718
  C      0.121172    0.013762    0.131676
  O      1.197283   -0.423241    0.449620
  N     -1.048940   -0.753365    0.008784
  C     -1.093818   -2.150251   -0.130654
  N     -2.373720   -2.642216    0.098331
  O     -0.166028   -2.834770   -0.478094
  H      0.714045    1.911888   -0.103293
  H     -0.804756    1.613149   -0.786717
  H     -1.928267   -0.261234    0.021731
  H     -2.920249   -2.209225    0.828250
  H     -2.396261   -3.651252    0.114763

 Total Charge           Charge          ....    0
 Multiplicity           Mult            ....    1
 Number of Electrons    NEL             ....   54
 Basis Dimension        Dim             ....  247

ORBITAL ENERGIES
----------------

  NO   OCC          E(Eh)            E(eV)
   0   2.0000     -20.527576      -558.5838
   1   2.0000     -20.527574      -558.5837
   2   2.0000     -15.614471      -424.8913
   3   2.0000     -15.593719      -424.3267
   4   2.0000     -15.593719      -424.3267
   5   2.0000     -11.395527      -310.0881
   6   2.0000     -11.395512      -310.0876
   7   2.0000      -1.422908       -38.7193
   8   2.0000      -1.395569       -37.9754
   9   2.0000      -1.268003       -34.5041
  10   2.0000      -1.224891       -33.3310
  11   2.0000      -1.188976       -32.3537
  12   2.0000      -0.898376       -24.4461
  13   2.0000      -0.791537       -21.5388
  14   2.0000      -0.769662       -20.9436
  15   2.0000      -0.746182       -20.3047
  16   2.0000      -0.703922       -19.1547
  17   2.0000      -0.670168       -18.2362
  18   2.0000      -0.640996       -17.4424
  19   2.0000      -0.621891       -16.9225
  20   2.0000      -0.618492       -16.8300
  21   2.0000      -0.577015       -15.7014
  22   2.0000      -0.477817       -13.0021
  23   2.0000      -0.451994       -12.2994
  24   2.0000      -0.438239       -11.9251
  25   2.0000      -0.434339       -11.8190
  26   2.0000      -0.432535       -11.7699
  27   0.0000       0.102461         2.7881
  28   0.0000       0.128522         3.4973
  29   0.0000       0.157740         4.2923
  30   0.0000       0.174203         4.7403
  31   0.0000       0.184364         5.0168

MULLIKEN ATOMIC CHARGES
-----------------------
   0 N :   -0.533523
   1 C :    0.390997
   2 O :   -0.313175
   3 N :   -0.378576
   4 C :    0.390997
   5 N :   -0.533523
   6 O :   -0.313175
   7 H :    0.270750
   8 H :    0.253176
   9 H :    0.242124
  10 H :    0.253176
  11 H :    0.270750
Sum of atomic charges:   -0.0000000

LOEWDIN ATOMIC CHARGES
----------------------
   0 N :   -0.068385
   1 C :   -0.543791
   2 O :    0.115660
   3 N :    0.112500
   4 C :   -0.543791
   5 N :   -0.068384
   6 O :    0.115660
   7 H :    0.178308
   8 H :    0.166885
   9 H :    0.190146
  10 H :    0.166885
  11 H :    0.178308

  Mayer bond orders larger than 0.1
B(  0-N ,  1-C ) :   1.0863 B(  0-N ,  7-H ) :   0.8678 B(  0-N ,  8-H ) :   0.8684
B(  1-C ,  2-O ) :   2.0255 B(  1-C ,  3-N ) :   0.9781 B(  3-N ,  4-C ) :   0.9781
B(  3-N ,  9-H ) :   0.8689 B(  4-C ,  5-N ) :   1.0863 B(  4-C ,  6-O ) :   2.0255
B(  5-N , 10-H ) :   0.8684 B(  5-N , 11-H ) :   0.8678

MP2 TOTAL ENERGY:     -393.305967658 Eh
FINAL SINGLE POINT ENERGY      -393.305967657766

DIPOLE MOMENT
-------------
                                X             Y             Z
Electronic contribution:      2.46662      -1.38049      -0.03631
Nuclear contribution   :     -4.47871       2.50660       0.06593
                        -----------------------------------------
Total Dipole Moment    :     -2.01209       1.12610       0.02962
                        -----------------------------------------
Magnitude (a.u.)       :      2.30597
Magnitude (Debye)      :      5.86130

                             ****ORCA TERMINATED NORMALLY****
TOTAL RUN TIME: 0 days 0 hours 5 minutes 21 seconds 860 msec
