                         Program Version 3.0.3 - RELEASE   -
|  1> ! RI-MP2 RIJK def2-TZVP def2-TZVP/C def2-TZVP/JK TIGHTSCF
|  2> % maxcore 2000
|  3> % mp2 density relaxed end
|  4> *xyz 0 1
|  5>  O        0.2206318666     1.4714527424    -0.0219282384
|  6>  C        0.1560999335     0.0624084249    -0.1414956176
|  7>  C       -1.3426235882    -0.3435475641    -0.2032860493
|  8>  O       -1.8125656490    -1.3012952572     0.3454889318
|  9>  C        0.7608554588    -0.3647768855    -1.4011307018
| 10>  C        1.2050360570    -0.7623807547    -2.4444914921
| 11>  C        0.8351086782    -0.6155242425     1.0524501697
| 12>  C        2.0942064350    -0.0919130314     1.5780943509
| 13>  O        0.8411105085     0.1926705155     2.2322111991
| 14>  H        0.2146170652     1.6392374320     0.9349977457
| 15>  H       -1.9430267267     0.3718251614    -0.8027224605
| 16>  H        1.6130241455    -1.1022491239    -3.3650786735
| 17>  H        0.5578916803    -1.6545951187     1.2020903964
| 18>  H        2.7592144775    -0.7485216663     2.1335435452
| 19>  H        2.5598342678     0.7606996482     1.0900221045
| 20> *
| 21>
| 22>                          ****END OF INPUT****

CARTESIAN COORDINATES (ANGSTROEM)
---------------------------------
  O      0.220632    1.471453   -0.021928
  C      0.156100    0.062408   -0.141496
  C     -1.342624   -0.343548   -0.203286
  O     -1.812566   -1.301295    0.345489
  C      0.760855   -0.364777   -1.401131
  C      1.205036   -0.762381   -2.444491
  C      0.835109   -0.615524    1.052450
  C      2.094206   -0.091913    1.578094
  O      0.841111    0.192671    2.232211
  H      0.214617    1.639237    0.934998
  H     -1.943027    0.371825   -0.802722
  H      1.613024   -1.102249   -3.365079
  H      0.557892   -1.654595    1.202090
  H      2.759214   -0.748522    2.133544
  H      2.559834    0.760700    1.090022

 Total Charge           Charge          ....    0
 Multiplicity           Mult            ....    1
 Number of Electrons    NEL             ....   66
 Basis Dimension        Dim             ....  315

ORBITAL ENERGIES
----------------

  NO   OCC          E(Eh)            E(eV)
   0   2.0000     -20.596899      -560.4701
   1   2.0000     -20.587330      -560.2097
   2   2.0000     -20.578521      -559.9700
   3   2.0000     -11.349769      -308.8429
   4   2.0000     -11.347549      -308.7825
   5   2.0000     -11.314769      -307.8905
   6   2.0000     -11.305134      -307.6283
   7   2.0000     -11.258300      -306.3539
   8   2.0000     -11.254035      -306.2379
   9   2.0000      -1.446022       -39.3482
  10   2.0000      -1.419139       -38.6167
  11   2.0000      -1.391915       -37.8759
  12   2.0000      -1.095549       -29.8114
  13   2.0000      -1.010641       -27.5009
  14   2.0000      -0.947588       -25.7852
  15   2.0000      -0.881974       -23.9997
  16   2.0000      -0.827138       -22.5076
  17   2.0000      -0.758270       -20.6336
  18   2.0000      -0.740081       -20.1386
  19   2.0000      -0.726567       -19.7709
  20   2.0000      -0.686313       -18.6755
  21   2.0000      -0.665918       -18.1206
  22   2.0000      -0.661084       -17.9890
  23   2.0000      -0.617099       -16.7921
  24   2.0000      -0.570257       -15.5175
  25   2.0000      -0.547068       -14.8865
  26   2.0000      -0.536452       -14.5976
  27   2.0000      -0.526805       -14.3351
  28   2.0000      -0.487760       -13.2726
  29   2.0000      -0.481789       -13.1101
  30   2.0000      -0.443452       -12.0669
  31   2.0000      -0.420700       -11.4478
  32   2.0000      -0.401421       -10.9232
  33   0.0000       0.104981         2.8567
  34   0.0000       0.143647         3.9088
  35   0.0000       0.147512         4.0140
  36   0.0000       0.158982         4.3261
  37   0.0000       0.172354         4.6900

MULLIKEN ATOMIC CHARGES
-----------------------
   0 O :   -0.457564
   1 C :    0.190990
   2 C :    0.064475
   3 O :   -0.248528
   4 C :   -0.061485
   5 C :   -0.114995
   6 C :   -0.050667
   7 C :   -0.067103
   8 O :   -0.347053
   9 H :    0.342253
  10 H :    0.110986
  11 H :    0.201152
  12 H :    0.159643
  13 H :    0.133312
  14 H :    0.144582
Sum of atomic charges:    0.0000000

LOEWDIN ATOMIC CHARGES
----------------------
   0 O :    0.041582
   1 C :   -0.372859
   2 C :   -0.229572
   3 O :    0.159206
   4 C :   -0.055890
   5 C :   -0.054639
   6 C :   -0.242435
   7 C :   -0.241461
   8 O :    0.141514
   9 H :    0.188587
  10 H :    0.125118
  11 H :    0.132211
  12 H :    0.153113
  13 H :    0.125644
  14 H :    0.129881

  Mayer bond orders larger than 0.1
B(  0-O ,  1-C ) :   1.1105 B(  0-O ,  4-C ) :  -0.1349 B(  0-O ,  9-H ) :   0.7985
B(  1-C ,  2-C ) :   0.8170 B(  1-C ,  4-C ) :   1.0782 B(  1-C ,  6-C ) :   0.8766
B(  2-C ,  3-O ) :   2.0027 B(  2-C , 10-H ) :   0.9382 B(  4-C ,  5-C ) :   2.5958
B(  5-C , 11-H ) :   0.8918 B(  6-C ,  7-C ) :   0.9863 B(  6-C ,  8-O ) :   0.9082
B(  6-C , 12-H ) :   0.8953 B(  7-C ,  8-O ) :   0.8591 B(  7-C , 13-H ) :   0.9257
B(  7-C , 14-H ) :   0.9049

MP2 TOTAL ENERGY:     -456.956439752 Eh
FINAL SINGLE POINT ENERGY      -456.956439751594

DIPOLE MOMENT
-------------
                                X             Y             Z
Electronic contribution:     -2.77603      -0.31380      -0.44817
Nuclear contribution   :      3.66942       0.23246       0.10614
                        -----------------------------------------
Total Dipole Moment    :      0.89338      -0.08134      -0.34203
                        -----------------------------------------
Magnitude (a.u.)       :      0.96007
Magnitude (Debye)      :      2.44031

                             ****ORCA TERMINATED NORMALLY****
TOTAL RUN TIME: 0 days 0 hours 15 minutes 37 seconds 392 msec
