                         Program Version 3.0.3 - RELEASE   -
|  1> ! RI-MP2 RIJK def2-TZVP def2-TZVP/C def2-TZVP/JK TIGHTSCF
|  2> % maxcore 2000
|  3> % mp2 density relaxed end
|  4> *xyz 0 1
|  5>  O       -0.1500771696     1.5381338903     0.0728104820
|  6>  C        0.0557609022     0.1324902618     0.0953790186
|  7>  C       -1.2906498447    -0.5149292542    -0.0847759460
|  8>  C       -2.2913169159    -0.5113541487     1.0838633279
|  9>  O       -2.5575445824    -1.9293358043     0.9264863939
| 10>  C       -1.5411262188    -2.0623544763    -0.0912678735
| 11>  C       -2.1818287820    -1.9152074418    -1.4934475400
| 12>  O       -2.6262765913    -2.6873709149    -2.2888376509
| 13>  C       -1.9827812031    -0.3841607771    -1.4735667568
| 14>  H        0.6991685879     1.9729644449     0.1958890790
| 15>  H        0.7346298754    -0.1880982937    -0.7120619658
| 16>  H        0.5017502371    -0.1929558042     1.0488140240
| 17>  H       -1.8438053544    -0.3032583261     2.0636820775
| 18>  H       -3.1929774146     0.0979233890     0.9606982901
| 19>  H       -0.8177765057    -2.8570864388     0.1135980385
| 20>  H       -2.8903544677     0.2230751817    -1.5214449543
| 21>  H       -1.3083243626    -0.0550896974    -2.2711238240
| 22> *
| 23>
| 24>                          ****END OF INPUT****

CARTESIAN COORDINATES (ANGSTROEM)
---------------------------------
  O     -0.150077    1.538134    0.072810
  C      0.055761    0.132490    0.095379
  C     -1.290650   -0.514929   -0.084776
  C     -2.291317   -0.511354    1.083863
  O     -2.557545   -1.929336    0.926486
  C     -1.541126   -2.062354   -0.091268
  C     -2.181829   -1.915207   -1.493448
  O     -2.626277   -2.687371   -2.288838
  C     -1.982781   -0.384161   -1.473567
  H      0.699169    1.972964    0.195889
  H      0.734630   -0.188098   -0.712062
  H      0.501750   -0.192956    1.048814
  H     -1.843805   -0.303258    2.063682
  H     -3.192977    0.097923    0.960698
  H     -0.817777   -2.857086    0.113598
  H     -2.890354    0.223075   -1.521445
  H     -1.308324   -0.055090   -2.271124

 Total Charge           Charge          ....    0
 Multiplicity           Mult            ....    1
 Number of Electrons    NEL             ....   68
 Basis Dimension        Dim             ....  327

ORBITAL ENERGIES
----------------

  NO   OCC          E(Eh)            E(eV)
   0   2.0000     -20.578343      -559.9652
   1   2.0000     -20.570475      -559.7511
   2   2.0000     -20.561552      -559.5083
   3   2.0000     -11.337382      -308.5058
   4   2.0000     -11.303441      -307.5823
   5   2.0000     -11.301449      -307.5281
   6   2.0000     -11.293165      -307.3026
   7   2.0000     -11.260905      -306.4248
   8   2.0000     -11.248538      -306.0883
   9   2.0000      -1.410170       -38.3727
  10   2.0000      -1.392249       -37.8850
  11   2.0000      -1.381639       -37.5963
  12   2.0000      -1.130376       -30.7591
  13   2.0000      -0.999570       -27.1997
  14   2.0000      -0.944116       -25.6907
  15   2.0000      -0.905941       -24.6519
  16   2.0000      -0.786568       -21.4036
  17   2.0000      -0.735632       -20.0176
  18   2.0000      -0.725883       -19.7523
  19   2.0000      -0.686643       -18.6845
  20   2.0000      -0.680625       -18.5207
  21   2.0000      -0.654078       -17.7984
  22   2.0000      -0.643286       -17.5047
  23   2.0000      -0.608524       -16.5588
  24   2.0000      -0.598697       -16.2914
  25   2.0000      -0.581087       -15.8122
  26   2.0000      -0.573269       -15.5994
  27   2.0000      -0.522138       -14.2081
  28   2.0000      -0.512178       -13.9371
  29   2.0000      -0.480095       -13.0640
  30   2.0000      -0.462012       -12.5720
  31   2.0000      -0.458059       -12.4644
  32   2.0000      -0.446985       -12.1631
  33   2.0000      -0.392365       -10.6768
  34   0.0000       0.111658         3.0384
  35   0.0000       0.116582         3.1724
  36   0.0000       0.144706         3.9376
  37   0.0000       0.163331         4.4445
  38   0.0000       0.171465         4.6658

MULLIKEN ATOMIC CHARGES
-----------------------
   0 O :   -0.462431
   1 C :   -0.114682
   2 C :    0.093737
   3 C :   -0.033253
   4 O :   -0.322641
   5 C :    0.069773
   6 C :    0.093875
   7 O :   -0.234999
   8 C :   -0.234184
   9 H :    0.318835
  10 H :    0.104707
  11 H :    0.110382
  12 H :    0.101417
  13 H :    0.105854
  14 H :    0.117729
  15 H :    0.141660
  16 H :    0.144221
Sum of atomic charges:    0.0000000

LOEWDIN ATOMIC CHARGES
----------------------
   0 O :   -0.038444
   1 C :   -0.317707
   2 C :   -0.228817
   3 C :   -0.214439
   4 O :    0.147119
   5 C :   -0.181017
   6 C :   -0.286522
   7 O :    0.178730
   8 C :   -0.162546
   9 H :    0.175218
  10 H :    0.123135
  11 H :    0.124101
  12 H :    0.124729
  13 H :    0.123515
  14 H :    0.131591
  15 H :    0.147071
  16 H :    0.154284

  Mayer bond orders larger than 0.1
B(  0-O ,  1-C ) :   1.0395 B(  0-O ,  2-C ) :  -0.1045 B(  0-O ,  9-H ) :   0.8454
B(  1-C ,  2-C ) :   0.9234 B(  1-C , 10-H ) :   0.9193 B(  1-C , 11-H ) :   0.9255
B(  2-C ,  3-C ) :   0.9676 B(  2-C ,  5-C ) :   0.9303 B(  2-C ,  8-C ) :   0.9057
B(  3-C ,  4-O ) :   0.9303 B(  3-C , 12-H ) :   0.9083 B(  3-C , 13-H ) :   0.9068
B(  4-O ,  5-C ) :   0.9237 B(  5-C ,  6-C ) :   0.8095 B(  5-C ,  8-C ) :  -0.1067
B(  5-C , 14-H ) :   0.9120 B(  6-C ,  7-O ) :   2.0325 B(  6-C ,  8-C ) :   0.8957
B(  8-C , 15-H ) :   0.8918 B(  8-C , 16-H ) :   0.8869

MP2 TOTAL ENERGY:     -458.191007648 Eh
FINAL SINGLE POINT ENERGY      -458.191007648184

DIPOLE MOMENT
-------------
                                X             Y             Z
Electronic contribution:     -2.94111      -4.40941      -2.00529
Nuclear contribution   :      4.34966       5.43162       2.47932
                        -----------------------------------------
Total Dipole Moment    :      1.40855       1.02222       0.47403
                        -----------------------------------------
Magnitude (a.u.)       :      1.80378
Magnitude (Debye)      :      4.58485

                             ****ORCA TERMINATED NORMALLY****
TOTAL RUN TIME: 0 days 0 hours 17 minutes 27 seconds 704 msec
