                         Program Version 3.0.3 - RELEASE   -
|  1> ! RI-MP2 RIJK def2-TZVP def2-TZVP/C def2-TZVP/JK TIGHTSCF
|  2> % maxcore 2000
|  3> % mp2 density relaxed end
|  4> *xyz 0 1
|  5>  C        0.0758017441     1.3831187884     0.0695069102
|  6>  N        0.2221687158    -0.0591365734     0.0595037560
|  7>  C        0.6528089656    -0.6399140541    -0.9600890041
|  8>  O        0.8152556414    -1.9777090762    -1.0640854899
|  9>  C        1.3520509189    -2.2505836693    -2.3565588875
| 10>  N        1.6330052950    -3.5439370725    -2.7449922875
| 11>  C        1.4600976640    -1.0796336833    -2.9810395276
| 12>  O        1.8445991940    -0.7580246336    -4.2185532906
| 13>  O        1.0418330208    -0.0528616488    -2.1650285902
| 14>  H        0.7045660129     1.8079213196     0.8607589133
| 15>  H        0.3359568065     1.8730083735    -0.8770467044
| 16>  H       -0.9605671576     1.6402263556     0.3163046006
| 17>  H        0.8098390061    -4.1360628044    -2.7910802762
| 18>  H        2.3257362602    -3.9945081278    -2.1559446892
| 19>  H        2.1215051522     0.1664517361    -4.2220846730
| 20> *
| 21>
| 22>                          ****END OF INPUT****

CARTESIAN COORDINATES (ANGSTROEM)
---------------------------------
  C      0.075802    1.383119    0.069507
  N      0.222169   -0.059137    0.059504
  C      0.652809   -0.639914   -0.960089
  O      0.815256   -1.977709   -1.064085
  C      1.352051   -2.250584   -2.356559
  N      1.633005   -3.543937   -2.744992
  C      1.460098   -1.079634   -2.981040
  O      1.844599   -0.758025   -4.218553
  O      1.041833   -0.052862   -2.165029
  H      0.704566    1.807921    0.860759
  H      0.335957    1.873008   -0.877047
  H     -0.960567    1.640226    0.316305
  H      0.809839   -4.136063   -2.791080
  H      2.325736   -3.994508   -2.155945
  H      2.121505    0.166452   -4.222085

 Total Charge           Charge          ....    0
 Multiplicity           Mult            ....    1
 Number of Electrons    NEL             ....   68
 Basis Dimension        Dim             ....  315

ORBITAL ENERGIES
----------------

  NO   OCC          E(Eh)            E(eV)
   0   2.0000     -20.639194      -561.6210
   1   2.0000     -20.624330      -561.2165
   2   2.0000     -20.616872      -561.0136
   3   2.0000     -15.579285      -423.9339
   4   2.0000     -15.538724      -422.8302
   5   2.0000     -11.400075      -310.2118
   6   2.0000     -11.372126      -309.4513
   7   2.0000     -11.321777      -308.0812
   8   2.0000     -11.246573      -306.0348
   9   2.0000      -1.529277       -41.6137
  10   2.0000      -1.447305       -39.3832
  11   2.0000      -1.390977       -37.8504
  12   2.0000      -1.238246       -33.6944
  13   2.0000      -1.210008       -32.9260
  14   2.0000      -1.019377       -27.7386
  15   2.0000      -0.944119       -25.6908
  16   2.0000      -0.857471       -23.3330
  17   2.0000      -0.829646       -22.5758
  18   2.0000      -0.784326       -21.3426
  19   2.0000      -0.724664       -19.7191
  20   2.0000      -0.711554       -19.3624
  21   2.0000      -0.676284       -18.4026
  22   2.0000      -0.653155       -17.7732
  23   2.0000      -0.642571       -17.4852
  24   2.0000      -0.625800       -17.0289
  25   2.0000      -0.594624       -16.1805
  26   2.0000      -0.577925       -15.7261
  27   2.0000      -0.574454       -15.6317
  28   2.0000      -0.561755       -15.2861
  29   2.0000      -0.556472       -15.1424
  30   2.0000      -0.452657       -12.3174
  31   2.0000      -0.420350       -11.4383
  32   2.0000      -0.418788       -11.3958
  33   2.0000      -0.321416        -8.7462
  34   0.0000       0.121782         3.3139
  35   0.0000       0.133368         3.6291
  36   0.0000       0.161246         4.3877
  37   0.0000       0.181102         4.9280
  38   0.0000       0.197202         5.3661

MULLIKEN ATOMIC CHARGES
-----------------------
   0 C :   -0.256526
   1 N :   -0.243569
   2 C :    0.309767
   3 O :   -0.215838
   4 C :    0.103393
   5 N :   -0.521292
   6 C :    0.251875
   7 O :   -0.409530
   8 O :   -0.270692
   9 H :    0.134492
  10 H :    0.115638
  11 H :    0.136017
  12 H :    0.257592
  13 H :    0.257290
  14 H :    0.351382
Sum of atomic charges:   -0.0000000

LOEWDIN ATOMIC CHARGES
----------------------
   0 C :   -0.331856
   1 N :    0.061934
   2 C :   -0.453270
   3 O :    0.294793
   4 C :   -0.367513
   5 N :   -0.082139
   6 C :   -0.400799
   7 O :    0.103904
   8 O :    0.279183
   9 H :    0.118121
  10 H :    0.105819
  11 H :    0.118421
  12 H :    0.172714
  13 H :    0.172888
  14 H :    0.207799

  Mayer bond orders larger than 0.1
B(  0-C ,  1-N ) :   0.8596 B(  0-C ,  9-H ) :   0.9347 B(  0-C , 10-H ) :   0.9289
B(  0-C , 11-H ) :   0.9363 B(  1-N ,  2-C ) :   1.9606 B(  2-C ,  3-O ) :   1.1024
B(  2-C ,  8-O ) :   0.9683 B(  3-O ,  4-C ) :   0.9243 B(  4-C ,  5-N ) :   1.1681
B(  4-C ,  6-C ) :   1.6992 B(  5-N , 12-H ) :   0.8755 B(  5-N , 13-H ) :   0.8737
B(  6-C ,  7-O ) :   1.1450 B(  6-C ,  8-O ) :   1.0187 B(  7-O , 14-H ) :   0.8127

MP2 TOTAL ENERGY:     -490.309682114 Eh
FINAL SINGLE POINT ENERGY      -490.309682113592

DIPOLE MOMENT
-------------
                                X             Y             Z
Electronic contribution:      1.17531      -2.89543      -2.67388
Nuclear contribution   :     -0.74406       3.08772       2.06295
                        -----------------------------------------
Total Dipole Moment    :      0.43124       0.19230      -0.61093
                        -----------------------------------------
Magnitude (a.u.)       :      0.77213
Magnitude (Debye)      :      1.96261

                             ****ORCA TERMINATED NORMALLY****
TOTAL RUN TIME: 0 days 0 hours 12 minutes 40 seconds 844 msec
