                         Program Version 3.0.3 - RELEASE   -
|  1> ! RI-MP2 RIJK def2-TZVP def2-TZVP/C def2-TZVP/JK TIGHTSCF
|  2> % maxcore 2000
|  3> % mp2 density relaxed end
|  4> *xyz 0 1
|  5>  C        0.0909312723     1.5403474269    -0.0120572079
|  6>  C        0.0507679129     0.0436439255     0.0004600777
|  7>  C        0.0511279083    -0.8085221871    -1.0766930534
|  8>  O        0.0243029791    -0.5925927990    -2.4206717805
|  9>  N        0.1044033681    -2.1050188350    -0.6478909089
| 10>  C        0.0685212067    -2.0999607562     0.7488954771
| 11>  O        0.0504917141    -3.2685716189     1.4600589239
| 12>  C        0.0571491689    -0.8010707285     1.1715502884
| 13>  N        0.1628657598    -0.3419436676     2.5033457024
| 14>  H        0.8330244156     1.9201672974     0.6998358945
| 15>  H        0.3701185121     1.9310132264    -0.9982702334
| 16>  H       -0.8714141952     2.0010457272     0.2513863069
| 17>  H       -0.1330098152     0.3449271459    -2.5681617837
| 18>  H       -0.1217241894    -2.9001702989    -1.2203717883
| 19>  H        0.9564306027    -3.5666630860     1.6111249452
| 20>  H        0.0171189771    -1.1094485219     3.1503163079
| 21>  H       -0.5295249378     0.3705545898     2.7093856622
| 22> *
| 23>
| 24>                          ****END OF INPUT****

CARTESIAN COORDINATES (ANGSTROEM)
---------------------------------
  C      0.090931    1.540347   -0.012057
  C      0.050768    0.043644    0.000460
  C      0.051128   -0.808522   -1.076693
  O      0.024303   -0.592593   -2.420672
  N      0.104403   -2.105019   -0.647891
  C      0.068521   -2.099961    0.748895
  O      0.050492   -3.268572    1.460059
  C      0.057149   -0.801071    1.171550
  N      0.162866   -0.341944    2.503346
  H      0.833024    1.920167    0.699836
  H      0.370119    1.931013   -0.998270
  H     -0.871414    2.001046    0.251386
  H     -0.133010    0.344927   -2.568162
  H     -0.121724   -2.900170   -1.220372
  H      0.956431   -3.566663    1.611125
  H      0.017119   -1.109449    3.150316
  H     -0.529525    0.370555    2.709386

 Total Charge           Charge          ....    0
 Multiplicity           Mult            ....    1
 Number of Electrons    NEL             ....   68
 Basis Dimension        Dim             ....  327

ORBITAL ENERGIES
----------------

  NO   OCC          E(Eh)            E(eV)
   0   2.0000     -20.594511      -560.4051
   1   2.0000     -20.583226      -560.0980
   2   2.0000     -15.588519      -424.1852
   3   2.0000     -15.549675      -423.1282
   4   2.0000     -11.313318      -307.8510
   5   2.0000     -11.285126      -307.0839
   6   2.0000     -11.241528      -305.8975
   7   2.0000     -11.225130      -305.4513
   8   2.0000     -11.205664      -304.9216
   9   2.0000      -1.415808       -38.5261
  10   2.0000      -1.395343       -37.9692
  11   2.0000      -1.266835       -34.4723
  12   2.0000      -1.188513       -32.3411
  13   2.0000      -1.050678       -28.5904
  14   2.0000      -0.964542       -26.2465
  15   2.0000      -0.920516       -25.0485
  16   2.0000      -0.793576       -21.5943
  17   2.0000      -0.781601       -21.2684
  18   2.0000      -0.744614       -20.2620
  19   2.0000      -0.689853       -18.7719
  20   2.0000      -0.680358       -18.5135
  21   2.0000      -0.634771       -17.2730
  22   2.0000      -0.631632       -17.1876
  23   2.0000      -0.612433       -16.6651
  24   2.0000      -0.599179       -16.3045
  25   2.0000      -0.567472       -15.4417
  26   2.0000      -0.560112       -15.2414
  27   2.0000      -0.545852       -14.8534
  28   2.0000      -0.514867       -14.0103
  29   2.0000      -0.512393       -13.9429
  30   2.0000      -0.486017       -13.2252
  31   2.0000      -0.460607       -12.5337
  32   2.0000      -0.317629        -8.6431
  33   2.0000      -0.262324        -7.1382
  34   0.0000       0.119494         3.2516
  35   0.0000       0.137189         3.7331
  36   0.0000       0.152297         4.1442
  37   0.0000       0.171046         4.6544
  38   0.0000       0.191245         5.2040

MULLIKEN ATOMIC CHARGES
-----------------------
   0 C :   -0.456600
   1 C :   -0.064917
   2 C :    0.203787
   3 O :   -0.434030
   4 N :   -0.273703
   5 C :    0.100309
   6 O :   -0.470257
   7 C :    0.098691
   8 N :   -0.535261
   9 H :    0.162281
  10 H :    0.106155
  11 H :    0.144024
  12 H :    0.336724
  13 H :    0.250851
  14 H :    0.342249
  15 H :    0.241440
  16 H :    0.248257
Sum of atomic charges:   -0.0000000

LOEWDIN ATOMIC CHARGES
----------------------
   0 C :   -0.285730
   1 C :   -0.201414
   2 C :   -0.348766
   3 O :    0.055013
   4 N :    0.185931
   5 C :   -0.369333
   6 O :    0.029536
   7 C :   -0.255504
   8 N :   -0.106888
   9 H :    0.135355
  10 H :    0.122641
  11 H :    0.125561
  12 H :    0.195583
  13 H :    0.193394
  14 H :    0.192051
  15 H :    0.166991
  16 H :    0.165576

  Mayer bond orders larger than 0.1
B(  0-C ,  1-C ) :   0.8514 B(  0-C ,  9-H ) :   0.9436 B(  0-C , 10-H ) :   0.9407
B(  0-C , 11-H ) :   0.9397 B(  1-C ,  2-C ) :   1.4867 B(  1-C ,  7-C ) :   1.1436
B(  2-C ,  3-O ) :   1.1068 B(  2-C ,  4-N ) :   1.1445 B(  3-O , 12-H ) :   0.8288
B(  4-N ,  5-C ) :   1.0627 B(  4-N , 13-H ) :   0.8596 B(  5-C ,  6-O ) :   1.1594
B(  5-C ,  7-C ) :   1.5165 B(  6-O , 14-H ) :   0.8288 B(  7-C ,  8-N ) :   0.9673
B(  8-N , 15-H ) :   0.8862 B(  8-N , 16-H ) :   0.8782

MP2 TOTAL ENERGY:     -454.432880969 Eh
FINAL SINGLE POINT ENERGY      -454.432880969367

DIPOLE MOMENT
-------------
                                X             Y             Z
Electronic contribution:     -0.00975      -6.09314      -2.07768
Nuclear contribution   :     -0.05578       6.20324       1.97660
                        -----------------------------------------
Total Dipole Moment    :     -0.06554       0.11010      -0.10108
                        -----------------------------------------
Magnitude (a.u.)       :      0.16320
Magnitude (Debye)      :      0.41482

                             ****ORCA TERMINATED NORMALLY****
TOTAL RUN TIME: 0 days 0 hours 16 minutes 0 seconds 121 msec
