                         Program Version 3.0.3 - RELEASE   -
|  1> ! RI-MP2 RIJK def2-TZVP def2-TZVP/C def2-TZVP/JK TIGHTSCF
|  2> % maxcore 2000
|  3> % mp2 density relaxed end
|  4> *xyz 0 1
|  5>  O       -0.2977495048     0.6548703801     1.2024731001
|  6>  C       -0.1554215540     1.3306136383     0.2136321669
|  7>  C       -1.2504982000     1.6953623131    -0.7711770572
|  8>  C       -1.4679134283     3.2346981156    -0.7230763042
|  9>  C       -0.1480184527     3.9716414182    -0.4375684573
| 10>  C        0.4028512171     3.9536356172     1.0420830152
| 11>  C        1.5829958192     3.0896790905     0.5735550625
| 12>  C        1.1080115430     3.1747826384    -0.8534345943
| 13>  N        1.0848723219     1.9171973406    -0.1289729067
| 14>  H       -0.9197512678     1.4102381038    -1.7762871516
| 15>  H       -2.1594084305     1.1421552177    -0.5334973095
| 16>  H       -1.8984719224     3.5694320013    -1.6722618633
| 17>  H       -2.1962886691     3.4814158024     0.0567645951
| 18>  H       -0.1703152449     4.9886455263    -0.8331565666
| 19>  H        0.7167174553     4.9498182572     1.3610031392
| 20>  H       -0.2336147025     3.5149882991     1.8162825987
| 21>  H        2.5874964598     3.0675854764     0.9775820645
| 22>  H        1.6688258005     3.2366197037    -1.7790513113
| 23> *
| 24>
| 25>                          ****END OF INPUT****

CARTESIAN COORDINATES (ANGSTROEM)
---------------------------------
  O     -0.297750    0.654870    1.202473
  C     -0.155422    1.330614    0.213632
  C     -1.250498    1.695362   -0.771177
  C     -1.467913    3.234698   -0.723076
  C     -0.148018    3.971641   -0.437568
  C      0.402851    3.953636    1.042083
  C      1.582996    3.089679    0.573555
  C      1.108012    3.174783   -0.853435
  N      1.084872    1.917197   -0.128973
  H     -0.919751    1.410238   -1.776287
  H     -2.159408    1.142155   -0.533497
  H     -1.898472    3.569432   -1.672262
  H     -2.196289    3.481416    0.056765
  H     -0.170315    4.988646   -0.833157
  H      0.716717    4.949818    1.361003
  H     -0.233615    3.514988    1.816283
  H      2.587496    3.067585    0.977582
  H      1.668826    3.236620   -1.779051

 Total Charge           Charge          ....    0
 Multiplicity           Mult            ....    1
 Number of Electrons    NEL             ....   66
 Basis Dimension        Dim             ....  333

ORBITAL ENERGIES
----------------

  NO   OCC          E(Eh)            E(eV)
   0   2.0000     -20.532885      -558.7282
   1   2.0000     -15.578831      -423.9216
   2   2.0000     -11.346931      -308.7657
   3   2.0000     -11.280825      -306.9669
   4   2.0000     -11.275464      -306.8210
   5   2.0000     -11.253233      -306.2160
   6   2.0000     -11.244141      -305.9686
   7   2.0000     -11.242507      -305.9242
   8   2.0000     -11.241122      -305.8865
   9   2.0000      -1.394025       -37.9333
  10   2.0000      -1.310709       -35.6662
  11   2.0000      -1.089389       -29.6438
  12   2.0000      -1.064385       -28.9634
  13   2.0000      -0.931699       -25.3528
  14   2.0000      -0.904880       -24.6230
  15   2.0000      -0.871046       -23.7024
  16   2.0000      -0.751052       -20.4372
  17   2.0000      -0.721213       -19.6252
  18   2.0000      -0.700827       -19.0705
  19   2.0000      -0.676288       -18.4027
  20   2.0000      -0.649320       -17.6689
  21   2.0000      -0.614269       -16.7151
  22   2.0000      -0.613406       -16.6916
  23   2.0000      -0.567435       -15.4407
  24   2.0000      -0.563100       -15.3227
  25   2.0000      -0.530147       -14.4260
  26   2.0000      -0.494096       -13.4450
  27   2.0000      -0.484028       -13.1711
  28   2.0000      -0.475038       -12.9264
  29   2.0000      -0.465196       -12.6586
  30   2.0000      -0.460633       -12.5345
  31   2.0000      -0.402463       -10.9516
  32   2.0000      -0.393609       -10.7106
  33   0.0000       0.124355         3.3839
  34   0.0000       0.152149         4.1402
  35   0.0000       0.159738         4.3467
  36   0.0000       0.165509         4.5037
  37   0.0000       0.172215         4.6862

MULLIKEN ATOMIC CHARGES
-----------------------
   0 O :   -0.281921
   1 C :    0.177121
   2 C :   -0.197384
   3 C :   -0.291827
   4 C :   -0.035405
   5 C :   -0.246560
   6 C :   -0.109130
   7 C :   -0.058950
   8 N :   -0.155289
   9 H :    0.132803
  10 H :    0.138877
  11 H :    0.128053
  12 H :    0.127884
  13 H :    0.121420
  14 H :    0.128965
  15 H :    0.135381
  16 H :    0.142060
  17 H :    0.143902
Sum of atomic charges:   -0.0000000

LOEWDIN ATOMIC CHARGES
----------------------
   0 O :    0.139927
   1 C :   -0.408142
   2 C :   -0.218478
   3 C :   -0.232458
   4 C :   -0.199203
   5 C :   -0.192458
   6 C :   -0.190213
   7 C :   -0.178776
   8 N :    0.204786
   9 H :    0.153145
  10 H :    0.146039
  11 H :    0.139474
  12 H :    0.143539
  13 H :    0.149057
  14 H :    0.139188
  15 H :    0.135090
  16 H :    0.135363
  17 H :    0.134120

  Mayer bond orders larger than 0.1
B(  0-O ,  1-C ) :   2.0555 B(  1-C ,  2-C ) :   0.9358 B(  1-C ,  8-N ) :   0.9971
B(  2-C ,  3-C ) :   0.9322 B(  2-C ,  9-H ) :   0.9048 B(  2-C , 10-H ) :   0.9194
B(  3-C ,  4-C ) :   0.9041 B(  3-C , 11-H ) :   0.9295 B(  3-C , 12-H ) :   0.9218
B(  4-C ,  5-C ) :   0.9400 B(  4-C ,  7-C ) :   0.8764 B(  4-C , 13-H ) :   0.9172
B(  5-C ,  6-C ) :   0.9191 B(  5-C , 14-H ) :   0.9145 B(  5-C , 15-H ) :   0.9149
B(  6-C ,  7-C ) :   0.8331 B(  6-C ,  8-N ) :   0.9079 B(  6-C , 16-H ) :   0.9295
B(  7-C ,  8-N ) :   0.8770 B(  7-C , 17-H ) :   0.9235

MP2 TOTAL ENERGY:     -401.252922089 Eh
FINAL SINGLE POINT ENERGY      -401.252922088559

DIPOLE MOMENT
-------------
                                X             Y             Z
Electronic contribution:      2.89913      -4.70926       1.64394
Nuclear contribution   :     -3.03814       6.08531      -2.46207
                        -----------------------------------------
Total Dipole Moment    :     -0.13901       1.37605      -0.81813
                        -----------------------------------------
Magnitude (a.u.)       :      1.60692
Magnitude (Debye)      :      4.08446

                             ****ORCA TERMINATED NORMALLY****
TOTAL RUN TIME: 0 days 0 hours 20 minutes 42 seconds 936 msec
