                         Program Version 3.0.3 - RELEASE   -
|  1> ! RI-MP2 RIJK def2-TZVP def2-TZVP/C def2-TZVP/JK TIGHTSCF
|  2> % maxcore 2000
|  3> % mp2 density relaxed end
|  4> *xyz 0 1
|  5>  O       -0.0050985845     1.4428518664     0.0070192175
|  6>  C       -0.0005047830     0.0280178225     0.0019265166
|  7>  C       -1.4141400875    -0.4748104016     0.0126860976
|  8>  C       -2.5114587163     0.3315552670     0.0241608743
|  9>  N       -3.8140287427    -0.1143748994     0.0339273979
| 10>  C       -3.9692059450    -1.3989116479     0.0317091050
| 11>  N       -2.9423789533    -2.2873486853     0.0206903981
| 12>  C       -1.5843915349    -1.9155973217     0.0103811821
| 13>  O       -0.7033956208    -2.7586931392     0.0002207770
| 14>  H        0.9073583475     1.7436661627     0.0005450053
| 15>  H        0.5129947669    -0.3796193190    -0.8838519168
| 16>  H        0.5286224233    -0.3860284726     0.8754205453
| 17>  H       -2.3837147079     1.4079818607     0.0260317877
| 18>  H       -4.9683686642    -1.8275008196     0.0388772621
| 19>  H       -3.1200403877    -3.2835624531     0.0194129402
| 20> *
| 21>
| 22>                          ****END OF INPUT****

CARTESIAN COORDINATES (ANGSTROEM)
---------------------------------
  O     -0.005099    1.442852    0.007019
  C     -0.000505    0.028018    0.001927
  C     -1.414140   -0.474810    0.012686
  C     -2.511459    0.331555    0.024161
  N     -3.814029   -0.114375    0.033927
  C     -3.969206   -1.398912    0.031709
  N     -2.942379   -2.287349    0.020690
  C     -1.584392   -1.915597    0.010381
  O     -0.703396   -2.758693    0.000221
  H      0.907358    1.743666    0.000545
  H      0.512995   -0.379619   -0.883852
  H      0.528622   -0.386028    0.875421
  H     -2.383715    1.407982    0.026032
  H     -4.968369   -1.827501    0.038877
  H     -3.120040   -3.283562    0.019413

 Total Charge           Charge          ....    0
 Multiplicity           Mult            ....    1
 Number of Electrons    NEL             ....   66
 Basis Dimension        Dim             ....  315

ORBITAL ENERGIES
----------------

  NO   OCC          E(Eh)            E(eV)
   0   2.0000     -20.567145      -559.6605
   1   2.0000     -20.528094      -558.5978
   2   2.0000     -15.637413      -425.5156
   3   2.0000     -15.569696      -423.6730
   4   2.0000     -11.366766      -309.3054
   5   2.0000     -11.350372      -308.8593
   6   2.0000     -11.289644      -307.2068
   7   2.0000     -11.289188      -307.1944
   8   2.0000     -11.244346      -305.9742
   9   2.0000      -1.399498       -38.0823
  10   2.0000      -1.373520       -37.3754
  11   2.0000      -1.321431       -35.9580
  12   2.0000      -1.214119       -33.0379
  13   2.0000      -1.088015       -29.6064
  14   2.0000      -0.958035       -26.0695
  15   2.0000      -0.893316       -24.3084
  16   2.0000      -0.870236       -23.6803
  17   2.0000      -0.764441       -20.8015
  18   2.0000      -0.739226       -20.1154
  19   2.0000      -0.696511       -18.9530
  20   2.0000      -0.684573       -18.6282
  21   2.0000      -0.650914       -17.7123
  22   2.0000      -0.624760       -17.0006
  23   2.0000      -0.621194       -16.9035
  24   2.0000      -0.618265       -16.8238
  25   2.0000      -0.563804       -15.3419
  26   2.0000      -0.529739       -14.4149
  27   2.0000      -0.522967       -14.2306
  28   2.0000      -0.470254       -12.7963
  29   2.0000      -0.449037       -12.2189
  30   2.0000      -0.439700       -11.9648
  31   2.0000      -0.438347       -11.9280
  32   2.0000      -0.338790        -9.2189
  33   0.0000       0.090400         2.4599
  34   0.0000       0.125121         3.4047
  35   0.0000       0.134697         3.6653
  36   0.0000       0.141885         3.8609
  37   0.0000       0.172700         4.6994

MULLIKEN ATOMIC CHARGES
-----------------------
   0 O :   -0.468381
   1 C :   -0.042332
   2 C :   -0.012842
   3 C :   -0.055472
   4 N :   -0.274141
   5 C :    0.103932
   6 N :   -0.221308
   7 C :    0.177852
   8 O :   -0.353657
   9 H :    0.322681
  10 H :    0.123236
  11 H :    0.123310
  12 H :    0.167469
  13 H :    0.153608
  14 H :    0.256044
Sum of atomic charges:   -0.0000000

LOEWDIN ATOMIC CHARGES
----------------------
   0 O :   -0.035650
   1 C :   -0.298094
   2 C :   -0.141320
   3 C :   -0.161983
   4 N :    0.102435
   5 C :   -0.277603
   6 N :    0.193683
   7 C :   -0.402594
   8 O :    0.077376
   9 H :    0.177740
  10 H :    0.134264
  11 H :    0.134269
  12 H :    0.151782
  13 H :    0.139722
  14 H :    0.205976

  Mayer bond orders larger than 0.1
B(  0-O ,  1-C ) :   1.0191 B(  0-O ,  9-H ) :   0.8452 B(  1-C ,  2-C ) :   0.9279
B(  1-C , 10-H ) :   0.9217 B(  1-C , 11-H ) :   0.9217 B(  2-C ,  3-C ) :   1.5184
B(  2-C ,  7-C ) :   1.0287 B(  3-C ,  4-N ) :   1.1688 B(  3-C , 12-H ) :   0.9295
B(  4-N ,  5-C ) :   1.6211 B(  5-C ,  6-N ) :   1.1507 B(  5-C , 13-H ) :   0.9215
B(  6-N ,  7-C ) :   1.0609 B(  6-N , 14-H ) :   0.8487 B(  7-C ,  8-O ) :   1.9931

MP2 TOTAL ENERGY:     -453.267048200 Eh
FINAL SINGLE POINT ENERGY      -453.267048199652

DIPOLE MOMENT
-------------
                                X             Y             Z
Electronic contribution:     -2.32687      -2.09343       0.01479
Nuclear contribution   :      2.22518       1.84496      -0.01461
                        -----------------------------------------
Total Dipole Moment    :     -0.10169      -0.24847       0.00018
                        -----------------------------------------
Magnitude (a.u.)       :      0.26847
Magnitude (Debye)      :      0.68241

                             ****ORCA TERMINATED NORMALLY****
TOTAL RUN TIME: 0 days 0 hours 15 minutes 20 seconds 17 msec
