                         Program Version 3.0.3 - RELEASE   -
|  1> ! RI-MP2 RIJK def2-TZVP def2-TZVP/C def2-TZVP/JK TIGHTSCF
|  2> % maxcore 2000
|  3> % mp2 density relaxed end
|  4> *xyz 0 1
|  5>  C        1.0142982308     1.1215114336    -0.6660021678
|  6>  C        0.0794220619     0.1202648010    -0.0378445373
|  7>  N        0.6593988934    -1.1172740141     0.5015435822
|  8>  C        0.0268589150    -0.1663897208     1.4331050519
|  9>  C        0.9420584205     0.4517933723     2.4100341266
| 10>  N        0.6384547397     1.3289249985     3.3539848176
| 11>  C        1.8397802327     1.5457467253     3.9585912488
| 12>  N        2.8589278743     0.8653205315     3.4584483153
| 13>  N        2.2599804536     0.1698029480     2.4633345032
| 14>  H        1.9448357394     1.2062676208    -0.1007360689
| 15>  H        1.2637347974     0.8220079188    -1.6891576677
| 16>  H        0.5453916773     2.1098584178    -0.7049958505
| 17>  H       -0.8821922959     0.0222125239    -0.5402348249
| 18>  H        0.0564467464    -1.9175313721     0.3367344196
| 19>  H       -0.9529777370    -0.3972588463     1.8422982421
| 20>  H        1.9660275695     2.2220333057     4.7909216982
| 21>  H        2.7651605808    -0.4885568740     1.8919787416
| 22> *
| 23>
| 24>                          ****END OF INPUT****

CARTESIAN COORDINATES (ANGSTROEM)
---------------------------------
  C      1.014298    1.121511   -0.666002
  C      0.079422    0.120265   -0.037845
  N      0.659399   -1.117274    0.501544
  C      0.026859   -0.166390    1.433105
  C      0.942058    0.451793    2.410034
  N      0.638455    1.328925    3.353985
  C      1.839780    1.545747    3.958591
  N      2.858928    0.865321    3.458448
  N      2.259980    0.169803    2.463335
  H      1.944836    1.206268   -0.100736
  H      1.263735    0.822008   -1.689158
  H      0.545392    2.109858   -0.704996
  H     -0.882192    0.022213   -0.540235
  H      0.056447   -1.917531    0.336734
  H     -0.952978   -0.397259    1.842298
  H      1.966028    2.222033    4.790922
  H      2.765161   -0.488557    1.891979

 Total Charge           Charge          ....    0
 Multiplicity           Mult            ....    1
 Number of Electrons    NEL             ....   66
 Basis Dimension        Dim             ....  327

ORBITAL ENERGIES
----------------

  NO   OCC          E(Eh)            E(eV)
   0   2.0000     -15.638649      -425.5493
   1   2.0000     -15.586576      -424.1323
   2   2.0000     -15.583429      -424.0467
   3   2.0000     -15.549384      -423.1203
   4   2.0000     -11.315864      -307.9203
   5   2.0000     -11.289487      -307.2025
   6   2.0000     -11.287658      -307.1528
   7   2.0000     -11.280108      -306.9473
   8   2.0000     -11.231513      -305.6250
   9   2.0000      -1.405539       -38.2467
  10   2.0000      -1.290094       -35.1052
  11   2.0000      -1.190053       -32.3830
  12   2.0000      -1.110508       -30.2185
  13   2.0000      -1.008489       -27.4424
  14   2.0000      -0.938308       -25.5327
  15   2.0000      -0.843966       -22.9655
  16   2.0000      -0.833174       -22.6718
  17   2.0000      -0.807113       -21.9627
  18   2.0000      -0.732109       -19.9217
  19   2.0000      -0.714908       -19.4536
  20   2.0000      -0.634528       -17.2664
  21   2.0000      -0.628886       -17.1129
  22   2.0000      -0.597396       -16.2560
  23   2.0000      -0.588603       -16.0167
  24   2.0000      -0.577219       -15.7069
  25   2.0000      -0.538116       -14.6429
  26   2.0000      -0.502039       -13.6612
  27   2.0000      -0.489212       -13.3121
  28   2.0000      -0.484522       -13.1845
  29   2.0000      -0.443539       -12.0693
  30   2.0000      -0.429833       -11.6964
  31   2.0000      -0.408021       -11.1028
  32   2.0000      -0.353879        -9.6295
  33   0.0000       0.121102         3.2953
  34   0.0000       0.145731         3.9655
  35   0.0000       0.154264         4.1977
  36   0.0000       0.164196         4.4680
  37   0.0000       0.184841         5.0298

MULLIKEN ATOMIC CHARGES
-----------------------
   0 C :   -0.395601
   1 C :    0.022594
   2 N :   -0.410262
   3 C :   -0.146402
   4 C :    0.212191
   5 N :   -0.302976
   6 C :    0.038727
   7 N :   -0.226367
   8 N :   -0.118341
   9 H :    0.133740
  10 H :    0.137946
  11 H :    0.137654
  12 H :    0.128004
  13 H :    0.229134
  14 H :    0.145475
  15 H :    0.138409
  16 H :    0.276076
Sum of atomic charges:   -0.0000000

LOEWDIN ATOMIC CHARGES
----------------------
   0 C :   -0.290165
   1 C :   -0.268342
   2 N :    0.004596
   3 C :   -0.223604
   4 C :   -0.326450
   5 N :    0.099706
   6 C :   -0.346147
   7 N :    0.016132
   8 N :    0.155887
   9 H :    0.128826
  10 H :    0.129044
  11 H :    0.132243
  12 H :    0.140491
  13 H :    0.169470
  14 H :    0.153440
  15 H :    0.129556
  16 H :    0.195317

  Mayer bond orders larger than 0.1
B(  0-C ,  1-C ) :   0.9215 B(  0-C ,  9-H ) :   0.9346 B(  0-C , 10-H ) :   0.9359
B(  0-C , 11-H ) :   0.9348 B(  1-C ,  2-N ) :   0.8410 B(  1-C ,  3-C ) :   0.8848
B(  1-C , 12-H ) :   0.9210 B(  2-N ,  3-C ) :   0.9864 B(  2-N , 13-H ) :   0.8706
B(  3-C ,  4-C ) :   0.8917 B(  3-C , 14-H ) :   0.9391 B(  4-C ,  5-N ) :   1.5215
B(  4-C ,  8-N ) :   1.2333 B(  5-N ,  6-C ) :   1.2832 B(  6-C ,  7-N ) :   1.5162
B(  6-C , 15-H ) :   0.9388 B(  7-N ,  8-N ) :   1.0602 B(  8-N , 16-H ) :   0.8511

MP2 TOTAL ENERGY:     -413.492017221 Eh
FINAL SINGLE POINT ENERGY      -413.492017221257

DIPOLE MOMENT
-------------
                                X             Y             Z
Electronic contribution:      1.81296      -0.54381       7.17651
Nuclear contribution   :     -2.37443      -0.15090      -8.30863
                        -----------------------------------------
Total Dipole Moment    :     -0.56147      -0.69470      -1.13213
                        -----------------------------------------
Magnitude (a.u.)       :      1.44207
Magnitude (Debye)      :      3.66546

                             ****ORCA TERMINATED NORMALLY****
TOTAL RUN TIME: 0 days 0 hours 17 minutes 5 seconds 848 msec
