                         Program Version 3.0.3 - RELEASE   -
|  1> ! RI-MP2 RIJK def2-TZVP def2-TZVP/C def2-TZVP/JK TIGHTSCF
|  2> % maxcore 2000
|  3> % mp2 density relaxed end
|  4> *xyz 0 1
|  5>  C       -0.3556410320     1.2912011650    -0.0186909088
|  6>  O        0.3885012448     0.0948077256     0.1593548865
|  7>  C        0.7982294929    -0.4808486530    -1.0194157743
|  8>  C        0.0193404764    -1.5610985916    -1.7752482185
|  9>  O        1.2550955882    -2.2613683874    -2.0871441774
| 10>  C        2.0067151254    -1.3339522746    -1.2947195984
| 11>  C        1.9332065746     0.0595814449    -1.8764196077
| 12>  C        1.8722090900     0.3431587524    -3.3603466363
| 13>  H        0.2298371425     2.0507129701    -0.5540587265
| 14>  H       -1.2879161324     1.1121353558    -0.5723857344
| 15>  H       -0.6020154928     1.6627191500     0.9781863348
| 16>  H       -0.6068979519    -2.1628037693    -1.1071958987
| 17>  H       -0.5426022361    -1.2824908637    -2.6738358056
| 18>  H        2.8012030353    -1.7246461675    -0.6698937269
| 19>  H        2.5329863775     0.7522200889    -1.2868766593
| 20>  H        1.4125272453    -0.4926520581    -3.8935221768
| 21>  H        1.2997156918     1.2512326904    -3.5774478087
| 22>  H        2.8796554705     0.4778045521    -3.7682003728
| 23> *
| 24>
| 25>                          ****END OF INPUT****

CARTESIAN COORDINATES (ANGSTROEM)
---------------------------------
  C     -0.355641    1.291201   -0.018691
  O      0.388501    0.094808    0.159355
  C      0.798229   -0.480849   -1.019416
  C      0.019340   -1.561099   -1.775248
  O      1.255096   -2.261368   -2.087144
  C      2.006715   -1.333952   -1.294720
  C      1.933207    0.059581   -1.876420
  C      1.872209    0.343159   -3.360347
  H      0.229837    2.050713   -0.554059
  H     -1.287916    1.112135   -0.572386
  H     -0.602015    1.662719    0.978186
  H     -0.606898   -2.162804   -1.107196
  H     -0.542602   -1.282491   -2.673836
  H      2.801203   -1.724646   -0.669894
  H      2.532986    0.752220   -1.286877
  H      1.412527   -0.492652   -3.893522
  H      1.299716    1.251233   -3.577448
  H      2.879655    0.477805   -3.768200

 Total Charge           Charge          ....    0
 Multiplicity           Mult            ....    1
 Number of Electrons    NEL             ....   62
 Basis Dimension        Dim             ....  308

ORBITAL ENERGIES
----------------

  NO   OCC          E(Eh)            E(eV)
   0   2.0000     -20.572981      -559.8193
   1   2.0000     -20.554975      -559.3293
   2   2.0000     -11.289673      -307.2076
   3   2.0000     -11.283100      -307.0288
   4   2.0000     -11.282814      -307.0210
   5   2.0000     -11.280718      -306.9639
   6   2.0000     -11.240255      -305.8629
   7   2.0000     -11.218506      -305.2711
   8   2.0000      -1.407537       -38.3010
   9   2.0000      -1.378092       -37.4998
  10   2.0000      -1.118663       -30.4404
  11   2.0000      -0.982366       -26.7315
  12   2.0000      -0.944280       -25.6952
  13   2.0000      -0.928929       -25.2774
  14   2.0000      -0.788084       -21.4449
  15   2.0000      -0.752271       -20.4703
  16   2.0000      -0.719034       -19.5659
  17   2.0000      -0.663799       -18.0629
  18   2.0000      -0.656138       -17.8544
  19   2.0000      -0.627778       -17.0827
  20   2.0000      -0.600365       -16.3368
  21   2.0000      -0.580648       -15.8002
  22   2.0000      -0.573857       -15.6154
  23   2.0000      -0.553046       -15.0492
  24   2.0000      -0.539568       -14.6824
  25   2.0000      -0.507692       -13.8150
  26   2.0000      -0.502398       -13.6709
  27   2.0000      -0.491653       -13.3786
  28   2.0000      -0.443999       -12.0818
  29   2.0000      -0.386788       -10.5250
  30   2.0000      -0.372948       -10.1484
  31   0.0000       0.131902         3.5892
  32   0.0000       0.159391         4.3372
  33   0.0000       0.170373         4.6361
  34   0.0000       0.177731         4.8363
  35   0.0000       0.196861         5.3569

MULLIKEN ATOMIC CHARGES
-----------------------
   0 C :   -0.205572
   1 O :   -0.297345
   2 C :    0.088459
   3 C :   -0.033893
   4 O :   -0.337704
   5 C :    0.031250
   6 C :   -0.127400
   7 C :   -0.404215
   8 H :    0.119465
   9 H :    0.117493
  10 H :    0.143573
  11 H :    0.112041
  12 H :    0.112122
  13 H :    0.139771
  14 H :    0.124867
  15 H :    0.154765
  16 H :    0.128782
  17 H :    0.133542
Sum of atomic charges:   -0.0000000

LOEWDIN ATOMIC CHARGES
----------------------
   0 C :   -0.334007
   1 O :    0.194751
   2 C :   -0.324547
   3 C :   -0.223031
   4 O :    0.144246
   5 C :   -0.207542
   6 C :   -0.207278
   7 C :   -0.293752
   8 H :    0.104902
   9 H :    0.104283
  10 H :    0.114228
  11 H :    0.129242
  12 H :    0.118192
  13 H :    0.133304
  14 H :    0.163169
  15 H :    0.132884
  16 H :    0.123552
  17 H :    0.127404

  Mayer bond orders larger than 0.1
B(  0-C ,  1-O ) :   0.8813 B(  0-C ,  8-H ) :   0.9346 B(  0-C ,  9-H ) :   0.9350
B(  0-C , 10-H ) :   0.9401 B(  1-O ,  2-C ) :   1.0246 B(  2-C ,  3-C ) :   0.9714
B(  2-C ,  5-C ) :   0.9246 B(  2-C ,  6-C ) :   0.8625 B(  3-C ,  4-O ) :   0.9178
B(  3-C , 11-H ) :   0.9018 B(  3-C , 12-H ) :   0.9163 B(  4-O ,  5-C ) :   0.9542
B(  5-C ,  6-C ) :   0.8754 B(  5-C , 13-H ) :   0.9045 B(  6-C ,  7-C ) :   0.8859
B(  6-C , 14-H ) :   0.9219 B(  7-C , 15-H ) :   0.9307 B(  7-C , 16-H ) :   0.9382
B(  7-C , 17-H ) :   0.9347

MP2 TOTAL ENERGY:     -384.237882252 Eh
FINAL SINGLE POINT ENERGY      -384.237882252084

DIPOLE MOMENT
-------------
                                X             Y             Z
Electronic contribution:      1.12608      -5.04594       2.87593
Nuclear contribution   :     -1.41705       5.89757      -2.87425
                        -----------------------------------------
Total Dipole Moment    :     -0.29098       0.85163       0.00168
                        -----------------------------------------
Magnitude (a.u.)       :      0.89997
Magnitude (Debye)      :      2.28755

                             ****ORCA TERMINATED NORMALLY****
TOTAL RUN TIME: 0 days 0 hours 11 minutes 30 seconds 349 msec
