                         Program Version 3.0.3 - RELEASE   -
|  1> ! RI-MP2 RIJK def2-TZVP def2-TZVP/C def2-TZVP/JK TIGHTSCF
|  2> % maxcore 2000
|  3> % mp2 density relaxed end
|  4> *xyz 0 1
|  5>  C       -0.7512432936     1.3122167857    -0.0063522443
|  6>  C       -0.0449141523    -0.0270415502    -0.0599391775
|  7>  O        1.1787758764     0.0274759404    -0.8455334985
|  8>  C        1.9811067398    -0.5017259403     0.2408964895
|  9>  C        3.1082334138     0.3406455717     0.6067691125
| 10>  C        4.0416776863     1.0221291350     0.9384526930
| 11>  C        0.7491714544    -0.4954201404     1.1598319985
| 12>  C        0.6694046923    -0.0275344118     2.5769234509
| 13>  C        0.3908750196    -1.4737596794     2.2312508575
| 14>  H       -0.0947014138     2.0797346601     0.4122700065
| 15>  H       -1.0486962997     1.6191742235    -1.0139001068
| 16>  H       -1.6562866837     1.2462181541     0.6079655682
| 17>  H       -0.7163754301    -0.7989582378    -0.4632840157
| 18>  H        2.3396550800    -1.5121828828    -0.0025622368
| 19>  H        4.8684856819     1.6281057650     1.2167151754
| 20>  H        1.6028036881     0.2137174744     3.0750247403
| 21>  H       -0.1671563490     0.6021765097     2.8623118969
| 22>  H       -0.6358519950    -1.8241083497     2.2775373461
| 23>  H        1.1288336146    -2.2200407872     2.5088846745
| 24> *
| 25>
| 26>                          ****END OF INPUT****

CARTESIAN COORDINATES (ANGSTROEM)
---------------------------------
  C     -0.751243    1.312217   -0.006352
  C     -0.044914   -0.027042   -0.059939
  O      1.178776    0.027476   -0.845533
  C      1.981107   -0.501726    0.240896
  C      3.108233    0.340646    0.606769
  C      4.041678    1.022129    0.938453
  C      0.749171   -0.495420    1.159832
  C      0.669405   -0.027534    2.576923
  C      0.390875   -1.473760    2.231251
  H     -0.094701    2.079735    0.412270
  H     -1.048696    1.619174   -1.013900
  H     -1.656287    1.246218    0.607966
  H     -0.716375   -0.798958   -0.463284
  H      2.339655   -1.512183   -0.002562
  H      4.868486    1.628106    1.216715
  H      1.602804    0.213717    3.075025
  H     -0.167156    0.602177    2.862312
  H     -0.635852   -1.824108    2.277537
  H      1.128834   -2.220041    2.508885

 Total Charge           Charge          ....    0
 Multiplicity           Mult            ....    1
 Number of Electrons    NEL             ....   66
 Basis Dimension        Dim             ....  339

ORBITAL ENERGIES
----------------

  NO   OCC          E(Eh)            E(eV)
   0   2.0000     -20.553838      -559.2984
   1   2.0000     -11.310268      -307.7680
   2   2.0000     -11.287786      -307.1563
   3   2.0000     -11.249042      -306.1020
   4   2.0000     -11.236721      -305.7667
   5   2.0000     -11.235346      -305.7293
   6   2.0000     -11.234205      -305.6983
   7   2.0000     -11.229511      -305.5705
   8   2.0000     -11.218308      -305.2657
   9   2.0000      -1.384013       -37.6609
  10   2.0000      -1.153033       -31.3756
  11   2.0000      -1.053452       -28.6659
  12   2.0000      -1.012395       -27.5487
  13   2.0000      -0.946979       -25.7686
  14   2.0000      -0.879633       -23.9360
  15   2.0000      -0.836198       -22.7541
  16   2.0000      -0.751828       -20.4583
  17   2.0000      -0.719425       -19.5766
  18   2.0000      -0.684159       -18.6169
  19   2.0000      -0.674668       -18.3587
  20   2.0000      -0.673383       -18.3237
  21   2.0000      -0.609294       -16.5797
  22   2.0000      -0.581655       -15.8276
  23   2.0000      -0.554963       -15.1013
  24   2.0000      -0.535842       -14.5810
  25   2.0000      -0.528388       -14.3782
  26   2.0000      -0.520586       -14.1659
  27   2.0000      -0.474261       -12.9053
  28   2.0000      -0.458106       -12.4657
  29   2.0000      -0.419932       -11.4269
  30   2.0000      -0.405742       -11.0408
  31   2.0000      -0.396401       -10.7866
  32   2.0000      -0.386303       -10.5118
  33   0.0000       0.137499         3.7416
  34   0.0000       0.148399         4.0381
  35   0.0000       0.153528         4.1777
  36   0.0000       0.162413         4.4195
  37   0.0000       0.171665         4.6713

MULLIKEN ATOMIC CHARGES
-----------------------
   0 C :   -0.432945
   1 C :    0.147831
   2 O :   -0.319668
   3 C :    0.014824
   4 C :   -0.059376
   5 C :   -0.126646
   6 C :   -0.047844
   7 C :   -0.245491
   8 C :   -0.274433
   9 H :    0.143370
  10 H :    0.144266
  11 H :    0.122184
  12 H :    0.086621
  13 H :    0.112321
  14 H :    0.192995
  15 H :    0.142729
  16 H :    0.134459
  17 H :    0.131288
  18 H :    0.133515
Sum of atomic charges:   -0.0000000

LOEWDIN ATOMIC CHARGES
----------------------
   0 C :   -0.290939
   1 C :   -0.259620
   2 O :    0.170266
   3 C :   -0.230293
   4 C :   -0.077922
   5 C :   -0.081692
   6 C :   -0.190456
   7 C :   -0.195838
   8 C :   -0.202436
   9 H :    0.130147
  10 H :    0.130451
  11 H :    0.127077
  12 H :    0.137588
  13 H :    0.155745
  14 H :    0.128205
  15 H :    0.140363
  16 H :    0.136261
  17 H :    0.136117
  18 H :    0.136975

  Mayer bond orders larger than 0.1
B(  0-C ,  1-C ) :   0.8821 B(  0-C ,  9-H ) :   0.9439 B(  0-C , 10-H ) :   0.9331
B(  0-C , 11-H ) :   0.9273 B(  1-C ,  2-O ) :   0.9464 B(  1-C ,  6-C ) :   0.9261
B(  1-C , 12-H ) :   0.9190 B(  2-O ,  3-C ) :   0.9810 B(  3-C ,  4-C ) :   1.1427
B(  3-C ,  6-C ) :   0.9263 B(  3-C , 13-H ) :   0.9247 B(  4-C ,  5-C ) :   2.5692
B(  5-C , 14-H ) :   0.8943 B(  6-C ,  7-C ) :   0.8719 B(  6-C ,  8-C ) :   0.8694
B(  7-C ,  8-C ) :   0.9326 B(  7-C , 15-H ) :   0.9151 B(  7-C , 16-H ) :   0.9214
B(  8-C , 17-H ) :   0.9199 B(  8-C , 18-H ) :   0.9195

MP2 TOTAL ENERGY:     -385.132901536 Eh
FINAL SINGLE POINT ENERGY      -385.132901536003

DIPOLE MOMENT
-------------
                                X             Y             Z
Electronic contribution:      5.65314      -0.86880      -3.09786
Nuclear contribution   :     -5.96736       0.71824       3.80674
                        -----------------------------------------
Total Dipole Moment    :     -0.31421      -0.15056       0.70889
                        -----------------------------------------
Magnitude (a.u.)       :      0.78989
Magnitude (Debye)      :      2.00773

                             ****ORCA TERMINATED NORMALLY****
TOTAL RUN TIME: 0 days 0 hours 19 minutes 48 seconds 43 msec
