                         Program Version 3.0.3 - RELEASE   -
|  1> ! RI-MP2 RIJK def2-TZVP def2-TZVP/C def2-TZVP/JK TIGHTSCF
|  2> % maxcore 2000
|  3> % mp2 density relaxed end
|  4> *xyz 0 1
|  5>  N        0.0827286873     1.3801488664     0.1886211353
|  6>  C       -0.0073241009     0.0141478414     0.0526342263
|  7>  C       -1.1253574657    -0.8319953389    -0.0013990756
|  8>  C       -2.5279443879    -0.5839695359    -0.0210629447
|  9>  O       -3.3634682227    -1.4858119768    -0.0786014535
| 10>  C       -0.5517322181    -2.1518843427    -0.0548241368
| 11>  O       -1.2627341369    -3.2746575332    -0.1205679407
| 12>  N        0.7600781001    -2.1453903642    -0.0396954323
| 13>  N        1.0653446363    -0.7913671379     0.0237140785
| 14>  H        0.9113700674     1.8096036366    -0.1976139630
| 15>  H       -0.7535523366     1.8851764636    -0.0632906555
| 16>  H       -2.8661151350     0.4734466059     0.0177180667
| 17>  H       -2.2007177955    -2.9888032306    -0.1212198994
| 18>  H        2.0326214382    -0.5291167636     0.1023413348
| 19> *
| 20>
| 21>                          ****END OF INPUT****

CARTESIAN COORDINATES (ANGSTROEM)
---------------------------------
  N      0.082729    1.380149    0.188621
  C     -0.007324    0.014148    0.052634
  C     -1.125357   -0.831995   -0.001399
  C     -2.527944   -0.583970   -0.021063
  O     -3.363468   -1.485812   -0.078601
  C     -0.551732   -2.151884   -0.054824
  O     -1.262734   -3.274658   -0.120568
  N      0.760078   -2.145390   -0.039695
  N      1.065345   -0.791367    0.023714
  H      0.911370    1.809604   -0.197614
  H     -0.753552    1.885176   -0.063291
  H     -2.866115    0.473447    0.017718
  H     -2.200718   -2.988803   -0.121220
  H      2.032621   -0.529117    0.102341

 Total Charge           Charge          ....    0
 Multiplicity           Mult            ....    1
 Number of Electrons    NEL             ....   66
 Basis Dimension        Dim             ....  309

ORBITAL ENERGIES
----------------

  NO   OCC          E(Eh)            E(eV)
   0   2.0000     -20.582387      -560.0752
   1   2.0000     -20.550420      -559.2053
   2   2.0000     -15.646646      -425.7669
   3   2.0000     -15.623069      -425.1253
   4   2.0000     -15.574881      -423.8140
   5   2.0000     -11.367467      -309.3245
   6   2.0000     -11.346596      -308.7566
   7   2.0000     -11.333820      -308.4089
   8   2.0000     -11.233873      -305.6892
   9   2.0000      -1.426290       -38.8113
  10   2.0000      -1.384313       -37.6691
  11   2.0000      -1.374271       -37.3958
  12   2.0000      -1.264350       -34.4047
  13   2.0000      -1.103780       -30.0354
  14   2.0000      -1.074468       -29.2378
  15   2.0000      -0.911145       -24.7935
  16   2.0000      -0.827786       -22.5252
  17   2.0000      -0.818196       -22.2642
  18   2.0000      -0.768525       -20.9126
  19   2.0000      -0.740487       -20.1497
  20   2.0000      -0.677393       -18.4328
  21   2.0000      -0.664654       -18.0861
  22   2.0000      -0.653406       -17.7801
  23   2.0000      -0.653041       -17.7702
  24   2.0000      -0.630811       -17.1652
  25   2.0000      -0.577091       -15.7034
  26   2.0000      -0.561138       -15.2693
  27   2.0000      -0.544438       -14.8149
  28   2.0000      -0.505610       -13.7583
  29   2.0000      -0.472550       -12.8587
  30   2.0000      -0.433818       -11.8048
  31   2.0000      -0.363858        -9.9011
  32   2.0000      -0.341411        -9.2903
  33   0.0000       0.091154         2.4804
  34   0.0000       0.102174         2.7803
  35   0.0000       0.129807         3.5322
  36   0.0000       0.161412         4.3923
  37   0.0000       0.180570         4.9136

MULLIKEN ATOMIC CHARGES
-----------------------
   0 N :   -0.503716
   1 C :    0.194713
   2 C :   -0.138961
   3 C :    0.158035
   4 O :   -0.378483
   5 C :    0.208440
   6 O :   -0.401026
   7 N :   -0.227643
   8 N :   -0.121907
   9 H :    0.258835
  10 H :    0.265165
  11 H :    0.073080
  12 H :    0.356551
  13 H :    0.256918
Sum of atomic charges:   -0.0000000

LOEWDIN ATOMIC CHARGES
----------------------
   0 N :   -0.046489
   1 C :   -0.296646
   2 C :   -0.201943
   3 C :   -0.287200
   4 O :    0.070309
   5 C :   -0.390089
   6 O :    0.107005
   7 N :    0.036806
   8 N :    0.147146
   9 H :    0.175504
  10 H :    0.179519
  11 H :    0.116246
  12 H :    0.200804
  13 H :    0.189027

  Mayer bond orders larger than 0.1
B(  0-N ,  1-C ) :   1.0903 B(  0-N ,  9-H ) :   0.8686 B(  0-N , 10-H ) :   0.8693
B(  1-C ,  2-C ) :   1.2453 B(  1-C ,  7-N ) :   0.1128 B(  1-C ,  8-N ) :   1.2897
B(  2-C ,  3-C ) :   0.9891 B(  2-C ,  5-C ) :   1.1427 B(  3-C ,  4-O ) :   1.7887
B(  3-C , 11-H ) :   0.9829 B(  5-C ,  6-O ) :   1.1971 B(  5-C ,  7-N ) :   1.6747
B(  6-O , 12-H ) :   0.7622 B(  7-N ,  8-N ) :   0.9136 B(  8-N , 13-H ) :   0.8699

MP2 TOTAL ENERGY:     -469.289087248 Eh
FINAL SINGLE POINT ENERGY      -469.289087248221

DIPOLE MOMENT
-------------
                                X             Y             Z
Electronic contribution:     -0.01639      -3.24245      -0.02663
Nuclear contribution   :      0.99952       5.74855      -0.19834
                        -----------------------------------------
Total Dipole Moment    :      0.98313       2.50609      -0.22497
                        -----------------------------------------
Magnitude (a.u.)       :      2.70142
Magnitude (Debye)      :      6.86646

                             ****ORCA TERMINATED NORMALLY****
TOTAL RUN TIME: 0 days 0 hours 14 minutes 39 seconds 327 msec
