                         Program Version 3.0.3 - RELEASE   -
|  1> ! RI-MP2 RIJK def2-TZVP def2-TZVP/C def2-TZVP/JK TIGHTSCF
|  2> % maxcore 2000
|  3> % mp2 density relaxed end
|  4> *xyz 0 1
|  5>  C       -0.0159495645     1.6014877911    -0.0691089439
|  6>  C        0.0963648906     0.0832337063     0.0119129976
|  7>  C        1.1282477824    -0.7033294571    -0.8553024241
|  8>  C        2.5253041859    -0.1284041504    -0.4829479132
|  9>  C        2.2632446299    -0.7390888129     0.8901174789
| 10>  O        3.1896081796    -1.0078678799     1.8798576040
| 11>  C        1.2760659214    -1.7296690004     0.3395595969
| 12>  C        0.7509222210    -0.6034581886     1.2155474828
| 13>  C        0.2500181048    -0.6685015624     2.6275779124
| 14>  H        0.9378406907     2.0987438681     0.1298753613
| 15>  H       -0.3600242770     1.9186656361    -1.0602266549
| 16>  H       -0.7397994294     1.9756207220     0.6637485139
| 17>  H       -0.8938178190    -0.3647932342    -0.1440213494
| 18>  H        0.9029562972    -0.9624207306    -1.8875457643
| 19>  H        3.3233984435    -0.6729652592    -0.9960313411
| 20>  H        2.6929348594     0.9500306195    -0.5832739787
| 21>  H        3.3139504916    -0.2102061273     2.4067431871
| 22>  H        1.2078875297    -2.8050715713     0.4167132020
| 23>  H        0.9083852481    -1.2874114615     3.2450081060
| 24>  H        0.2068613954     0.3289538108     3.0832643993
| 25>  H       -0.7585192814    -1.0945518480     2.6762042972
| 26> *
| 27>
| 28>                          ****END OF INPUT****

CARTESIAN COORDINATES (ANGSTROEM)
---------------------------------
  C     -0.015950    1.601488   -0.069109
  C      0.096365    0.083234    0.011913
  C      1.128248   -0.703329   -0.855302
  C      2.525304   -0.128404   -0.482948
  C      2.263245   -0.739089    0.890117
  O      3.189608   -1.007868    1.879858
  C      1.276066   -1.729669    0.339560
  C      0.750922   -0.603458    1.215547
  C      0.250018   -0.668502    2.627578
  H      0.937841    2.098744    0.129875
  H     -0.360024    1.918666   -1.060227
  H     -0.739799    1.975621    0.663749
  H     -0.893818   -0.364793   -0.144021
  H      0.902956   -0.962421   -1.887546
  H      3.323398   -0.672965   -0.996031
  H      2.692935    0.950031   -0.583274
  H      3.313950   -0.210206    2.406743
  H      1.207888   -2.805072    0.416713
  H      0.908385   -1.287411    3.245008
  H      0.206861    0.328954    3.083264
  H     -0.758519   -1.094552    2.676204

 Total Charge           Charge          ....    0
 Multiplicity           Mult            ....    1
 Number of Electrons    NEL             ....   68
 Basis Dimension        Dim             ....  351

ORBITAL ENERGIES
----------------

  NO   OCC          E(Eh)            E(eV)
   0   2.0000     -20.565996      -559.6292
   1   2.0000     -11.281887      -306.9957
   2   2.0000     -11.234720      -305.7123
   3   2.0000     -11.232619      -305.6551
   4   2.0000     -11.227415      -305.5135
   5   2.0000     -11.221485      -305.3521
   6   2.0000     -11.220117      -305.3149
   7   2.0000     -11.216988      -305.2298
   8   2.0000     -11.210575      -305.0553
   9   2.0000      -1.377171       -37.4747
  10   2.0000      -1.220682       -33.2165
  11   2.0000      -1.016386       -27.6573
  12   2.0000      -1.005786       -27.3688
  13   2.0000      -0.925849       -25.1936
  14   2.0000      -0.897062       -24.4103
  15   2.0000      -0.816091       -22.2070
  16   2.0000      -0.750156       -20.4128
  17   2.0000      -0.722995       -19.6737
  18   2.0000      -0.675026       -18.3684
  19   2.0000      -0.630230       -17.1494
  20   2.0000      -0.619602       -16.8602
  21   2.0000      -0.612933       -16.6788
  22   2.0000      -0.588745       -16.0206
  23   2.0000      -0.558574       -15.1996
  24   2.0000      -0.548514       -14.9258
  25   2.0000      -0.539920       -14.6920
  26   2.0000      -0.535073       -14.5601
  27   2.0000      -0.518811       -14.1176
  28   2.0000      -0.495967       -13.4959
  29   2.0000      -0.458054       -12.4643
  30   2.0000      -0.436402       -11.8751
  31   2.0000      -0.427196       -11.6246
  32   2.0000      -0.362924        -9.8757
  33   2.0000      -0.357625        -9.7315
  34   0.0000       0.127447         3.4680
  35   0.0000       0.149964         4.0807
  36   0.0000       0.164472         4.4755
  37   0.0000       0.174547         4.7497
  38   0.0000       0.185284         5.0418

MULLIKEN ATOMIC CHARGES
-----------------------
   0 C :   -0.433438
   1 C :    0.029630
   2 C :   -0.070497
   3 C :   -0.228083
   4 C :    0.148281
   5 O :   -0.464121
   6 C :   -0.181820
   7 C :   -0.067344
   8 C :   -0.470513
   9 H :    0.123694
  10 H :    0.132747
  11 H :    0.132013
  12 H :    0.090613
  13 H :    0.135644
  14 H :    0.112778
  15 H :    0.107834
  16 H :    0.326035
  17 H :    0.152245
  18 H :    0.154573
  19 H :    0.134332
  20 H :    0.135396
Sum of atomic charges:    0.0000000

LOEWDIN ATOMIC CHARGES
----------------------
   0 C :   -0.296146
   1 C :   -0.200568
   2 C :   -0.132221
   3 C :   -0.184886
   4 C :   -0.305307
   5 O :    0.035215
   6 C :   -0.087379
   7 C :   -0.184621
   8 C :   -0.278397
   9 H :    0.121405
  10 H :    0.125539
  11 H :    0.124998
  12 H :    0.155401
  13 H :    0.130828
  14 H :    0.141978
  15 H :    0.120232
  16 H :    0.186485
  17 H :    0.136850
  18 H :    0.134539
  19 H :    0.127376
  20 H :    0.128679

  Mayer bond orders larger than 0.1
B(  0-C ,  1-C ) :   0.8784 B(  0-C ,  9-H ) :   0.9422 B(  0-C , 10-H ) :   0.9358
B(  0-C , 11-H ) :   0.9375 B(  1-C ,  2-C ) :   0.9204 B(  1-C ,  7-C ) :   0.8952
B(  1-C , 12-H ) :   0.9134 B(  2-C ,  3-C ) :   0.9004 B(  2-C ,  6-C ) :   0.9232
B(  2-C , 13-H ) :   0.9142 B(  3-C ,  4-C ) :   0.9738 B(  3-C , 14-H ) :   0.9174
B(  3-C , 15-H ) :   0.9204 B(  4-C ,  5-O ) :   1.0012 B(  4-C ,  6-C ) :   0.8494
B(  4-C ,  7-C ) :   0.8336 B(  5-O , 16-H ) :   0.8366 B(  6-C ,  7-C ) :   0.8322
B(  6-C , 17-H ) :   0.8928 B(  7-C ,  8-C ) :   0.8673 B(  8-C , 18-H ) :   0.9392
B(  8-C , 19-H ) :   0.9384 B(  8-C , 20-H ) :   0.9414

MP2 TOTAL ENERGY:     -386.370464013 Eh
FINAL SINGLE POINT ENERGY      -386.370464013117

DIPOLE MOMENT
-------------
                                X             Y             Z
Electronic contribution:      4.23036      -4.03381       0.02226
Nuclear contribution   :     -4.51171       4.49122       0.01958
                        -----------------------------------------
Total Dipole Moment    :     -0.28136       0.45741       0.04184
                        -----------------------------------------
Magnitude (a.u.)       :      0.53864
Magnitude (Debye)      :      1.36912

                             ****ORCA TERMINATED NORMALLY****
TOTAL RUN TIME: 0 days 0 hours 19 minutes 45 seconds 162 msec
