                         Program Version 3.0.3 - RELEASE   -
|  1> ! RI-MP2 RIJK def2-TZVP def2-TZVP/C def2-TZVP/JK TIGHTSCF
|  2> % maxcore 2000
|  3> % mp2 density relaxed end
|  4> *xyz 0 1
|  5>  O       -0.0797225519    -0.0053692339    -0.0012646350
|  6>  C        0.0120324808     1.1927020239     0.0064714600
|  7>  C        1.3032726759     1.9366869321    -0.0012550855
|  8>  N        2.4803092347     1.3580018892    -0.0175853239
|  9>  O        3.3608680805     2.4296490350    -0.0184952145
| 10>  C        2.6132924282     3.5401281537    -0.0031121044
| 11>  N        1.3400343446     3.3161192707     0.0081318834
| 12>  H       -0.8659459092     1.8689291454     0.0202307529
| 13>  H        3.1356866364     4.4851599239    -0.0015873431
| 14> *
| 15>
| 16>                          ****END OF INPUT****

CARTESIAN COORDINATES (ANGSTROEM)
---------------------------------
  O     -0.079723   -0.005369   -0.001265
  C      0.012032    1.192702    0.006471
  C      1.303273    1.936687   -0.001255
  N      2.480309    1.358002   -0.017585
  O      3.360868    2.429649   -0.018495
  C      2.613292    3.540128   -0.003112
  N      1.340034    3.316119    0.008132
  H     -0.865946    1.868929    0.020231
  H      3.135687    4.485160   -0.001587

 Total Charge           Charge          ....    0
 Multiplicity           Mult            ....    1
 Number of Electrons    NEL             ....   50
 Basis Dimension        Dim             ....  229

ORBITAL ENERGIES
----------------

  NO   OCC          E(Eh)            E(eV)
   0   2.0000     -20.693841      -563.1080
   1   2.0000     -20.589631      -560.2724
   2   2.0000     -15.667147      -426.3247
   3   2.0000     -15.609423      -424.7540
   4   2.0000     -11.386388      -309.8394
   5   2.0000     -11.365374      -309.2676
   6   2.0000     -11.341097      -308.6069
   7   2.0000      -1.557117       -42.3713
   8   2.0000      -1.426477       -38.8164
   9   2.0000      -1.287692       -35.0399
  10   2.0000      -1.191386       -32.4193
  11   2.0000      -0.964980       -26.2584
  12   2.0000      -0.899649       -24.4807
  13   2.0000      -0.821986       -22.3674
  14   2.0000      -0.759426       -20.6650
  15   2.0000      -0.712306       -19.3828
  16   2.0000      -0.697924       -18.9915
  17   2.0000      -0.655480       -17.8365
  18   2.0000      -0.632379       -17.2079
  19   2.0000      -0.571198       -15.5431
  20   2.0000      -0.552693       -15.0395
  21   2.0000      -0.504366       -13.7245
  22   2.0000      -0.492802       -13.4098
  23   2.0000      -0.464252       -12.6329
  24   2.0000      -0.429622       -11.6906
  25   0.0000       0.048694         1.3250
  26   0.0000       0.119790         3.2596
  27   0.0000       0.151219         4.1149
  28   0.0000       0.166169         4.5217
  29   0.0000       0.188475         5.1287

MULLIKEN ATOMIC CHARGES
-----------------------
   0 O :   -0.227960
   1 C :    0.058915
   2 C :    0.179956
   3 N :   -0.081435
   4 O :   -0.074082
   5 C :    0.136046
   6 N :   -0.290607
   7 H :    0.115491
   8 H :    0.183677
Sum of atomic charges:    0.0000000

LOEWDIN ATOMIC CHARGES
----------------------
   0 O :    0.169492
   1 C :   -0.259966
   2 C :   -0.357261
   3 N :    0.091448
   4 O :    0.290188
   5 C :   -0.324906
   6 N :    0.122289
   7 H :    0.126218
   8 H :    0.142498

  Mayer bond orders larger than 0.1
B(  0-O ,  1-C ) :   2.0320 B(  1-C ,  2-C ) :   0.7971 B(  1-C ,  7-H ) :   0.9703
B(  2-C ,  3-N ) :   1.5697 B(  2-C ,  6-N ) :   1.2121 B(  3-N ,  4-O ) :   0.9065
B(  4-O ,  5-C ) :   1.1375 B(  5-C ,  6-N ) :   1.5845 B(  5-C ,  8-H ) :   0.9134

MP2 TOTAL ENERGY:     -374.768086764 Eh
FINAL SINGLE POINT ENERGY      -374.768086763731

DIPOLE MOMENT
-------------
                                X             Y             Z
Electronic contribution:      1.12849      -0.93511      -0.01810
Nuclear contribution   :     -0.84044       2.29360       0.02505
                        -----------------------------------------
Total Dipole Moment    :      0.28805       1.35849       0.00695
                        -----------------------------------------
Magnitude (a.u.)       :      1.38871
Magnitude (Debye)      :      3.52982

                             ****ORCA TERMINATED NORMALLY****
TOTAL RUN TIME: 0 days 0 hours 5 minutes 26 seconds 174 msec
