                         Program Version 3.0.3 - RELEASE   -
|  1> ! RI-MP2 RIJK def2-TZVP def2-TZVP/C def2-TZVP/JK TIGHTSCF
|  2> % maxcore 2000
|  3> % mp2 density relaxed end
|  4> *xyz 0 1
|  5>  O       -0.3458448627     1.4940997403     0.1691841983
|  6>  C       -0.1467725234     0.1110336313     0.1573170097
|  7>  C        0.9648670469    -0.2994540433     1.0993634608
|  8>  C        2.3155632894     0.2398643912     0.6625024055
|  9>  O        3.3368159826    -0.3974970575     0.6913605564
| 10>  C       -1.3106650800    -0.8617263659     0.0134052371
| 11>  C       -2.3279004986    -0.2524273154    -0.9397180959
| 12>  O       -1.2896707082     0.0362492647    -1.9289718957
| 13>  C       -0.3167829387    -0.6439167586    -1.1238642870
| 14>  H       -0.6303368767     1.7310769843    -0.7253769624
| 15>  H        0.7404317111     0.1174025874     2.0916011947
| 16>  H        1.0363630547    -1.3855917704     1.2001073714
| 17>  H        2.2952115081     1.2926507825     0.3095672185
| 18>  H       -1.4710782641    -1.7093023013     0.6664257574
| 19>  H       -3.0424326231    -0.9728251184    -1.3488188109
| 20>  H       -2.8481871488     0.6530800178    -0.6098716497
| 21>  H        0.4079148314    -1.2760346387    -1.6259685681
| 22> *
| 23>
| 24>                          ****END OF INPUT****

CARTESIAN COORDINATES (ANGSTROEM)
---------------------------------
  O     -0.345845    1.494100    0.169184
  C     -0.146773    0.111034    0.157317
  C      0.964867   -0.299454    1.099363
  C      2.315563    0.239864    0.662502
  O      3.336816   -0.397497    0.691361
  C     -1.310665   -0.861726    0.013405
  C     -2.327900   -0.252427   -0.939718
  O     -1.289671    0.036249   -1.928972
  C     -0.316783   -0.643917   -1.123864
  H     -0.630337    1.731077   -0.725377
  H      0.740432    0.117403    2.091601
  H      1.036363   -1.385592    1.200107
  H      2.295212    1.292651    0.309567
  H     -1.471078   -1.709302    0.666426
  H     -3.042433   -0.972825   -1.348819
  H     -2.848187    0.653080   -0.609872
  H      0.407915   -1.276035   -1.625969

 Total Charge           Charge          ....    0
 Multiplicity           Mult            ....    1
 Number of Electrons    NEL             ....   68
 Basis Dimension        Dim             ....  327

ORBITAL ENERGIES
----------------

  NO   OCC          E(Eh)            E(eV)
   0   2.0000     -20.580341      -560.0196
   1   2.0000     -20.577099      -559.9313
   2   2.0000     -20.558924      -559.4368
   3   2.0000     -11.333325      -308.3954
   4   2.0000     -11.317250      -307.9580
   5   2.0000     -11.307933      -307.7045
   6   2.0000     -11.304429      -307.6091
   7   2.0000     -11.256637      -306.3087
   8   2.0000     -11.253921      -306.2348
   9   2.0000      -1.427433       -38.8424
  10   2.0000      -1.397740       -38.0344
  11   2.0000      -1.377268       -37.4774
  12   2.0000      -1.138679       -30.9850
  13   2.0000      -1.031496       -28.0684
  14   2.0000      -0.965320       -26.2677
  15   2.0000      -0.832124       -22.6432
  16   2.0000      -0.793914       -21.6035
  17   2.0000      -0.779379       -21.2080
  18   2.0000      -0.748254       -20.3610
  19   2.0000      -0.709206       -19.2985
  20   2.0000      -0.666744       -18.1430
  21   2.0000      -0.658565       -17.9205
  22   2.0000      -0.642298       -17.4778
  23   2.0000      -0.614054       -16.7093
  24   2.0000      -0.594650       -16.1813
  25   2.0000      -0.578348       -15.7376
  26   2.0000      -0.572108       -15.5679
  27   2.0000      -0.544795       -14.8246
  28   2.0000      -0.509584       -13.8665
  29   2.0000      -0.507716       -13.8157
  30   2.0000      -0.493559       -13.4304
  31   2.0000      -0.439704       -11.9650
  32   2.0000      -0.411395       -11.1946
  33   2.0000      -0.387221       -10.5368
  34   0.0000       0.127758         3.4765
  35   0.0000       0.139804         3.8043
  36   0.0000       0.148975         4.0538
  37   0.0000       0.158555         4.3145
  38   0.0000       0.168848         4.5946

MULLIKEN ATOMIC CHARGES
-----------------------
   0 O :   -0.474460
   1 C :    0.168035
   2 C :   -0.192472
   3 C :    0.074140
   4 O :   -0.264947
   5 C :   -0.197648
   6 C :   -0.053655
   7 O :   -0.352524
   8 C :    0.023153
   9 H :    0.343167
  10 H :    0.145291
  11 H :    0.130890
  12 H :    0.099812
  13 H :    0.151798
  14 H :    0.124111
  15 H :    0.129303
  16 H :    0.146007
Sum of atomic charges:    0.0000000

LOEWDIN ATOMIC CHARGES
----------------------
   0 O :    0.034686
   1 C :   -0.347727
   2 C :   -0.213111
   3 C :   -0.282626
   4 O :    0.130378
   5 C :   -0.163650
   6 C :   -0.235253
   7 O :    0.133674
   8 C :   -0.214442
   9 H :    0.190467
  10 H :    0.164393
  11 H :    0.156693
  12 H :    0.117032
  13 H :    0.141052
  14 H :    0.128749
  15 H :    0.123126
  16 H :    0.136559

  Mayer bond orders larger than 0.1
B(  0-O ,  1-C ) :   0.9905 B(  0-O ,  9-H ) :   0.8109 B(  1-C ,  2-C ) :   0.8931
B(  1-C ,  5-C ) :   0.8411 B(  1-C ,  8-C ) :   0.9050 B(  2-C ,  3-C ) :   0.8811
B(  2-C , 10-H ) :   0.9071 B(  2-C , 11-H ) :   0.9130 B(  3-C ,  4-O ) :   1.9939
B(  3-C , 12-H ) :   0.9373 B(  5-C ,  6-C ) :   0.9486 B(  5-C ,  8-C ) :   0.8746
B(  5-C , 13-H ) :   0.9067 B(  6-C ,  7-O ) :   0.8891 B(  6-C , 14-H ) :   0.9197
B(  6-C , 15-H ) :   0.9259 B(  7-O ,  8-C ) :   0.9194 B(  8-C , 16-H ) :   0.9098

MP2 TOTAL ENERGY:     -458.178342228 Eh
FINAL SINGLE POINT ENERGY      -458.178342227788

DIPOLE MOMENT
-------------
                                X             Y             Z
Electronic contribution:      2.92188       0.90060      -0.95324
Nuclear contribution   :     -4.08354      -1.20508       1.04694
                        -----------------------------------------
Total Dipole Moment    :     -1.16166      -0.30449       0.09370
                        -----------------------------------------
Magnitude (a.u.)       :      1.20455
Magnitude (Debye)      :      3.06172

                             ****ORCA TERMINATED NORMALLY****
TOTAL RUN TIME: 0 days 0 hours 16 minutes 3 seconds 754 msec
