                         Program Version 3.0.3 - RELEASE   -
|  1> ! RI-MP2 RIJK def2-TZVP def2-TZVP/C def2-TZVP/JK TIGHTSCF
|  2> % maxcore 2000
|  3> % mp2 density relaxed end
|  4> *xyz 0 1
|  5>  C       -0.0576239025     1.4959752719     0.0496151692
|  6>  C        0.0146165556     0.0002860187     0.0065082663
|  7>  C        0.0133792376    -0.7713496100    -1.0849054953
|  8>  C        0.0768665939    -2.2461952742    -0.7717235548
|  9>  C        0.3583136821    -2.2758604111     0.7531964528
| 10>  C        0.0705909603    -0.8518485947     1.2373835472
| 11>  C        0.4862469377    -0.3391204585     2.5670748723
| 12>  N       -0.9261095074    -0.6815091202     2.3239460155
| 13>  H        0.8605439036     1.9305919783     0.4635831482
| 14>  H       -0.2052093968     1.9124507781    -0.9499373092
| 15>  H       -0.8840298595     1.8498332724     0.6797572962
| 16>  H       -0.0516819921    -0.3936348001    -2.1003154330
| 17>  H       -0.8696853997    -2.7412005459    -1.0283584128
| 18>  H        0.8544254295    -2.7626547078    -1.3461596933
| 19>  H       -0.2515127309    -3.0019450604     1.2945538992
| 20>  H        1.4097354466    -2.5226069532     0.9344284443
| 21>  H        1.0025435756    -1.0024771082     3.2572285707
| 22>  H        0.7638906769     0.7079446162     2.6613996336
| 23>  H       -1.4659258805     0.1687697688     2.1754749626
| 24> *
| 25>
| 26>                          ****END OF INPUT****

CARTESIAN COORDINATES (ANGSTROEM)
---------------------------------
  C     -0.057624    1.495975    0.049615
  C      0.014617    0.000286    0.006508
  C      0.013379   -0.771350   -1.084905
  C      0.076867   -2.246195   -0.771724
  C      0.358314   -2.275860    0.753196
  C      0.070591   -0.851849    1.237384
  C      0.486247   -0.339120    2.567075
  N     -0.926110   -0.681509    2.323946
  H      0.860544    1.930592    0.463583
  H     -0.205209    1.912451   -0.949937
  H     -0.884030    1.849833    0.679757
  H     -0.051682   -0.393635   -2.100315
  H     -0.869685   -2.741201   -1.028358
  H      0.854425   -2.762655   -1.346160
  H     -0.251513   -3.001945    1.294554
  H      1.409735   -2.522607    0.934428
  H      1.002544   -1.002477    3.257229
  H      0.763891    0.707945    2.661400
  H     -1.465926    0.168770    2.175475

 Total Charge           Charge          ....    0
 Multiplicity           Mult            ....    1
 Number of Electrons    NEL             ....   60
 Basis Dimension        Dim             ....  314

ORBITAL ENERGIES
----------------

  NO   OCC          E(Eh)            E(eV)
   0   2.0000     -15.550755      -423.1576
   1   2.0000     -11.261433      -306.4392
   2   2.0000     -11.249152      -306.1050
   3   2.0000     -11.232174      -305.6430
   4   2.0000     -11.229176      -305.5614
   5   2.0000     -11.222767      -305.3870
   6   2.0000     -11.221376      -305.3492
   7   2.0000     -11.217130      -305.2336
   8   2.0000      -1.257491       -34.2181
   9   2.0000      -1.118920       -30.4474
  10   2.0000      -1.016433       -27.6586
  11   2.0000      -0.931240       -25.3403
  12   2.0000      -0.900016       -24.4907
  13   2.0000      -0.868004       -23.6196
  14   2.0000      -0.773135       -21.0381
  15   2.0000      -0.725732       -19.7482
  16   2.0000      -0.653623       -17.7860
  17   2.0000      -0.642968       -17.4961
  18   2.0000      -0.616154       -16.7664
  19   2.0000      -0.584318       -15.9001
  20   2.0000      -0.573610       -15.6087
  21   2.0000      -0.559870       -15.2348
  22   2.0000      -0.518307       -14.1038
  23   2.0000      -0.511220       -13.9110
  24   2.0000      -0.484107       -13.1732
  25   2.0000      -0.478109       -13.0100
  26   2.0000      -0.462900       -12.5961
  27   2.0000      -0.457135       -12.4393
  28   2.0000      -0.397791       -10.8244
  29   2.0000      -0.325794        -8.8653
  30   0.0000       0.134465         3.6590
  31   0.0000       0.152211         4.1419
  32   0.0000       0.160623         4.3708
  33   0.0000       0.170821         4.6483
  34   0.0000       0.175760         4.7827

MULLIKEN ATOMIC CHARGES
-----------------------
   0 C :   -0.439764
   1 C :    0.011475
   2 C :   -0.200325
   3 C :   -0.167906
   4 C :   -0.250145
   5 C :    0.168582
   6 C :   -0.225002
   7 N :   -0.382729
   8 H :    0.146514
   9 H :    0.145360
  10 H :    0.128517
  11 H :    0.122447
  12 H :    0.116128
  13 H :    0.118466
  14 H :    0.134132
  15 H :    0.115561
  16 H :    0.120352
  17 H :    0.126763
  18 H :    0.211575
Sum of atomic charges:   -0.0000000

LOEWDIN ATOMIC CHARGES
----------------------
   0 C :   -0.272276
   1 C :   -0.165599
   2 C :   -0.131264
   3 C :   -0.236351
   4 C :   -0.191494
   5 C :   -0.257351
   6 C :   -0.244883
   7 N :    0.002564
   8 H :    0.131987
   9 H :    0.133417
  10 H :    0.126405
  11 H :    0.136673
  12 H :    0.139858
  13 H :    0.136090
  14 H :    0.141791
  15 H :    0.140987
  16 H :    0.126522
  17 H :    0.121295
  18 H :    0.161630

  Mayer bond orders larger than 0.1
B(  0-C ,  1-C ) :   0.8546 B(  0-C ,  8-H ) :   0.9348 B(  0-C ,  9-H ) :   0.9451
B(  0-C , 10-H ) :   0.9361 B(  1-C ,  2-C ) :   1.7428 B(  1-C ,  5-C ) :   0.9530
B(  2-C ,  3-C ) :   0.9395 B(  2-C , 11-H ) :   0.9221 B(  3-C ,  4-C ) :   0.9718
B(  3-C , 12-H ) :   0.9124 B(  3-C , 13-H ) :   0.9301 B(  4-C ,  5-C ) :   0.8728
B(  4-C , 14-H ) :   0.9354 B(  4-C , 15-H ) :   0.9318 B(  5-C ,  6-C ) :   0.9244
B(  5-C ,  7-N ) :   0.8635 B(  6-C ,  7-N ) :   0.9630 B(  6-C , 16-H ) :   0.9103
B(  6-C , 17-H ) :   0.9197 B(  7-N , 18-H ) :   0.8775

MP2 TOTAL ENERGY:     -327.324465670 Eh
FINAL SINGLE POINT ENERGY      -327.324465670329

DIPOLE MOMENT
-------------
                                X             Y             Z
Electronic contribution:     -0.79881      -1.14515       0.75940
Nuclear contribution   :      1.10882       1.63080      -1.10587
                        -----------------------------------------
Total Dipole Moment    :      0.31001       0.48565      -0.34647
                        -----------------------------------------
Magnitude (a.u.)       :      0.67231
Magnitude (Debye)      :      1.70889

                             ****ORCA TERMINATED NORMALLY****
TOTAL RUN TIME: 0 days 0 hours 12 minutes 51 seconds 82 msec
