                         Program Version 3.0.3 - RELEASE   -
|  1> ! RI-MP2 RIJK def2-TZVP def2-TZVP/C def2-TZVP/JK TIGHTSCF
|  2> % maxcore 2000
|  3> % mp2 density relaxed end
|  4> *xyz 0 1
|  5>  C        0.4572577868     1.5352571297    -0.3164933772
|  6>  C        0.0328577316     0.0838449527    -0.0041068659
|  7>  N        0.3737343491    -0.9286304083    -1.0018934400
|  8>  C       -0.3760332951    -0.8735651159    -2.2277561731
|  9>  C       -0.0413040062     0.0177869309    -3.4164221985
| 10>  C        0.1618299418    -1.4825429371    -3.4930616432
| 11>  C        1.5550228600    -2.0697657551    -3.5803866393
| 12>  C        0.5988027886    -0.3313947363     1.2930233941
| 13>  N        1.0638858658    -0.6299238149     2.3075284005
| 14>  H        1.5440258276     1.6016743877    -0.4251431639
| 15>  H       -0.0111986001     1.8647636393    -1.2456972711
| 16>  H        0.1531941399     2.2098138330     0.4890632559
| 17>  H       -1.0592572494     0.0601239969     0.1069914378
| 18>  H        1.3736072243    -0.9534998924    -1.1605176593
| 19>  H       -1.4362094281    -1.0346521358    -2.0437177314
| 20>  H       -0.8479783686     0.4765589468    -3.9791441909
| 21>  H        0.8569423770     0.6240632857    -3.3480546658
| 22>  H       -0.5737963699    -2.0281886892    -4.0780165953
| 23>  H        2.2984222284    -1.4522983362    -3.0651207726
| 24>  H        1.5955416581    -3.0743751691    -3.1464150510
| 25>  H        1.8750147182    -2.1414858623    -4.6251001997
| 26> *
| 27>
| 28>                          ****END OF INPUT****

CARTESIAN COORDINATES (ANGSTROEM)
---------------------------------
  C      0.457258    1.535257   -0.316493
  C      0.032858    0.083845   -0.004107
  N      0.373734   -0.928630   -1.001893
  C     -0.376033   -0.873565   -2.227756
  C     -0.041304    0.017787   -3.416422
  C      0.161830   -1.482543   -3.493062
  C      1.555023   -2.069766   -3.580387
  C      0.598803   -0.331395    1.293023
  N      1.063886   -0.629924    2.307528
  H      1.544026    1.601674   -0.425143
  H     -0.011199    1.864764   -1.245697
  H      0.153194    2.209814    0.489063
  H     -1.059257    0.060124    0.106991
  H      1.373607   -0.953500   -1.160518
  H     -1.436209   -1.034652   -2.043718
  H     -0.847978    0.476559   -3.979144
  H      0.856942    0.624063   -3.348055
  H     -0.573796   -2.028189   -4.078017
  H      2.298422   -1.452298   -3.065121
  H      1.595542   -3.074375   -3.146415
  H      1.875015   -2.141486   -4.625100

 Total Charge           Charge          ....    0
 Multiplicity           Mult            ....    1
 Number of Electrons    NEL             ....   68
 Basis Dimension        Dim             ....  351

ORBITAL ENERGIES
----------------

  NO   OCC          E(Eh)            E(eV)
   0   2.0000     -15.569279      -423.6616
   1   2.0000     -15.565979      -423.5718
   2   2.0000     -11.314473      -307.8825
   3   2.0000     -11.272600      -306.7430
   4   2.0000     -11.266747      -306.5838
   5   2.0000     -11.243229      -305.9438
   6   2.0000     -11.241615      -305.8999
   7   2.0000     -11.231932      -305.6364
   8   2.0000     -11.230417      -305.5952
   9   2.0000      -1.253369       -34.1059
  10   2.0000      -1.209867       -32.9221
  11   2.0000      -1.137597       -30.9556
  12   2.0000      -1.033165       -28.1138
  13   2.0000      -0.974119       -26.5071
  14   2.0000      -0.902561       -24.5599
  15   2.0000      -0.829960       -22.5844
  16   2.0000      -0.790113       -21.5001
  17   2.0000      -0.724101       -19.7038
  18   2.0000      -0.683151       -18.5895
  19   2.0000      -0.651489       -17.7279
  20   2.0000      -0.624707       -16.9992
  21   2.0000      -0.609027       -16.5725
  22   2.0000      -0.580594       -15.7988
  23   2.0000      -0.571603       -15.5541
  24   2.0000      -0.561542       -15.2803
  25   2.0000      -0.550051       -14.9676
  26   2.0000      -0.543583       -14.7916
  27   2.0000      -0.528354       -14.3772
  28   2.0000      -0.508231       -13.8297
  29   2.0000      -0.482905       -13.1405
  30   2.0000      -0.462199       -12.5771
  31   2.0000      -0.452669       -12.3177
  32   2.0000      -0.417527       -11.3615
  33   2.0000      -0.363936        -9.9032
  34   0.0000       0.121291         3.3005
  35   0.0000       0.136725         3.7205
  36   0.0000       0.142976         3.8906
  37   0.0000       0.157895         4.2966
  38   0.0000       0.180150         4.9021

MULLIKEN ATOMIC CHARGES
-----------------------
   0 C :   -0.394545
   1 C :    0.082336
   2 N :   -0.280248
   3 C :   -0.122198
   4 C :   -0.268034
   5 C :   -0.056327
   6 C :   -0.400968
   7 C :   -0.160974
   8 N :   -0.057379
   9 H :    0.130831
  10 H :    0.156050
  11 H :    0.147298
  12 H :    0.121350
  13 H :    0.201197
  14 H :    0.119321
  15 H :    0.132777
  16 H :    0.128118
  17 H :    0.123802
  18 H :    0.108063
  19 H :    0.147744
  20 H :    0.141787
Sum of atomic charges:   -0.0000000

LOEWDIN ATOMIC CHARGES
----------------------
   0 C :   -0.277326
   1 C :   -0.312347
   2 N :    0.051414
   3 C :   -0.271107
   4 C :   -0.227654
   5 C :   -0.234913
   6 C :   -0.294963
   7 C :   -0.167565
   8 N :    0.061686
   9 H :    0.127000
  10 H :    0.128811
  11 H :    0.132077
  12 H :    0.171548
  13 H :    0.176832
  14 H :    0.146149
  15 H :    0.129450
  16 H :    0.132772
  17 H :    0.149654
  18 H :    0.119740
  19 H :    0.129556
  20 H :    0.129186

  Mayer bond orders larger than 0.1
B(  0-C ,  1-C ) :   0.9098 B(  0-C ,  9-H ) :   0.9246 B(  0-C , 10-H ) :   0.9351
B(  0-C , 11-H ) :   0.9263 B(  1-C ,  2-N ) :   0.9681 B(  1-C ,  7-C ) :   0.9093
B(  1-C , 12-H ) :   0.9039 B(  2-N ,  3-C ) :   1.0057 B(  2-N , 13-H ) :   0.8661
B(  3-C ,  4-C ) :   0.8716 B(  3-C ,  5-C ) :   0.8927 B(  3-C , 14-H ) :   0.9297
B(  4-C ,  5-C ) :   0.8683 B(  4-C , 15-H ) :   0.9189 B(  4-C , 16-H ) :   0.9202
B(  5-C ,  6-C ) :   0.9166 B(  5-C , 17-H ) :   0.9246 B(  6-C , 18-H ) :   0.9318
B(  6-C , 19-H ) :   0.9363 B(  6-C , 20-H ) :   0.9376 B(  7-C ,  8-N ) :   2.8811

MP2 TOTAL ENERGY:     -382.579906037 Eh
FINAL SINGLE POINT ENERGY      -382.579906037416

DIPOLE MOMENT
-------------
                                X             Y             Z
Electronic contribution:     -0.86854      -1.50102       9.67033
Nuclear contribution   :      0.46152       2.11565     -11.30644
                        -----------------------------------------
Total Dipole Moment    :     -0.40703       0.61463      -1.63611
                        -----------------------------------------
Magnitude (a.u.)       :      1.79452
Magnitude (Debye)      :      4.56131

                             ****ORCA TERMINATED NORMALLY****
TOTAL RUN TIME: 0 days 0 hours 20 minutes 27 seconds 510 msec
