                         Program Version 3.0.3 - RELEASE   -
|  1> ! RI-MP2 RIJK def2-TZVP def2-TZVP/C def2-TZVP/JK TIGHTSCF
|  2> % maxcore 2000
|  3> % mp2 density relaxed end
|  4> *xyz 0 1
|  5>  O       -0.1422294026     1.5014365156     0.3380548707
|  6>  C        0.0223025003     0.1302222908     0.1152243309
|  7>  C        0.3413727115    -0.8217580894     1.3188015356
|  8>  C       -0.8608355916    -1.7159252779     0.9033577328
|  9>  C       -2.1834783175    -1.3137281786     1.5996847252
| 10>  O       -2.3850312131    -0.2253335803     0.6927504771
| 11>  C       -1.2878719699    -0.6394071958    -0.1434571437
| 12>  C       -3.2463886261    -2.3896509830     1.5118238268
| 13>  O       -4.1216101647    -2.4344070059     0.6904877600
| 14>  H        0.7276690428     1.9050154082     0.4173023450
| 15>  H        0.7176503439    -0.0725511918    -0.7144064796
| 16>  H        1.3200789153    -1.3046161980     1.2795024806
| 17>  H        0.2167731681    -0.3453759962     2.2945990596
| 18>  H       -0.6802967709    -2.7659413402     0.6801149794
| 19>  H       -2.0883039974    -0.9899482768     2.6471226191
| 20>  H       -1.6040988875    -0.8205335256    -1.1729446939
| 21>  H       -3.1201495405    -3.1871344351     2.2843235945
| 22> *
| 23>
| 24>                          ****END OF INPUT****

CARTESIAN COORDINATES (ANGSTROEM)
---------------------------------
  O     -0.142229    1.501437    0.338055
  C      0.022303    0.130222    0.115224
  C      0.341373   -0.821758    1.318802
  C     -0.860836   -1.715925    0.903358
  C     -2.183478   -1.313728    1.599685
  O     -2.385031   -0.225334    0.692750
  C     -1.287872   -0.639407   -0.143457
  C     -3.246389   -2.389651    1.511824
  O     -4.121610   -2.434407    0.690488
  H      0.727669    1.905015    0.417302
  H      0.717650   -0.072551   -0.714406
  H      1.320079   -1.304616    1.279502
  H      0.216773   -0.345376    2.294599
  H     -0.680297   -2.765941    0.680115
  H     -2.088304   -0.989948    2.647123
  H     -1.604099   -0.820534   -1.172945
  H     -3.120150   -3.187134    2.284324

 Total Charge           Charge          ....    0
 Multiplicity           Mult            ....    1
 Number of Electrons    NEL             ....   68
 Basis Dimension        Dim             ....  327

ORBITAL ENERGIES
----------------

  NO   OCC          E(Eh)            E(eV)
   0   2.0000     -20.567347      -559.6660
   1   2.0000     -20.561976      -559.5198
   2   2.0000     -20.561054      -559.4947
   3   2.0000     -11.333897      -308.4110
   4   2.0000     -11.304215      -307.6033
   5   2.0000     -11.295505      -307.3663
   6   2.0000     -11.292322      -307.2797
   7   2.0000     -11.257816      -306.3407
   8   2.0000     -11.241870      -305.9068
   9   2.0000      -1.412951       -38.4483
  10   2.0000      -1.391007       -37.8512
  11   2.0000      -1.371372       -37.3169
  12   2.0000      -1.118195       -30.4276
  13   2.0000      -1.015326       -27.6284
  14   2.0000      -0.907201       -24.6862
  15   2.0000      -0.890318       -24.2268
  16   2.0000      -0.797538       -21.7021
  17   2.0000      -0.732276       -19.9262
  18   2.0000      -0.730859       -19.8877
  19   2.0000      -0.703789       -19.1511
  20   2.0000      -0.687385       -18.7047
  21   2.0000      -0.660534       -17.9740
  22   2.0000      -0.633672       -17.2431
  23   2.0000      -0.606534       -16.5046
  24   2.0000      -0.592085       -16.1115
  25   2.0000      -0.563028       -15.3208
  26   2.0000      -0.546319       -14.8661
  27   2.0000      -0.518741       -14.1157
  28   2.0000      -0.515611       -14.0305
  29   2.0000      -0.468876       -12.7588
  30   2.0000      -0.457332       -12.4446
  31   2.0000      -0.451444       -12.2844
  32   2.0000      -0.422017       -11.4837
  33   2.0000      -0.400296       -10.8926
  34   0.0000       0.119150         3.2422
  35   0.0000       0.126650         3.4463
  36   0.0000       0.148071         4.0292
  37   0.0000       0.154564         4.2059
  38   0.0000       0.169287         4.6065

MULLIKEN ATOMIC CHARGES
-----------------------
   0 O :   -0.424368
   1 C :   -0.040022
   2 C :   -0.178969
   3 C :   -0.201646
   4 C :    0.142119
   5 O :   -0.316933
   6 C :    0.131158
   7 C :    0.054223
   8 O :   -0.244352
   9 H :    0.318650
  10 H :    0.078423
  11 H :    0.130142
  12 H :    0.106859
  13 H :    0.137888
  14 H :    0.109792
  15 H :    0.125714
  16 H :    0.071322
Sum of atomic charges:    0.0000000

LOEWDIN ATOMIC CHARGES
----------------------
   0 O :    0.000424
   1 C :   -0.325087
   2 C :   -0.204322
   3 C :   -0.161208
   4 C :   -0.277274
   5 O :    0.199275
   6 C :   -0.208467
   7 C :   -0.283306
   8 O :    0.152291
   9 H :    0.179198
  10 H :    0.134540
  11 H :    0.129487
  12 H :    0.137279
  13 H :    0.139267
  14 H :    0.145347
  15 H :    0.130620
  16 H :    0.111934

  Mayer bond orders larger than 0.1
B(  0-O ,  1-C ) :   1.1927 B(  0-O ,  2-C ) :  -0.1058 B(  0-O ,  6-C ) :  -0.1029
B(  0-O ,  9-H ) :   0.8423 B(  1-C ,  2-C ) :   0.9082 B(  1-C ,  6-C ) :   0.8645
B(  1-C , 10-H ) :   0.9485 B(  2-C ,  3-C ) :   0.9200 B(  2-C , 11-H ) :   0.9161
B(  2-C , 12-H ) :   0.8894 B(  3-C ,  4-C ) :   0.9223 B(  3-C ,  6-C ) :   0.8948
B(  3-C , 13-H ) :   0.9051 B(  4-C ,  5-O ) :   0.9468 B(  4-C ,  7-C ) :   0.8352
B(  4-C , 14-H ) :   0.8883 B(  5-O ,  6-C ) :   0.9013 B(  6-C , 15-H ) :   0.9288
B(  7-C ,  8-O ) :   2.0424 B(  7-C , 16-H ) :   0.9330

MP2 TOTAL ENERGY:     -458.181543366 Eh
FINAL SINGLE POINT ENERGY      -458.181543366243

DIPOLE MOMENT
-------------
                                X             Y             Z
Electronic contribution:     -5.41961       0.36467      -0.95766
Nuclear contribution   :      7.31211      -0.80987       1.42822
                        -----------------------------------------
Total Dipole Moment    :      1.89250      -0.44520       0.47056
                        -----------------------------------------
Magnitude (a.u.)       :      2.00030
Magnitude (Debye)      :      5.08435

                             ****ORCA TERMINATED NORMALLY****
TOTAL RUN TIME: 0 days 0 hours 15 minutes 9 seconds 873 msec
