                         Program Version 3.0.3 - RELEASE   -
|  1> ! RI-MP2 RIJK def2-TZVP def2-TZVP/C def2-TZVP/JK TIGHTSCF
|  2> % maxcore 2000
|  3> % mp2 density relaxed end
|  4> *xyz 0 1
|  5>  C        0.1361038140     1.5750232000    -0.0737018981
|  6>  C        0.0538297251     0.0504957421     0.0424780694
|  7>  C       -1.3872427178    -0.4760139576     0.0184397919
|  8>  C       -1.4859493577    -2.0022528850     0.0873821785
|  9>  C       -0.9409132179    -2.6449740354     1.3922513379
| 10>  C       -1.7568730217    -3.9094161636     1.5134794655
| 11>  C       -2.8078678655    -3.9018931305     0.6959409131
| 12>  C       -2.9162541698    -2.6128907431    -0.0914792279
| 13>  C       -4.0812432671    -1.7496802390     0.4292428994
| 14>  H        1.1738346510     1.9229773407    -0.0576927218
| 15>  H       -0.3184140210     1.9261223559    -1.0070085073
| 16>  H       -0.3914004892     2.0643254571     0.7528444844
| 17>  H        0.6200104491    -0.4109185492    -0.7779303450
| 18>  H        0.5467827614    -0.2708346497     0.9685267393
| 19>  H       -1.9460053020    -0.0270850853     0.8505969254
| 20>  H       -1.8756151802    -0.1225932397    -0.9005898026
| 21>  H       -0.8818931090    -2.4110824258    -0.7337017610
| 22>  H        0.1372522893    -2.8346792156     1.3436016118
| 23>  H       -1.0953535740    -1.9928256159     2.2658322667
| 24>  H       -1.5099729836    -4.7026678923     2.2111253348
| 25>  H       -3.5572354520    -4.6843021454     0.6295709609
| 26>  H       -3.1036656908    -2.8087478350    -1.1554842318
| 27>  H       -3.9507680369    -1.4986721922     1.4871128415
| 28>  H       -4.1776337253    -0.8165231755    -0.1344211295
| 29>  H       -5.0278691983    -2.2925536197     0.3358104646
| 30> *
| 31>
| 32>                          ****END OF INPUT****

CARTESIAN COORDINATES (ANGSTROEM)
---------------------------------
  C      0.136104    1.575023   -0.073702
  C      0.053830    0.050496    0.042478
  C     -1.387243   -0.476014    0.018440
  C     -1.485949   -2.002253    0.087382
  C     -0.940913   -2.644974    1.392251
  C     -1.756873   -3.909416    1.513479
  C     -2.807868   -3.901893    0.695941
  C     -2.916254   -2.612891   -0.091479
  C     -4.081243   -1.749680    0.429243
  H      1.173835    1.922977   -0.057693
  H     -0.318414    1.926122   -1.007009
  H     -0.391400    2.064325    0.752844
  H      0.620010   -0.410919   -0.777930
  H      0.546783   -0.270835    0.968527
  H     -1.946005   -0.027085    0.850597
  H     -1.875615   -0.122593   -0.900590
  H     -0.881893   -2.411082   -0.733702
  H      0.137252   -2.834679    1.343602
  H     -1.095354   -1.992826    2.265832
  H     -1.509973   -4.702668    2.211125
  H     -3.557235   -4.684302    0.629571
  H     -3.103666   -2.808748   -1.155484
  H     -3.950768   -1.498672    1.487113
  H     -4.177634   -0.816523   -0.134421
  H     -5.027869   -2.292554    0.335810

 Total Charge           Charge          ....    0
 Multiplicity           Mult            ....    1
 Number of Electrons    NEL             ....   70
 Basis Dimension        Dim             ....  375

ORBITAL ENERGIES
----------------

  NO   OCC          E(Eh)            E(eV)
   0   2.0000     -11.224698      -305.4396
   1   2.0000     -11.220546      -305.3266
   2   2.0000     -11.218114      -305.2604
   3   2.0000     -11.217384      -305.2405
   4   2.0000     -11.215964      -305.2019
   5   2.0000     -11.214929      -305.1737
   6   2.0000     -11.213230      -305.1275
   7   2.0000     -11.210186      -305.0447
   8   2.0000     -11.209684      -305.0310
   9   2.0000      -1.137698       -30.9583
  10   2.0000      -1.058572       -28.8052
  11   2.0000      -1.000961       -27.2375
  12   2.0000      -0.977531       -26.6000
  13   2.0000      -0.903872       -24.5956
  14   2.0000      -0.873917       -23.7805
  15   2.0000      -0.804125       -21.8814
  16   2.0000      -0.741478       -20.1766
  17   2.0000      -0.718939       -19.5633
  18   2.0000      -0.672919       -18.3111
  19   2.0000      -0.633114       -17.2279
  20   2.0000      -0.607953       -16.5432
  21   2.0000      -0.577938       -15.7265
  22   2.0000      -0.562271       -15.3002
  23   2.0000      -0.560552       -15.2534
  24   2.0000      -0.539156       -14.6712
  25   2.0000      -0.535435       -14.5699
  26   2.0000      -0.514821       -14.0090
  27   2.0000      -0.509130       -13.8541
  28   2.0000      -0.481761       -13.1094
  29   2.0000      -0.473693       -12.8898
  30   2.0000      -0.468951       -12.7608
  31   2.0000      -0.450119       -12.2484
  32   2.0000      -0.447456       -12.1759
  33   2.0000      -0.428782       -11.6677
  34   2.0000      -0.340342        -9.2612
  35   0.0000       0.130984         3.5643
  36   0.0000       0.151936         4.1344
  37   0.0000       0.154135         4.1942
  38   0.0000       0.161762         4.4018
  39   0.0000       0.173909         4.7323

MULLIKEN ATOMIC CHARGES
-----------------------
   0 C :   -0.385395
   1 C :   -0.186757
   2 C :   -0.272737
   3 C :   -0.074573
   4 C :   -0.226019
   5 C :   -0.164849
   6 C :   -0.209745
   7 C :    0.088754
   8 C :   -0.447729
   9 H :    0.132733
  10 H :    0.121223
  11 H :    0.121602
  12 H :    0.105858
  13 H :    0.111867
  14 H :    0.114569
  15 H :    0.111609
  16 H :    0.089925
  17 H :    0.125282
  18 H :    0.108085
  19 H :    0.120613
  20 H :    0.121367
  21 H :    0.094556
  22 H :    0.133929
  23 H :    0.132846
  24 H :    0.132986
Sum of atomic charges:   -0.0000000

LOEWDIN ATOMIC CHARGES
----------------------
   0 C :   -0.322170
   1 C :   -0.293310
   2 C :   -0.254730
   3 C :   -0.210012
   4 C :   -0.223924
   5 C :   -0.159620
   6 C :   -0.144698
   7 C :   -0.233827
   8 C :   -0.290312
   9 H :    0.119835
  10 H :    0.119743
  11 H :    0.119948
  12 H :    0.134676
  13 H :    0.135352
  14 H :    0.139732
  15 H :    0.139803
  16 H :    0.156957
  17 H :    0.136454
  18 H :    0.140994
  19 H :    0.134429
  20 H :    0.136150
  21 H :    0.149430
  22 H :    0.124349
  23 H :    0.121087
  24 H :    0.123667

  Mayer bond orders larger than 0.1
B(  0-C ,  1-C ) :   0.9211 B(  0-C ,  9-H ) :   0.9438 B(  0-C , 10-H ) :   0.9403
B(  0-C , 11-H ) :   0.9395 B(  1-C ,  2-C ) :   0.9309 B(  1-C , 12-H ) :   0.9340
B(  1-C , 13-H ) :   0.9334 B(  2-C ,  3-C ) :   0.9149 B(  2-C , 14-H ) :   0.9212
B(  2-C , 15-H ) :   0.9373 B(  3-C ,  4-C ) :   0.9464 B(  3-C ,  7-C ) :   0.9113
B(  3-C , 16-H ) :   0.9290 B(  4-C ,  5-C ) :   0.9422 B(  4-C , 17-H ) :   0.9277
B(  4-C , 18-H ) :   0.8986 B(  5-C ,  6-C ) :   1.8052 B(  5-C , 19-H ) :   0.9337
B(  6-C ,  7-C ) :   0.9244 B(  6-C , 20-H ) :   0.9283 B(  7-C ,  8-C ) :   0.8618
B(  7-C , 21-H ) :   0.9206 B(  8-C , 22-H ) :   0.9415 B(  8-C , 23-H ) :   0.9334
B(  8-C , 24-H ) :   0.9375

MP2 TOTAL ENERGY:     -351.725784158 Eh
FINAL SINGLE POINT ENERGY      -351.725784158434

DIPOLE MOMENT
-------------
                                X             Y             Z
Electronic contribution:     -1.30869      -7.19734       0.83272
Nuclear contribution   :      1.33895       7.26621      -0.86362
                        -----------------------------------------
Total Dipole Moment    :      0.03026       0.06887      -0.03090
                        -----------------------------------------
Magnitude (a.u.)       :      0.08133
Magnitude (Debye)      :      0.20672

                             ****ORCA TERMINATED NORMALLY****
TOTAL RUN TIME: 0 days 0 hours 21 minutes 7 seconds 690 msec
