                         Program Version 3.0.3 - RELEASE   -
|  1> ! RI-MP2 RIJK def2-TZVP def2-TZVP/C def2-TZVP/JK TIGHTSCF
|  2> % maxcore 2000
|  3> % mp2 density relaxed end
|  4> *xyz 0 1
|  5>  C        0.5484685642     0.5816869386    -1.0845798751
|  6>  C        0.1626440876     0.3935920997     0.3883254965
|  7>  C       -0.9674860473    -0.6390467232     0.5304767138
|  8>  C        1.3579424528     0.0645419711     1.2842747338
|  9>  C        1.0979600295     0.0734144276     2.7991549470
| 10>  C        0.6168479273    -1.1907264186     3.3450891157
| 11>  C        0.2451028013    -2.2392440083     3.8007397483
| 12>  C        2.5178258431    -0.7010838380     0.8088246488
| 13>  O        2.5868370914     0.7236930779     0.9417651168
| 14>  H        0.7969158989    -0.3740870843    -1.5592122025
| 15>  H       -0.2941515127     1.0067877453    -1.6380536209
| 16>  H        1.4052354044     1.2507003536    -1.1861099122
| 17>  H       -0.2180683055     1.3595471141     0.7534414351
| 18>  H       -0.6324321699    -1.6299603063     0.2049578708
| 19>  H       -1.3215212334    -0.7334982479     1.5593739778
| 20>  H       -1.8179436225    -0.3504202812    -0.0953940605
| 21>  H        2.0452337077     0.3404020083     3.2808685749
| 22>  H        0.3904495993     0.8767981513     3.0413864527
| 23>  H       -0.0904110873    -3.1624724826     4.2037651984
| 24>  H        3.1118091772    -1.2667170409     1.5255304604
| 25>  H        2.5516210637    -1.0738255559    -0.2121952698
| 26> *
| 27>
| 28>                          ****END OF INPUT****

CARTESIAN COORDINATES (ANGSTROEM)
---------------------------------
  C      0.548469    0.581687   -1.084580
  C      0.162644    0.393592    0.388325
  C     -0.967486   -0.639047    0.530477
  C      1.357942    0.064542    1.284275
  C      1.097960    0.073414    2.799155
  C      0.616848   -1.190726    3.345089
  C      0.245103   -2.239244    3.800740
  C      2.517826   -0.701084    0.808825
  O      2.586837    0.723693    0.941765
  H      0.796916   -0.374087   -1.559212
  H     -0.294152    1.006788   -1.638054
  H      1.405235    1.250700   -1.186110
  H     -0.218068    1.359547    0.753441
  H     -0.632432   -1.629960    0.204958
  H     -1.321521   -0.733498    1.559374
  H     -1.817944   -0.350420   -0.095394
  H      2.045234    0.340402    3.280869
  H      0.390450    0.876798    3.041386
  H     -0.090411   -3.162472    4.203765
  H      3.111809   -1.266717    1.525530
  H      2.551621   -1.073826   -0.212195

 Total Charge           Charge          ....    0
 Multiplicity           Mult            ....    1
 Number of Electrons    NEL             ....   68
 Basis Dimension        Dim             ....  351

ORBITAL ENERGIES
----------------

  NO   OCC          E(Eh)            E(eV)
   0   2.0000     -20.565855      -559.6254
   1   2.0000     -11.298465      -307.4469
   2   2.0000     -11.281119      -306.9749
   3   2.0000     -11.259287      -306.3808
   4   2.0000     -11.239166      -305.8333
   5   2.0000     -11.238838      -305.8243
   6   2.0000     -11.224725      -305.4403
   7   2.0000     -11.216199      -305.2083
   8   2.0000     -11.212774      -305.1151
   9   2.0000      -1.411841       -38.4181
  10   2.0000      -1.096564       -29.8390
  11   2.0000      -1.059885       -28.8409
  12   2.0000      -0.984233       -26.7823
  13   2.0000      -0.930729       -25.3264
  14   2.0000      -0.913971       -24.8704
  15   2.0000      -0.861798       -23.4507
  16   2.0000      -0.760956       -20.7067
  17   2.0000      -0.725473       -19.7411
  18   2.0000      -0.692078       -18.8324
  19   2.0000      -0.652965       -17.7681
  20   2.0000      -0.635173       -17.2839
  21   2.0000      -0.618509       -16.8305
  22   2.0000      -0.594488       -16.1769
  23   2.0000      -0.570403       -15.5215
  24   2.0000      -0.560163       -15.2428
  25   2.0000      -0.536710       -14.6046
  26   2.0000      -0.530023       -14.4227
  27   2.0000      -0.495486       -13.4829
  28   2.0000      -0.487589       -13.2680
  29   2.0000      -0.477909       -13.0046
  30   2.0000      -0.448740       -12.2108
  31   2.0000      -0.428709       -11.6658
  32   2.0000      -0.389936       -10.6107
  33   2.0000      -0.386769       -10.5245
  34   0.0000       0.133607         3.6356
  35   0.0000       0.154242         4.1971
  36   0.0000       0.158472         4.3122
  37   0.0000       0.167659         4.5622
  38   0.0000       0.174166         4.7393

MULLIKEN ATOMIC CHARGES
-----------------------
   0 C :   -0.418608
   1 C :   -0.060867
   2 C :   -0.414833
   3 C :    0.217241
   4 C :   -0.280009
   5 C :   -0.095677
   6 C :   -0.173726
   7 C :   -0.091375
   8 O :   -0.339855
   9 H :    0.115873
  10 H :    0.135988
  11 H :    0.162114
  12 H :    0.087489
  13 H :    0.125108
  14 H :    0.149754
  15 H :    0.133124
  16 H :    0.166246
  17 H :    0.148084
  18 H :    0.189467
  19 H :    0.124991
  20 H :    0.119471
Sum of atomic charges:    0.0000000

LOEWDIN ATOMIC CHARGES
----------------------
   0 C :   -0.288980
   1 C :   -0.268704
   2 C :   -0.280481
   3 C :   -0.291640
   4 C :   -0.203280
   5 C :   -0.112422
   6 C :   -0.106172
   7 C :   -0.237265
   8 O :    0.164522
   9 H :    0.121646
  10 H :    0.125162
  11 H :    0.130449
  12 H :    0.158470
  13 H :    0.126268
  14 H :    0.128606
  15 H :    0.124804
  16 H :    0.170700
  17 H :    0.163153
  18 H :    0.126509
  19 H :    0.125700
  20 H :    0.122954

  Mayer bond orders larger than 0.1
B(  0-C ,  1-C ) :   0.9187 B(  0-C ,  9-H ) :   0.9315 B(  0-C , 10-H ) :   0.9371
B(  0-C , 11-H ) :   0.9343 B(  1-C ,  2-C ) :   0.9138 B(  1-C ,  3-C ) :   0.9454
B(  1-C , 12-H ) :   0.9186 B(  2-C , 13-H ) :   0.9284 B(  2-C , 14-H ) :   0.9341
B(  2-C , 15-H ) :   0.9348 B(  3-C ,  4-C ) :   0.8067 B(  3-C ,  7-C ) :   0.9642
B(  3-C ,  8-O ) :   0.9037 B(  4-C ,  5-C ) :   1.0745 B(  4-C , 16-H ) :   0.9268
B(  4-C , 17-H ) :   0.9137 B(  5-C ,  6-C ) :   2.6225 B(  6-C , 18-H ) :   0.9037
B(  7-C ,  8-O ) :   0.8761 B(  7-C , 19-H ) :   0.9116 B(  7-C , 20-H ) :   0.9133

MP2 TOTAL ENERGY:     -386.357385115 Eh
FINAL SINGLE POINT ENERGY      -386.357385114872

DIPOLE MOMENT
-------------
                                X             Y             Z
Electronic contribution:      4.40682      -0.15009       5.87360
Nuclear contribution   :     -4.78390      -0.23393      -5.93466
                        -----------------------------------------
Total Dipole Moment    :     -0.37708      -0.38403      -0.06106
                        -----------------------------------------
Magnitude (a.u.)       :      0.54166
Magnitude (Debye)      :      1.37679

                             ****ORCA TERMINATED NORMALLY****
TOTAL RUN TIME: 0 days 0 hours 22 minutes 29 seconds 901 msec
