                         Program Version 3.0.3 - RELEASE   -
|  1> ! RI-MP2 RIJK def2-TZVP def2-TZVP/C def2-TZVP/JK TIGHTSCF
|  2> % maxcore 2000
|  3> % mp2 density relaxed end
|  4> *xyz 0 1
|  5>  C       -0.0595878486     1.4607848344     0.0770907804
|  6>  C        1.3421020559     0.8410989162    -0.0769168809
|  7>  C        2.2637003270     0.5098063595    -1.2013439204
|  8>  C        2.2223053582    -0.7624625670    -1.6271170814
|  9>  C        1.0761527403    -1.6751049590    -1.1876623782
| 10>  C        0.9967327376    -1.9982057293     0.3561956103
| 11>  O        0.0998664030    -1.0190997362     0.9485018826
| 12>  C        0.1087626845    -0.0140559966    -0.0392041010
| 13>  C       -0.1787994908    -0.7816711025    -1.3154047004
| 14>  H       -0.2459069652     1.9131958653     1.0450872895
| 15>  H       -0.5554372091     1.9565311892    -0.7521064144
| 16>  H        1.8471467247     0.8581000620     0.8886976524
| 17>  H        3.0053094054     1.2153405224    -1.5661600580
| 18>  H        2.9219265374    -1.1322611775    -2.3716726542
| 19>  H        1.0610851851    -2.5948125156    -1.7755098394
| 20>  H        0.5728321239    -2.9898209646     0.5401498114
| 21>  H        1.9820484121    -1.9359958478     0.8316338704
| 22>  H       -0.1861503556    -0.1920344689    -2.2312722683
| 23>  H       -1.1215352461    -1.3281841540    -1.2114196904
| 24> *
| 25>
| 26>                          ****END OF INPUT****

CARTESIAN COORDINATES (ANGSTROEM)
---------------------------------
  C     -0.059588    1.460785    0.077091
  C      1.342102    0.841099   -0.076917
  C      2.263700    0.509806   -1.201344
  C      2.222305   -0.762463   -1.627117
  C      1.076153   -1.675105   -1.187662
  C      0.996733   -1.998206    0.356196
  O      0.099866   -1.019100    0.948502
  C      0.108763   -0.014056   -0.039204
  C     -0.178799   -0.781671   -1.315405
  H     -0.245907    1.913196    1.045087
  H     -0.555437    1.956531   -0.752106
  H      1.847147    0.858100    0.888698
  H      3.005309    1.215341   -1.566160
  H      2.921927   -1.132261   -2.371673
  H      1.061085   -2.594813   -1.775510
  H      0.572832   -2.989821    0.540150
  H      1.982048   -1.935996    0.831634
  H     -0.186150   -0.192034   -2.231272
  H     -1.121535   -1.328184   -1.211420

 Total Charge           Charge          ....    0
 Multiplicity           Mult            ....    1
 Number of Electrons    NEL             ....   66
 Basis Dimension        Dim             ....  339

ORBITAL ENERGIES
----------------

  NO   OCC          E(Eh)            E(eV)
   0   2.0000     -20.552575      -559.2640
   1   2.0000     -11.278154      -306.8942
   2   2.0000     -11.277042      -306.8639
   3   2.0000     -11.241963      -305.9094
   4   2.0000     -11.241467      -305.8959
   5   2.0000     -11.231686      -305.6297
   6   2.0000     -11.230033      -305.5847
   7   2.0000     -11.224169      -305.4252
   8   2.0000     -11.223617      -305.4101
   9   2.0000      -1.379148       -37.5285
  10   2.0000      -1.156601       -31.4727
  11   2.0000      -1.083405       -29.4809
  12   2.0000      -1.008041       -27.4302
  13   2.0000      -0.934005       -25.4156
  14   2.0000      -0.862318       -23.4649
  15   2.0000      -0.813361       -22.1327
  16   2.0000      -0.760261       -20.6878
  17   2.0000      -0.716652       -19.5011
  18   2.0000      -0.681763       -18.5517
  19   2.0000      -0.662098       -18.0166
  20   2.0000      -0.635770       -17.3002
  21   2.0000      -0.610127       -16.6024
  22   2.0000      -0.607355       -16.5270
  23   2.0000      -0.560710       -15.2577
  24   2.0000      -0.535437       -14.5700
  25   2.0000      -0.514827       -14.0092
  26   2.0000      -0.499883       -13.6025
  27   2.0000      -0.496197       -13.5022
  28   2.0000      -0.470580       -12.8051
  29   2.0000      -0.461206       -12.5501
  30   2.0000      -0.419069       -11.4035
  31   2.0000      -0.376124       -10.2348
  32   2.0000      -0.340554        -9.2669
  33   0.0000       0.133630         3.6363
  34   0.0000       0.150227         4.0879
  35   0.0000       0.163022         4.4361
  36   0.0000       0.169477         4.6117
  37   0.0000       0.177634         4.8337

MULLIKEN ATOMIC CHARGES
-----------------------
   0 C :   -0.241830
   1 C :   -0.107943
   2 C :   -0.199034
   3 C :   -0.246247
   4 C :    0.039678
   5 C :   -0.089874
   6 O :   -0.314891
   7 C :    0.192127
   8 C :   -0.263988
   9 H :    0.138332
  10 H :    0.136983
  11 H :    0.121039
  12 H :    0.123600
  13 H :    0.120536
  14 H :    0.125723
  15 H :    0.117411
  16 H :    0.105748
  17 H :    0.122288
  18 H :    0.120342
Sum of atomic charges:   -0.0000000

LOEWDIN ATOMIC CHARGES
----------------------
   0 C :   -0.164421
   1 C :   -0.172791
   2 C :   -0.154762
   3 C :   -0.132941
   4 C :   -0.219116
   5 C :   -0.232071
   6 O :    0.180147
   7 C :   -0.328620
   8 C :   -0.181884
   9 H :    0.142411
  10 H :    0.138760
  11 H :    0.165564
  12 H :    0.138550
  13 H :    0.138514
  14 H :    0.146879
  15 H :    0.123844
  16 H :    0.124251
  17 H :    0.143806
  18 H :    0.143882

  Mayer bond orders larger than 0.1
B(  0-C ,  1-C ) :   0.8995 B(  0-C ,  7-C ) :   0.9268 B(  0-C ,  9-H ) :   0.9100
B(  0-C , 10-H ) :   0.9098 B(  1-C ,  2-C ) :   0.9661 B(  1-C ,  7-C ) :   0.8605
B(  1-C , 11-H ) :   0.9086 B(  2-C ,  3-C ) :   1.7803 B(  2-C , 12-H ) :   0.9324
B(  3-C ,  4-C ) :   0.9263 B(  3-C , 13-H ) :   0.9279 B(  4-C ,  5-C ) :   0.8818
B(  4-C ,  8-C ) :   0.9246 B(  4-C , 14-H ) :   0.9216 B(  5-C ,  6-O ) :   0.9121
B(  5-C , 15-H ) :   0.9194 B(  5-C , 16-H ) :   0.9246 B(  6-O ,  7-C ) :   0.9956
B(  7-C ,  8-C ) :   0.9466 B(  8-C , 17-H ) :   0.9082 B(  8-C , 18-H ) :   0.9141

MP2 TOTAL ENERGY:     -385.181249339 Eh
FINAL SINGLE POINT ENERGY      -385.181249339012

DIPOLE MOMENT
-------------
                                X             Y             Z
Electronic contribution:     -0.46589       0.10470       1.69423
Nuclear contribution   :      0.68706      -0.16597      -2.20321
                        -----------------------------------------
Total Dipole Moment    :      0.22117      -0.06128      -0.50898
                        -----------------------------------------
Magnitude (a.u.)       :      0.55833
Magnitude (Debye)      :      1.41915

                             ****ORCA TERMINATED NORMALLY****
TOTAL RUN TIME: 0 days 0 hours 18 minutes 57 seconds 734 msec
