                         Program Version 3.0.3 - RELEASE   -
|  1> ! RI-MP2 RIJK def2-TZVP def2-TZVP/C def2-TZVP/JK TIGHTSCF
|  2> % maxcore 2000
|  3> % mp2 density relaxed end
|  4> *xyz 0 1
|  5>  C        0.0205567077     1.6527606238     0.0739052390
|  6>  C        0.0410523594     0.1220179830     0.1188588212
|  7>  C       -1.3606424396    -0.5147813149    -0.0282554143
|  8>  C       -1.3833005445    -2.0599865008    -0.0270552436
|  9>  C       -0.2360238901    -2.7992930635    -0.6895627072
| 10>  O       -1.4088071467    -2.4226325627     1.3639542509
| 11>  C       -2.2635011826    -1.5154633637     2.0245957599
| 12>  C       -2.2100278269    -0.2167517524     1.2131083501
| 13>  O       -2.7393082929     0.8219688788     1.5125388502
| 14>  H        1.0311116705     2.0536398552     0.1986626626
| 15>  H       -0.3642959858     2.0097191780    -0.8877262020
| 16>  H       -0.6157083209     2.0716382778     0.8570390359
| 17>  H        0.6762776525    -0.2547616442    -0.6901184083
| 18>  H        0.4992492043    -0.2239896104     1.0534850676
| 19>  H       -1.8535432268    -0.0977096328    -0.9121759134
| 20>  H       -2.3309189081    -2.3844396028    -0.4921093186
| 21>  H        0.7187346764    -2.5502090015    -0.2208799206
| 22>  H       -0.3899631835    -3.8775692044    -0.5945643159
| 23>  H       -0.1820394372    -2.5525013723    -1.7542955673
| 24>  H       -3.3081324605    -1.8699294918     2.0549749056
| 25>  H       -1.9260672946    -1.3655113283     3.0545461881
| 26> *
| 27>
| 28>                          ****END OF INPUT****

CARTESIAN COORDINATES (ANGSTROEM)
---------------------------------
  C      0.020557    1.652761    0.073905
  C      0.041052    0.122018    0.118859
  C     -1.360642   -0.514781   -0.028255
  C     -1.383301   -2.059987   -0.027055
  C     -0.236024   -2.799293   -0.689563
  O     -1.408807   -2.422633    1.363954
  C     -2.263501   -1.515463    2.024596
  C     -2.210028   -0.216752    1.213108
  O     -2.739308    0.821969    1.512539
  H      1.031112    2.053640    0.198663
  H     -0.364296    2.009719   -0.887726
  H     -0.615708    2.071638    0.857039
  H      0.676278   -0.254762   -0.690118
  H      0.499249   -0.223990    1.053485
  H     -1.853543   -0.097710   -0.912176
  H     -2.330919   -2.384440   -0.492109
  H      0.718735   -2.550209   -0.220880
  H     -0.389963   -3.877569   -0.594564
  H     -0.182039   -2.552501   -1.754296
  H     -3.308132   -1.869929    2.054975
  H     -1.926067   -1.365511    3.054546

 Total Charge           Charge          ....    0
 Multiplicity           Mult            ....    1
 Number of Electrons    NEL             ....   70
 Basis Dimension        Dim             ....  351

ORBITAL ENERGIES
----------------

  NO   OCC          E(Eh)            E(eV)
   0   2.0000     -20.568171      -559.6884
   1   2.0000     -20.554098      -559.3054
   2   2.0000     -11.334630      -308.4310
   3   2.0000     -11.295685      -307.3712
   4   2.0000     -11.289455      -307.2017
   5   2.0000     -11.246173      -306.0239
   6   2.0000     -11.237493      -305.7877
   7   2.0000     -11.226225      -305.4811
   8   2.0000     -11.214508      -305.1623
   9   2.0000      -1.406859       -38.2826
  10   2.0000      -1.386923       -37.7401
  11   2.0000      -1.098474       -29.8910
  12   2.0000      -1.034306       -28.1449
  13   2.0000      -0.995455       -27.0877
  14   2.0000      -0.933815       -25.4104
  15   2.0000      -0.854269       -23.2458
  16   2.0000      -0.793579       -21.5944
  17   2.0000      -0.758358       -20.6360
  18   2.0000      -0.692455       -18.8427
  19   2.0000      -0.671095       -18.2614
  20   2.0000      -0.645614       -17.5681
  21   2.0000      -0.641164       -17.4469
  22   2.0000      -0.607894       -16.5416
  23   2.0000      -0.588556       -16.0154
  24   2.0000      -0.577705       -15.7202
  25   2.0000      -0.552368       -15.0307
  26   2.0000      -0.537436       -14.6244
  27   2.0000      -0.534777       -14.5520
  28   2.0000      -0.530474       -14.4349
  29   2.0000      -0.517227       -14.0745
  30   2.0000      -0.502708       -13.6794
  31   2.0000      -0.480659       -13.0794
  32   2.0000      -0.473326       -12.8799
  33   2.0000      -0.435199       -11.8424
  34   2.0000      -0.393265       -10.7013
  35   0.0000       0.117836         3.2065
  36   0.0000       0.140789         3.8311
  37   0.0000       0.152711         4.1555
  38   0.0000       0.157693         4.2910
  39   0.0000       0.163837         4.4582

MULLIKEN ATOMIC CHARGES
-----------------------
   0 C :   -0.396950
   1 C :   -0.278717
   2 C :   -0.002067
   3 C :    0.073115
   4 C :   -0.400487
   5 O :   -0.314952
   6 C :   -0.041622
   7 C :    0.090842
   8 O :   -0.272121
   9 H :    0.133691
  10 H :    0.120142
  11 H :    0.153739
  12 H :    0.125203
  13 H :    0.132105
  14 H :    0.118236
  15 H :    0.088614
  16 H :    0.140897
  17 H :    0.147831
  18 H :    0.131242
  19 H :    0.110802
  20 H :    0.140456
Sum of atomic charges:   -0.0000000

LOEWDIN ATOMIC CHARGES
----------------------
   0 C :   -0.312387
   1 C :   -0.259634
   2 C :   -0.204232
   3 C :   -0.306731
   4 C :   -0.289866
   5 O :    0.171093
   6 C :   -0.283512
   7 C :   -0.297718
   8 O :    0.159774
   9 H :    0.121792
  10 H :    0.122248
  11 H :    0.127356
  12 H :    0.141173
  13 H :    0.143314
  14 H :    0.162976
  15 H :    0.140326
  16 H :    0.128050
  17 H :    0.130579
  18 H :    0.129397
  19 H :    0.136176
  20 H :    0.139826

  Mayer bond orders larger than 0.1
B(  0-C ,  1-C ) :   0.9309 B(  0-C ,  9-H ) :   0.9402 B(  0-C , 10-H ) :   0.9360
B(  0-C , 11-H ) :   0.9346 B(  1-C ,  2-C ) :   0.8693 B(  1-C , 12-H ) :   0.9335
B(  1-C , 13-H ) :   0.9269 B(  2-C ,  3-C ) :   0.9081 B(  2-C ,  7-C ) :   0.8420
B(  2-C , 14-H ) :   0.9037 B(  3-C ,  4-C ) :   0.8952 B(  3-C ,  5-O ) :   0.9094
B(  3-C , 15-H ) :   0.9427 B(  4-C , 16-H ) :   0.9377 B(  4-C , 17-H ) :   0.9331
B(  4-C , 18-H ) :   0.9359 B(  5-O ,  6-C ) :   0.9621 B(  6-C ,  7-C ) :   0.9363
B(  6-C , 19-H ) :   0.9046 B(  6-C , 20-H ) :   0.9102 B(  7-C ,  8-O ) :   2.0085

MP2 TOTAL ENERGY:     -423.547966404 Eh
FINAL SINGLE POINT ENERGY      -423.547966403661

DIPOLE MOMENT
-------------
                                X             Y             Z
Electronic contribution:     -6.41863      -0.59745       4.85294
Nuclear contribution   :      6.76858       0.19120      -5.43536
                        -----------------------------------------
Total Dipole Moment    :      0.34995      -0.40626      -0.58242
                        -----------------------------------------
Magnitude (a.u.)       :      0.79166
Magnitude (Debye)      :      2.01223

                             ****ORCA TERMINATED NORMALLY****
TOTAL RUN TIME: 0 days 0 hours 22 minutes 18 seconds 872 msec
