                         Program Version 3.0.3 - RELEASE   -
|  1> ! RI-MP2 RIJK def2-TZVP def2-TZVP/C def2-TZVP/JK TIGHTSCF
|  2> % maxcore 2000
|  3> % mp2 density relaxed end
|  4> *xyz 0 1
|  5>  O       -0.2330576761     0.4220495573    -0.6830406634
|  6>  C        0.2134254651     1.0953448828     0.2162015761
|  7>  C        1.4268536933     1.9321911138     0.1009068827
|  8>  O        1.8469851840     2.5523368163     1.2926190971
|  9>  C        2.3997580024     3.8284629823     0.9299633703
| 10>  C        2.7920512898     3.6562452627    -0.5352161246
| 11>  C        3.7253784114     2.4062975859    -0.6910625515
| 12>  C        2.4785456941     1.5612715986    -0.9492942645
| 13>  C        1.6292515239     2.8039302582    -1.1139066722
| 14>  H       -0.2641898349     1.1423956371     1.2180541141
| 15>  H        1.6488330126     4.6217283104     1.0629591965
| 16>  H        3.2503965847     4.0284585908     1.5886840102
| 17>  H        3.0833167935     4.5713807781    -1.0485600646
| 18>  H        4.3457022208     2.4778864684    -1.5871020640
| 19>  H        4.3504310599     2.1442562612     0.1683322883
| 20>  H        2.4009176646     0.6184964392    -1.4771161664
| 21>  H        0.8548508909     3.0607190668    -1.8239970941
| 22> *
| 23>
| 24>                          ****END OF INPUT****

CARTESIAN COORDINATES (ANGSTROEM)
---------------------------------
  O     -0.233058    0.422050   -0.683041
  C      0.213425    1.095345    0.216202
  C      1.426854    1.932191    0.100907
  O      1.846985    2.552337    1.292619
  C      2.399758    3.828463    0.929963
  C      2.792051    3.656245   -0.535216
  C      3.725378    2.406298   -0.691063
  C      2.478546    1.561272   -0.949294
  C      1.629252    2.803930   -1.113907
  H     -0.264190    1.142396    1.218054
  H      1.648833    4.621728    1.062959
  H      3.250397    4.028459    1.588684
  H      3.083317    4.571381   -1.048560
  H      4.345702    2.477886   -1.587102
  H      4.350431    2.144256    0.168332
  H      2.400918    0.618496   -1.477116
  H      0.854851    3.060719   -1.823997

 Total Charge           Charge          ....    0
 Multiplicity           Mult            ....    1
 Number of Electrons    NEL             ....   66
 Basis Dimension        Dim             ....  327

ORBITAL ENERGIES
----------------

  NO   OCC          E(Eh)            E(eV)
   0   2.0000     -20.571102      -559.7681
   1   2.0000     -20.553370      -559.2856
   2   2.0000     -11.334282      -308.4215
   3   2.0000     -11.299184      -307.4664
   4   2.0000     -11.288349      -307.1716
   5   2.0000     -11.254059      -306.2385
   6   2.0000     -11.252921      -306.2075
   7   2.0000     -11.252193      -306.1877
   8   2.0000     -11.241669      -305.9014
   9   2.0000      -1.407764       -38.3072
  10   2.0000      -1.388671       -37.7877
  11   2.0000      -1.196295       -32.5528
  12   2.0000      -1.050033       -28.5728
  13   2.0000      -0.945851       -25.7379
  14   2.0000      -0.897139       -24.4124
  15   2.0000      -0.858180       -23.3523
  16   2.0000      -0.770577       -20.9685
  17   2.0000      -0.738074       -20.0840
  18   2.0000      -0.722779       -19.6678
  19   2.0000      -0.678060       -18.4509
  20   2.0000      -0.651250       -17.7214
  21   2.0000      -0.640908       -17.4400
  22   2.0000      -0.612110       -16.6564
  23   2.0000      -0.595952       -16.2167
  24   2.0000      -0.568827       -15.4786
  25   2.0000      -0.545832       -14.8529
  26   2.0000      -0.514640       -14.0041
  27   2.0000      -0.504571       -13.7301
  28   2.0000      -0.481837       -13.1114
  29   2.0000      -0.462743       -12.5919
  30   2.0000      -0.443919       -12.0797
  31   2.0000      -0.402030       -10.9398
  32   2.0000      -0.379135       -10.3168
  33   0.0000       0.121677         3.3110
  34   0.0000       0.139400         3.7933
  35   0.0000       0.158776         4.3205
  36   0.0000       0.171579         4.6689
  37   0.0000       0.182332         4.9615

MULLIKEN ATOMIC CHARGES
-----------------------
   0 O :   -0.287188
   1 C :    0.026093
   2 C :    0.246446
   3 O :   -0.317623
   4 C :   -0.041542
   5 C :   -0.061528
   6 C :   -0.198409
   7 C :   -0.166031
   8 C :   -0.214844
   9 H :    0.103285
  10 H :    0.097540
  11 H :    0.119515
  12 H :    0.138823
  13 H :    0.129580
  14 H :    0.116558
  15 H :    0.151510
  16 H :    0.157817
Sum of atomic charges:    0.0000000

LOEWDIN ATOMIC CHARGES
----------------------
   0 O :    0.129394
   1 C :   -0.253088
   2 C :   -0.294486
   3 O :    0.198791
   4 C :   -0.261689
   5 C :   -0.189610
   6 C :   -0.182305
   7 C :   -0.126215
   8 C :   -0.103460
   9 H :    0.122125
  10 H :    0.124010
  11 H :    0.129652
  12 H :    0.146035
  13 H :    0.141261
  14 H :    0.131778
  15 H :    0.144904
  16 H :    0.142904

  Mayer bond orders larger than 0.1
B(  0-O ,  1-C ) :   1.9781 B(  1-C ,  2-C ) :   0.8389 B(  1-C ,  9-H ) :   0.9678
B(  2-C ,  3-O ) :   1.0111 B(  2-C ,  7-C ) :   0.8251 B(  2-C ,  8-C ) :   0.8506
B(  3-O ,  4-C ) :   0.9219 B(  4-C ,  5-C ) :   0.9639 B(  4-C , 10-H ) :   0.9262
B(  4-C , 11-H ) :   0.9143 B(  5-C ,  6-C ) :   0.9257 B(  5-C ,  8-C ) :   0.9034
B(  5-C , 12-H ) :   0.9066 B(  6-C ,  7-C ) :   0.9194 B(  6-C , 13-H ) :   0.9239
B(  6-C , 14-H ) :   0.9054 B(  7-C ,  8-C ) :   0.8345 B(  7-C , 15-H ) :   0.9116
B(  8-C , 16-H ) :   0.8968

MP2 TOTAL ENERGY:     -421.094646500 Eh
FINAL SINGLE POINT ENERGY      -421.094646500026

DIPOLE MOMENT
-------------
                                X             Y             Z
Electronic contribution:     -4.23370      -3.40012       0.66515
Nuclear contribution   :      5.01563       4.43226      -0.75913
                        -----------------------------------------
Total Dipole Moment    :      0.78192       1.03214      -0.09398
                        -----------------------------------------
Magnitude (a.u.)       :      1.29829
Magnitude (Debye)      :      3.29998

                             ****ORCA TERMINATED NORMALLY****
TOTAL RUN TIME: 0 days 0 hours 18 minutes 50 seconds 579 msec
