                         Program Version 3.0.3 - RELEASE   -
|  1> ! RI-MP2 RIJK def2-TZVP def2-TZVP/C def2-TZVP/JK TIGHTSCF
|  2> % maxcore 2000
|  3> % mp2 density relaxed end
|  4> *xyz 0 1
|  5>  C        0.0101836834     1.3679104949     0.5188048323
|  6>  C       -0.0311684581    -0.0619888183    -0.0379795671
|  7>  C       -1.4744643723    -0.5821806608    -0.0758653309
|  8>  C        0.6161000384    -0.1714210999    -1.4347060127
|  9>  C        2.0967658963     0.1515186012    -1.4675712796
| 10>  C        3.1351772236    -0.8729118592    -1.0578354642
| 11>  C        3.0668697870    -0.4024136715    -2.4943623180
| 12>  C        2.6004652576    -1.3770029961    -3.5604184798
| 13>  C        4.1606259703     0.5348472020    -2.9750505711
| 14>  H        1.0336971280     1.7371930504     0.6306183033
| 15>  H       -0.5257001046     2.0599547190    -0.1427049754
| 16>  H       -0.4663176337     1.4174060112     1.5036058556
| 17>  H        0.5445160848    -0.7061620238     0.6416968371
| 18>  H       -2.0917052753     0.0230835009    -0.7510818636
| 19>  H       -1.5175978038    -1.6186318024    -0.4275440887
| 20>  H       -1.9370260405    -0.5450251231     0.9161424068
| 21>  H        0.4512983282    -1.1886762925    -1.8071731151
| 22>  H        0.0779855582     0.4944763283    -2.1257889895
| 23>  H        2.3246268015     1.1716102508    -1.1671759565
| 24>  H        3.9718793359    -0.5570135100    -0.4427834810
| 25>  H        2.7846537498    -1.8783524370    -0.8415599374
| 26>  H        1.8605867285    -2.0878037475    -3.1849411041
| 27>  H        2.1559759496    -0.8503672752    -4.4137119261
| 28>  H        3.4483822269    -1.9592935546    -3.9404229025
| 29>  H        5.0425727200    -0.0256152725    -3.3085416165
| 30>  H        3.8174943812     1.1435961051    -3.8205614313
| 31>  H        4.4811899990     1.2175241704    -2.1817726840
| 32> *
| 33>
| 34>                          ****END OF INPUT****

CARTESIAN COORDINATES (ANGSTROEM)
---------------------------------
  C      0.010184    1.367910    0.518805
  C     -0.031168   -0.061989   -0.037980
  C     -1.474464   -0.582181   -0.075865
  C      0.616100   -0.171421   -1.434706
  C      2.096766    0.151519   -1.467571
  C      3.135177   -0.872912   -1.057835
  C      3.066870   -0.402414   -2.494362
  C      2.600465   -1.377003   -3.560418
  C      4.160626    0.534847   -2.975051
  H      1.033697    1.737193    0.630618
  H     -0.525700    2.059955   -0.142705
  H     -0.466318    1.417406    1.503606
  H      0.544516   -0.706162    0.641697
  H     -2.091705    0.023084   -0.751082
  H     -1.517598   -1.618632   -0.427544
  H     -1.937026   -0.545025    0.916142
  H      0.451298   -1.188676   -1.807173
  H      0.077986    0.494476   -2.125789
  H      2.324627    1.171610   -1.167176
  H      3.971879   -0.557014   -0.442783
  H      2.784654   -1.878352   -0.841560
  H      1.860587   -2.087804   -3.184941
  H      2.155976   -0.850367   -4.413712
  H      3.448382   -1.959294   -3.940423
  H      5.042573   -0.025615   -3.308542
  H      3.817494    1.143596   -3.820561
  H      4.481190    1.217524   -2.181773

 Total Charge           Charge          ....    0
 Multiplicity           Mult            ....    1
 Number of Electrons    NEL             ....   72
 Basis Dimension        Dim             ....  387

ORBITAL ENERGIES
----------------

  NO   OCC          E(Eh)            E(eV)
   0   2.0000     -11.231045      -305.6123
   1   2.0000     -11.221355      -305.3486
   2   2.0000     -11.219806      -305.3065
   3   2.0000     -11.214584      -305.1643
   4   2.0000     -11.212845      -305.1170
   5   2.0000     -11.211821      -305.0892
   6   2.0000     -11.211500      -305.0804
   7   2.0000     -11.207704      -304.9771
   8   2.0000     -11.207001      -304.9580
   9   2.0000      -1.153125       -31.3781
  10   2.0000      -1.075836       -29.2750
  11   2.0000      -0.982754       -26.7421
  12   2.0000      -0.936403       -25.4808
  13   2.0000      -0.923677       -25.1345
  14   2.0000      -0.922961       -25.1150
  15   2.0000      -0.802451       -21.8358
  16   2.0000      -0.755102       -20.5474
  17   2.0000      -0.724652       -19.7188
  18   2.0000      -0.653107       -17.7719
  19   2.0000      -0.620555       -16.8862
  20   2.0000      -0.608078       -16.5466
  21   2.0000      -0.591353       -16.0915
  22   2.0000      -0.581835       -15.8325
  23   2.0000      -0.560163       -15.2428
  24   2.0000      -0.542884       -14.7726
  25   2.0000      -0.531368       -14.4593
  26   2.0000      -0.529090       -14.3973
  27   2.0000      -0.528358       -14.3774
  28   2.0000      -0.519523       -14.1369
  29   2.0000      -0.495663       -13.4877
  30   2.0000      -0.477106       -12.9827
  31   2.0000      -0.467498       -12.7213
  32   2.0000      -0.458616       -12.4796
  33   2.0000      -0.447752       -12.1839
  34   2.0000      -0.391527       -10.6540
  35   2.0000      -0.376223       -10.2375
  36   0.0000       0.132077         3.5940
  37   0.0000       0.150485         4.0949
  38   0.0000       0.160303         4.3621
  39   0.0000       0.168195         4.5768
  40   0.0000       0.188597         5.1320

MULLIKEN ATOMIC CHARGES
-----------------------
   0 C :   -0.429394
   1 C :    0.004351
   2 C :   -0.389425
   3 C :   -0.243632
   4 C :   -0.163769
   5 C :   -0.321292
   6 C :    0.156238
   7 C :   -0.390557
   8 C :   -0.407052
   9 H :    0.133119
  10 H :    0.120818
  11 H :    0.129668
  12 H :    0.085048
  13 H :    0.119207
  14 H :    0.126138
  15 H :    0.130029
  16 H :    0.105091
  17 H :    0.112615
  18 H :    0.114064
  19 H :    0.126646
  20 H :    0.121490
  21 H :    0.123286
  22 H :    0.127382
  23 H :    0.131154
  24 H :    0.126959
  25 H :    0.127106
  26 H :    0.124713
Sum of atomic charges:    0.0000000

LOEWDIN ATOMIC CHARGES
----------------------
   0 C :   -0.296786
   1 C :   -0.304366
   2 C :   -0.298315
   3 C :   -0.228846
   4 C :   -0.193410
   5 C :   -0.195538
   6 C :   -0.280099
   7 C :   -0.268616
   8 C :   -0.268920
   9 H :    0.120652
  10 H :    0.122782
  11 H :    0.122512
  12 H :    0.150426
  13 H :    0.122434
  14 H :    0.120757
  15 H :    0.121679
  16 H :    0.142351
  17 H :    0.142373
  18 H :    0.149681
  19 H :    0.130883
  20 H :    0.134706
  21 H :    0.123363
  22 H :    0.126451
  23 H :    0.127345
  24 H :    0.124800
  25 H :    0.125501
  26 H :    0.126200

  Mayer bond orders larger than 0.1
B(  0-C ,  1-C ) :   0.9172 B(  0-C ,  9-H ) :   0.9399 B(  0-C , 10-H ) :   0.9330
B(  0-C , 11-H ) :   0.9397 B(  1-C ,  2-C ) :   0.9121 B(  1-C ,  3-C ) :   0.9147
B(  1-C , 12-H ) :   0.9279 B(  2-C , 13-H ) :   0.9313 B(  2-C , 14-H ) :   0.9413
B(  2-C , 15-H ) :   0.9435 B(  3-C ,  4-C ) :   0.9138 B(  3-C , 16-H ) :   0.9335
B(  3-C , 17-H ) :   0.9247 B(  4-C ,  5-C ) :   0.8885 B(  4-C ,  6-C ) :   0.8505
B(  4-C , 18-H ) :   0.9303 B(  5-C ,  6-C ) :   0.8858 B(  5-C , 19-H ) :   0.9251
B(  5-C , 20-H ) :   0.9224 B(  6-C ,  7-C ) :   0.9204 B(  6-C ,  8-C ) :   0.9019
B(  7-C , 21-H ) :   0.9332 B(  7-C , 22-H ) :   0.9380 B(  7-C , 23-H ) :   0.9373
B(  8-C , 24-H ) :   0.9398 B(  8-C , 25-H ) :   0.9402 B(  8-C , 26-H ) :   0.9317

MP2 TOTAL ENERGY:     -352.912073186 Eh
FINAL SINGLE POINT ENERGY      -352.912073186005

DIPOLE MOMENT
-------------
                                X             Y             Z
Electronic contribution:      2.34701      -0.55827      -0.26626
Nuclear contribution   :     -2.33338       0.54241       0.24604
                        -----------------------------------------
Total Dipole Moment    :      0.01364      -0.01587      -0.02023
                        -----------------------------------------
Magnitude (a.u.)       :      0.02910
Magnitude (Debye)      :      0.07396

                             ****ORCA TERMINATED NORMALLY****
TOTAL RUN TIME: 0 days 0 hours 24 minutes 2 seconds 608 msec
