                         Program Version 3.0.3 - RELEASE   -
|  1> ! RI-MP2 RIJK def2-TZVP def2-TZVP/C def2-TZVP/JK TIGHTSCF
|  2> % maxcore 2000
|  3> % mp2 density relaxed end
|  4> *xyz 0 1
|  5>  O        0.0523599144     1.4452680523    -0.2856271813
|  6>  C        0.0097743760     0.0649617652    -0.0641218127
|  7>  C        0.0667464058    -0.5300729364     1.3800319368
|  8>  C       -1.4260560744    -0.0982790167     1.5491724191
|  9>  C       -1.3477201308    -0.6910644424     0.1048784974
| 10>  C       -0.4963805515    -1.8205219120     0.7353334370
| 11>  C        0.3026256529    -2.9018424202    -0.0143095379
| 12>  C       -0.4300538667    -3.8794727095     0.9224989854
| 13>  O       -1.1362169993    -2.7987234234     1.5685827587
| 14>  H       -0.5480268534     1.8842365835     0.3253495521
| 15>  H        0.7086206188    -0.3665965166    -0.7848485092
| 16>  H        0.8746669996    -0.4507743152     2.1085272074
| 17>  H       -2.0132265851    -0.6636230959     2.2718782972
| 18>  H       -1.6358108001     0.9708262447     1.6468430929
| 19>  H       -2.1542064386    -0.7955011172    -0.6220330780
| 20>  H        0.0685329917    -3.0035825623    -1.0757026258
| 21>  H        1.3859339570    -2.8532458084     0.1113054775
| 22>  H       -1.1188080453    -4.5807232916     0.4375192714
| 23>  H        0.2025535990    -4.4294286280     1.6286933219
| 24> *
| 25>
| 26>                          ****END OF INPUT****

CARTESIAN COORDINATES (ANGSTROEM)
---------------------------------
  O      0.052360    1.445268   -0.285627
  C      0.009774    0.064962   -0.064122
  C      0.066746   -0.530073    1.380032
  C     -1.426056   -0.098279    1.549172
  C     -1.347720   -0.691064    0.104878
  C     -0.496381   -1.820522    0.735333
  C      0.302626   -2.901842   -0.014310
  C     -0.430054   -3.879473    0.922499
  O     -1.136217   -2.798723    1.568583
  H     -0.548027    1.884237    0.325350
  H      0.708621   -0.366597   -0.784849
  H      0.874667   -0.450774    2.108527
  H     -2.013227   -0.663623    2.271878
  H     -1.635811    0.970826    1.646843
  H     -2.154206   -0.795501   -0.622033
  H      0.068533   -3.003583   -1.075703
  H      1.385934   -2.853246    0.111305
  H     -1.118808   -4.580723    0.437519
  H      0.202554   -4.429429    1.628693

 Total Charge           Charge          ....    0
 Multiplicity           Mult            ....    1
 Number of Electrons    NEL             ....   68
 Basis Dimension        Dim             ....  339

ORBITAL ENERGIES
----------------

  NO   OCC          E(Eh)            E(eV)
   0   2.0000     -20.559736      -559.4589
   1   2.0000     -20.550403      -559.2049
   2   2.0000     -11.298555      -307.4493
   3   2.0000     -11.291265      -307.2509
   4   2.0000     -11.281616      -306.9884
   5   2.0000     -11.242395      -305.9211
   6   2.0000     -11.242352      -305.9199
   7   2.0000     -11.236787      -305.7685
   8   2.0000     -11.233768      -305.6864
   9   2.0000      -1.387510       -37.7561
  10   2.0000      -1.370933       -37.3050
  11   2.0000      -1.199504       -32.6402
  12   2.0000      -1.015892       -27.6438
  13   2.0000      -0.913535       -24.8585
  14   2.0000      -0.899112       -24.4661
  15   2.0000      -0.870841       -23.6968
  16   2.0000      -0.804488       -21.8912
  17   2.0000      -0.727099       -19.7854
  18   2.0000      -0.690349       -18.7854
  19   2.0000      -0.683613       -18.6021
  20   2.0000      -0.668381       -18.1876
  21   2.0000      -0.646009       -17.5788
  22   2.0000      -0.598758       -16.2930
  23   2.0000      -0.570107       -15.5134
  24   2.0000      -0.556170       -15.1341
  25   2.0000      -0.544892       -14.8273
  26   2.0000      -0.544730       -14.8229
  27   2.0000      -0.508799       -13.8451
  28   2.0000      -0.483836       -13.1658
  29   2.0000      -0.457756       -12.4562
  30   2.0000      -0.447355       -12.1731
  31   2.0000      -0.436774       -11.8852
  32   2.0000      -0.421365       -11.4659
  33   2.0000      -0.383818       -10.4442
  34   0.0000       0.137890         3.7522
  35   0.0000       0.144420         3.9299
  36   0.0000       0.168895         4.5959
  37   0.0000       0.169596         4.6149
  38   0.0000       0.186137         5.0650

MULLIKEN ATOMIC CHARGES
-----------------------
   0 O :   -0.449709
   1 C :    0.010658
   2 C :   -0.069475
   3 C :   -0.291622
   4 C :   -0.069385
   5 C :    0.154312
   6 C :   -0.331069
   7 C :   -0.004605
   8 O :   -0.344266
   9 H :    0.316401
  10 H :    0.110052
  11 H :    0.132706
  12 H :    0.138896
  13 H :    0.097878
  14 H :    0.132708
  15 H :    0.134583
  16 H :    0.134602
  17 H :    0.098683
  18 H :    0.098653
Sum of atomic charges:   -0.0000000

LOEWDIN ATOMIC CHARGES
----------------------
   0 O :   -0.002669
   1 C :   -0.281226
   2 C :   -0.138231
   3 C :   -0.195722
   4 C :   -0.138225
   5 C :   -0.266379
   6 C :   -0.208875
   7 C :   -0.264118
   8 O :    0.163479
   9 H :    0.174509
  10 H :    0.141349
  11 H :    0.127122
  12 H :    0.137735
  13 H :    0.117326
  14 H :    0.127124
  15 H :    0.136417
  16 H :    0.136408
  17 H :    0.116988
  18 H :    0.116989

  Mayer bond orders larger than 0.1
B(  0-O ,  1-C ) :   1.0117 B(  0-O ,  9-H ) :   0.8330 B(  1-C ,  2-C ) :   0.8657
B(  1-C ,  4-C ) :   0.8656 B(  1-C , 10-H ) :   0.9570 B(  2-C ,  3-C ) :   0.8914
B(  2-C ,  5-C ) :   0.8446 B(  2-C , 11-H ) :   0.8826 B(  3-C ,  4-C ) :   0.8914
B(  3-C , 12-H ) :   0.9068 B(  3-C , 13-H ) :   0.9347 B(  4-C ,  5-C ) :   0.8446
B(  4-C , 14-H ) :   0.8826 B(  5-C ,  6-C ) :   0.9242 B(  5-C ,  8-O ) :   0.9637
B(  6-C ,  7-C ) :   1.0099 B(  6-C , 15-H ) :   0.9182 B(  6-C , 16-H ) :   0.9182
B(  7-C ,  8-O ) :   0.9424 B(  7-C , 17-H ) :   0.9147 B(  7-C , 18-H ) :   0.9147

MP2 TOTAL ENERGY:     -422.249233769 Eh
FINAL SINGLE POINT ENERGY      -422.249233769231

DIPOLE MOMENT
-------------
                                X             Y             Z
Electronic contribution:     -0.51557       1.53573       0.37697
Nuclear contribution   :      0.60321      -1.90358      -0.42726
                        -----------------------------------------
Total Dipole Moment    :      0.08764      -0.36786      -0.05030
                        -----------------------------------------
Magnitude (a.u.)       :      0.38148
Magnitude (Debye)      :      0.96965

                             ****ORCA TERMINATED NORMALLY****
TOTAL RUN TIME: 0 days 0 hours 17 minutes 13 seconds 544 msec
