                         Program Version 3.0.3 - RELEASE   -
|  1> ! RI-MP2 RIJK def2-TZVP def2-TZVP/C def2-TZVP/JK TIGHTSCF
|  2> % maxcore 2000
|  3> % mp2 density relaxed end
|  4> *xyz 0 1
|  5>  C        0.0630042395     1.4698430569    -0.0187984915
|  6>  C        0.0617601999    -0.0369090941     0.0171806439
|  7>  N        0.0513497134    -0.6837323000    -1.1589797345
|  8>  C        0.0499038386    -2.0081718499    -1.1685739500
|  9>  O        0.0392629540    -2.6261322847    -2.3747200318
| 10>  C        0.0586929413    -2.7877255474    -0.0086817747
| 11>  C        0.0694779047    -2.1268363939     1.2061294938
| 12>  C        0.0711428743    -0.7315265825     1.2295699344
| 13>  O        0.0818969571    -0.1101845303     2.4481925592
| 14>  H        0.9536844953     1.8913301654     0.4663638494
| 15>  H        0.0534246906     1.8065113114    -1.0559555679
| 16>  H       -0.8172833428     1.8931997085     0.4833903332
| 17>  H        0.0345295881    -1.9181800614    -3.0326545180
| 18>  H        0.0569812305    -3.8682189068    -0.0771295986
| 19>  H        0.0767169029    -2.6683906665     2.1455545980
| 20>  H        0.0826030724     0.8429088451     2.3184647852
| 21> *
| 22>
| 23>                          ****END OF INPUT****

CARTESIAN COORDINATES (ANGSTROEM)
---------------------------------
  C      0.063004    1.469843   -0.018798
  C      0.061760   -0.036909    0.017181
  N      0.051350   -0.683732   -1.158980
  C      0.049904   -2.008172   -1.168574
  O      0.039263   -2.626132   -2.374720
  C      0.058693   -2.787726   -0.008682
  C      0.069478   -2.126836    1.206129
  C      0.071143   -0.731527    1.229570
  O      0.081897   -0.110185    2.448193
  H      0.953684    1.891330    0.466364
  H      0.053425    1.806511   -1.055956
  H     -0.817283    1.893200    0.483390
  H      0.034530   -1.918180   -3.032655
  H      0.056981   -3.868219   -0.077130
  H      0.076717   -2.668391    2.145555
  H      0.082603    0.842909    2.318465

 Total Charge           Charge          ....    0
 Multiplicity           Mult            ....    1
 Number of Electrons    NEL             ....   66
 Basis Dimension        Dim             ....  321

ORBITAL ENERGIES
----------------

  NO   OCC          E(Eh)            E(eV)
   0   2.0000     -20.589759      -560.2758
   1   2.0000     -20.586563      -560.1889
   2   2.0000     -15.563274      -423.4982
   3   2.0000     -11.330962      -308.3311
   4   2.0000     -11.293797      -307.3199
   5   2.0000     -11.284913      -307.0781
   6   2.0000     -11.255309      -306.2725
   7   2.0000     -11.239696      -305.8477
   8   2.0000     -11.236628      -305.7642
   9   2.0000      -1.417253       -38.5654
  10   2.0000      -1.407176       -38.2912
  11   2.0000      -1.253222       -34.1019
  12   2.0000      -1.088279       -29.6136
  13   2.0000      -1.047676       -28.5087
  14   2.0000      -0.963657       -26.2225
  15   2.0000      -0.862611       -23.4728
  16   2.0000      -0.840531       -22.8720
  17   2.0000      -0.765182       -20.8217
  18   2.0000      -0.725693       -19.7471
  19   2.0000      -0.699498       -19.0343
  20   2.0000      -0.626383       -17.0447
  21   2.0000      -0.614070       -16.7097
  22   2.0000      -0.599991       -16.3266
  23   2.0000      -0.591850       -16.1051
  24   2.0000      -0.588396       -16.0111
  25   2.0000      -0.581069       -15.8117
  26   2.0000      -0.570069       -15.5124
  27   2.0000      -0.549690       -14.9578
  28   2.0000      -0.540021       -14.6947
  29   2.0000      -0.485660       -13.2155
  30   2.0000      -0.431458       -11.7406
  31   2.0000      -0.383124       -10.4253
  32   2.0000      -0.304955        -8.2982
  33   0.0000       0.103966         2.8291
  34   0.0000       0.123985         3.3738
  35   0.0000       0.151055         4.1104
  36   0.0000       0.161987         4.4079
  37   0.0000       0.171738         4.6732

MULLIKEN ATOMIC CHARGES
-----------------------
   0 C :   -0.512809
   1 C :    0.160707
   2 N :   -0.298888
   3 C :    0.283980
   4 O :   -0.422145
   5 C :   -0.176905
   6 C :   -0.184365
   7 C :    0.161857
   8 O :   -0.424748
   9 H :    0.151443
  10 H :    0.159710
  11 H :    0.151375
  12 H :    0.332457
  13 H :    0.141445
  14 H :    0.138626
  15 H :    0.338260
Sum of atomic charges:   -0.0000000

LOEWDIN ATOMIC CHARGES
----------------------
   0 C :   -0.282973
   1 C :   -0.245422
   2 N :    0.153923
   3 C :   -0.374348
   4 O :    0.069643
   5 C :   -0.121660
   6 C :   -0.109219
   7 C :   -0.253542
   8 O :    0.072281
   9 H :    0.129717
  10 H :    0.139043
  11 H :    0.129691
  12 H :    0.193611
  13 H :    0.154637
  14 H :    0.155416
  15 H :    0.189203

  Mayer bond orders larger than 0.1
B(  0-C ,  1-C ) :   0.8371 B(  0-C ,  9-H ) :   0.9362 B(  0-C , 10-H ) :   0.9346
B(  0-C , 11-H ) :   0.9363 B(  1-C ,  2-N ) :   1.3855 B(  1-C ,  7-C ) :   1.2510
B(  2-N ,  3-C ) :   1.3839 B(  3-C ,  4-O ) :   1.1092 B(  3-C ,  5-C ) :   1.2997
B(  4-O , 12-H ) :   0.8151 B(  5-C ,  6-C ) :   1.3685 B(  5-C , 13-H ) :   0.9239
B(  6-C ,  7-C ) :   1.3141 B(  6-C , 14-H ) :   0.9323 B(  7-C ,  8-O ) :   1.0966
B(  8-O , 15-H ) :   0.8292

MP2 TOTAL ENERGY:     -437.236577524 Eh
FINAL SINGLE POINT ENERGY      -437.236577523994

DIPOLE MOMENT
-------------
                                X             Y             Z
Electronic contribution:     -0.01196      -4.24431      -0.89595
Nuclear contribution   :      0.01480       4.92547       1.09723
                        -----------------------------------------
Total Dipole Moment    :      0.00284       0.68116       0.20128
                        -----------------------------------------
Magnitude (a.u.)       :      0.71028
Magnitude (Debye)      :      1.80539

                             ****ORCA TERMINATED NORMALLY****
TOTAL RUN TIME: 0 days 0 hours 15 minutes 32 seconds 46 msec
