                         Program Version 3.0.3 - RELEASE   -
|  1> ! RI-MP2 RIJK def2-TZVP def2-TZVP/C def2-TZVP/JK TIGHTSCF
|  2> % maxcore 2000
|  3> % mp2 density relaxed end
|  4> *xyz 0 1
|  5>  O       -0.0298742752    -0.0096843281     0.1979041244
|  6>  C        0.1673499076     0.9115038263    -0.5502446836
|  7>  C        1.4409971528     1.7249499224    -0.6083149612
|  8>  C        1.1547709527     3.2430010106    -0.5255375596
|  9>  C        2.3549615981     4.0510203627    -0.6988439551
| 10>  C        3.3601826012     4.6945762751    -0.8477860992
| 11>  C        4.5771952165     5.4901551497    -1.0232999343
| 12>  C        4.9071628631     5.7555812853    -2.4251358097
| 13>  C        5.1877830928     5.9790883982    -3.5707106899
| 14>  H       -0.6130736868     1.2321160862    -1.2816867401
| 15>  H        2.1112866237     1.4006871110     0.1908977843
| 16>  H        1.9284360632     1.5137862159    -1.5696610729
| 17>  H        0.4150686077     3.5153990343    -1.2903609231
| 18>  H        0.6902475674     3.4724742821     0.4418655181
| 19>  H        4.4710154405     6.4449124595    -0.4897926609
| 20>  H        5.4230308866     4.9782830922    -0.5436914154
| 21>  H        5.4329330281     6.1752970167    -4.5850288520
| 22> *
| 23>
| 24>                          ****END OF INPUT****

CARTESIAN COORDINATES (ANGSTROEM)
---------------------------------
  O     -0.029874   -0.009684    0.197904
  C      0.167350    0.911504   -0.550245
  C      1.440997    1.724950   -0.608315
  C      1.154771    3.243001   -0.525538
  C      2.354962    4.051020   -0.698844
  C      3.360183    4.694576   -0.847786
  C      4.577195    5.490155   -1.023300
  C      4.907163    5.755581   -2.425136
  C      5.187783    5.979088   -3.570711
  H     -0.613074    1.232116   -1.281687
  H      2.111287    1.400687    0.190898
  H      1.928436    1.513786   -1.569661
  H      0.415069    3.515399   -1.290361
  H      0.690248    3.472474    0.441866
  H      4.471015    6.444912   -0.489793
  H      5.423031    4.978283   -0.543691
  H      5.432933    6.175297   -4.585029

 Total Charge           Charge          ....    0
 Multiplicity           Mult            ....    1
 Number of Electrons    NEL             ....   64
 Basis Dimension        Dim             ....  327

ORBITAL ENERGIES
----------------

  NO   OCC          E(Eh)            E(eV)
   0   2.0000     -20.563606      -559.5642
   1   2.0000     -11.338309      -308.5311
   2   2.0000     -11.290578      -307.2322
   3   2.0000     -11.273435      -306.7658
   4   2.0000     -11.253410      -306.2209
   5   2.0000     -11.245412      -306.0032
   6   2.0000     -11.240051      -305.8573
   7   2.0000     -11.235991      -305.7469
   8   2.0000     -11.231013      -305.6114
   9   2.0000      -1.402350       -38.1599
  10   2.0000      -1.114755       -30.3340
  11   2.0000      -1.091541       -29.7023
  12   2.0000      -1.023671       -27.8555
  13   2.0000      -0.976640       -26.5757
  14   2.0000      -0.914923       -24.8963
  15   2.0000      -0.802124       -21.8269
  16   2.0000      -0.738967       -20.1083
  17   2.0000      -0.691869       -18.8267
  18   2.0000      -0.682494       -18.5716
  19   2.0000      -0.656796       -17.8723
  20   2.0000      -0.646342       -17.5879
  21   2.0000      -0.637144       -17.3376
  22   2.0000      -0.626556       -17.0494
  23   2.0000      -0.605494       -16.4763
  24   2.0000      -0.571905       -15.5623
  25   2.0000      -0.538273       -14.6471
  26   2.0000      -0.508038       -13.8244
  27   2.0000      -0.432029       -11.7561
  28   2.0000      -0.407039       -11.0761
  29   2.0000      -0.404038       -10.9944
  30   2.0000      -0.384842       -10.4721
  31   2.0000      -0.378261       -10.2930
  32   0.0000       0.120093         3.2679
  33   0.0000       0.129792         3.5318
  34   0.0000       0.143176         3.8960
  35   0.0000       0.159198         4.3320
  36   0.0000       0.162950         4.4341

MULLIKEN ATOMIC CHARGES
-----------------------
   0 O :   -0.256216
   1 C :    0.075617
   2 C :   -0.099374
   3 C :   -0.456080
   4 C :    0.041397
   5 C :    0.088791
   6 C :   -0.441630
   7 C :   -0.005450
   8 C :   -0.142191
   9 H :    0.070418
  10 H :    0.130889
  11 H :    0.135836
  12 H :    0.152899
  13 H :    0.159087
  14 H :    0.176288
  15 H :    0.176269
  16 H :    0.193451
Sum of atomic charges:   -0.0000000

LOEWDIN ATOMIC CHARGES
----------------------
   0 O :    0.136063
   1 C :   -0.297038
   2 C :   -0.244074
   3 C :   -0.245609
   4 C :   -0.074345
   5 C :   -0.060790
   6 C :   -0.232244
   7 C :   -0.095934
   8 C :   -0.095473
   9 H :    0.109641
  10 H :    0.148418
  11 H :    0.156877
  12 H :    0.157554
  13 H :    0.159075
  14 H :    0.175248
  15 H :    0.174908
  16 H :    0.127723

  Mayer bond orders larger than 0.1
B(  0-O ,  1-C ) :   2.0124 B(  1-C ,  2-C ) :   0.8603 B(  1-C ,  9-H ) :   0.9394
B(  2-C ,  3-C ) :   0.9228 B(  2-C , 10-H ) :   0.8999 B(  2-C , 11-H ) :   0.9096
B(  3-C ,  4-C ) :   1.0378 B(  3-C ,  5-C ) :  -0.1326 B(  3-C , 12-H ) :   0.9301
B(  3-C , 13-H ) :   0.9245 B(  4-C ,  5-C ) :   2.6249 B(  5-C ,  6-C ) :   0.9804
B(  6-C ,  7-C ) :   1.0789 B(  6-C , 14-H ) :   0.9312 B(  6-C , 15-H ) :   0.9287
B(  7-C ,  8-C ) :   2.6182 B(  8-C , 16-H ) :   0.9051

MP2 TOTAL ENERGY:     -383.933193868 Eh
FINAL SINGLE POINT ENERGY      -383.933193867724

DIPOLE MOMENT
-------------
                                X             Y             Z
Electronic contribution:      0.28406      -0.44919       0.09849
Nuclear contribution   :      0.00413       1.20979      -0.47708
                        -----------------------------------------
Total Dipole Moment    :      0.28819       0.76060      -0.37859
                        -----------------------------------------
Magnitude (a.u.)       :      0.89716
Magnitude (Debye)      :      2.28040

                             ****ORCA TERMINATED NORMALLY****
TOTAL RUN TIME: 0 days 0 hours 12 minutes 3 seconds 372 msec
