                         Program Version 3.0.3 - RELEASE   -
|  1> ! RI-MP2 RIJK def2-TZVP def2-TZVP/C def2-TZVP/JK TIGHTSCF
|  2> % maxcore 2000
|  3> % mp2 density relaxed end
|  4> *xyz 0 1
|  5>  O        0.1704131270    -0.1001605655    -0.6780737097
|  6>  C        0.0630501421     1.0082518318    -0.1958791920
|  7>  C       -1.2967461343     1.6041692581     0.1929296720
|  8>  C       -1.6718287889     2.8277956178    -0.6043274543
|  9>  C       -0.9257009182     3.9166318124    -0.8406237357
| 10>  C        0.4204685886     4.2057181848    -0.3060297071
| 11>  O        0.9719677300     5.2640785461    -0.5305579322
| 12>  C        1.0973954866     3.1605282951     0.5929912206
| 13>  N        1.1348565865     1.8195107183     0.0383441102
| 14>  H       -2.0300169728     0.8126703937     0.0405303689
| 15>  H       -1.2916549187     1.8374083740     1.2673220322
| 16>  H       -2.6644488249     2.7993982523    -1.0475499535
| 17>  H       -1.3243596578     4.7186549160    -1.4550318414
| 18>  H        2.1198259571     3.4992154576     0.7621342736
| 19>  H        0.5905841274     3.1624288653     1.5691540573
| 20>  H        2.0185669304     1.4602671722    -0.2891539289
| 21> *
| 22>
| 23>                          ****END OF INPUT****

CARTESIAN COORDINATES (ANGSTROEM)
---------------------------------
  O      0.170413   -0.100161   -0.678074
  C      0.063050    1.008252   -0.195879
  C     -1.296746    1.604169    0.192930
  C     -1.671829    2.827796   -0.604327
  C     -0.925701    3.916632   -0.840624
  C      0.420469    4.205718   -0.306030
  O      0.971968    5.264079   -0.530558
  C      1.097395    3.160528    0.592991
  N      1.134857    1.819511    0.038344
  H     -2.030017    0.812670    0.040530
  H     -1.291655    1.837408    1.267322
  H     -2.664449    2.799398   -1.047550
  H     -1.324360    4.718655   -1.455032
  H      2.119826    3.499215    0.762134
  H      0.590584    3.162429    1.569154
  H      2.018567    1.460267   -0.289154

 Total Charge           Charge          ....    0
 Multiplicity           Mult            ....    1
 Number of Electrons    NEL             ....   66
 Basis Dimension        Dim             ....  321

ORBITAL ENERGIES
----------------

  NO   OCC          E(Eh)            E(eV)
   0   2.0000     -20.560737      -559.4861
   1   2.0000     -20.531314      -558.6855
   2   2.0000     -15.601151      -424.5289
   3   2.0000     -11.366659      -309.3025
   4   2.0000     -11.346656      -308.7582
   5   2.0000     -11.299253      -307.4683
   6   2.0000     -11.286876      -307.1315
   7   2.0000     -11.268807      -306.6398
   8   2.0000     -11.256298      -306.2994
   9   2.0000      -1.403018       -38.1781
  10   2.0000      -1.396940       -38.0127
  11   2.0000      -1.254320       -34.1318
  12   2.0000      -1.119613       -30.4662
  13   2.0000      -1.033963       -28.1356
  14   2.0000      -0.980560       -26.6824
  15   2.0000      -0.880392       -23.9567
  16   2.0000      -0.793379       -21.5889
  17   2.0000      -0.756559       -20.5870
  18   2.0000      -0.707937       -19.2639
  19   2.0000      -0.692334       -18.8394
  20   2.0000      -0.679628       -18.4936
  21   2.0000      -0.649959       -17.6863
  22   2.0000      -0.631623       -17.1873
  23   2.0000      -0.612587       -16.6693
  24   2.0000      -0.597832       -16.2678
  25   2.0000      -0.568732       -15.4760
  26   2.0000      -0.557024       -15.1574
  27   2.0000      -0.533244       -14.5103
  28   2.0000      -0.530987       -14.4489
  29   2.0000      -0.459842       -12.5129
  30   2.0000      -0.443292       -12.0626
  31   2.0000      -0.398823       -10.8525
  32   2.0000      -0.389989       -10.6121
  33   0.0000       0.069132         1.8812
  34   0.0000       0.119315         3.2467
  35   0.0000       0.143818         3.9135
  36   0.0000       0.147312         4.0086
  37   0.0000       0.173642         4.7250

MULLIKEN ATOMIC CHARGES
-----------------------
   0 O :   -0.334488
   1 C :    0.220642
   2 C :   -0.192654
   3 C :   -0.103252
   4 C :   -0.243962
   5 C :    0.238470
   6 O :   -0.277315
   7 C :   -0.166756
   8 N :   -0.303725
   9 H :    0.161426
  10 H :    0.147427
  11 H :    0.147671
  12 H :    0.143809
  13 H :    0.166807
  14 H :    0.143184
  15 H :    0.252715
Sum of atomic charges:   -0.0000000

LOEWDIN ATOMIC CHARGES
----------------------
   0 O :    0.093583
   1 C :   -0.451834
   2 C :   -0.210873
   3 C :   -0.117371
   4 C :   -0.142812
   5 C :   -0.325478
   6 O :    0.155964
   7 C :   -0.242085
   8 N :    0.116599
   9 H :    0.159199
  10 H :    0.160415
  11 H :    0.153568
  12 H :    0.158727
  13 H :    0.151066
  14 H :    0.146490
  15 H :    0.194840

  Mayer bond orders larger than 0.1
B(  0-O ,  1-C ) :   2.0015 B(  1-C ,  2-C ) :   0.8898 B(  1-C ,  8-N ) :   1.1637
B(  2-C ,  3-C ) :   0.8997 B(  2-C ,  9-H ) :   0.9248 B(  2-C , 10-H ) :   0.9016
B(  3-C ,  4-C ) :   1.6844 B(  3-C , 11-H ) :   0.9168 B(  4-C ,  5-C ) :   1.0197
B(  4-C , 12-H ) :   0.9189 B(  5-C ,  6-O ) :   1.9719 B(  5-C ,  7-C ) :   0.8544
B(  7-C ,  8-N ) :   0.8846 B(  7-C , 13-H ) :   0.9271 B(  7-C , 14-H ) :   0.9190
B(  8-N , 15-H ) :   0.8564

MP2 TOTAL ENERGY:     -437.209804418 Eh
FINAL SINGLE POINT ENERGY      -437.209804417908

DIPOLE MOMENT
-------------
                                X             Y             Z
Electronic contribution:      2.16608       0.26040      -1.74837
Nuclear contribution   :     -2.59847      -0.02961       2.46001
                        -----------------------------------------
Total Dipole Moment    :     -0.43239       0.23078       0.71163
                        -----------------------------------------
Magnitude (a.u.)       :      0.86409
Magnitude (Debye)      :      2.19633

                             ****ORCA TERMINATED NORMALLY****
TOTAL RUN TIME: 0 days 0 hours 16 minutes 20 seconds 190 msec
