                         Program Version 3.0.3 - RELEASE   -
|  1> ! RI-MP2 RIJK def2-TZVP def2-TZVP/C def2-TZVP/JK TIGHTSCF
|  2> % maxcore 2000
|  3> % mp2 density relaxed end
|  4> *xyz 0 1
|  5>  C       -0.3458778421     1.7298943004     0.3317956218
|  6>  C        0.0298737871     0.2553105274     0.1276237539
|  7>  C        0.9569102826    -0.0161284994    -1.0805804573
|  8>  C        1.9064403026    -1.0708127368    -0.5730821630
|  9>  C        1.7853122247    -1.2860929173     0.7364708703
| 10>  C        0.7867759499    -0.3545620212     1.3755317932
| 11>  O        1.4174585622     0.6049869009     2.2183410934
| 12>  C       -1.2714032716    -0.5284447256    -0.0126460870
| 13>  O       -1.5936914700    -1.2155291045    -0.9460510249
| 14>  H        0.5400484655     2.3186763736     0.5781407504
| 15>  H       -0.8011008145     2.1425682928    -0.5740583802
| 16>  H       -1.0539662755     1.8519791732     1.1579489685
| 17>  H        0.3744622138    -0.3673984021    -1.9379897313
| 18>  H        1.4931416867     0.8862361080    -1.4018457919
| 19>  H        2.6022912610    -1.5855580419    -1.2272158733
| 20>  H        2.3672028567    -1.9847730734     1.3266451293
| 21>  H        0.0818419452    -0.8657665766     2.0422217344
| 22>  H        2.2241858520     0.8895680282     1.7741354445
| 23>  H       -1.9484111761    -0.4086100456     0.8661392191
| 24> *
| 25>
| 26>                          ****END OF INPUT****

CARTESIAN COORDINATES (ANGSTROEM)
---------------------------------
  C     -0.345878    1.729894    0.331796
  C      0.029874    0.255311    0.127624
  C      0.956910   -0.016128   -1.080580
  C      1.906440   -1.070813   -0.573082
  C      1.785312   -1.286093    0.736471
  C      0.786776   -0.354562    1.375532
  O      1.417459    0.604987    2.218341
  C     -1.271403   -0.528445   -0.012646
  O     -1.593691   -1.215529   -0.946051
  H      0.540048    2.318676    0.578141
  H     -0.801101    2.142568   -0.574058
  H     -1.053966    1.851979    1.157949
  H      0.374462   -0.367398   -1.937990
  H      1.493142    0.886236   -1.401846
  H      2.602291   -1.585558   -1.227216
  H      2.367203   -1.984773    1.326645
  H      0.081842   -0.865767    2.042222
  H      2.224186    0.889568    1.774135
  H     -1.948411   -0.408610    0.866139

 Total Charge           Charge          ....    0
 Multiplicity           Mult            ....    1
 Number of Electrons    NEL             ....   68
 Basis Dimension        Dim             ....  339

ORBITAL ENERGIES
----------------

  NO   OCC          E(Eh)            E(eV)
   0   2.0000     -20.566000      -559.6293
   1   2.0000     -20.559821      -559.4612
   2   2.0000     -11.331858      -308.3555
   3   2.0000     -11.299097      -307.4640
   4   2.0000     -11.254847      -306.2599
   5   2.0000     -11.245977      -306.0186
   6   2.0000     -11.234297      -305.7008
   7   2.0000     -11.233199      -305.6709
   8   2.0000     -11.231362      -305.6209
   9   2.0000      -1.400092       -38.0984
  10   2.0000      -1.372878       -37.3579
  11   2.0000      -1.150103       -31.2959
  12   2.0000      -1.046249       -28.4699
  13   2.0000      -0.965334       -26.2681
  14   2.0000      -0.918520       -24.9942
  15   2.0000      -0.856048       -23.2942
  16   2.0000      -0.776040       -21.1171
  17   2.0000      -0.747083       -20.3292
  18   2.0000      -0.708533       -19.2802
  19   2.0000      -0.663916       -18.0661
  20   2.0000      -0.658721       -17.9247
  21   2.0000      -0.631845       -17.1934
  22   2.0000      -0.614295       -16.7158
  23   2.0000      -0.594623       -16.1805
  24   2.0000      -0.564971       -15.3736
  25   2.0000      -0.549173       -14.9437
  26   2.0000      -0.543450       -14.7880
  27   2.0000      -0.532302       -14.4847
  28   2.0000      -0.518889       -14.1197
  29   2.0000      -0.493325       -13.4241
  30   2.0000      -0.484955       -13.1963
  31   2.0000      -0.438478       -11.9316
  32   2.0000      -0.414985       -11.2923
  33   2.0000      -0.371546       -10.1103
  34   0.0000       0.116425         3.1681
  35   0.0000       0.139164         3.7868
  36   0.0000       0.145371         3.9557
  37   0.0000       0.158562         4.3147
  38   0.0000       0.169938         4.6243

MULLIKEN ATOMIC CHARGES
-----------------------
   0 C :   -0.385218
   1 C :    0.124288
   2 C :   -0.195609
   3 C :   -0.169257
   4 C :   -0.232894
   5 C :    0.082020
   6 O :   -0.454849
   7 C :    0.020939
   8 O :   -0.261313
   9 H :    0.123809
  10 H :    0.147518
  11 H :    0.136468
  12 H :    0.152797
  13 H :    0.124763
  14 H :    0.133444
  15 H :    0.135174
  16 H :    0.110902
  17 H :    0.315918
  18 H :    0.091100
Sum of atomic charges:    0.0000000

LOEWDIN ATOMIC CHARGES
----------------------
   0 C :   -0.263801
   1 C :   -0.259699
   2 C :   -0.198225
   3 C :   -0.134749
   4 C :   -0.155433
   5 C :   -0.276728
   6 O :   -0.008980
   7 C :   -0.255466
   8 O :    0.143573
   9 H :    0.127515
  10 H :    0.129827
  11 H :    0.131283
  12 H :    0.152766
  13 H :    0.144774
  14 H :    0.139599
  15 H :    0.140690
  16 H :    0.147714
  17 H :    0.176206
  18 H :    0.119135

  Mayer bond orders larger than 0.1
B(  0-C ,  1-C ) :   0.9337 B(  0-C ,  9-H ) :   0.9209 B(  0-C , 10-H ) :   0.9370
B(  0-C , 11-H ) :   0.9235 B(  1-C ,  2-C ) :   0.9076 B(  1-C ,  5-C ) :   0.8426
B(  1-C ,  7-C ) :   0.8209 B(  2-C ,  3-C ) :   0.9540 B(  2-C , 12-H ) :   0.8972
B(  2-C , 13-H ) :   0.9130 B(  3-C ,  4-C ) :   1.7468 B(  3-C , 14-H ) :   0.9297
B(  4-C ,  5-C ) :   0.9635 B(  4-C , 15-H ) :   0.9378 B(  5-C ,  6-O ) :   0.9447
B(  5-C , 16-H ) :   0.9352 B(  6-O , 17-H ) :   0.8385 B(  7-C ,  8-O ) :   1.9961
B(  7-C , 18-H ) :   0.9431

MP2 TOTAL ENERGY:     -422.338671054 Eh
FINAL SINGLE POINT ENERGY      -422.338671053610

DIPOLE MOMENT
-------------
                                X             Y             Z
Electronic contribution:     -1.14651      -3.90156       0.06763
Nuclear contribution   :      1.83380       4.34112      -0.06344
                        -----------------------------------------
Total Dipole Moment    :      0.68729       0.43956       0.00419
                        -----------------------------------------
Magnitude (a.u.)       :      0.81585
Magnitude (Debye)      :      2.07372

                             ****ORCA TERMINATED NORMALLY****
TOTAL RUN TIME: 0 days 0 hours 18 minutes 12 seconds 941 msec
