                         Program Version 3.0.3 - RELEASE   -
|  1> ! RI-MP2 RIJK def2-TZVP def2-TZVP/C def2-TZVP/JK TIGHTSCF
|  2> % maxcore 2000
|  3> % mp2 density relaxed end
|  4> *xyz 0 1
|  5>  C       -0.0471201145     1.4279833505     0.0639084247
|  6>  N        0.0236275011    -0.0144446225    -0.0097253307
|  7>  C        0.0863413401    -0.7917878402    -1.1213588917
|  8>  C        0.0466825615    -2.1098794117    -0.7091621035
|  9>  C        0.1054118702    -3.3437479264    -1.5573181697
| 10>  C       -0.0479491919    -2.0100631080     0.6981217613
| 11>  N       -0.0650959814    -0.7468244006     1.1165828566
| 12>  H        0.4514272844     1.8615973702    -0.8057365721
| 13>  H       -1.0853502760     1.7770347693     0.0916562060
| 14>  H        0.4589548451     1.7556093745     0.9730384487
| 15>  H        0.1578728153    -0.3583979879    -2.1073500816
| 16>  H        0.9835518650    -3.9569284900    -1.3246618803
| 17>  H       -0.7761954696    -3.9782263201    -1.4121792662
| 18>  H        0.1553879330    -3.0896719397    -2.6199592372
| 19>  H       -0.0952923023    -2.8120155173     1.4216454560
| 20> *
| 21>
| 22>                          ****END OF INPUT****

CARTESIAN COORDINATES (ANGSTROEM)
---------------------------------
  C     -0.047120    1.427983    0.063908
  N      0.023628   -0.014445   -0.009725
  C      0.086341   -0.791788   -1.121359
  C      0.046683   -2.109879   -0.709162
  C      0.105412   -3.343748   -1.557318
  C     -0.047949   -2.010063    0.698122
  N     -0.065096   -0.746824    1.116583
  H      0.451427    1.861597   -0.805737
  H     -1.085350    1.777035    0.091656
  H      0.458955    1.755609    0.973038
  H      0.157873   -0.358398   -2.107350
  H      0.983552   -3.956928   -1.324662
  H     -0.776195   -3.978226   -1.412179
  H      0.155388   -3.089672   -2.619959
  H     -0.095292   -2.812016    1.421645

 Total Charge           Charge          ....    0
 Multiplicity           Mult            ....    1
 Number of Electrons    NEL             ....   52
 Basis Dimension        Dim             ....  265

ORBITAL ENERGIES
----------------

  NO   OCC          E(Eh)            E(eV)
   0   2.0000     -15.630940      -425.3395
   1   2.0000     -15.576494      -423.8580
   2   2.0000     -11.269716      -306.6646
   3   2.0000     -11.261850      -306.4505
   4   2.0000     -11.240307      -305.8643
   5   2.0000     -11.224492      -305.4340
   6   2.0000     -11.219890      -305.3087
   7   2.0000      -1.370601       -37.2960
   8   2.0000      -1.117062       -30.3968
   9   2.0000      -1.068836       -29.0845
  10   2.0000      -0.973929       -26.5020
  11   2.0000      -0.912294       -24.8248
  12   2.0000      -0.781287       -21.2599
  13   2.0000      -0.772812       -21.0293
  14   2.0000      -0.697341       -18.9756
  15   2.0000      -0.647399       -17.6166
  16   2.0000      -0.601766       -16.3749
  17   2.0000      -0.585380       -15.9290
  18   2.0000      -0.572842       -15.5878
  19   2.0000      -0.562362       -15.3027
  20   2.0000      -0.543917       -14.8007
  21   2.0000      -0.531770       -14.4702
  22   2.0000      -0.520084       -14.1522
  23   2.0000      -0.446673       -12.1546
  24   2.0000      -0.345592        -9.4040
  25   2.0000      -0.325998        -8.8709
  26   0.0000       0.139804         3.8043
  27   0.0000       0.149352         4.0641
  28   0.0000       0.151892         4.1332
  29   0.0000       0.181020         4.9258
  30   0.0000       0.190414         5.1814

MULLIKEN ATOMIC CHARGES
-----------------------
   0 C :   -0.316398
   1 N :    0.122178
   2 C :   -0.166375
   3 C :    0.010962
   4 C :   -0.417807
   5 C :   -0.121308
   6 N :   -0.260687
   7 H :    0.142484
   8 H :    0.147702
   9 H :    0.165335
  10 H :    0.145458
  11 H :    0.143071
  12 H :    0.143376
  13 H :    0.134152
  14 H :    0.127856
Sum of atomic charges:    0.0000000

LOEWDIN ATOMIC CHARGES
----------------------
   0 C :   -0.277498
   1 N :    0.168039
   2 C :   -0.210963
   3 C :   -0.227149
   4 C :   -0.275116
   5 C :   -0.255334
   6 N :    0.038184
   7 H :    0.124665
   8 H :    0.122242
   9 H :    0.130265
  10 H :    0.137847
  11 H :    0.130472
  12 H :    0.130720
  13 H :    0.129889
  14 H :    0.133738

  Mayer bond orders larger than 0.1
B(  0-C ,  1-N ) :   0.8678 B(  0-C ,  7-H ) :   0.9312 B(  0-C ,  8-H ) :   0.9271
B(  0-C ,  9-H ) :   0.9311 B(  1-N ,  2-C ) :   1.2023 B(  1-N ,  6-N ) :   1.0229
B(  2-C ,  3-C ) :   1.4320 B(  2-C ,  6-N ) :   0.1040 B(  2-C , 10-H ) :   0.8989
B(  3-C ,  4-C ) :   0.8586 B(  3-C ,  5-C ) :   1.3012 B(  4-C , 11-H ) :   0.9346
B(  4-C , 12-H ) :   0.9382 B(  4-C , 13-H ) :   0.9513 B(  5-C ,  6-N ) :   1.4805
B(  5-C , 14-H ) :   0.9399

MP2 TOTAL ENERGY:     -304.186600230 Eh
FINAL SINGLE POINT ENERGY      -304.186600230445

DIPOLE MOMENT
-------------
                                X             Y             Z
Electronic contribution:     -0.07819       0.74479       2.87836
Nuclear contribution   :      0.12570      -0.32193      -3.71034
                        -----------------------------------------
Total Dipole Moment    :      0.04751       0.42286      -0.83198
                        -----------------------------------------
Magnitude (a.u.)       :      0.93448
Magnitude (Debye)      :      2.37527

                             ****ORCA TERMINATED NORMALLY****
TOTAL RUN TIME: 0 days 0 hours 9 minutes 6 seconds 758 msec
