                         Program Version 3.0.3 - RELEASE   -
|  1> ! RI-MP2 RIJK def2-TZVP def2-TZVP/C def2-TZVP/JK TIGHTSCF
|  2> % maxcore 2000
|  3> % mp2 density relaxed end
|  4> *xyz 0 1
|  5>  C       -0.1359228353     1.4920782825    -0.1587443194
|  6>  C       -0.0150624343     0.0016359317     0.0262556580
|  7>  N        1.3093630354    -0.5885907470    -0.1738226317
|  8>  C        0.7138576574    -0.6119713073     1.1889952035
|  9>  C        1.3483465696     0.1721984490     2.2057621407
| 10>  C        1.8559237996     0.8180026938     3.0960343852
| 11>  C        2.4293526071     1.5474592949     4.0898503842
| 12>  C        2.9375867110     2.1953476416     4.9735961094
| 13>  H        0.7444858153     2.0016962961     0.2383161144
| 14>  H       -0.2252008561     1.7376641065    -1.2220295424
| 15>  H       -1.0227867383     1.8756371459     0.3561248691
| 16>  H       -0.8720756950    -0.5770283815    -0.3174718427
| 17>  H        1.2355123217    -1.5170019925    -0.5822924618
| 18>  H        0.3242925498    -1.5654079619     1.5411699152
| 19>  H        3.3867781020     2.7652573082     5.7485475982
| 20> *
| 21>
| 22>                          ****END OF INPUT****

CARTESIAN COORDINATES (ANGSTROEM)
---------------------------------
  C     -0.135923    1.492078   -0.158744
  C     -0.015062    0.001636    0.026256
  N      1.309363   -0.588591   -0.173823
  C      0.713858   -0.611971    1.188995
  C      1.348347    0.172198    2.205762
  C      1.855924    0.818003    3.096034
  C      2.429353    1.547459    4.089850
  C      2.937587    2.195348    4.973596
  H      0.744486    2.001696    0.238316
  H     -0.225201    1.737664   -1.222030
  H     -1.022787    1.875637    0.356125
  H     -0.872076   -0.577028   -0.317472
  H      1.235512   -1.517002   -0.582292
  H      0.324293   -1.565408    1.541170
  H      3.386778    2.765257    5.748548

 Total Charge           Charge          ....    0
 Multiplicity           Mult            ....    1
 Number of Electrons    NEL             ....   56
 Basis Dimension        Dim             ....  290

ORBITAL ENERGIES
----------------

  NO   OCC          E(Eh)            E(eV)
   0   2.0000     -15.575370      -423.8274
   1   2.0000     -11.292922      -307.2960
   2   2.0000     -11.281048      -306.9729
   3   2.0000     -11.256644      -306.3089
   4   2.0000     -11.254376      -306.2471
   5   2.0000     -11.248273      -306.0811
   6   2.0000     -11.246051      -306.0206
   7   2.0000     -11.222891      -305.3904
   8   2.0000      -1.280873       -34.8543
   9   2.0000      -1.086153       -29.5557
  10   2.0000      -1.023187       -27.8423
  11   2.0000      -0.999430       -27.1959
  12   2.0000      -0.926335       -25.2069
  13   2.0000      -0.836150       -22.7528
  14   2.0000      -0.803816       -21.8729
  15   2.0000      -0.729860       -19.8605
  16   2.0000      -0.708867       -19.2893
  17   2.0000      -0.661759       -18.0074
  18   2.0000      -0.587163       -15.9775
  19   2.0000      -0.570666       -15.5286
  20   2.0000      -0.540648       -14.7118
  21   2.0000      -0.511178       -13.9099
  22   2.0000      -0.493802       -13.4370
  23   2.0000      -0.470394       -12.8001
  24   2.0000      -0.466513       -12.6945
  25   2.0000      -0.418444       -11.3864
  26   2.0000      -0.353453        -9.6179
  27   2.0000      -0.341700        -9.2981
  28   0.0000       0.106422         2.8959
  29   0.0000       0.111902         3.0450
  30   0.0000       0.137117         3.7311
  31   0.0000       0.157121         4.2755
  32   0.0000       0.159882         4.3506

MULLIKEN ATOMIC CHARGES
-----------------------
   0 C :   -0.400468
   1 C :    0.054723
   2 N :   -0.359413
   3 C :   -0.273059
   4 C :   -0.017193
   5 C :    0.061709
   6 C :   -0.012709
   7 C :   -0.153059
   8 H :    0.153094
   9 H :    0.133763
  10 H :    0.128041
  11 H :    0.123121
  12 H :    0.222224
  13 H :    0.145755
  14 H :    0.193472
Sum of atomic charges:   -0.0000000

LOEWDIN ATOMIC CHARGES
----------------------
   0 C :   -0.288380
   1 C :   -0.270539
   2 N :    0.019747
   3 C :   -0.245254
   4 C :   -0.004230
   5 C :   -0.050130
   6 C :   -0.098455
   7 C :   -0.048173
   8 H :    0.136237
   9 H :    0.128521
  10 H :    0.128960
  11 H :    0.137590
  12 H :    0.168822
  13 H :    0.155363
  14 H :    0.129922

  Mayer bond orders larger than 0.1
B(  0-C ,  1-C ) :   0.9218 B(  0-C ,  8-H ) :   0.9355 B(  0-C ,  9-H ) :   0.9357
B(  0-C , 10-H ) :   0.9339 B(  1-C ,  2-N ) :   0.8892 B(  1-C ,  3-C ) :   0.8975
B(  1-C , 11-H ) :   0.9201 B(  2-N ,  3-C ) :   0.9855 B(  2-N , 12-H ) :   0.8668
B(  3-C ,  4-C ) :   1.0414 B(  3-C ,  5-C ) :  -0.1635 B(  3-C , 13-H ) :   0.9296
B(  4-C ,  5-C ) :   2.5755 B(  4-C ,  7-C ) :   0.1270 B(  5-C ,  6-C ) :   1.3120
B(  6-C ,  7-C ) :   2.5450 B(  7-C , 14-H ) :   0.8868

MP2 TOTAL ENERGY:     -324.833988914 Eh
FINAL SINGLE POINT ENERGY      -324.833988913805

DIPOLE MOMENT
-------------
                                X             Y             Z
Electronic contribution:      4.18696      -0.82132       6.19084
Nuclear contribution   :     -4.87250       0.42775      -6.38529
                        -----------------------------------------
Total Dipole Moment    :     -0.68554      -0.39357      -0.19445
                        -----------------------------------------
Magnitude (a.u.)       :      0.81405
Magnitude (Debye)      :      2.06916

                             ****ORCA TERMINATED NORMALLY****
TOTAL RUN TIME: 0 days 0 hours 10 minutes 14 seconds 300 msec
