                         Program Version 3.0.3 - RELEASE   -
|  1> ! RI-MP2 RIJK def2-TZVP def2-TZVP/C def2-TZVP/JK TIGHTSCF
|  2> % maxcore 2000
|  3> % mp2 density relaxed end
|  4> *xyz 0 1
|  5>  N       -0.1704867449     1.4198977360     0.1162771393
|  6>  C        0.0914349897     0.0505282399     0.0376163896
|  7>  O        1.2225227009    -0.3987642240     0.0157805009
|  8>  N       -1.0446664558    -0.7225959899     0.0314408014
|  9>  C       -1.0667501326    -2.1259178747     0.0145878074
| 10>  C        0.0021289338    -2.9954369271    -0.0357941155
| 11>  N       -0.5223790624    -4.2687520720    -0.0460852022
| 12>  C       -1.8866770981    -4.2240580403    -0.0009001340
| 13>  C       -2.2625845846    -2.9006867294     0.0359196604
| 14>  H        0.6554420704     1.9636061527    -0.0860846102
| 15>  H       -0.9940531643     1.7611436223    -0.3581877891
| 16>  H       -1.9258637431    -0.2696279362     0.2088281915
| 17>  H        1.0570441470    -2.7997021712    -0.0602745752
| 18>  H        0.0285561430    -5.1075610240    -0.0765131013
| 19>  H       -2.4791833908    -5.1242229259     0.0009371117
| 20>  H       -3.2746334481    -2.5260530160     0.0720648154
| 21> *
| 22>
| 23>                          ****END OF INPUT****

CARTESIAN COORDINATES (ANGSTROEM)
---------------------------------
  N     -0.170487    1.419898    0.116277
  C      0.091435    0.050528    0.037616
  O      1.222523   -0.398764    0.015781
  N     -1.044666   -0.722596    0.031441
  C     -1.066750   -2.125918    0.014588
  C      0.002129   -2.995437   -0.035794
  N     -0.522379   -4.268752   -0.046085
  C     -1.886677   -4.224058   -0.000900
  C     -2.262585   -2.900687    0.035920
  H      0.655442    1.963606   -0.086085
  H     -0.994053    1.761144   -0.358188
  H     -1.925864   -0.269628    0.208828
  H      1.057044   -2.799702   -0.060275
  H      0.028556   -5.107561   -0.076513
  H     -2.479183   -5.124223    0.000937
  H     -3.274633   -2.526053    0.072065

 Total Charge           Charge          ....    0
 Multiplicity           Mult            ....    1
 Number of Electrons    NEL             ....   66
 Basis Dimension        Dim             ....  321

ORBITAL ENERGIES
----------------

  NO   OCC          E(Eh)            E(eV)
   0   2.0000     -20.509602      -558.0947
   1   2.0000     -15.600169      -424.5022
   2   2.0000     -15.590977      -424.2521
   3   2.0000     -15.578122      -423.9023
   4   2.0000     -11.375972      -309.5559
   5   2.0000     -11.255674      -306.2825
   6   2.0000     -11.255521      -306.2783
   7   2.0000     -11.237328      -305.7833
   8   2.0000     -11.211440      -305.0788
   9   2.0000      -1.391563       -37.8663
  10   2.0000      -1.291205       -35.1355
  11   2.0000      -1.244823       -33.8734
  12   2.0000      -1.191310       -32.4172
  13   2.0000      -1.035979       -28.1904
  14   2.0000      -0.974795       -26.5255
  15   2.0000      -0.853912       -23.2361
  16   2.0000      -0.792772       -21.5724
  17   2.0000      -0.761193       -20.7131
  18   2.0000      -0.746122       -20.3030
  19   2.0000      -0.721704       -19.6386
  20   2.0000      -0.682568       -18.5736
  21   2.0000      -0.622915       -16.9504
  22   2.0000      -0.609850       -16.5949
  23   2.0000      -0.602767       -16.4021
  24   2.0000      -0.582926       -15.8622
  25   2.0000      -0.570049       -15.5118
  26   2.0000      -0.565922       -15.3995
  27   2.0000      -0.534629       -14.5480
  28   2.0000      -0.466301       -12.6887
  29   2.0000      -0.444186       -12.0869
  30   2.0000      -0.423167       -11.5150
  31   2.0000      -0.328522        -8.9395
  32   2.0000      -0.283053        -7.7023
  33   0.0000       0.120952         3.2913
  34   0.0000       0.138029         3.7559
  35   0.0000       0.159352         4.3362
  36   0.0000       0.169499         4.6123
  37   0.0000       0.186952         5.0872

MULLIKEN ATOMIC CHARGES
-----------------------
   0 N :   -0.535600
   1 C :    0.422941
   2 O :   -0.405579
   3 N :   -0.353771
   4 C :    0.205482
   5 C :   -0.164965
   6 N :   -0.239006
   7 C :   -0.059970
   8 C :   -0.309763
   9 H :    0.264619
  10 H :    0.244863
  11 H :    0.234571
  12 H :    0.183488
  13 H :    0.244775
  14 H :    0.146102
  15 H :    0.121813
Sum of atomic charges:    0.0000000

LOEWDIN ATOMIC CHARGES
----------------------
   0 N :   -0.078660
   1 C :   -0.554984
   2 O :    0.063480
   3 N :    0.144296
   4 C :   -0.237728
   5 C :   -0.214071
   6 N :    0.179060
   7 C :   -0.245522
   8 C :   -0.191855
   9 H :    0.175321
  10 H :    0.163399
  11 H :    0.194145
  12 H :    0.141984
  13 H :    0.191769
  14 H :    0.132091
  15 H :    0.137274

  Mayer bond orders larger than 0.1
B(  0-N ,  1-C ) :   1.0640 B(  0-N ,  9-H ) :   0.8704 B(  0-N , 10-H ) :   0.8740
B(  1-C ,  2-O ) :   1.8991 B(  1-C ,  3-N ) :   1.0904 B(  3-N ,  4-C ) :   0.9597
B(  3-N , 11-H ) :   0.8742 B(  4-C ,  5-C ) :   1.5320 B(  4-C ,  8-C ) :   1.2560
B(  5-C ,  6-N ) :   1.1190 B(  5-C , 12-H ) :   0.8741 B(  6-N ,  7-C ) :   1.1472
B(  6-N , 13-H ) :   0.8772 B(  7-C ,  8-C ) :   1.4984 B(  7-C , 14-H ) :   0.9193
B(  8-C , 15-H ) :   0.9252

MP2 TOTAL ENERGY:     -433.418423563 Eh
FINAL SINGLE POINT ENERGY      -433.418423562624

DIPOLE MOMENT
-------------
                                X             Y             Z
Electronic contribution:      1.70217      -0.01123       0.06729
Nuclear contribution   :     -2.63064      -0.03765      -0.38499
                        -----------------------------------------
Total Dipole Moment    :     -0.92847      -0.04888      -0.31770
                        -----------------------------------------
Magnitude (a.u.)       :      0.98254
Magnitude (Debye)      :      2.49742

                             ****ORCA TERMINATED NORMALLY****
TOTAL RUN TIME: 0 days 0 hours 14 minutes 7 seconds 564 msec
