                         Program Version 3.0.3 - RELEASE   -
|  1> ! RI-MP2 RIJK def2-TZVP def2-TZVP/C def2-TZVP/JK TIGHTSCF
|  2> % maxcore 2000
|  3> % mp2 density relaxed end
|  4> *xyz 0 1
|  5>  C       -0.2314241112     1.5406628917     0.2876159411
|  6>  C        0.0620971079     0.0940881129    -0.0562992546
|  7>  C       -0.8559284018    -0.9664451645     0.5030316050
|  8>  C        0.5526730482    -0.8198367715     1.0450452704
|  9>  C        1.5780851469    -1.9025474944     0.7679077325
| 10>  O        1.3367067136    -3.0719529792     1.5547782106
| 11>  C        1.6905507968    -2.2422597055    -0.6950949895
| 12>  C        1.2611087063    -1.4564451735    -1.6810797537
| 13>  C        0.6097955334    -0.1185614236    -1.4622431619
| 14>  H        0.6771835437     2.1523479576     0.2385245531
| 15>  H       -0.9598722642     1.9719651149    -0.4096925863
| 16>  H       -0.6432104285     1.6338181426     1.2973713175
| 17>  H       -1.6793712093    -0.6506812713     1.1346188412
| 18>  H       -1.0745470970    -1.8251546796    -0.1246512684
| 19>  H        0.6344345390    -0.3848222127     2.0371172476
| 20>  H        2.5581452108    -1.5538413957     1.1222309463
| 21>  H        0.4356180963    -3.3549885169     1.3618924976
| 22>  H        2.1727387306    -3.1927412054    -0.9081226434
| 23>  H        1.3998838243    -1.7653600041    -2.7146223764
| 24>  H       -0.1954402809     0.0267396519    -2.1962320539
| 25>  H        1.3436924152     0.6722230266    -1.6827531750
| 26> *
| 27>
| 28>                          ****END OF INPUT****

CARTESIAN COORDINATES (ANGSTROEM)
---------------------------------
  C     -0.231424    1.540663    0.287616
  C      0.062097    0.094088   -0.056299
  C     -0.855928   -0.966445    0.503032
  C      0.552673   -0.819837    1.045045
  C      1.578085   -1.902547    0.767908
  O      1.336707   -3.071953    1.554778
  C      1.690551   -2.242260   -0.695095
  C      1.261109   -1.456445   -1.681080
  C      0.609796   -0.118561   -1.462243
  H      0.677184    2.152348    0.238525
  H     -0.959872    1.971965   -0.409693
  H     -0.643210    1.633818    1.297371
  H     -1.679371   -0.650681    1.134619
  H     -1.074547   -1.825155   -0.124651
  H      0.634435   -0.384822    2.037117
  H      2.558145   -1.553841    1.122231
  H      0.435618   -3.354989    1.361892
  H      2.172739   -3.192741   -0.908123
  H      1.399884   -1.765360   -2.714622
  H     -0.195440    0.026740   -2.196232
  H      1.343692    0.672223   -1.682753

 Total Charge           Charge          ....    0
 Multiplicity           Mult            ....    1
 Number of Electrons    NEL             ....   68
 Basis Dimension        Dim             ....  351

ORBITAL ENERGIES
----------------

  NO   OCC          E(Eh)            E(eV)
   0   2.0000     -20.548398      -559.1503
   1   2.0000     -11.281838      -306.9944
   2   2.0000     -11.243065      -305.9393
   3   2.0000     -11.232464      -305.6509
   4   2.0000     -11.231534      -305.6256
   5   2.0000     -11.229545      -305.5715
   6   2.0000     -11.223213      -305.3991
   7   2.0000     -11.222328      -305.3751
   8   2.0000     -11.220899      -305.3362
   9   2.0000      -1.354375       -36.8544
  10   2.0000      -1.172254       -31.8987
  11   2.0000      -1.066150       -29.0114
  12   2.0000      -1.007503       -27.4155
  13   2.0000      -0.946702       -25.7611
  14   2.0000      -0.899247       -24.4698
  15   2.0000      -0.809478       -22.0270
  16   2.0000      -0.778010       -21.1707
  17   2.0000      -0.712872       -19.3982
  18   2.0000      -0.685885       -18.6639
  19   2.0000      -0.639757       -17.4087
  20   2.0000      -0.627976       -17.0881
  21   2.0000      -0.611439       -16.6381
  22   2.0000      -0.592701       -16.1282
  23   2.0000      -0.591497       -16.0955
  24   2.0000      -0.558858       -15.2073
  25   2.0000      -0.546851       -14.8806
  26   2.0000      -0.531461       -14.4618
  27   2.0000      -0.516287       -14.0489
  28   2.0000      -0.496498       -13.5104
  29   2.0000      -0.483283       -13.1508
  30   2.0000      -0.433856       -11.8058
  31   2.0000      -0.407136       -11.0787
  32   2.0000      -0.394800       -10.7431
  33   2.0000      -0.355733        -9.6800
  34   0.0000       0.131810         3.5867
  35   0.0000       0.141622         3.8537
  36   0.0000       0.161094         4.3836
  37   0.0000       0.167184         4.5493
  38   0.0000       0.179002         4.8709

MULLIKEN ATOMIC CHARGES
-----------------------
   0 C :   -0.425474
   1 C :    0.123656
   2 C :   -0.361312
   3 C :   -0.178536
   4 C :    0.180013
   5 O :   -0.467234
   6 C :   -0.241570
   7 C :   -0.195089
   8 C :   -0.133250
   9 H :    0.133132
  10 H :    0.131813
  11 H :    0.130378
  12 H :    0.133557
  13 H :    0.145783
  14 H :    0.117347
  15 H :    0.104254
  16 H :    0.312457
  17 H :    0.126416
  18 H :    0.121621
  19 H :    0.121284
  20 H :    0.120752
Sum of atomic charges:   -0.0000000

LOEWDIN ATOMIC CHARGES
----------------------
   0 C :   -0.265052
   1 C :   -0.244744
   2 C :   -0.190222
   3 C :   -0.168317
   4 C :   -0.314373
   5 O :   -0.022677
   6 C :   -0.159559
   7 C :   -0.160886
   8 C :   -0.206181
   9 H :    0.126615
  10 H :    0.127452
  11 H :    0.128467
  12 H :    0.134282
  13 H :    0.138878
  14 H :    0.152303
  15 H :    0.156430
  16 H :    0.173925
  17 H :    0.147118
  18 H :    0.143307
  19 H :    0.149128
  20 H :    0.154103

  Mayer bond orders larger than 0.1
B(  0-C ,  1-C ) :   0.8912 B(  0-C ,  9-H ) :   0.9426 B(  0-C , 10-H ) :   0.9388
B(  0-C , 11-H ) :   0.9323 B(  1-C ,  2-C ) :   0.8543 B(  1-C ,  3-C ) :   0.7991
B(  1-C ,  8-C ) :   0.9358 B(  2-C ,  3-C ) :   0.8709 B(  2-C , 12-H ) :   0.9264
B(  2-C , 13-H ) :   0.9252 B(  3-C ,  4-C ) :   0.9728 B(  3-C , 14-H ) :   0.9364
B(  4-C ,  5-O ) :   0.8907 B(  4-C ,  6-C ) :   0.9734 B(  4-C , 15-H ) :   0.8961
B(  5-O , 16-H ) :   0.8422 B(  6-C ,  7-C ) :   1.7627 B(  6-C , 17-H ) :   0.9350
B(  7-C ,  8-C ) :   0.9552 B(  7-C , 18-H ) :   0.9306 B(  8-C , 19-H ) :   0.9177
B(  8-C , 20-H ) :   0.9025

MP2 TOTAL ENERGY:     -386.419106544 Eh
FINAL SINGLE POINT ENERGY      -386.419106543582

DIPOLE MOMENT
-------------
                                X             Y             Z
Electronic contribution:      2.61315      -4.99919       1.07988
Nuclear contribution   :     -3.05671       5.50864      -1.54220
                        -----------------------------------------
Total Dipole Moment    :     -0.44355       0.50945      -0.46232
                        -----------------------------------------
Magnitude (a.u.)       :      0.81854
Magnitude (Debye)      :      2.08057

                             ****ORCA TERMINATED NORMALLY****
TOTAL RUN TIME: 0 days 0 hours 19 minutes 25 seconds 351 msec
