                         Program Version 3.0.3 - RELEASE   -
|  1> ! RI-MP2 RIJK def2-TZVP def2-TZVP/C def2-TZVP/JK TIGHTSCF
|  2> % maxcore 2000
|  3> % mp2 density relaxed end
|  4> *xyz 0 1
|  5>  O       -0.9329810936     1.2279800370     0.0085217647
|  6>  C        0.1780498389     0.7743827972     0.0304846923
|  7>  C        1.4434048401     1.6379485495     0.0073191023
|  8>  O        2.5215930792     0.7699373634    -0.2497588729
|  9>  C        3.7560275991     1.4362481331    -0.4560350233
| 10>  C        3.6900679873     2.4930957835    -1.5599011439
| 11>  O        4.6811749160     2.8245540053    -2.1747013005
| 12>  C        2.3670153683     3.1165921529    -1.7514796646
| 13>  C        1.3321921022     2.7614944866    -0.9825116625
| 14>  H        0.3924626912    -0.3133319461     0.0869029361
| 15>  H        1.5213020666     2.0709117084     1.0276111666
| 16>  H        4.1001202604     1.9286331784     0.4708023655
| 17>  H        4.4913123726     0.6769098261    -0.7278442848
| 18>  H        2.2988471903     3.9033318365    -2.4957195334
| 19>  H        0.3631569011     3.2487050983    -1.0380892115
| 20> *
| 21>
| 22>                          ****END OF INPUT****

CARTESIAN COORDINATES (ANGSTROEM)
---------------------------------
  O     -0.932981    1.227980    0.008522
  C      0.178050    0.774383    0.030485
  C      1.443405    1.637949    0.007319
  O      2.521593    0.769937   -0.249759
  C      3.756028    1.436248   -0.456035
  C      3.690068    2.493096   -1.559901
  O      4.681175    2.824554   -2.174701
  C      2.367015    3.116592   -1.751480
  C      1.332192    2.761494   -0.982512
  H      0.392463   -0.313332    0.086903
  H      1.521302    2.070912    1.027611
  H      4.100120    1.928633    0.470802
  H      4.491312    0.676910   -0.727844
  H      2.298847    3.903332   -2.495720
  H      0.363157    3.248705   -1.038089

 Total Charge           Charge          ....    0
 Multiplicity           Mult            ....    1
 Number of Electrons    NEL             ....   66
 Basis Dimension        Dim             ....  315

ORBITAL ENERGIES
----------------

  NO   OCC          E(Eh)            E(eV)
   0   2.0000     -20.600679      -560.5730
   1   2.0000     -20.583706      -560.1111
   2   2.0000     -20.559285      -559.4466
   3   2.0000     -11.356851      -309.0356
   4   2.0000     -11.346421      -308.7518
   5   2.0000     -11.332083      -308.3617
   6   2.0000     -11.310601      -307.7771
   7   2.0000     -11.285880      -307.1044
   8   2.0000     -11.260334      -306.4093
   9   2.0000      -1.434462       -39.0337
  10   2.0000      -1.419792       -38.6345
  11   2.0000      -1.398335       -38.0506
  12   2.0000      -1.119825       -30.4720
  13   2.0000      -1.059622       -28.8338
  14   2.0000      -0.944230       -25.6938
  15   2.0000      -0.884605       -24.0713
  16   2.0000      -0.824020       -22.4227
  17   2.0000      -0.752505       -20.4767
  18   2.0000      -0.726901       -19.7800
  19   2.0000      -0.708908       -19.2904
  20   2.0000      -0.678979       -18.4760
  21   2.0000      -0.662626       -18.0310
  22   2.0000      -0.646355       -17.5882
  23   2.0000      -0.622235       -16.9319
  24   2.0000      -0.617484       -16.8026
  25   2.0000      -0.592290       -16.1170
  26   2.0000      -0.560025       -15.2390
  27   2.0000      -0.548625       -14.9289
  28   2.0000      -0.516972       -14.0675
  29   2.0000      -0.485625       -13.2145
  30   2.0000      -0.453698       -12.3457
  31   2.0000      -0.418133       -11.3780
  32   2.0000      -0.397731       -10.8228
  33   0.0000       0.070006         1.9050
  34   0.0000       0.105636         2.8745
  35   0.0000       0.133011         3.6194
  36   0.0000       0.165191         4.4951
  37   0.0000       0.168681         4.5900

MULLIKEN ATOMIC CHARGES
-----------------------
   0 O :   -0.255457
   1 C :    0.092034
   2 C :    0.154462
   3 O :   -0.306638
   4 C :   -0.069160
   5 C :    0.210392
   6 O :   -0.279811
   7 C :   -0.224801
   8 C :   -0.137865
   9 H :    0.112452
  10 H :    0.110320
  11 H :    0.118235
  12 H :    0.155381
  13 H :    0.152163
  14 H :    0.168293
Sum of atomic charges:   -0.0000000

LOEWDIN ATOMIC CHARGES
----------------------
   0 O :    0.152010
   1 C :   -0.251729
   2 C :   -0.316813
   3 O :    0.192375
   4 C :   -0.264790
   5 C :   -0.328837
   6 O :    0.156359
   7 C :   -0.126106
   8 C :   -0.096289
   9 H :    0.122082
  10 H :    0.163339
  11 H :    0.137360
  12 H :    0.145690
  13 H :    0.156543
  14 H :    0.158806

  Mayer bond orders larger than 0.1
B(  0-O ,  1-C ) :   1.9910 B(  1-C ,  2-C ) :   0.8487 B(  1-C ,  9-H ) :   0.9295
B(  2-C ,  3-O ) :   0.9661 B(  2-C ,  8-C ) :   0.9309 B(  2-C , 10-H ) :   0.8877
B(  3-O ,  4-C ) :   0.9106 B(  4-C ,  5-C ) :   0.8973 B(  4-C , 11-H ) :   0.9183
B(  4-C , 12-H ) :   0.9199 B(  5-C ,  6-O ) :   1.9586 B(  5-C ,  7-C ) :   0.9900
B(  7-C ,  8-C ) :   1.6508 B(  7-C , 13-H ) :   0.9235 B(  8-C , 14-H ) :   0.9010

MP2 TOTAL ENERGY:     -457.034517685 Eh
FINAL SINGLE POINT ENERGY      -457.034517684599

DIPOLE MOMENT
-------------
                                X             Y             Z
Electronic contribution:     -0.55347      -0.29029      -1.21455
Nuclear contribution   :      0.43761       0.27849       1.85982
                        -----------------------------------------
Total Dipole Moment    :     -0.11587      -0.01180       0.64527
                        -----------------------------------------
Magnitude (a.u.)       :      0.65570
Magnitude (Debye)      :      1.66666

                             ****ORCA TERMINATED NORMALLY****
TOTAL RUN TIME: 0 days 0 hours 14 minutes 17 seconds 397 msec
