                         Program Version 3.0.3 - RELEASE   -
|  1> ! RI-MP2 RIJK def2-TZVP def2-TZVP/C def2-TZVP/JK TIGHTSCF
|  2> % maxcore 2000
|  3> % mp2 density relaxed end
|  4> *xyz 0 1
|  5>  C       -1.6110520830    -0.8146231325     0.2562105972
|  6>  N       -0.2946519542    -0.2000752519     0.1439435094
|  7>  C        0.6171721046    -0.4266667111     1.2322776794
|  8>  C        0.1095565264     0.1618946082     2.5623374760
|  9>  O       -0.1813735447     1.5311499858     2.4604557404
| 10>  C        1.3302065141    -1.8144673106     1.3968537728
| 11>  O        2.6256538366    -1.1676951137     1.1647588217
| 12>  C        2.0351802578     0.0549767270     0.9629491837
| 13>  N        2.5184519259     1.1849360280     0.7064372916
| 14>  H       -2.1959953849    -0.3094344539     1.0301628135
| 15>  H       -2.1405558668    -0.6806219567    -0.6904675240
| 16>  H       -1.5958737626    -1.8948002850     0.4858744200
| 17>  H        0.1416556026    -0.4323917360    -0.7398359059
| 18>  H       -0.8115438473    -0.3426192693     2.8747636910
| 19>  H        0.8679646075    -0.0467279375     3.3356346839
| 20>  H        0.5485588842     1.9480888576     1.9818775836
| 21>  H        1.3082747275    -2.2876321188     2.3816824716
| 22>  H        1.1126947491    -2.5434139116     0.6120113583
| 23>  H        3.5367770071     1.1621624521     0.6311021259
| 24> *
| 25>
| 26>                          ****END OF INPUT****

CARTESIAN COORDINATES (ANGSTROEM)
---------------------------------
  C     -1.611052   -0.814623    0.256211
  N     -0.294652   -0.200075    0.143944
  C      0.617172   -0.426667    1.232278
  C      0.109557    0.161895    2.562337
  O     -0.181374    1.531150    2.460456
  C      1.330207   -1.814467    1.396854
  O      2.625654   -1.167695    1.164759
  C      2.035180    0.054977    0.962949
  N      2.518452    1.184936    0.706437
  H     -2.195995   -0.309434    1.030163
  H     -2.140556   -0.680622   -0.690468
  H     -1.595874   -1.894800    0.485874
  H      0.141656   -0.432392   -0.739836
  H     -0.811544   -0.342619    2.874764
  H      0.867965   -0.046728    3.335635
  H      0.548559    1.948089    1.981878
  H      1.308275   -2.287632    2.381682
  H      1.112695   -2.543414    0.612011
  H      3.536777    1.162162    0.631102

 Total Charge           Charge          ....    0
 Multiplicity           Mult            ....    1
 Number of Electrons    NEL             ....   70
 Basis Dimension        Dim             ....  339

ORBITAL ENERGIES
----------------

  NO   OCC          E(Eh)            E(eV)
   0   2.0000     -20.603507      -560.6499
   1   2.0000     -20.550521      -559.2081
   2   2.0000     -15.561492      -423.4497
   3   2.0000     -15.549514      -423.1238
   4   2.0000     -11.346445      -308.7525
   5   2.0000     -11.307521      -307.6933
   6   2.0000     -11.292475      -307.2839
   7   2.0000     -11.288923      -307.1872
   8   2.0000     -11.257518      -306.3326
   9   2.0000      -1.445925       -39.3456
  10   2.0000      -1.361883       -37.0587
  11   2.0000      -1.229289       -33.4506
  12   2.0000      -1.205721       -32.8093
  13   2.0000      -1.042829       -28.3768
  14   2.0000      -0.930313       -25.3151
  15   2.0000      -0.929242       -25.2860
  16   2.0000      -0.870864       -23.6974
  17   2.0000      -0.750611       -20.4252
  18   2.0000      -0.720962       -19.6184
  19   2.0000      -0.713395       -19.4125
  20   2.0000      -0.684683       -18.6312
  21   2.0000      -0.661878       -18.0106
  22   2.0000      -0.626526       -17.0486
  23   2.0000      -0.619341       -16.8531
  24   2.0000      -0.603572       -16.4240
  25   2.0000      -0.589851       -16.0507
  26   2.0000      -0.564371       -15.3573
  27   2.0000      -0.540437       -14.7060
  28   2.0000      -0.524453       -14.2711
  29   2.0000      -0.518372       -14.1056
  30   2.0000      -0.495494       -13.4831
  31   2.0000      -0.448108       -12.1937
  32   2.0000      -0.439699       -11.9648
  33   2.0000      -0.415021       -11.2933
  34   2.0000      -0.383745       -10.4422
  35   0.0000       0.124422         3.3857
  36   0.0000       0.144784         3.9398
  37   0.0000       0.161510         4.3949
  38   0.0000       0.164391         4.4733
  39   0.0000       0.179795         4.8925

MULLIKEN ATOMIC CHARGES
-----------------------
   0 C :   -0.318437
   1 N :   -0.315597
   2 C :    0.085558
   3 C :   -0.031186
   4 O :   -0.466722
   5 C :   -0.062185
   6 O :   -0.253637
   7 C :    0.115925
   8 N :   -0.399954
   9 H :    0.153088
  10 H :    0.143077
  11 H :    0.108986
  12 H :    0.208787
  13 H :    0.121883
  14 H :    0.106495
  15 H :    0.336526
  16 H :    0.122616
  17 H :    0.113367
  18 H :    0.231409
Sum of atomic charges:   -0.0000000

LOEWDIN ATOMIC CHARGES
----------------------
   0 C :   -0.339943
   1 N :    0.018474
   2 C :   -0.316161
   3 C :   -0.310637
   4 O :   -0.022754
   5 C :   -0.195817
   6 O :    0.218046
   7 C :   -0.381318
   8 N :   -0.051666
   9 H :    0.121269
  10 H :    0.120214
  11 H :    0.099304
  12 H :    0.176208
  13 H :    0.131363
  14 H :    0.128042
  15 H :    0.184155
  16 H :    0.123706
  17 H :    0.122984
  18 H :    0.174532

  Mayer bond orders larger than 0.1
B(  0-C ,  1-N ) :   0.9140 B(  0-C ,  9-H ) :   0.9372 B(  0-C , 10-H ) :   0.9373
B(  0-C , 11-H ) :   0.9257 B(  1-N ,  2-C ) :   1.0049 B(  1-N , 12-H ) :   0.8761
B(  2-C ,  3-C ) :   0.9281 B(  2-C ,  5-C ) :   0.9453 B(  2-C ,  7-C ) :   0.8823
B(  3-C ,  4-O ) :   0.9621 B(  3-C , 13-H ) :   0.9276 B(  3-C , 14-H ) :   0.9099
B(  4-O , 15-H ) :   0.8212 B(  5-C ,  6-O ) :   0.8893 B(  5-C , 16-H ) :   0.9098
B(  5-C , 17-H ) :   0.9071 B(  6-O ,  7-C ) :   1.0961 B(  7-C ,  8-N ) :   2.0184
B(  8-N , 18-H ) :   0.8458

MP2 TOTAL ENERGY:     -455.587666633 Eh
FINAL SINGLE POINT ENERGY      -455.587666633243

DIPOLE MOMENT
-------------
                                X             Y             Z
Electronic contribution:      6.48104       2.30454       0.05606
Nuclear contribution   :     -6.52746      -3.63608      -0.27930
                        -----------------------------------------
Total Dipole Moment    :     -0.04642      -1.33153      -0.22324
                        -----------------------------------------
Magnitude (a.u.)       :      1.35091
Magnitude (Debye)      :      3.43375

                             ****ORCA TERMINATED NORMALLY****
TOTAL RUN TIME: 0 days 0 hours 17 minutes 0 seconds 492 msec
