                         Program Version 3.0.3 - RELEASE   -
|  1> ! RI-MP2 RIJK def2-TZVP def2-TZVP/C def2-TZVP/JK TIGHTSCF
|  2> % maxcore 2000
|  3> % mp2 density relaxed end
|  4> *xyz 0 1
|  5>  C        0.0980438176     1.5214427320    -0.1629344080
|  6>  C        0.0529566535     0.0049692354     0.0283758655
|  7>  O        0.6566095690    -0.3756277211     1.2634067217
|  8>  C       -1.3691868125    -0.5569541360    -0.1042402257
|  9>  C       -1.4386069532    -2.0818126192     0.0408886216
| 10>  C       -2.8486444230    -2.6338024267    -0.0434382475
| 11>  O       -3.7170568123    -2.1797808314     0.9687863568
| 12>  C       -3.4667080013    -2.9444723065    -1.3861907320
| 13>  C       -3.0718675534    -4.0608694785    -0.4352502516
| 14>  H        1.1209193595     1.8886601336    -0.0440004737
| 15>  H       -0.2626278379     1.8086408966    -1.1560647110
| 16>  H       -0.5346584550     2.0251110785     0.5791119321
| 17>  H        0.6872426453    -0.4676460606    -0.7329744485
| 18>  H        0.1544912639     0.0400888455     1.9737088582
| 19>  H       -1.9981232979    -0.0851304887     0.6659630010
| 20>  H       -1.7828782890    -0.2515695588    -1.0746255062
| 21>  H       -0.8259680049    -2.5501160070    -0.7395833375
| 22>  H       -0.9973727826    -2.3674704195     1.0015569186
| 23>  H       -3.9868762809    -1.2829419622     0.7450267737
| 24>  H       -4.5269703247    -2.7482373065    -1.5018675724
| 25>  H       -2.8741292748    -2.7933620894    -2.2826129740
| 26>  H       -2.2097905749    -4.6714182050    -0.6808397455
| 27>  H       -3.8729755504    -4.5820291543     0.0755270244
| 28> *
| 29>
| 30>                          ****END OF INPUT****

CARTESIAN COORDINATES (ANGSTROEM)
---------------------------------
  C      0.098044    1.521443   -0.162934
  C      0.052957    0.004969    0.028376
  O      0.656610   -0.375628    1.263407
  C     -1.369187   -0.556954   -0.104240
  C     -1.438607   -2.081813    0.040889
  C     -2.848644   -2.633802   -0.043438
  O     -3.717057   -2.179781    0.968786
  C     -3.466708   -2.944472   -1.386191
  C     -3.071868   -4.060869   -0.435250
  H      1.120919    1.888660   -0.044000
  H     -0.262628    1.808641   -1.156065
  H     -0.534658    2.025111    0.579112
  H      0.687243   -0.467646   -0.732974
  H      0.154491    0.040089    1.973709
  H     -1.998123   -0.085130    0.665963
  H     -1.782878   -0.251570   -1.074626
  H     -0.825968   -2.550116   -0.739583
  H     -0.997373   -2.367470    1.001557
  H     -3.986876   -1.282942    0.745027
  H     -4.526970   -2.748237   -1.501868
  H     -2.874129   -2.793362   -2.282613
  H     -2.209791   -4.671418   -0.680840
  H     -3.872976   -4.582029    0.075527

 Total Charge           Charge          ....    0
 Multiplicity           Mult            ....    1
 Number of Electrons    NEL             ....   72
 Basis Dimension        Dim             ....  363

ORBITAL ENERGIES
----------------

  NO   OCC          E(Eh)            E(eV)
   0   2.0000     -20.558408      -559.4227
   1   2.0000     -20.552701      -559.2674
   2   2.0000     -11.283838      -307.0488
   3   2.0000     -11.281717      -306.9911
   4   2.0000     -11.226206      -305.4806
   5   2.0000     -11.223525      -305.4076
   6   2.0000     -11.220765      -305.3325
   7   2.0000     -11.220329      -305.3207
   8   2.0000     -11.220181      -305.3166
   9   2.0000      -1.368783       -37.2465
  10   2.0000      -1.359155       -36.9845
  11   2.0000      -1.129860       -30.7451
  12   2.0000      -1.062649       -28.9162
  13   2.0000      -0.993777       -27.0420
  14   2.0000      -0.889782       -24.2122
  15   2.0000      -0.831055       -22.6142
  16   2.0000      -0.810870       -22.0649
  17   2.0000      -0.772803       -21.0290
  18   2.0000      -0.687317       -18.7029
  19   2.0000      -0.659993       -17.9593
  20   2.0000      -0.656492       -17.8641
  21   2.0000      -0.645960       -17.5775
  22   2.0000      -0.619638       -16.8612
  23   2.0000      -0.602819       -16.4035
  24   2.0000      -0.580747       -15.8029
  25   2.0000      -0.565992       -15.4014
  26   2.0000      -0.535412       -14.5693
  27   2.0000      -0.528380       -14.3779
  28   2.0000      -0.517998       -14.0954
  29   2.0000      -0.506729       -13.7888
  30   2.0000      -0.496112       -13.4999
  31   2.0000      -0.485344       -13.2069
  32   2.0000      -0.467921       -12.7328
  33   2.0000      -0.444419       -12.0933
  34   2.0000      -0.403782       -10.9875
  35   2.0000      -0.392278       -10.6744
  36   0.0000       0.124986         3.4010
  37   0.0000       0.147687         4.0188
  38   0.0000       0.152705         4.1553
  39   0.0000       0.165114         4.4930
  40   0.0000       0.183099         4.9824

MULLIKEN ATOMIC CHARGES
-----------------------
   0 C :   -0.382063
   1 C :    0.121496
   2 O :   -0.472261
   3 C :   -0.354969
   4 C :   -0.190267
   5 C :    0.265523
   6 O :   -0.474394
   7 C :   -0.326058
   8 C :   -0.264154
   9 H :    0.148897
  10 H :    0.124686
  11 H :    0.112474
  12 H :    0.088068
  13 H :    0.310464
  14 H :    0.097645
  15 H :    0.119255
  16 H :    0.107979
  17 H :    0.125911
  18 H :    0.321611
  19 H :    0.132166
  20 H :    0.122556
  21 H :    0.132280
  22 H :    0.133155
Sum of atomic charges:    0.0000000

LOEWDIN ATOMIC CHARGES
----------------------
   0 C :   -0.305891
   1 C :   -0.374536
   2 O :   -0.023454
   3 C :   -0.260777
   4 C :   -0.229095
   5 C :   -0.371586
   6 O :    0.019185
   7 C :   -0.222394
   8 C :   -0.205867
   9 H :    0.126331
  10 H :    0.125332
  11 H :    0.120101
  12 H :    0.144223
  13 H :    0.174136
  14 H :    0.133325
  15 H :    0.142514
  16 H :    0.147114
  17 H :    0.148653
  18 H :    0.176309
  19 H :    0.133419
  20 H :    0.131004
  21 H :    0.133327
  22 H :    0.138628

  Mayer bond orders larger than 0.1
B(  0-C ,  1-C ) :   0.9384 B(  0-C ,  9-H ) :   0.9441 B(  0-C , 10-H ) :   0.9346
B(  0-C , 11-H ) :   0.9207 B(  1-C ,  2-O ) :   0.8909 B(  1-C ,  3-C ) :   0.9521
B(  1-C , 12-H ) :   0.9263 B(  2-O , 13-H ) :   0.8439 B(  3-C ,  4-C ) :   0.9133
B(  3-C , 14-H ) :   0.9198 B(  3-C , 15-H ) :   0.9222 B(  4-C ,  5-C ) :   0.9128
B(  4-C , 16-H ) :   0.9209 B(  4-C , 17-H ) :   0.9172 B(  5-C ,  6-O ) :   0.9291
B(  5-C ,  7-C ) :   0.8834 B(  5-C ,  8-C ) :   0.8764 B(  6-O , 18-H ) :   0.8419
B(  7-C ,  8-C ) :   0.9212 B(  7-C , 19-H ) :   0.9234 B(  7-C , 20-H ) :   0.9183
B(  8-C , 21-H ) :   0.9304 B(  8-C , 22-H ) :   0.9263

MP2 TOTAL ENERGY:     -424.713521149 Eh
FINAL SINGLE POINT ENERGY      -424.713521148543

DIPOLE MOMENT
-------------
                                X             Y             Z
Electronic contribution:     -1.48772      -3.02094       3.19889
Nuclear contribution   :      1.21136       3.74274      -3.72518
                        -----------------------------------------
Total Dipole Moment    :     -0.27636       0.72181      -0.52629
                        -----------------------------------------
Magnitude (a.u.)       :      0.93507
Magnitude (Debye)      :      2.37677

                             ****ORCA TERMINATED NORMALLY****
TOTAL RUN TIME: 0 days 0 hours 18 minutes 18 seconds 811 msec
