                         Program Version 3.0.3 - RELEASE   -
|  1> ! RI-MP2 RIJK def2-TZVP def2-TZVP/C def2-TZVP/JK TIGHTSCF
|  2> % maxcore 2000
|  3> % mp2 density relaxed end
|  4> *xyz 0 1
|  5>  C       -0.0093859710     1.5943844029    -0.0393465044
|  6>  C        0.0131277015     0.0630202934     0.0186757538
|  7>  C        0.7234094235    -0.6028312760    -1.1908062763
|  8>  C        1.4809825492    -1.7946617344    -0.6012040075
|  9>  C        1.3647609961    -3.1699558890    -1.1675284698
| 10>  N        2.6237200552    -2.4142595731    -1.2950991877
| 11>  C        1.5845246920    -1.5183798860     0.8674366898
| 12>  C        2.4702849872    -2.3217395134     1.7642274169
| 13>  C        0.7799133715    -0.5038429072     1.1952105251
| 14>  H        1.0085332968     1.9975101924    -0.0812154641
| 15>  H       -0.5512249119     1.9495978402    -0.9227047310
| 16>  H       -0.5006605207     2.0162540935     0.8440573395
| 17>  H       -1.0301345787    -0.2851681174     0.0675715324
| 18>  H        0.0356510759    -0.8829672775    -1.9939784370
| 19>  H        1.4490915572     0.1063360582    -1.6109825925
| 20>  H        1.4207733496    -4.0436885264    -0.5234671237
| 21>  H        0.7374116922    -3.2991209754    -2.0465081760
| 22>  H        2.7027709759    -2.0282570735    -2.2333647839
| 23>  H        3.4936294915    -2.3398312926     1.3749963890
| 24>  H        2.4809542763    -1.9185569580     2.7800520604
| 25>  H        2.1407986552    -3.3671351130     1.8202016933
| 26>  H        0.6478731055    -0.1222849378     2.2032947137
| 27> *
| 28>
| 29>                          ****END OF INPUT****

CARTESIAN COORDINATES (ANGSTROEM)
---------------------------------
  C     -0.009386    1.594384   -0.039347
  C      0.013128    0.063020    0.018676
  C      0.723409   -0.602831   -1.190806
  C      1.480983   -1.794662   -0.601204
  C      1.364761   -3.169956   -1.167528
  N      2.623720   -2.414260   -1.295099
  C      1.584525   -1.518380    0.867437
  C      2.470285   -2.321740    1.764227
  C      0.779913   -0.503843    1.195211
  H      1.008533    1.997510   -0.081215
  H     -0.551225    1.949598   -0.922705
  H     -0.500661    2.016254    0.844057
  H     -1.030135   -0.285168    0.067572
  H      0.035651   -0.882967   -1.993978
  H      1.449092    0.106336   -1.610983
  H      1.420773   -4.043689   -0.523467
  H      0.737412   -3.299121   -2.046508
  H      2.702771   -2.028257   -2.233365
  H      3.493629   -2.339831    1.374996
  H      2.480954   -1.918557    2.780052
  H      2.140799   -3.367135    1.820202
  H      0.647873   -0.122285    2.203295

 Total Charge           Charge          ....    0
 Multiplicity           Mult            ....    1
 Number of Electrons    NEL             ....   68
 Basis Dimension        Dim             ....  357

ORBITAL ENERGIES
----------------

  NO   OCC          E(Eh)            E(eV)
   0   2.0000     -15.552509      -423.2053
   1   2.0000     -11.262351      -306.4641
   2   2.0000     -11.250422      -306.1396
   3   2.0000     -11.230867      -305.6074
   4   2.0000     -11.226797      -305.4967
   5   2.0000     -11.224544      -305.4354
   6   2.0000     -11.214123      -305.1518
   7   2.0000     -11.213848      -305.1443
   8   2.0000     -11.213058      -305.1228
   9   2.0000      -1.260423       -34.2979
  10   2.0000      -1.125272       -30.6202
  11   2.0000      -1.028382       -27.9837
  12   2.0000      -0.960129       -26.1264
  13   2.0000      -0.921656       -25.0795
  14   2.0000      -0.882266       -24.0077
  15   2.0000      -0.842219       -22.9179
  16   2.0000      -0.769931       -20.9509
  17   2.0000      -0.704915       -19.1817
  18   2.0000      -0.667517       -18.1641
  19   2.0000      -0.649337       -17.6694
  20   2.0000      -0.605166       -16.4674
  21   2.0000      -0.595543       -16.2055
  22   2.0000      -0.564030       -15.3480
  23   2.0000      -0.558491       -15.1973
  24   2.0000      -0.552775       -15.0418
  25   2.0000      -0.537035       -14.6135
  26   2.0000      -0.499329       -13.5874
  27   2.0000      -0.492870       -13.4117
  28   2.0000      -0.483954       -13.1690
  29   2.0000      -0.468865       -12.7585
  30   2.0000      -0.461259       -12.5515
  31   2.0000      -0.448207       -12.1963
  32   2.0000      -0.395136       -10.7522
  33   2.0000      -0.322846        -8.7851
  34   0.0000       0.135590         3.6896
  35   0.0000       0.149178         4.0593
  36   0.0000       0.157767         4.2931
  37   0.0000       0.167196         4.5496
  38   0.0000       0.168941         4.5971

MULLIKEN ATOMIC CHARGES
-----------------------
   0 C :   -0.419537
   1 C :    0.062868
   2 C :   -0.272233
   3 C :    0.179508
   4 C :   -0.231180
   5 N :   -0.392400
   6 C :    0.026505
   7 C :   -0.425534
   8 C :   -0.247609
   9 H :    0.127387
  10 H :    0.130110
  11 H :    0.130097
  12 H :    0.091908
  13 H :    0.124195
  14 H :    0.111034
  15 H :    0.121855
  16 H :    0.123053
  17 H :    0.215704
  18 H :    0.160902
  19 H :    0.135270
  20 H :    0.129668
  21 H :    0.118429
Sum of atomic charges:    0.0000000

LOEWDIN ATOMIC CHARGES
----------------------
   0 C :   -0.295731
   1 C :   -0.250580
   2 C :   -0.180300
   3 C :   -0.257163
   4 C :   -0.241710
   5 N :    0.003832
   6 C :   -0.150500
   7 C :   -0.266096
   8 C :   -0.113417
   9 H :    0.123272
  10 H :    0.122534
  11 H :    0.122816
  12 H :    0.153542
  13 H :    0.136035
  14 H :    0.145055
  15 H :    0.123991
  16 H :    0.120966
  17 H :    0.165213
  18 H :    0.138530
  19 H :    0.129630
  20 H :    0.131222
  21 H :    0.138861

  Mayer bond orders larger than 0.1
B(  0-C ,  1-C ) :   0.8966 B(  0-C ,  9-H ) :   0.9344 B(  0-C , 10-H ) :   0.9386
B(  0-C , 11-H ) :   0.9411 B(  1-C ,  2-C ) :   0.9502 B(  1-C ,  8-C ) :   0.9131
B(  1-C , 12-H ) :   0.9137 B(  2-C ,  3-C ) :   0.9323 B(  2-C , 13-H ) :   0.9202
B(  2-C , 14-H ) :   0.9111 B(  3-C ,  4-C ) :   0.9191 B(  3-C ,  5-N ) :   0.9135
B(  3-C ,  6-C ) :   0.8939 B(  4-C ,  5-N ) :   0.9391 B(  4-C , 15-H ) :   0.9141
B(  4-C , 16-H ) :   0.9164 B(  5-N , 17-H ) :   0.8688 B(  6-C ,  7-C ) :   0.8954
B(  6-C ,  8-C ) :   1.7537 B(  7-C , 18-H ) :   0.9343 B(  7-C , 19-H ) :   0.9470
B(  7-C , 20-H ) :   0.9242 B(  8-C , 21-H ) :   0.9210

MP2 TOTAL ENERGY:     -366.544477583 Eh
FINAL SINGLE POINT ENERGY      -366.544477583145

DIPOLE MOMENT
-------------
                                X             Y             Z
Electronic contribution:      1.32444      -2.77225      -0.76605
Nuclear contribution   :     -1.86042       2.91250       0.51236
                        -----------------------------------------
Total Dipole Moment    :     -0.53598       0.14025      -0.25370
                        -----------------------------------------
Magnitude (a.u.)       :      0.60935
Magnitude (Debye)      :      1.54885

                             ****ORCA TERMINATED NORMALLY****
TOTAL RUN TIME: 0 days 0 hours 23 minutes 50 seconds 994 msec
