                         Program Version 3.0.3 - RELEASE   -
|  1> ! RI-MP2 RIJK def2-TZVP def2-TZVP/C def2-TZVP/JK TIGHTSCF
|  2> % maxcore 2000
|  3> % mp2 density relaxed end
|  4> *xyz 0 1
|  5>  O       -0.0058905591     1.4286983796    -0.2316368973
|  6>  C        0.0267530558     0.0517558377    -0.0929746188
|  7>  C        0.6263028756    -0.8964271714    -1.1397629177
|  8>  C       -0.5755820263    -1.8707882295    -0.9040283282
|  9>  C       -1.1633883914    -0.8783134227     0.1090985607
| 10>  C       -0.1857260143    -0.6189495118     1.2415784805
| 11>  C        0.7194947090    -1.6731450265     1.8715446594
| 12>  C       -0.0997145828    -2.6483566436     2.6888858064
| 13>  O       -0.2440638053    -3.8136976087     2.4204330548
| 14>  H        0.7959108702     1.7952374400     0.1576132313
| 15>  H        0.5919252910    -0.4450204954    -2.1334621187
| 16>  H        1.6381894950    -1.2751461216    -0.9604817882
| 17>  H       -1.1960196331    -1.9864703073    -1.7944235716
| 18>  H       -0.3365416432    -2.8632958749    -0.5128232965
| 19>  H       -2.2129853082    -0.6326850573     0.2153838586
| 20>  H       -0.6006509057     0.0884846928     1.9570808671
| 21>  H        1.2757862237    -2.2413109593     1.1230710389
| 22>  H        1.4427845105    -1.1784437222     2.5340748281
| 23>  H       -0.6087631213    -2.1993710380     3.5739398412
| 24> *
| 25>
| 26>                          ****END OF INPUT****

CARTESIAN COORDINATES (ANGSTROEM)
---------------------------------
  O     -0.005891    1.428698   -0.231637
  C      0.026753    0.051756   -0.092975
  C      0.626303   -0.896427   -1.139763
  C     -0.575582   -1.870788   -0.904028
  C     -1.163388   -0.878313    0.109099
  C     -0.185726   -0.618950    1.241578
  C      0.719495   -1.673145    1.871545
  C     -0.099715   -2.648357    2.688886
  O     -0.244064   -3.813698    2.420433
  H      0.795911    1.795237    0.157613
  H      0.591925   -0.445020   -2.133462
  H      1.638189   -1.275146   -0.960482
  H     -1.196020   -1.986470   -1.794424
  H     -0.336542   -2.863296   -0.512823
  H     -2.212985   -0.632685    0.215384
  H     -0.600651    0.088485    1.957081
  H      1.275786   -2.241311    1.123071
  H      1.442785   -1.178444    2.534075
  H     -0.608763   -2.199371    3.573940

 Total Charge           Charge          ....    0
 Multiplicity           Mult            ....    1
 Number of Electrons    NEL             ....   68
 Basis Dimension        Dim             ....  339

ORBITAL ENERGIES
----------------

  NO   OCC          E(Eh)            E(eV)
   0   2.0000     -20.573653      -559.8376
   1   2.0000     -20.557051      -559.3858
   2   2.0000     -11.332250      -308.3662
   3   2.0000     -11.296112      -307.3828
   4   2.0000     -11.249836      -306.1236
   5   2.0000     -11.245246      -305.9987
   6   2.0000     -11.236938      -305.7726
   7   2.0000     -11.231531      -305.6255
   8   2.0000     -11.230133      -305.5875
   9   2.0000      -1.395632       -37.9771
  10   2.0000      -1.385130       -37.6913
  11   2.0000      -1.191989       -32.4357
  12   2.0000      -1.046595       -28.4793
  13   2.0000      -0.975620       -26.5480
  14   2.0000      -0.893548       -24.3147
  15   2.0000      -0.819080       -22.2883
  16   2.0000      -0.777194       -21.1485
  17   2.0000      -0.747834       -20.3496
  18   2.0000      -0.718642       -19.5552
  19   2.0000      -0.672988       -18.3129
  20   2.0000      -0.639734       -17.4080
  21   2.0000      -0.634965       -17.2783
  22   2.0000      -0.624817       -17.0021
  23   2.0000      -0.623349       -16.9622
  24   2.0000      -0.573730       -15.6120
  25   2.0000      -0.545816       -14.8524
  26   2.0000      -0.523374       -14.2417
  27   2.0000      -0.521993       -14.2041
  28   2.0000      -0.513006       -13.9596
  29   2.0000      -0.476116       -12.9558
  30   2.0000      -0.470725       -12.8091
  31   2.0000      -0.433191       -11.7877
  32   2.0000      -0.391641       -10.6571
  33   2.0000      -0.379626       -10.3302
  34   0.0000       0.123132         3.3506
  35   0.0000       0.138037         3.7562
  36   0.0000       0.147089         4.0025
  37   0.0000       0.156186         4.2500
  38   0.0000       0.168881         4.5955

MULLIKEN ATOMIC CHARGES
-----------------------
   0 O :   -0.454753
   1 C :    0.199369
   2 C :   -0.255413
   3 C :   -0.251164
   4 C :   -0.140503
   5 C :   -0.211411
   6 C :   -0.146402
   7 C :    0.103352
   8 O :   -0.268462
   9 H :    0.325719
  10 H :    0.121836
  11 H :    0.118688
  12 H :    0.125727
  13 H :    0.141254
  14 H :    0.139821
  15 H :    0.126350
  16 H :    0.124299
  17 H :    0.128356
  18 H :    0.073336
Sum of atomic charges:   -0.0000000

LOEWDIN ATOMIC CHARGES
----------------------
   0 O :    0.028796
   1 C :   -0.319536
   2 C :   -0.200494
   3 C :   -0.209925
   4 C :   -0.144075
   5 C :   -0.182102
   6 C :   -0.242535
   7 C :   -0.289176
   8 O :    0.130582
   9 H :    0.185352
  10 H :    0.140783
  11 H :    0.124098
  12 H :    0.135495
  13 H :    0.131409
  14 H :    0.139151
  15 H :    0.161937
  16 H :    0.150762
  17 H :    0.150106
  18 H :    0.109371

  Mayer bond orders larger than 0.1
B(  0-O ,  1-C ) :   1.0211 B(  0-O ,  9-H ) :   0.8364 B(  1-C ,  2-C ) :   0.9486
B(  1-C ,  4-C ) :   0.8282 B(  1-C ,  5-C ) :   0.9126 B(  2-C ,  3-C ) :   0.9592
B(  2-C , 10-H ) :   0.9116 B(  2-C , 11-H ) :   0.9192 B(  3-C ,  4-C ) :   0.9238
B(  3-C , 12-H ) :   0.9256 B(  3-C , 13-H ) :   0.9289 B(  4-C ,  5-C ) :   0.8768
B(  4-C , 14-H ) :   0.9027 B(  5-C ,  6-C ) :   0.8539 B(  5-C , 15-H ) :   0.9254
B(  6-C ,  7-C ) :   0.8784 B(  6-C , 16-H ) :   0.9092 B(  6-C , 17-H ) :   0.9115
B(  7-C ,  8-O ) :   1.9945 B(  7-C , 18-H ) :   0.9356

MP2 TOTAL ENERGY:     -422.290091548 Eh
FINAL SINGLE POINT ENERGY      -422.290091547732

DIPOLE MOMENT
-------------
                                X             Y             Z
Electronic contribution:     -0.96655      -0.18156       2.54549
Nuclear contribution   :      1.56017       1.01905      -2.37205
                        -----------------------------------------
Total Dipole Moment    :      0.59362       0.83750       0.17344
                        -----------------------------------------
Magnitude (a.u.)       :      1.04109
Magnitude (Debye)      :      2.64623

                             ****ORCA TERMINATED NORMALLY****
TOTAL RUN TIME: 0 days 0 hours 19 minutes 6 seconds 447 msec
