                         Program Version 3.0.3 - RELEASE   -
|  1> ! RI-MP2 RIJK def2-TZVP def2-TZVP/C def2-TZVP/JK TIGHTSCF
|  2> % maxcore 2000
|  3> % mp2 density relaxed end
|  4> *xyz 0 1
|  5>  O        0.3165757437     1.3861869021    -0.0660185569
|  6>  C        0.1446272202     0.0285503066     0.0016848179
|  7>  C       -0.0854480994    -0.7554932131    -1.1100110300
|  8>  N       -0.2043223081    -2.0533503309    -0.6443789433
|  9>  C       -0.0545653394    -2.0918317374     0.7152216953
| 10>  C        0.1652019685    -0.8048923613     1.1536755753
| 11>  C       -0.1936255158    -0.3602676044    -2.5232691807
| 12>  C        0.3296612396    -1.2281272129    -3.6512595592
| 13>  C       -1.1547093809    -1.0338932648    -3.4833470744
| 14>  H        0.4610979612     1.7181259881     0.8239258459
| 15>  H       -0.3765170936    -2.8545575642    -1.2245449595
| 16>  H       -0.1156320288    -3.0207648758     1.2580035926
| 17>  H        0.3222839916    -0.4956285342     2.1763795838
| 18>  H       -0.0683220841     0.7088925681    -2.6525921554
| 19>  H        0.8253280596    -0.7421387190    -4.4844598816
| 20>  H        0.7555004813    -2.1917144015    -3.3891540777
| 21>  H       -1.7431538510    -1.8647969403    -3.1066715731
| 22>  H       -1.6811194945    -0.4141469851    -4.2009131090
| 23> *
| 24>
| 25>                          ****END OF INPUT****

CARTESIAN COORDINATES (ANGSTROEM)
---------------------------------
  O      0.316576    1.386187   -0.066019
  C      0.144627    0.028550    0.001685
  C     -0.085448   -0.755493   -1.110011
  N     -0.204322   -2.053350   -0.644379
  C     -0.054565   -2.091832    0.715222
  C      0.165202   -0.804892    1.153676
  C     -0.193626   -0.360268   -2.523269
  C      0.329661   -1.228127   -3.651260
  C     -1.154709   -1.033893   -3.483347
  H      0.461098    1.718126    0.823926
  H     -0.376517   -2.854558   -1.224545
  H     -0.115632   -3.020765    1.258004
  H      0.322284   -0.495629    2.176380
  H     -0.068322    0.708893   -2.652592
  H      0.825328   -0.742139   -4.484460
  H      0.755500   -2.191714   -3.389154
  H     -1.743154   -1.864797   -3.106672
  H     -1.681119   -0.414147   -4.200913

 Total Charge           Charge          ....    0
 Multiplicity           Mult            ....    1
 Number of Electrons    NEL             ....   66
 Basis Dimension        Dim             ....  333

ORBITAL ENERGIES
----------------

  NO   OCC          E(Eh)            E(eV)
   0   2.0000     -20.569988      -559.7378
   1   2.0000     -15.597758      -424.4366
   2   2.0000     -11.264107      -306.5119
   3   2.0000     -11.253568      -306.2251
   4   2.0000     -11.242604      -305.9268
   5   2.0000     -11.237212      -305.7801
   6   2.0000     -11.228270      -305.5368
   7   2.0000     -11.227622      -305.5191
   8   2.0000     -11.208301      -304.9934
   9   2.0000      -1.382874       -37.6299
  10   2.0000      -1.285167       -34.9712
  11   2.0000      -1.140953       -31.0469
  12   2.0000      -1.033636       -28.1267
  13   2.0000      -0.983645       -26.7663
  14   2.0000      -0.839738       -22.8504
  15   2.0000      -0.824525       -22.4365
  16   2.0000      -0.795937       -21.6586
  17   2.0000      -0.778087       -21.1728
  18   2.0000      -0.713333       -19.4108
  19   2.0000      -0.657005       -17.8780
  20   2.0000      -0.651892       -17.7389
  21   2.0000      -0.615442       -16.7470
  22   2.0000      -0.605733       -16.4828
  23   2.0000      -0.594507       -16.1774
  24   2.0000      -0.569627       -15.5003
  25   2.0000      -0.535790       -14.5796
  26   2.0000      -0.523845       -14.2545
  27   2.0000      -0.515295       -14.0219
  28   2.0000      -0.504025       -13.7152
  29   2.0000      -0.439191       -11.9510
  30   2.0000      -0.426003       -11.5921
  31   2.0000      -0.332458        -9.0467
  32   2.0000      -0.268530        -7.3071
  33   0.0000       0.132495         3.6054
  34   0.0000       0.146725         3.9926
  35   0.0000       0.165891         4.5141
  36   0.0000       0.167473         4.5572
  37   0.0000       0.180632         4.9152

MULLIKEN ATOMIC CHARGES
-----------------------
   0 O :   -0.447757
   1 C :    0.111626
   2 C :    0.123110
   3 N :   -0.280319
   4 C :   -0.116165
   5 C :   -0.236932
   6 C :   -0.147835
   7 C :   -0.250923
   8 C :   -0.250952
   9 H :    0.332222
  10 H :    0.239389
  11 H :    0.143009
  12 H :    0.121057
  13 H :    0.149606
  14 H :    0.133201
  15 H :    0.122283
  16 H :    0.122162
  17 H :    0.133219
Sum of atomic charges:   -0.0000000

LOEWDIN ATOMIC CHARGES
----------------------
   0 O :    0.046371
   1 C :   -0.287451
   2 C :   -0.200244
   3 N :    0.200972
   4 C :   -0.245790
   5 C :   -0.205012
   6 C :   -0.192579
   7 C :   -0.224338
   8 C :   -0.224370
   9 H :    0.190144
  10 H :    0.190345
  11 H :    0.131174
  12 H :    0.136712
  13 H :    0.164637
  14 H :    0.131654
  15 H :    0.128075
  16 H :    0.128036
  17 H :    0.131664

  Mayer bond orders larger than 0.1
B(  0-O ,  1-C ) :   1.0979 B(  0-O ,  9-H ) :   0.8363 B(  1-C ,  2-C ) :   1.5123
B(  1-C ,  5-C ) :   1.2672 B(  2-C ,  3-N ) :   1.0392 B(  2-C ,  6-C ) :   0.9550
B(  3-N ,  4-C ) :   1.1825 B(  3-N , 10-H ) :   0.8740 B(  4-C ,  5-C ) :   1.4268
B(  4-C , 11-H ) :   0.9152 B(  5-C , 12-H ) :   0.9297 B(  6-C ,  7-C ) :   0.8562
B(  6-C ,  8-C ) :   0.8563 B(  6-C , 13-H ) :   0.9298 B(  7-C ,  8-C ) :   0.8732
B(  7-C , 14-H ) :   0.9330 B(  7-C , 15-H ) :   0.9353 B(  8-C , 16-H ) :   0.9353
B(  8-C , 17-H ) :   0.9330

MP2 TOTAL ENERGY:     -401.267809100 Eh
FINAL SINGLE POINT ENERGY      -401.267809100303

DIPOLE MOMENT
-------------
                                X             Y             Z
Electronic contribution:      0.78761       1.80190       4.86038
Nuclear contribution   :     -0.85523      -2.33884      -4.82701
                        -----------------------------------------
Total Dipole Moment    :     -0.06761      -0.53694       0.03337
                        -----------------------------------------
Magnitude (a.u.)       :      0.54221
Magnitude (Debye)      :      1.37818

                             ****ORCA TERMINATED NORMALLY****
TOTAL RUN TIME: 0 days 0 hours 16 minutes 6 seconds 953 msec
