                         Program Version 3.0.3 - RELEASE   -
|  1> ! RI-MP2 RIJK def2-TZVP def2-TZVP/C def2-TZVP/JK TIGHTSCF
|  2> % maxcore 2000
|  3> % mp2 density relaxed end
|  4> *xyz 0 1
|  5>  C        0.0111139475     1.4620059545     0.0381962084
|  6>  C        0.0101639757    -0.0419575300    -0.0059283596
|  7>  C        0.6016604134    -0.9742806990    -1.1059417770
|  8>  C        0.0039876526    -1.9504907994    -0.0522114099
|  9>  C        0.0037317363    -3.4550264805    -0.0812678431
| 10>  O        1.3118763933    -4.0128797327    -0.0856078129
| 11>  C        0.6491229325    -1.0239027535     1.0317552138
| 12>  C       -1.2315949888    -0.9924149205    -0.0329520716
| 13>  O       -2.1682841739    -1.0100973263     1.0092741462
| 14>  H        1.0297340949     1.8599364869     0.1003410808
| 15>  H       -0.4597567585     1.8795869449    -0.8583676329
| 16>  H       -0.5471058532     1.8271148688     0.9074822996
| 17>  H        0.1162865835    -0.9501114340    -2.0867435229
| 18>  H        1.6896677197    -0.9817801003    -1.1975285778
| 19>  H       -0.5948939616    -3.8401889639     0.7604472739
| 20>  H       -0.4732624782    -3.8080765289    -1.0024910325
| 21>  H        1.7477669066    -3.7335656046     0.7259649640
| 22>  H        1.7422907553    -1.0191518467     1.0822746714
| 23>  H        0.2344931337    -1.0468999272     2.0463970715
| 24>  H       -1.8185936209    -0.9715826725    -0.9562273633
| 25>  H       -1.7079523898    -0.9840719051     1.8541856739
| 26> *
| 27>
| 28>                          ****END OF INPUT****

CARTESIAN COORDINATES (ANGSTROEM)
---------------------------------
  C      0.011114    1.462006    0.038196
  C      0.010164   -0.041958   -0.005928
  C      0.601660   -0.974281   -1.105942
  C      0.003988   -1.950491   -0.052211
  C      0.003732   -3.455026   -0.081268
  O      1.311876   -4.012880   -0.085608
  C      0.649123   -1.023903    1.031755
  C     -1.231595   -0.992415   -0.032952
  O     -2.168284   -1.010097    1.009274
  H      1.029734    1.859936    0.100341
  H     -0.459757    1.879587   -0.858368
  H     -0.547106    1.827115    0.907482
  H      0.116287   -0.950111   -2.086744
  H      1.689668   -0.981780   -1.197529
  H     -0.594894   -3.840189    0.760447
  H     -0.473262   -3.808077   -1.002491
  H      1.747767   -3.733566    0.725965
  H      1.742291   -1.019152    1.082275
  H      0.234493   -1.046900    2.046397
  H     -1.818594   -0.971583   -0.956227
  H     -1.707952   -0.984072    1.854186

 Total Charge           Charge          ....    0
 Multiplicity           Mult            ....    1
 Number of Electrons    NEL             ....   70
 Basis Dimension        Dim             ....  351

ORBITAL ENERGIES
----------------

  NO   OCC          E(Eh)            E(eV)
   0   2.0000     -20.561358      -559.5030
   1   2.0000     -20.556424      -559.3687
   2   2.0000     -11.287696      -307.1538
   3   2.0000     -11.275847      -306.8314
   4   2.0000     -11.252783      -306.2038
   5   2.0000     -11.248710      -306.0930
   6   2.0000     -11.239326      -305.8376
   7   2.0000     -11.231113      -305.6141
   8   2.0000     -11.221048      -305.3402
   9   2.0000      -1.372943       -37.3597
  10   2.0000      -1.359297       -36.9884
  11   2.0000      -1.209354       -32.9082
  12   2.0000      -1.000269       -27.2187
  13   2.0000      -0.947315       -25.7778
  14   2.0000      -0.922652       -25.1066
  15   2.0000      -0.892392       -24.2832
  16   2.0000      -0.780199       -21.2303
  17   2.0000      -0.762561       -20.7504
  18   2.0000      -0.685425       -18.6514
  19   2.0000      -0.677923       -18.4472
  20   2.0000      -0.639539       -17.4027
  21   2.0000      -0.632391       -17.2082
  22   2.0000      -0.608331       -16.5535
  23   2.0000      -0.584142       -15.8953
  24   2.0000      -0.571681       -15.5562
  25   2.0000      -0.568645       -15.4736
  26   2.0000      -0.548287       -14.9196
  27   2.0000      -0.531848       -14.4723
  28   2.0000      -0.521831       -14.1998
  29   2.0000      -0.488193       -13.2844
  30   2.0000      -0.457738       -12.4557
  31   2.0000      -0.445128       -12.1125
  32   2.0000      -0.436454       -11.8765
  33   2.0000      -0.425061       -11.5665
  34   2.0000      -0.397370       -10.8130
  35   0.0000       0.124139         3.3780
  36   0.0000       0.143246         3.8979
  37   0.0000       0.152235         4.1425
  38   0.0000       0.164492         4.4761
  39   0.0000       0.185250         5.0409

MULLIKEN ATOMIC CHARGES
-----------------------
   0 C :   -0.427946
   1 C :    0.027624
   2 C :   -0.184234
   3 C :   -0.073507
   4 C :   -0.000560
   5 O :   -0.467167
   6 C :   -0.308677
   7 C :    0.064568
   8 O :   -0.454183
   9 H :    0.137290
  10 H :    0.137379
  11 H :    0.135092
  12 H :    0.116061
  13 H :    0.115345
  14 H :    0.110346
  15 H :    0.114504
  16 H :    0.312366
  17 H :    0.119972
  18 H :    0.103128
  19 H :    0.106974
  20 H :    0.315627
Sum of atomic charges:    0.0000000

LOEWDIN ATOMIC CHARGES
----------------------
   0 C :   -0.280381
   1 C :   -0.223647
   2 C :   -0.150023
   3 C :   -0.217579
   4 C :   -0.312566
   5 O :   -0.046121
   6 C :   -0.172987
   7 C :   -0.249576
   8 O :   -0.003643
   9 H :    0.129265
  10 H :    0.131153
  11 H :    0.130092
  12 H :    0.131965
  13 H :    0.135073
  14 H :    0.124079
  15 H :    0.136899
  16 H :    0.172440
  17 H :    0.131389
  18 H :    0.118008
  19 H :    0.143152
  20 H :    0.173007

  Mayer bond orders larger than 0.1
B(  0-C ,  1-C ) :   0.8347 B(  0-C ,  9-H ) :   0.9461 B(  0-C , 10-H ) :   0.9441
B(  0-C , 11-H ) :   0.9434 B(  1-C ,  2-C ) :   0.8805 B(  1-C ,  6-C ) :   0.8542
B(  1-C ,  7-C ) :   0.8582 B(  2-C ,  3-C ) :   0.8774 B(  2-C , 12-H ) :   0.9283
B(  2-C , 13-H ) :   0.9162 B(  3-C ,  4-C ) :   0.8644 B(  3-C ,  6-C ) :   0.8519
B(  3-C ,  7-C ) :   0.8262 B(  4-C ,  5-O ) :   0.8991 B(  4-C , 14-H ) :   0.9537
B(  4-C , 15-H ) :   0.9262 B(  5-O , 16-H ) :   0.8481 B(  6-C , 17-H ) :   0.9166
B(  6-C , 18-H ) :   0.9351 B(  7-C ,  8-O ) :   0.9886 B(  7-C , 19-H ) :   0.9582
B(  8-O , 20-H ) :   0.8322

MP2 TOTAL ENERGY:     -423.483193618 Eh
FINAL SINGLE POINT ENERGY      -423.483193618161

DIPOLE MOMENT
-------------
                                X             Y             Z
Electronic contribution:     -1.58245      -3.86579       0.41467
Nuclear contribution   :      1.95734       4.38572       0.10117
                        -----------------------------------------
Total Dipole Moment    :      0.37488       0.51993       0.51584
                        -----------------------------------------
Magnitude (a.u.)       :      0.82277
Magnitude (Debye)      :      2.09131

                             ****ORCA TERMINATED NORMALLY****
TOTAL RUN TIME: 0 days 0 hours 18 minutes 25 seconds 525 msec
