                         Program Version 3.0.3 - RELEASE   -
|  1> ! RI-MP2 RIJK def2-TZVP def2-TZVP/C def2-TZVP/JK TIGHTSCF
|  2> % maxcore 2000
|  3> % mp2 density relaxed end
|  4> *xyz 0 1
|  5>  C       -0.6207726798     1.0891674729     0.5885968274
|  6>  C        0.3945911266     0.2472800626    -0.1557570245
|  7>  O        1.5716118904     0.2531674241     0.1258083527
|  8>  C       -0.0912542817    -0.6202654734    -1.3044815982
|  9>  C        0.9876237521    -1.0592750177    -2.2721366154
| 10>  C       -1.2574133817    -1.5608492545    -1.0456073704
| 11>  N       -1.4454302743    -0.3445649571    -1.7842623111
| 12>  C       -1.8471423784    -0.2914041916    -3.1117120107
| 13>  O       -2.6825936048    -1.0074734766    -3.6034099332
| 14>  H       -1.0251715201     1.8549363745    -0.0810278480
| 15>  H       -1.4751915209     0.4972630517     0.9296290545
| 16>  H       -0.1309034658     1.5618886813     1.4400694286
| 17>  H        1.7755736248    -1.5841166050    -1.7287810126
| 18>  H        0.5776311629    -1.7214524384    -3.0394343956
| 19>  H        1.4507934561    -0.1978034973    -2.7620508397
| 20>  H       -1.2678878978    -2.4918928020    -1.6068771691
| 21>  H       -1.7169338524    -1.6078606625    -0.0625957369
| 22>  H       -1.3602492252     0.5404290592    -3.6541429779
| 23> *
| 24>
| 25>                          ****END OF INPUT****

CARTESIAN COORDINATES (ANGSTROEM)
---------------------------------
  C     -0.620773    1.089167    0.588597
  C      0.394591    0.247280   -0.155757
  O      1.571612    0.253167    0.125808
  C     -0.091254   -0.620265   -1.304482
  C      0.987624   -1.059275   -2.272137
  C     -1.257413   -1.560849   -1.045607
  N     -1.445430   -0.344565   -1.784262
  C     -1.847142   -0.291404   -3.111712
  O     -2.682594   -1.007473   -3.603410
  H     -1.025172    1.854936   -0.081028
  H     -1.475192    0.497263    0.929629
  H     -0.130903    1.561889    1.440069
  H      1.775574   -1.584117   -1.728781
  H      0.577631   -1.721452   -3.039434
  H      1.450793   -0.197803   -2.762051
  H     -1.267888   -2.491893   -1.606877
  H     -1.716934   -1.607861   -0.062596
  H     -1.360249    0.540429   -3.654143

 Total Charge           Charge          ....    0
 Multiplicity           Mult            ....    1
 Number of Electrons    NEL             ....   68
 Basis Dimension        Dim             ....  333

ORBITAL ENERGIES
----------------

  NO   OCC          E(Eh)            E(eV)
   0   2.0000     -20.559856      -559.4621
   1   2.0000     -20.554928      -559.3280
   2   2.0000     -15.604999      -424.6336
   3   2.0000     -11.367617      -309.3286
   4   2.0000     -11.347125      -308.7710
   5   2.0000     -11.311361      -307.7978
   6   2.0000     -11.295307      -307.3609
   7   2.0000     -11.242961      -305.9365
   8   2.0000     -11.242614      -305.9271
   9   2.0000      -1.412952       -38.4484
  10   2.0000      -1.404654       -38.2226
  11   2.0000      -1.316162       -35.8146
  12   2.0000      -1.051123       -28.6025
  13   2.0000      -1.016424       -27.6583
  14   2.0000      -0.980478       -26.6802
  15   2.0000      -0.878977       -23.9182
  16   2.0000      -0.806209       -21.9381
  17   2.0000      -0.754690       -20.5361
  18   2.0000      -0.708410       -19.2768
  19   2.0000      -0.699534       -19.0353
  20   2.0000      -0.666526       -18.1371
  21   2.0000      -0.633030       -17.2256
  22   2.0000      -0.622561       -16.9407
  23   2.0000      -0.597026       -16.2459
  24   2.0000      -0.591957       -16.1080
  25   2.0000      -0.578808       -15.7502
  26   2.0000      -0.555827       -15.1248
  27   2.0000      -0.544193       -14.8082
  28   2.0000      -0.521839       -14.2000
  29   2.0000      -0.516529       -14.0555
  30   2.0000      -0.498518       -13.5654
  31   2.0000      -0.447759       -12.1841
  32   2.0000      -0.440061       -11.9747
  33   2.0000      -0.402306       -10.9473
  34   0.0000       0.118783         3.2323
  35   0.0000       0.124114         3.3773
  36   0.0000       0.137172         3.7326
  37   0.0000       0.158275         4.3069
  38   0.0000       0.162495         4.4217

MULLIKEN ATOMIC CHARGES
-----------------------
   0 C :   -0.387326
   1 C :    0.159695
   2 O :   -0.281314
   3 C :    0.115125
   4 C :   -0.389668
   5 C :   -0.176865
   6 N :   -0.178789
   7 C :    0.136627
   8 O :   -0.294042
   9 H :    0.149925
  10 H :    0.144641
  11 H :    0.157873
  12 H :    0.164721
  13 H :    0.147821
  14 H :    0.143922
  15 H :    0.150347
  16 H :    0.141667
  17 H :    0.095640
Sum of atomic charges:    0.0000000

LOEWDIN ATOMIC CHARGES
----------------------
   0 C :   -0.271508
   1 C :   -0.311062
   2 O :    0.162016
   3 C :   -0.249342
   4 C :   -0.259029
   5 C :   -0.186047
   6 N :    0.185714
   7 C :   -0.391423
   8 O :    0.109863
   9 H :    0.143225
  10 H :    0.136609
  11 H :    0.135115
  12 H :    0.141982
  13 H :    0.133703
  14 H :    0.134377
  15 H :    0.138649
  16 H :    0.131555
  17 H :    0.115602

  Mayer bond orders larger than 0.1
B(  0-C ,  1-C ) :   0.9521 B(  0-C ,  9-H ) :   0.9009 B(  0-C , 10-H ) :   0.9201
B(  0-C , 11-H ) :   0.9335 B(  1-C ,  2-O ) :   1.9912 B(  1-C ,  3-C ) :   0.8701
B(  3-C ,  4-C ) :   0.9374 B(  3-C ,  5-C ) :   0.8970 B(  3-C ,  6-N ) :   0.7869
B(  4-C , 12-H ) :   0.9236 B(  4-C , 13-H ) :   0.9296 B(  4-C , 14-H ) :   0.9290
B(  5-C ,  6-N ) :   0.8765 B(  5-C , 15-H ) :   0.9164 B(  5-C , 16-H ) :   0.9080
B(  6-N ,  7-C ) :   1.0217 B(  7-C ,  8-O ) :   1.9704 B(  7-C , 17-H ) :   0.9329

MP2 TOTAL ENERGY:     -438.373294052 Eh
FINAL SINGLE POINT ENERGY      -438.373294051729

DIPOLE MOMENT
-------------
                                X             Y             Z
Electronic contribution:     -1.56997      -0.05291      -1.62706
Nuclear contribution   :      1.69794       0.12967       1.96176
                        -----------------------------------------
Total Dipole Moment    :      0.12797       0.07676       0.33470
                        -----------------------------------------
Magnitude (a.u.)       :      0.36646
Magnitude (Debye)      :      0.93147

                             ****ORCA TERMINATED NORMALLY****
TOTAL RUN TIME: 0 days 0 hours 18 minutes 34 seconds 73 msec
