                         Program Version 3.0.3 - RELEASE   -
|  1> ! RI-MP2 RIJK def2-TZVP def2-TZVP/C def2-TZVP/JK TIGHTSCF
|  2> % maxcore 2000
|  3> % mp2 density relaxed end
|  4> *xyz 0 1
|  5>  O       -0.0019764051     1.4058249021     0.0571446440
|  6>  C        1.2381957297     2.0501086355    -0.0305456942
|  7>  C        2.3394217951     1.6052419359    -0.9394472862
|  8>  C        2.4849373132     1.5369478923     0.6167645532
|  9>  C        2.5107204047    -0.0087414631     0.5362066316
| 10>  C        1.1745175459    -0.7837424276     0.6374546382
| 11>  C        0.0862374784     0.0100442101    -0.0123578745
| 12>  C        1.0290046405    -0.7154491040    -0.9187572530
| 13>  C        2.3671142301     0.0586554861    -0.9995917769
| 14>  H        1.0828926561     3.1216257532     0.0309994306
| 15>  H        2.8064647999     2.2742420680    -1.6527477232
| 16>  H        3.0813173758     2.1452483835     1.2866817478
| 17>  H        3.3842576696    -0.4981992465     0.9626568286
| 18>  H        0.9668083000    -1.5994535926     1.3200674761
| 19>  H       -0.9109954601    -0.4094581882     0.0624766046
| 20>  H        0.6919533549    -1.4704580037    -1.6193612259
| 21>  H        3.1426552514    -0.3848079110    -1.6211804609
| 22> *
| 23>
| 24>                          ****END OF INPUT****

CARTESIAN COORDINATES (ANGSTROEM)
---------------------------------
  O     -0.001976    1.405825    0.057145
  C      1.238196    2.050109   -0.030546
  C      2.339422    1.605242   -0.939447
  C      2.484937    1.536948    0.616765
  C      2.510720   -0.008741    0.536207
  C      1.174518   -0.783742    0.637455
  C      0.086237    0.010044   -0.012358
  C      1.029005   -0.715449   -0.918757
  C      2.367114    0.058655   -0.999592
  H      1.082893    3.121626    0.030999
  H      2.806465    2.274242   -1.652748
  H      3.081317    2.145248    1.286682
  H      3.384258   -0.498199    0.962657
  H      0.966808   -1.599454    1.320067
  H     -0.910995   -0.409458    0.062477
  H      0.691953   -1.470458   -1.619361
  H      3.142655   -0.384808   -1.621180

 Total Charge           Charge          ....    0
 Multiplicity           Mult            ....    1
 Number of Electrons    NEL             ....   64
 Basis Dimension        Dim             ....  327

ORBITAL ENERGIES
----------------

  NO   OCC          E(Eh)            E(eV)
   0   2.0000     -20.557522      -559.3986
   1   2.0000     -11.282466      -307.0115
   2   2.0000     -11.282447      -307.0110
   3   2.0000     -11.236693      -305.7659
   4   2.0000     -11.236115      -305.7502
   5   2.0000     -11.232401      -305.6492
   6   2.0000     -11.232359      -305.6480
   7   2.0000     -11.231889      -305.6352
   8   2.0000     -11.231839      -305.6339
   9   2.0000      -1.388628       -37.7865
  10   2.0000      -1.206377       -32.8272
  11   2.0000      -1.136843       -30.9351
  12   2.0000      -0.957120       -26.0445
  13   2.0000      -0.914007       -24.8714
  14   2.0000      -0.872351       -23.7379
  15   2.0000      -0.799184       -21.7469
  16   2.0000      -0.733636       -19.9632
  17   2.0000      -0.703159       -19.1339
  18   2.0000      -0.690963       -18.8020
  19   2.0000      -0.666526       -18.1371
  20   2.0000      -0.654633       -17.8135
  21   2.0000      -0.612183       -16.6583
  22   2.0000      -0.594411       -16.1747
  23   2.0000      -0.549622       -14.9560
  24   2.0000      -0.522392       -14.2150
  25   2.0000      -0.505141       -13.7456
  26   2.0000      -0.490642       -13.3510
  27   2.0000      -0.456010       -12.4087
  28   2.0000      -0.441886       -12.0243
  29   2.0000      -0.380970       -10.3667
  30   2.0000      -0.351071        -9.5531
  31   2.0000      -0.351001        -9.5512
  32   0.0000       0.145856         3.9689
  33   0.0000       0.154007         4.1907
  34   0.0000       0.166203         4.5226
  35   0.0000       0.172529         4.6948
  36   0.0000       0.195945         5.3319

MULLIKEN ATOMIC CHARGES
-----------------------
   0 O :   -0.300443
   1 C :    0.067771
   2 C :   -0.205657
   3 C :   -0.205657
   4 C :   -0.021965
   5 C :   -0.205656
   6 C :    0.067771
   7 C :   -0.205657
   8 C :   -0.021965
   9 H :    0.125982
  10 H :    0.131481
  11 H :    0.131481
  12 H :    0.126784
  13 H :    0.131481
  14 H :    0.125982
  15 H :    0.131481
  16 H :    0.126784
Sum of atomic charges:   -0.0000000

LOEWDIN ATOMIC CHARGES
----------------------
   0 O :    0.220295
   1 C :   -0.263258
   2 C :   -0.134987
   3 C :   -0.134987
   4 C :   -0.139194
   5 C :   -0.134987
   6 C :   -0.263259
   7 C :   -0.134987
   8 C :   -0.139194
   9 H :    0.151008
  10 H :    0.133106
  11 H :    0.133106
  12 H :    0.145060
  13 H :    0.133106
  14 H :    0.151008
  15 H :    0.133106
  16 H :    0.145060

  Mayer bond orders larger than 0.1
B(  0-O ,  1-C ) :   0.9704 B(  0-O ,  6-C ) :   0.9704 B(  1-C ,  2-C ) :   0.8847
B(  1-C ,  3-C ) :   0.8847 B(  1-C ,  9-H ) :   0.9486 B(  2-C ,  3-C ) :   0.8314
B(  2-C ,  8-C ) :   0.9098 B(  2-C , 10-H ) :   0.9163 B(  3-C ,  4-C ) :   0.9098
B(  3-C , 11-H ) :   0.9163 B(  4-C ,  5-C ) :   0.9098 B(  4-C ,  8-C ) :   1.0015
B(  4-C , 12-H ) :   0.9273 B(  5-C ,  6-C ) :   0.8847 B(  5-C ,  7-C ) :   0.8314
B(  5-C , 13-H ) :   0.9163 B(  6-C ,  7-C ) :   0.8847 B(  6-C , 14-H ) :   0.9486
B(  7-C ,  8-C ) :   0.9098 B(  7-C , 15-H ) :   0.9163 B(  8-C , 16-H ) :   0.9273

MP2 TOTAL ENERGY:     -383.929257185 Eh
FINAL SINGLE POINT ENERGY      -383.929257185326

DIPOLE MOMENT
-------------
                                X             Y             Z
Electronic contribution:     -1.98337       1.12204       0.23470
Nuclear contribution   :      2.52192      -1.42671      -0.29843
                        -----------------------------------------
Total Dipole Moment    :      0.53855      -0.30467      -0.06373
                        -----------------------------------------
Magnitude (a.u.)       :      0.62202
Magnitude (Debye)      :      1.58106

                             ****ORCA TERMINATED NORMALLY****
TOTAL RUN TIME: 0 days 0 hours 18 minutes 45 seconds 331 msec
