                         Program Version 3.0.3 - RELEASE   -
|  1> ! RI-MP2 RIJK def2-TZVP def2-TZVP/C def2-TZVP/JK TIGHTSCF
|  2> % maxcore 2000
|  3> % mp2 density relaxed end
|  4> *xyz 0 1
|  5>  N        0.0415935459     1.2270643204     0.6196199809
|  6>  C        0.0107750862     0.0376280269     0.1446829277
|  7>  C       -1.2516787403    -0.6549820131    -0.0963868629
|  8>  C       -1.4347575403    -1.9976332666    -0.1333885822
|  9>  N       -0.5647321531    -3.0029692752     0.2146168499
| 10>  C        0.7188268686    -2.8826665548     0.2252585819
| 11>  N        1.5226251571    -1.9000769405    -0.3092232569
| 12>  C        1.2091500373    -0.6637197268    -0.3998414114
| 13>  H        0.9987876472     1.5911944082     0.6229345421
| 14>  H       -2.1095548765    -0.0097463492    -0.2628908334
| 15>  H       -2.4343352059    -2.3625911174    -0.3592667799
| 16>  H        1.2848517260    -3.7306893016     0.6087148280
| 17>  H        1.9117544179    -0.0171524404    -0.9359690937
| 18> *
| 19>
| 20>                          ****END OF INPUT****

CARTESIAN COORDINATES (ANGSTROEM)
---------------------------------
  N      0.041594    1.227064    0.619620
  C      0.010775    0.037628    0.144683
  C     -1.251679   -0.654982   -0.096387
  C     -1.434758   -1.997633   -0.133389
  N     -0.564732   -3.002969    0.214617
  C      0.718827   -2.882667    0.225259
  N      1.522625   -1.900077   -0.309223
  C      1.209150   -0.663720   -0.399841
  H      0.998788    1.591194    0.622935
  H     -2.109555   -0.009746   -0.262891
  H     -2.434335   -2.362591   -0.359267
  H      1.284852   -3.730689    0.608715
  H      1.911754   -0.017152   -0.935969

 Total Charge           Charge          ....    0
 Multiplicity           Mult            ....    1
 Number of Electrons    NEL             ....   56
 Basis Dimension        Dim             ....  278

ORBITAL ENERGIES
----------------

  NO   OCC          E(Eh)            E(eV)
   0   2.0000     -15.600897      -424.5220
   1   2.0000     -15.578348      -423.9084
   2   2.0000     -15.570109      -423.6842
   3   2.0000     -11.336211      -308.4740
   4   2.0000     -11.334580      -308.4296
   5   2.0000     -11.315034      -307.8977
   6   2.0000     -11.293555      -307.3132
   7   2.0000     -11.252000      -306.1825
   8   2.0000      -1.315654       -35.8008
   9   2.0000      -1.237877       -33.6843
  10   2.0000      -1.218807       -33.1654
  11   2.0000      -1.068162       -29.0662
  12   2.0000      -0.957865       -26.0648
  13   2.0000      -0.921964       -25.0879
  14   2.0000      -0.787135       -21.4190
  15   2.0000      -0.786196       -21.3935
  16   2.0000      -0.726909       -19.7802
  17   2.0000      -0.661492       -18.0001
  18   2.0000      -0.645587       -17.5673
  19   2.0000      -0.635730       -17.2991
  20   2.0000      -0.586719       -15.9654
  21   2.0000      -0.536436       -14.5972
  22   2.0000      -0.513016       -13.9599
  23   2.0000      -0.478103       -13.0098
  24   2.0000      -0.464392       -12.6368
  25   2.0000      -0.445526       -12.1234
  26   2.0000      -0.409638       -11.1468
  27   2.0000      -0.339241        -9.2312
  28   0.0000       0.051239         1.3943
  29   0.0000       0.068027         1.8511
  30   0.0000       0.141973         3.8633
  31   0.0000       0.162308         4.4166
  32   0.0000       0.180301         4.9062

MULLIKEN ATOMIC CHARGES
-----------------------
   0 N :   -0.320943
   1 C :    0.059197
   2 C :   -0.124148
   3 C :   -0.016475
   4 N :   -0.236588
   5 C :    0.089575
   6 N :   -0.193142
   7 C :   -0.057875
   8 H :    0.214114
   9 H :    0.148507
  10 H :    0.139583
  11 H :    0.144244
  12 H :    0.153952
Sum of atomic charges:    0.0000000

LOEWDIN ATOMIC CHARGES
----------------------
   0 N :   -0.010646
   1 C :   -0.300357
   2 C :   -0.104194
   3 C :   -0.207038
   4 N :    0.137734
   5 C :   -0.278939
   6 N :    0.151968
   7 C :   -0.152008
   8 H :    0.164129
   9 H :    0.163161
  10 H :    0.148538
  11 H :    0.139832
  12 H :    0.147821

  Mayer bond orders larger than 0.1
B(  0-N ,  1-C ) :   1.9203 B(  0-N ,  8-H ) :   0.8628 B(  1-C ,  2-C ) :   1.0066
B(  1-C ,  7-C ) :   0.9409 B(  2-C ,  3-C ) :   1.5646 B(  2-C ,  9-H ) :   0.9102
B(  3-C ,  4-N ) :   1.1325 B(  3-C , 10-H ) :   0.9416 B(  4-N ,  5-C ) :   1.6446
B(  5-C ,  6-N ) :   1.0897 B(  5-C , 11-H ) :   0.9316 B(  6-N ,  7-C ) :   1.7255
B(  7-C , 12-H ) :   0.9198

MP2 TOTAL ENERGY:     -357.001877028 Eh
FINAL SINGLE POINT ENERGY      -357.001877028458

DIPOLE MOMENT
-------------
                                X             Y             Z
Electronic contribution:      0.80347      -1.29639       0.13847
Nuclear contribution   :     -0.52659       1.44644      -0.47505
                        -----------------------------------------
Total Dipole Moment    :      0.27688       0.15005      -0.33658
                        -----------------------------------------
Magnitude (a.u.)       :      0.46094
Magnitude (Debye)      :      1.17161

                             ****ORCA TERMINATED NORMALLY****
TOTAL RUN TIME: 0 days 0 hours 11 minutes 4 seconds 398 msec
