                         Program Version 3.0.3 - RELEASE   -
|  1> ! RI-MP2 RIJK def2-TZVP def2-TZVP/C def2-TZVP/JK TIGHTSCF
|  2> % maxcore 2000
|  3> % mp2 density relaxed end
|  4> *xyz 0 1
|  5>  C        0.5469616317     1.3142294860    -0.2541394772
|  6>  C       -0.0880115770    -0.0008860415     0.1856401737
|  7>  O       -0.2065890893    -0.9070560442    -0.9409261787
|  8>  C        0.7673109711    -1.8007658122    -1.2623936868
|  9>  N        0.6630441487    -2.5543815014    -2.2757976665
| 10>  C        1.9852761250    -1.8856637705    -0.3668971414
| 11>  C        1.6575107186    -1.6354607877     1.0923845126
| 12>  O        1.9818362541    -0.3366277433     1.5950301331
| 13>  C        0.6048343715    -0.6520374176     1.3762500219
| 14>  H        1.5992962998     1.1796908018    -0.5115479225
| 15>  H        0.0117331413     1.7101095579    -1.1204794536
| 16>  H        0.4948024529     2.0456118013     0.5582199122
| 17>  H       -1.1323547893     0.1778290247     0.4574488878
| 18>  H       -0.2051019318    -2.3502456987    -2.7754519225
| 19>  H        2.4357229380    -2.8652273870    -0.5268361154
| 20>  H        2.7174971541    -1.1349817429    -0.6864371597
| 21>  H        1.8366326814    -2.4465374706     1.7948838273
| 22>  H        0.0156142991    -0.7341857142     2.2873233558
| 23> *
| 24>
| 25>                          ****END OF INPUT****

CARTESIAN COORDINATES (ANGSTROEM)
---------------------------------
  C      0.546962    1.314229   -0.254139
  C     -0.088012   -0.000886    0.185640
  O     -0.206589   -0.907056   -0.940926
  C      0.767311   -1.800766   -1.262394
  N      0.663044   -2.554382   -2.275798
  C      1.985276   -1.885664   -0.366897
  C      1.657511   -1.635461    1.092385
  O      1.981836   -0.336628    1.595030
  C      0.604834   -0.652037    1.376250
  H      1.599296    1.179691   -0.511548
  H      0.011733    1.710110   -1.120479
  H      0.494802    2.045612    0.558220
  H     -1.132355    0.177829    0.457449
  H     -0.205102   -2.350246   -2.775452
  H      2.435723   -2.865227   -0.526836
  H      2.717497   -1.134982   -0.686437
  H      1.836633   -2.446537    1.794884
  H      0.015614   -0.734186    2.287323

 Total Charge           Charge          ....    0
 Multiplicity           Mult            ....    1
 Number of Electrons    NEL             ....   68
 Basis Dimension        Dim             ....  333

ORBITAL ENERGIES
----------------

  NO   OCC          E(Eh)            E(eV)
   0   2.0000     -20.594049      -560.3926
   1   2.0000     -20.584272      -560.1265
   2   2.0000     -15.527546      -422.5260
   3   2.0000     -11.340235      -308.5835
   4   2.0000     -11.313541      -307.8571
   5   2.0000     -11.306766      -307.6727
   6   2.0000     -11.303563      -307.5856
   7   2.0000     -11.250502      -306.1417
   8   2.0000     -11.230499      -305.5974
   9   2.0000      -1.438960       -39.1561
  10   2.0000      -1.417585       -38.5744
  11   2.0000      -1.195897       -32.5420
  12   2.0000      -1.056656       -28.7531
  13   2.0000      -1.046950       -28.4889
  14   2.0000      -0.944466       -25.7002
  15   2.0000      -0.867050       -23.5936
  16   2.0000      -0.851899       -23.1814
  17   2.0000      -0.741352       -20.1732
  18   2.0000      -0.722305       -19.6549
  19   2.0000      -0.710829       -19.3426
  20   2.0000      -0.657729       -17.8977
  21   2.0000      -0.650433       -17.6992
  22   2.0000      -0.630217       -17.1491
  23   2.0000      -0.608787       -16.5659
  24   2.0000      -0.581263       -15.8170
  25   2.0000      -0.557816       -15.1789
  26   2.0000      -0.536899       -14.6098
  27   2.0000      -0.527648       -14.3580
  28   2.0000      -0.514411       -13.9978
  29   2.0000      -0.490569       -13.3491
  30   2.0000      -0.471041       -12.8177
  31   2.0000      -0.450113       -12.2482
  32   2.0000      -0.428540       -11.6612
  33   2.0000      -0.391818       -10.6619
  34   0.0000       0.133126         3.6226
  35   0.0000       0.146673         3.9912
  36   0.0000       0.157835         4.2949
  37   0.0000       0.174869         4.7584
  38   0.0000       0.175453         4.7743

MULLIKEN ATOMIC CHARGES
-----------------------
   0 C :   -0.409657
   1 C :    0.091255
   2 O :   -0.256793
   3 C :    0.107673
   4 N :   -0.371489
   5 C :   -0.174332
   6 C :   -0.026862
   7 O :   -0.323692
   8 C :    0.034615
   9 H :    0.143385
  10 H :    0.145528
  11 H :    0.136244
  12 H :    0.108869
  13 H :    0.216907
  14 H :    0.152848
  15 H :    0.148278
  16 H :    0.132848
  17 H :    0.144375
Sum of atomic charges:   -0.0000000

LOEWDIN ATOMIC CHARGES
----------------------
   0 C :   -0.283283
   1 C :   -0.289543
   2 O :    0.256147
   3 C :   -0.412247
   4 N :   -0.064467
   5 C :   -0.203272
   6 C :   -0.249835
   7 O :    0.175062
   8 C :   -0.245030
   9 H :    0.128583
  10 H :    0.129037
  11 H :    0.133336
  12 H :    0.152646
  13 H :    0.164845
  14 H :    0.161543
  15 H :    0.164420
  16 H :    0.140962
  17 H :    0.141098

  Mayer bond orders larger than 0.1
B(  0-C ,  1-C ) :   0.9323 B(  0-C ,  9-H ) :   0.9228 B(  0-C , 10-H ) :   0.9359
B(  0-C , 11-H ) :   0.9266 B(  1-C ,  2-O ) :   0.8705 B(  1-C ,  8-C ) :   0.9064
B(  1-C , 12-H ) :   0.9342 B(  2-O ,  3-C ) :   1.0902 B(  3-C ,  4-N ) :   2.0454
B(  3-C ,  5-C ) :   0.9286 B(  4-N , 13-H ) :   0.8571 B(  5-C ,  6-C ) :   0.8869
B(  5-C , 14-H ) :   0.9198 B(  5-C , 15-H ) :   0.9059 B(  6-C ,  7-O ) :   0.9361
B(  6-C ,  8-C ) :   0.9657 B(  6-C , 16-H ) :   0.9276 B(  7-O ,  8-C ) :   0.8758
B(  8-C , 17-H ) :   0.9108

MP2 TOTAL ENERGY:     -438.359352463 Eh
FINAL SINGLE POINT ENERGY      -438.359352463365

DIPOLE MOMENT
-------------
                                X             Y             Z
Electronic contribution:     -0.34638      -3.09513       0.38619
Nuclear contribution   :     -0.09717       3.56556       0.35221
                        -----------------------------------------
Total Dipole Moment    :     -0.44356       0.47043       0.73839
                        -----------------------------------------
Magnitude (a.u.)       :      0.98147
Magnitude (Debye)      :      2.49469

                             ****ORCA TERMINATED NORMALLY****
TOTAL RUN TIME: 0 days 0 hours 17 minutes 32 seconds 515 msec
