                         Program Version 3.0.3 - RELEASE   -
|  1> ! RI-MP2 RIJK def2-TZVP def2-TZVP/C def2-TZVP/JK TIGHTSCF
|  2> % maxcore 2000
|  3> % mp2 density relaxed end
|  4> *xyz 0 1
|  5>  C        0.0428119009    -1.2162261094    -0.1390007974
|  6>  C       -0.0194665565    -0.0168802354    -0.0876971927
|  7>  C       -0.0522970853     1.4396333273    -0.0265485476
|  8>  C        1.3556653819     2.0344715267     0.0797047755
|  9>  C        2.2223102526     1.9606138373    -1.1930910746
| 10>  O        2.2053427642     3.3974817204    -1.3503587858
| 11>  C        1.4876997471     3.5805322820    -0.1064533214
| 12>  C        0.2774381266     4.3740764646    -0.2399937866
| 13>  C       -0.7247200079     5.0316293546    -0.3349457846
| 14>  H        0.0800639717    -2.2764003521    -0.1844072706
| 15>  H       -0.5523556678     1.8407760693    -0.9163169701
| 16>  H       -0.6541109317     1.7661319168     0.8304500147
| 17>  H        1.8461011979     1.6681506600     0.9829274717
| 18>  H        3.2396168814     1.5784339777    -1.0496532647
| 19>  H        1.7642852598     1.4494942983    -2.0476861042
| 20>  H        2.1393902772     4.0402124913     0.6493388615
| 21>  H       -1.6056337122     5.6186673207    -0.4242627031
| 22> *
| 23>
| 24>                          ****END OF INPUT****

CARTESIAN COORDINATES (ANGSTROEM)
---------------------------------
  C      0.042812   -1.216226   -0.139001
  C     -0.019467   -0.016880   -0.087697
  C     -0.052297    1.439633   -0.026549
  C      1.355665    2.034472    0.079705
  C      2.222310    1.960614   -1.193091
  O      2.205343    3.397482   -1.350359
  C      1.487700    3.580532   -0.106453
  C      0.277438    4.374076   -0.239994
  C     -0.724720    5.031629   -0.334946
  H      0.080064   -2.276400   -0.184407
  H     -0.552356    1.840776   -0.916317
  H     -0.654111    1.766132    0.830450
  H      1.846101    1.668151    0.982927
  H      3.239617    1.578434   -1.049653
  H      1.764285    1.449494   -2.047686
  H      2.139390    4.040212    0.649339
  H     -1.605634    5.618667   -0.424263

 Total Charge           Charge          ....    0
 Multiplicity           Mult            ....    1
 Number of Electrons    NEL             ....   64
 Basis Dimension        Dim             ....  327

ORBITAL ENERGIES
----------------

  NO   OCC          E(Eh)            E(eV)
   0   2.0000     -20.560781      -559.4873
   1   2.0000     -11.317746      -307.9715
   2   2.0000     -11.285785      -307.1018
   3   2.0000     -11.261478      -306.4404
   4   2.0000     -11.257825      -306.3410
   5   2.0000     -11.241864      -305.9067
   6   2.0000     -11.240174      -305.8607
   7   2.0000     -11.236655      -305.7649
   8   2.0000     -11.227022      -305.5028
   9   2.0000      -1.390769       -37.8447
  10   2.0000      -1.103490       -30.0275
  11   2.0000      -1.057053       -28.7639
  12   2.0000      -1.017712       -27.6934
  13   2.0000      -0.952911       -25.9300
  14   2.0000      -0.937299       -25.5052
  15   2.0000      -0.800799       -21.7908
  16   2.0000      -0.736445       -20.0397
  17   2.0000      -0.720097       -19.5948
  18   2.0000      -0.706122       -19.2146
  19   2.0000      -0.680428       -18.5154
  20   2.0000      -0.651015       -17.7150
  21   2.0000      -0.612784       -16.6747
  22   2.0000      -0.602674       -16.3996
  23   2.0000      -0.585534       -15.9332
  24   2.0000      -0.541836       -14.7441
  25   2.0000      -0.497605       -13.5405
  26   2.0000      -0.473043       -12.8722
  27   2.0000      -0.438480       -11.9317
  28   2.0000      -0.405998       -11.0478
  29   2.0000      -0.403212       -10.9720
  30   2.0000      -0.391046       -10.6409
  31   2.0000      -0.383134       -10.4256
  32   0.0000       0.131619         3.5815
  33   0.0000       0.143828         3.9138
  34   0.0000       0.154065         4.1923
  35   0.0000       0.161617         4.3978
  36   0.0000       0.166011         4.5174

MULLIKEN ATOMIC CHARGES
-----------------------
   0 C :   -0.112581
   1 C :   -0.013626
   2 C :   -0.441446
   3 C :   -0.051664
   4 C :   -0.036603
   5 O :   -0.312078
   6 C :   -0.035582
   7 C :   -0.061771
   8 C :   -0.093405
   9 H :    0.192180
  10 H :    0.168872
  11 H :    0.151736
  12 H :    0.125906
  13 H :    0.102206
  14 H :    0.109611
  15 H :    0.112027
  16 H :    0.196217
Sum of atomic charges:   -0.0000000

LOEWDIN ATOMIC CHARGES
----------------------
   0 C :   -0.102941
   1 C :   -0.108692
   2 C :   -0.227673
   3 C :   -0.190093
   4 C :   -0.240381
   5 O :    0.145043
   6 C :   -0.249633
   7 C :   -0.086260
   8 C :   -0.076559
   9 H :    0.126969
  10 H :    0.167276
  11 H :    0.163013
  12 H :    0.151715
  13 H :    0.119551
  14 H :    0.124727
  15 H :    0.154588
  16 H :    0.129349

  Mayer bond orders larger than 0.1
B(  0-C ,  1-C ) :   2.6077 B(  0-C ,  2-C ) :  -0.1136 B(  0-C ,  9-H ) :   0.8970
B(  1-C ,  2-C ) :   1.0827 B(  2-C ,  3-C ) :   0.9204 B(  2-C , 10-H ) :   0.9330
B(  2-C , 11-H ) :   0.9185 B(  3-C ,  4-C ) :   0.9524 B(  3-C ,  6-C ) :   0.9537
B(  3-C , 12-H ) :   0.9196 B(  4-C ,  5-O ) :   0.9397 B(  4-C , 13-H ) :   0.9163
B(  4-C , 14-H ) :   0.9055 B(  5-O ,  6-C ) :   0.9924 B(  6-C ,  7-C ) :   1.1218
B(  6-C ,  8-C ) :  -0.1013 B(  6-C , 15-H ) :   0.9177 B(  7-C ,  8-C ) :   2.5607
B(  8-C , 16-H ) :   0.8944

MP2 TOTAL ENERGY:     -383.901268536 Eh
FINAL SINGLE POINT ENERGY      -383.901268535894

DIPOLE MOMENT
-------------
                                X             Y             Z
Electronic contribution:     -0.07416       2.22422      -0.47774
Nuclear contribution   :     -0.15020      -2.54696       0.98203
                        -----------------------------------------
Total Dipole Moment    :     -0.22435      -0.32274       0.50429
                        -----------------------------------------
Magnitude (a.u.)       :      0.63938
Magnitude (Debye)      :      1.62516

                             ****ORCA TERMINATED NORMALLY****
TOTAL RUN TIME: 0 days 0 hours 15 minutes 37 seconds 853 msec
