                         Program Version 3.0.3 - RELEASE   -
|  1> ! RI-MP2 RIJK def2-TZVP def2-TZVP/C def2-TZVP/JK TIGHTSCF
|  2> % maxcore 2000
|  3> % mp2 density relaxed end
|  4> *xyz 0 1
|  5>  C        0.0583638675     1.5282177578    -0.1611757041
|  6>  N        0.0416127763     0.0731373792    -0.0410269831
|  7>  C       -1.1083113027    -0.4939319343     0.7210326225
|  8>  C       -0.2654440712    -1.7200306117     1.1810864317
|  9>  N       -0.5647621612    -1.5883071845     2.6427807605
| 10>  C       -0.5357626185    -0.1722946243     2.1524667359
| 11>  C        0.6836116546    -0.4833625075     1.1964378563
| 12>  C        2.1497757509    -0.4316249933     1.4935533270
| 13>  H        1.0509089186     1.8552920091    -0.4877651110
| 14>  H       -0.6592533387     1.8336960498    -0.9298307751
| 15>  H       -0.1898858583     2.0661462576     0.7701559227
| 16>  H       -2.1408535544    -0.4623749805     0.3652968446
| 17>  H       -0.1151412280    -2.6701416164     0.6682563974
| 18>  H       -1.5291660917    -1.8746667872     2.8310110321
| 19>  H       -0.7119832779     0.6762919573     2.8146305013
| 20>  H        2.3528487765    -0.9679857921     2.4252062380
| 21>  H        2.7237546635    -0.8980435600     0.6865567037
| 22>  H        2.4979392746     0.6003752110     1.6086106996
| 23> *
| 24>
| 25>                          ****END OF INPUT****

CARTESIAN COORDINATES (ANGSTROEM)
---------------------------------
  C      0.058364    1.528218   -0.161176
  N      0.041613    0.073137   -0.041027
  C     -1.108311   -0.493932    0.721033
  C     -0.265444   -1.720031    1.181086
  N     -0.564762   -1.588307    2.642781
  C     -0.535763   -0.172295    2.152467
  C      0.683612   -0.483363    1.196438
  C      2.149776   -0.431625    1.493553
  H      1.050909    1.855292   -0.487765
  H     -0.659253    1.833696   -0.929831
  H     -0.189886    2.066146    0.770156
  H     -2.140854   -0.462375    0.365297
  H     -0.115141   -2.670142    0.668256
  H     -1.529166   -1.874667    2.831011
  H     -0.711983    0.676292    2.814631
  H      2.352849   -0.967986    2.425206
  H      2.723755   -0.898044    0.686557
  H      2.497939    0.600375    1.608611

 Total Charge           Charge          ....    0
 Multiplicity           Mult            ....    1
 Number of Electrons    NEL             ....   60
 Basis Dimension        Dim             ....  308

ORBITAL ENERGIES
----------------

  NO   OCC          E(Eh)            E(eV)
   0   2.0000     -15.549604      -423.1262
   1   2.0000     -15.549506      -423.1236
   2   2.0000     -11.275973      -306.8348
   3   2.0000     -11.270514      -306.6863
   4   2.0000     -11.269926      -306.6703
   5   2.0000     -11.268650      -306.6356
   6   2.0000     -11.240336      -305.8651
   7   2.0000     -11.219826      -305.3070
   8   2.0000      -1.326858       -36.1056
   9   2.0000      -1.188770       -32.3481
  10   2.0000      -1.014507       -27.6061
  11   2.0000      -0.988525       -26.8991
  12   2.0000      -0.883752       -24.0481
  13   2.0000      -0.856729       -23.3128
  14   2.0000      -0.836515       -22.7627
  15   2.0000      -0.698383       -19.0040
  16   2.0000      -0.670174       -18.2364
  17   2.0000      -0.649288       -17.6680
  18   2.0000      -0.620134       -16.8747
  19   2.0000      -0.613734       -16.7006
  20   2.0000      -0.567521       -15.4430
  21   2.0000      -0.562507       -15.3066
  22   2.0000      -0.553032       -15.0488
  23   2.0000      -0.518025       -14.0962
  24   2.0000      -0.482191       -13.1211
  25   2.0000      -0.454905       -12.3786
  26   2.0000      -0.447875       -12.1873
  27   2.0000      -0.417515       -11.3611
  28   2.0000      -0.382251       -10.4016
  29   2.0000      -0.357874        -9.7383
  30   0.0000       0.140146         3.8136
  31   0.0000       0.148833         4.0499
  32   0.0000       0.163108         4.4384
  33   0.0000       0.176837         4.8120
  34   0.0000       0.189379         5.1533

MULLIKEN ATOMIC CHARGES
-----------------------
   0 C :   -0.332843
   1 N :   -0.183852
   2 C :   -0.083602
   3 C :   -0.004580
   4 N :   -0.354306
   5 C :   -0.073107
   6 C :    0.075326
   7 C :   -0.452690
   8 H :    0.139155
   9 H :    0.139240
  10 H :    0.104530
  11 H :    0.129257
  12 H :    0.126123
  13 H :    0.198608
  14 H :    0.130617
  15 H :    0.159855
  16 H :    0.145046
  17 H :    0.137224
Sum of atomic charges:   -0.0000000

LOEWDIN ATOMIC CHARGES
----------------------
   0 C :   -0.335533
   1 N :    0.104860
   2 C :   -0.182656
   3 C :   -0.169802
   4 N :   -0.010587
   5 C :   -0.183206
   6 C :   -0.228957
   7 C :   -0.271953
   8 H :    0.117619
   9 H :    0.118286
  10 H :    0.105368
  11 H :    0.123876
  12 H :    0.126821
  13 H :    0.157620
  14 H :    0.122217
  15 H :    0.141715
  16 H :    0.134049
  17 H :    0.130264

  Mayer bond orders larger than 0.1
B(  0-C ,  1-N ) :   0.8928 B(  0-C ,  8-H ) :   0.9408 B(  0-C ,  9-H ) :   0.9391
B(  0-C , 10-H ) :   0.9212 B(  1-N ,  2-C ) :   0.8883 B(  1-N ,  6-C ) :   0.9008
B(  2-C ,  3-C ) :   0.8754 B(  2-C ,  5-C ) :   0.8487 B(  2-C , 11-H ) :   0.9007
B(  3-C ,  4-N ) :   0.9216 B(  3-C ,  6-C ) :   0.8703 B(  3-C , 12-H ) :   0.8909
B(  4-N ,  5-C ) :   0.9082 B(  4-N , 13-H ) :   0.8706 B(  5-C ,  6-C ) :   0.8272
B(  5-C , 14-H ) :   0.9110 B(  6-C ,  7-C ) :   0.8195 B(  7-C , 15-H ) :   0.9359
B(  7-C , 16-H ) :   0.9446 B(  7-C , 17-H ) :   0.9355

MP2 TOTAL ENERGY:     -343.264160943 Eh
FINAL SINGLE POINT ENERGY      -343.264160943233

DIPOLE MOMENT
-------------
                                X             Y             Z
Electronic contribution:     -2.75744      -3.37056       0.68789
Nuclear contribution   :      2.41060       3.75217      -0.67185
                        -----------------------------------------
Total Dipole Moment    :     -0.34684       0.38161       0.01604
                        -----------------------------------------
Magnitude (a.u.)       :      0.51593
Magnitude (Debye)      :      1.31139

                             ****ORCA TERMINATED NORMALLY****
TOTAL RUN TIME: 0 days 0 hours 14 minutes 11 seconds 923 msec
