                         Program Version 3.0.3 - RELEASE   -
|  1> ! RI-MP2 RIJK def2-TZVP def2-TZVP/C def2-TZVP/JK TIGHTSCF
|  2> % maxcore 2000
|  3> % mp2 density relaxed end
|  4> *xyz 0 1
|  5>  C       -0.5855767993     1.5060709006    -0.0080774510
|  6>  C       -0.0326990674     0.0672174996     0.0835554183
|  7>  C        0.8293972202    -0.1336866401     1.3313135325
|  8>  C       -1.1599125397    -0.9559291126     0.0208002570
|  9>  O       -1.4076799394    -1.7263522399     0.9125206671
| 10>  C       -2.0024384461    -1.0051415299    -1.2960510008
| 11>  C       -2.3611656389    -2.4594843364    -1.6543692890
| 12>  C       -3.2066595152    -0.1917306580    -1.1199640083
| 13>  N       -4.1573808610     0.4504763699    -0.9759949165
| 14>  H        0.2450164489     2.2175186285    -0.0020742879
| 15>  H       -1.1669668698     1.6788730433    -0.9171992771
| 16>  H       -1.2294723626     1.7287667379     0.8481966350
| 17>  H        0.5798921024    -0.1067716802    -0.8148077610
| 18>  H        0.2405845843     0.0280808113     2.2383139127
| 19>  H        1.2312745712    -1.1486663316     1.3788022719
| 20>  H        1.6648079351     0.5724542353     1.3308316571
| 21>  H       -1.4199156820    -0.5490478146    -2.1045473303
| 22>  H       -2.8699486567    -2.9315113150    -0.8130633924
| 23>  H       -3.0079453382    -2.4909409285    -2.5335661484
| 24>  H       -1.4491158558    -3.0232243195    -1.8673386089
| 25> *
| 26>
| 27>                          ****END OF INPUT****

CARTESIAN COORDINATES (ANGSTROEM)
---------------------------------
  C     -0.585577    1.506071   -0.008077
  C     -0.032699    0.067217    0.083555
  C      0.829397   -0.133687    1.331314
  C     -1.159913   -0.955929    0.020800
  O     -1.407680   -1.726352    0.912521
  C     -2.002438   -1.005142   -1.296051
  C     -2.361166   -2.459484   -1.654369
  C     -3.206660   -0.191731   -1.119964
  N     -4.157381    0.450476   -0.975995
  H      0.245016    2.217519   -0.002074
  H     -1.166967    1.678873   -0.917199
  H     -1.229472    1.728767    0.848197
  H      0.579892   -0.106772   -0.814808
  H      0.240585    0.028081    2.238314
  H      1.231275   -1.148666    1.378802
  H      1.664808    0.572454    1.330832
  H     -1.419916   -0.549048   -2.104547
  H     -2.869949   -2.931511   -0.813063
  H     -3.007945   -2.490941   -2.533566
  H     -1.449116   -3.023224   -1.867339

 Total Charge           Charge          ....    0
 Multiplicity           Mult            ....    1
 Number of Electrons    NEL             ....   68
 Basis Dimension        Dim             ....  345

ORBITAL ENERGIES
----------------

  NO   OCC          E(Eh)            E(eV)
   0   2.0000     -20.569459      -559.7234
   1   2.0000     -15.577156      -423.8760
   2   2.0000     -11.354355      -308.9677
   3   2.0000     -11.302156      -307.5473
   4   2.0000     -11.281438      -306.9835
   5   2.0000     -11.262420      -306.4660
   6   2.0000     -11.249101      -306.1036
   7   2.0000     -11.239606      -305.8452
   8   2.0000     -11.226842      -305.4979
   9   2.0000      -1.416676       -38.5497
  10   2.0000      -1.226895       -33.3855
  11   2.0000      -1.115387       -30.3512
  12   2.0000      -1.084983       -29.5239
  13   2.0000      -0.951739       -25.8981
  14   2.0000      -0.933468       -25.4010
  15   2.0000      -0.872294       -23.7363
  16   2.0000      -0.761204       -20.7134
  17   2.0000      -0.715668       -19.4743
  18   2.0000      -0.696984       -18.9659
  19   2.0000      -0.653456       -17.7814
  20   2.0000      -0.632330       -17.2066
  21   2.0000      -0.603844       -16.4314
  22   2.0000      -0.583648       -15.8819
  23   2.0000      -0.562525       -15.3071
  24   2.0000      -0.559288       -15.2190
  25   2.0000      -0.558110       -15.1869
  26   2.0000      -0.550104       -14.9691
  27   2.0000      -0.538771       -14.6607
  28   2.0000      -0.527684       -14.3590
  29   2.0000      -0.503905       -13.7119
  30   2.0000      -0.494713       -13.4618
  31   2.0000      -0.480578       -13.0772
  32   2.0000      -0.463070       -12.6008
  33   2.0000      -0.417799       -11.3689
  34   0.0000       0.107041         2.9127
  35   0.0000       0.113426         3.0865
  36   0.0000       0.147595         4.0163
  37   0.0000       0.158625         4.3164
  38   0.0000       0.164369         4.4727

MULLIKEN ATOMIC CHARGES
-----------------------
   0 C :   -0.413910
   1 C :   -0.072770
   2 C :   -0.381957
   3 C :    0.192626
   4 O :   -0.265703
   5 C :    0.064178
   6 C :   -0.394028
   7 C :   -0.236139
   8 N :   -0.051504
   9 H :    0.142332
  10 H :    0.147092
  11 H :    0.146972
  12 H :    0.110039
  13 H :    0.138295
  14 H :    0.139453
  15 H :    0.134704
  16 H :    0.141370
  17 H :    0.164472
  18 H :    0.153372
  19 H :    0.141106
Sum of atomic charges:    0.0000000

LOEWDIN ATOMIC CHARGES
----------------------
   0 C :   -0.274558
   1 C :   -0.280155
   2 C :   -0.284078
   3 C :   -0.264850
   4 O :    0.190703
   5 C :   -0.235849
   6 C :   -0.259972
   7 C :   -0.174353
   8 N :    0.067112
   9 H :    0.128853
  10 H :    0.127813
  11 H :    0.132927
  12 H :    0.163448
  13 H :    0.131133
  14 H :    0.128526
  15 H :    0.125379
  16 H :    0.177788
  17 H :    0.138211
  18 H :    0.131814
  19 H :    0.130106

  Mayer bond orders larger than 0.1
B(  0-C ,  1-C ) :   0.8825 B(  0-C ,  9-H ) :   0.9302 B(  0-C , 10-H ) :   0.9329
B(  0-C , 11-H ) :   0.9269 B(  1-C ,  2-C ) :   0.9350 B(  1-C ,  3-C ) :   0.9303
B(  1-C , 12-H ) :   0.9114 B(  2-C , 13-H ) :   0.9267 B(  2-C , 14-H ) :   0.9347
B(  2-C , 15-H ) :   0.9375 B(  3-C ,  4-O ) :   1.9891 B(  3-C ,  5-C ) :   0.8218
B(  5-C ,  6-C ) :   0.8843 B(  5-C ,  7-C ) :   0.9197 B(  5-C , 16-H ) :   0.9090
B(  6-C , 17-H ) :   0.9241 B(  6-C , 18-H ) :   0.9338 B(  6-C , 19-H ) :   0.9355
B(  7-C ,  8-N ) :   2.8667

MP2 TOTAL ENERGY:     -402.495402754 Eh
FINAL SINGLE POINT ENERGY      -402.495402753754

DIPOLE MOMENT
-------------
                                X             Y             Z
Electronic contribution:     -7.42124      -1.60508      -0.50509
Nuclear contribution   :      8.94026       1.44479      -0.23034
                        -----------------------------------------
Total Dipole Moment    :      1.51901      -0.16029      -0.73543
                        -----------------------------------------
Magnitude (a.u.)       :      1.69528
Magnitude (Debye)      :      4.30905

                             ****ORCA TERMINATED NORMALLY****
TOTAL RUN TIME: 0 days 0 hours 20 minutes 33 seconds 564 msec
