                         Program Version 3.0.3 - RELEASE   -
|  1> ! RI-MP2 RIJK def2-TZVP def2-TZVP/C def2-TZVP/JK TIGHTSCF
|  2> % maxcore 2000
|  3> % mp2 density relaxed end
|  4> *xyz 0 1
|  5>  C        0.0553062103     1.4486294266     0.0127363541
|  6>  N        0.0055040597    -0.0006130676     0.0208789494
|  7>  C       -0.0154517231    -0.8006664631    -1.1033905818
|  8>  C       -0.0161573994    -2.0884557849    -0.6432444253
|  9>  N        0.0044795626    -2.1069171722     0.7294914180
| 10>  C        0.0180783358    -0.8424869489     1.1060014225
| 11>  C        0.0856344198    -0.3860825877     2.5277514606
| 12>  C        1.5193470872    -0.0754138311     2.9964428619
| 13>  O        1.5630682322     0.3751489424     4.3385866780
| 14>  H        1.0798924489     1.8174008806    -0.1078712939
| 15>  H       -0.5529395517     1.8323274380    -0.8099178394
| 16>  H       -0.3471807288     1.8410564393     0.9478076393
| 17>  H       -0.0366632293    -0.3760490208    -2.0938594071
| 18>  H       -0.0403891105    -3.0006419920    -1.2200110529
| 19>  H       -0.5380031127     0.4975292696     2.7050704511
| 20>  H       -0.3216197333    -1.1977964526     3.1390800773
| 21>  H        2.1506525183    -0.9617844920     2.8381855103
| 22>  H        1.9458083136     0.7370482598     2.3977785814
| 23>  H        1.3007912005    -0.3585004536     4.9039057166
| 24> *
| 25>
| 26>                          ****END OF INPUT****

CARTESIAN COORDINATES (ANGSTROEM)
---------------------------------
  C      0.055306    1.448629    0.012736
  N      0.005504   -0.000613    0.020879
  C     -0.015452   -0.800666   -1.103391
  C     -0.016157   -2.088456   -0.643244
  N      0.004480   -2.106917    0.729491
  C      0.018078   -0.842487    1.106001
  C      0.085634   -0.386083    2.527751
  C      1.519347   -0.075414    2.996443
  O      1.563068    0.375149    4.338587
  H      1.079892    1.817401   -0.107871
  H     -0.552940    1.832327   -0.809918
  H     -0.347181    1.841056    0.947808
  H     -0.036663   -0.376049   -2.093859
  H     -0.040389   -3.000642   -1.220011
  H     -0.538003    0.497529    2.705070
  H     -0.321620   -1.197796    3.139080
  H      2.150653   -0.961784    2.838186
  H      1.945808    0.737048    2.397779
  H      1.300791   -0.358500    4.903906

 Total Charge           Charge          ....    0
 Multiplicity           Mult            ....    1
 Number of Electrons    NEL             ....   68
 Basis Dimension        Dim             ....  339

ORBITAL ENERGIES
----------------

  NO   OCC          E(Eh)            E(eV)
   0   2.0000     -20.561850      -559.5164
   1   2.0000     -15.616702      -424.9521
   2   2.0000     -15.534977      -422.7282
   3   2.0000     -11.294410      -307.3365
   4   2.0000     -11.283991      -307.0530
   5   2.0000     -11.283673      -307.0444
   6   2.0000     -11.250524      -306.1423
   7   2.0000     -11.240338      -305.8652
   8   2.0000     -11.236515      -305.7611
   9   2.0000      -1.366581       -37.1866
  10   2.0000      -1.340171       -36.4679
  11   2.0000      -1.179965       -32.1085
  12   2.0000      -1.064448       -28.9651
  13   2.0000      -0.989371       -26.9221
  14   2.0000      -0.955457       -25.9993
  15   2.0000      -0.866163       -23.5695
  16   2.0000      -0.805895       -21.9295
  17   2.0000      -0.753257       -20.4972
  18   2.0000      -0.704235       -19.1632
  19   2.0000      -0.699578       -19.0365
  20   2.0000      -0.651746       -17.7349
  21   2.0000      -0.631120       -17.1736
  22   2.0000      -0.619138       -16.8476
  23   2.0000      -0.594227       -16.1697
  24   2.0000      -0.590420       -16.0662
  25   2.0000      -0.560687       -15.2571
  26   2.0000      -0.557677       -15.1752
  27   2.0000      -0.541323       -14.7301
  28   2.0000      -0.532804       -14.4983
  29   2.0000      -0.489226       -13.3125
  30   2.0000      -0.454228       -12.3602
  31   2.0000      -0.428370       -11.6566
  32   2.0000      -0.382405       -10.4058
  33   2.0000      -0.309496        -8.4218
  34   0.0000       0.125952         3.4273
  35   0.0000       0.140286         3.8174
  36   0.0000       0.153832         4.1860
  37   0.0000       0.173073         4.7095
  38   0.0000       0.178664         4.8617

MULLIKEN ATOMIC CHARGES
-----------------------
   0 C :   -0.342275
   1 N :   -0.035167
   2 C :   -0.126354
   3 C :   -0.117799
   4 N :   -0.299110
   5 C :    0.134783
   6 C :   -0.271302
   7 C :   -0.045329
   8 O :   -0.467891
   9 H :    0.159587
  10 H :    0.157823
  11 H :    0.156152
  12 H :    0.146039
  13 H :    0.131670
  14 H :    0.130329
  15 H :    0.138246
  16 H :    0.125084
  17 H :    0.107976
  18 H :    0.317537
Sum of atomic charges:   -0.0000000

LOEWDIN ATOMIC CHARGES
----------------------
   0 C :   -0.268186
   1 N :    0.241936
   2 C :   -0.229627
   3 C :   -0.265134
   4 N :    0.105530
   5 C :   -0.307932
   6 C :   -0.250105
   7 C :   -0.342577
   8 O :   -0.048864
   9 H :    0.123392
  10 H :    0.128149
  11 H :    0.129044
  12 H :    0.135427
  13 H :    0.131787
  14 H :    0.141732
  15 H :    0.153250
  16 H :    0.121849
  17 H :    0.125300
  18 H :    0.175027

  Mayer bond orders larger than 0.1
B(  0-C ,  1-N ) :   0.8586 B(  0-C ,  9-H ) :   0.9284 B(  0-C , 10-H ) :   0.9316
B(  0-C , 11-H ) :   0.9290 B(  1-N ,  2-C ) :   1.1102 B(  1-N ,  5-C ) :   1.1791
B(  2-C ,  3-C ) :   1.5138 B(  2-C , 12-H ) :   0.9107 B(  3-C ,  4-N ) :   1.2858
B(  3-C , 13-H ) :   0.9412 B(  4-N ,  5-C ) :   1.5457 B(  5-C ,  6-C ) :   0.8446
B(  6-C ,  7-C ) :   0.8984 B(  6-C , 14-H ) :   0.9421 B(  6-C , 15-H ) :   0.9249
B(  7-C ,  8-O ) :   0.9401 B(  7-C , 16-H ) :   0.9373 B(  7-C , 17-H ) :   0.9270
B(  8-O , 18-H ) :   0.8462

MP2 TOTAL ENERGY:     -418.537361610 Eh
FINAL SINGLE POINT ENERGY      -418.537361609874

DIPOLE MOMENT
-------------
                                X             Y             Z
Electronic contribution:     -0.83650      -3.97838      -1.19116
Nuclear contribution   :      0.67771       4.92257       0.68349
                        -----------------------------------------
Total Dipole Moment    :     -0.15879       0.94419      -0.50767
                        -----------------------------------------
Magnitude (a.u.)       :      1.08372
Magnitude (Debye)      :      2.75459

                             ****ORCA TERMINATED NORMALLY****
TOTAL RUN TIME: 0 days 0 hours 17 minutes 14 seconds 256 msec
