                         Program Version 3.0.3 - RELEASE   -
|  1> ! RI-MP2 RIJK def2-TZVP def2-TZVP/C def2-TZVP/JK TIGHTSCF
|  2> % maxcore 2000
|  3> % mp2 density relaxed end
|  4> *xyz 0 1
|  5>  C       -0.1062306073     1.5383717552    -0.2445444181
|  6>  O        0.0069676955     0.1444796119    -0.0752264192
|  7>  C       -1.2416440232    -0.5142488707    -0.1155318294
|  8>  C       -1.0945342170    -2.0106412174     0.0706363368
|  9>  C        0.2331279212    -2.6844797869     0.0046359591
| 10>  N       -0.5124892239    -2.6303814145     1.2610407837
| 11>  C       -0.0068930579    -1.8014888977     2.3232332496
| 12>  C       -0.8040169161    -1.7852547360     3.6014669425
| 13>  C        0.5148617819    -2.5189303117     3.5384415574
| 14>  H        0.9025154934     1.9555606858    -0.2019468465
| 15>  H       -0.5566635432     1.7925315756    -1.2167914020
| 16>  H       -0.7171279127     1.9988060549     0.5474868699
| 17>  H       -1.9114872046    -0.1038772381     0.6603775211
| 18>  H       -1.7317689183    -0.3338603459    -1.0879304233
| 19>  H       -1.9668476109    -2.5466884217    -0.3025379349
| 20>  H        0.3325388321    -3.6675493068    -0.4489188812
| 21>  H        1.0968333279    -2.0336893633    -0.1007265229
| 22>  H        0.4917542494    -0.8779800934     2.0361924339
| 23>  H       -0.8600888930    -0.8587037262     4.1622334027
| 24>  H       -1.7046922392    -2.3878828869     3.6210370553
| 25>  H        0.4791352996    -3.6018416370     3.5150747772
| 26>  H        1.3709051063    -2.0988771894     4.0547132784
| 27> *
| 28>
| 29>                          ****END OF INPUT****

CARTESIAN COORDINATES (ANGSTROEM)
---------------------------------
  C     -0.106231    1.538372   -0.244544
  O      0.006968    0.144480   -0.075226
  C     -1.241644   -0.514249   -0.115532
  C     -1.094534   -2.010641    0.070636
  C      0.233128   -2.684480    0.004636
  N     -0.512489   -2.630381    1.261041
  C     -0.006893   -1.801489    2.323233
  C     -0.804017   -1.785255    3.601467
  C      0.514862   -2.518930    3.538442
  H      0.902515    1.955561   -0.201947
  H     -0.556664    1.792532   -1.216791
  H     -0.717128    1.998806    0.547487
  H     -1.911487   -0.103877    0.660378
  H     -1.731769   -0.333860   -1.087930
  H     -1.966848   -2.546688   -0.302538
  H      0.332539   -3.667549   -0.448919
  H      1.096833   -2.033689   -0.100727
  H      0.491754   -0.877980    2.036192
  H     -0.860089   -0.858704    4.162233
  H     -1.704692   -2.387883    3.621037
  H      0.479135   -3.601842    3.515075
  H      1.370905   -2.098877    4.054713

 Total Charge           Charge          ....    0
 Multiplicity           Mult            ....    1
 Number of Electrons    NEL             ....   70
 Basis Dimension        Dim             ....  357

ORBITAL ENERGIES
----------------

  NO   OCC          E(Eh)            E(eV)
   0   2.0000     -20.561944      -559.5190
   1   2.0000     -15.550366      -423.1470
   2   2.0000     -11.283204      -307.0316
   3   2.0000     -11.276799      -306.8573
   4   2.0000     -11.254819      -306.2592
   5   2.0000     -11.244478      -305.9778
   6   2.0000     -11.242868      -305.9340
   7   2.0000     -11.212779      -305.1152
   8   2.0000     -11.211718      -305.0864
   9   2.0000      -1.384357       -37.6703
  10   2.0000      -1.267164       -34.4813
  11   2.0000      -1.123844       -30.5813
  12   2.0000      -0.997620       -27.1466
  13   2.0000      -0.913976       -24.8705
  14   2.0000      -0.891965       -24.2716
  15   2.0000      -0.815178       -22.1821
  16   2.0000      -0.797973       -21.7139
  17   2.0000      -0.757027       -20.5997
  18   2.0000      -0.690038       -18.7769
  19   2.0000      -0.677845       -18.4451
  20   2.0000      -0.665974       -18.1221
  21   2.0000      -0.645292       -17.5593
  22   2.0000      -0.608278       -16.5521
  23   2.0000      -0.597343       -16.2545
  24   2.0000      -0.568308       -15.4644
  25   2.0000      -0.559157       -15.2154
  26   2.0000      -0.516451       -14.0533
  27   2.0000      -0.508333       -13.8324
  28   2.0000      -0.499689       -13.5972
  29   2.0000      -0.493570       -13.4307
  30   2.0000      -0.449367       -12.2279
  31   2.0000      -0.434384       -11.8202
  32   2.0000      -0.420136       -11.4325
  33   2.0000      -0.379678       -10.3316
  34   2.0000      -0.358993        -9.7687
  35   0.0000       0.135996         3.7006
  36   0.0000       0.160187         4.3589
  37   0.0000       0.175345         4.7714
  38   0.0000       0.175724         4.7817
  39   0.0000       0.187691         5.1073

MULLIKEN ATOMIC CHARGES
-----------------------
   0 C :   -0.220268
   1 O :   -0.313185
   2 C :   -0.051756
   3 C :   -0.061367
   4 C :   -0.175058
   5 N :   -0.218886
   6 C :   -0.071540
   7 C :   -0.237099
   8 C :   -0.243519
   9 H :    0.140687
  10 H :    0.114943
  11 H :    0.115156
  12 H :    0.108416
  13 H :    0.108157
  14 H :    0.120573
  15 H :    0.126792
  16 H :    0.134100
  17 H :    0.124315
  18 H :    0.121445
  19 H :    0.126575
  20 H :    0.127782
  21 H :    0.123736
Sum of atomic charges:   -0.0000000

LOEWDIN ATOMIC CHARGES
----------------------
   0 C :   -0.360378
   1 O :    0.135137
   2 C :   -0.315978
   3 C :   -0.257844
   4 C :   -0.233444
   5 N :    0.135677
   6 C :   -0.280124
   7 C :   -0.232889
   8 C :   -0.229603
   9 H :    0.114058
  10 H :    0.103564
  11 H :    0.102784
  12 H :    0.127675
  13 H :    0.127726
  14 H :    0.145104
  15 H :    0.121793
  16 H :    0.130300
  17 H :    0.140237
  18 H :    0.127558
  19 H :    0.134685
  20 H :    0.135539
  21 H :    0.128421

  Mayer bond orders larger than 0.1
B(  0-C ,  1-O ) :   0.9115 B(  0-C ,  9-H ) :   0.9400 B(  0-C , 10-H ) :   0.9347
B(  0-C , 11-H ) :   0.9360 B(  1-O ,  2-C ) :   0.9176 B(  2-C ,  3-C ) :   0.9416
B(  2-C , 12-H ) :   0.9256 B(  2-C , 13-H ) :   0.9142 B(  3-C ,  4-C ) :   0.9596
B(  3-C ,  5-N ) :   0.9182 B(  3-C , 14-H ) :   0.9143 B(  4-C ,  5-N ) :   0.8742
B(  4-C , 15-H ) :   0.9187 B(  4-C , 16-H ) :   0.9098 B(  5-N ,  6-C ) :   0.9659
B(  6-C ,  7-C ) :   0.8684 B(  6-C ,  8-C ) :   0.8685 B(  6-C , 17-H ) :   0.9210
B(  7-C ,  8-C ) :   0.9391 B(  7-C , 18-H ) :   0.9277 B(  7-C , 19-H ) :   0.9251
B(  8-C , 20-H ) :   0.9235 B(  8-C , 21-H ) :   0.9267

MP2 TOTAL ENERGY:     -403.585606476 Eh
FINAL SINGLE POINT ENERGY      -403.585606475962

DIPOLE MOMENT
-------------
                                X             Y             Z
Electronic contribution:      0.27671      -3.08574      -1.02940
Nuclear contribution   :     -0.45104       3.84462       0.65674
                        -----------------------------------------
Total Dipole Moment    :     -0.17432       0.75888      -0.37266
                        -----------------------------------------
Magnitude (a.u.)       :      0.86323
Magnitude (Debye)      :      2.19415

                             ****ORCA TERMINATED NORMALLY****
TOTAL RUN TIME: 0 days 0 hours 16 minutes 59 seconds 264 msec
