                         Program Version 3.0.3 - RELEASE   -
|  1> ! RI-MP2 RIJK def2-TZVP def2-TZVP/C def2-TZVP/JK TIGHTSCF
|  2> % maxcore 2000
|  3> % mp2 density relaxed end
|  4> *xyz 0 1
|  5>  O        0.5294586322     0.7447639383    -0.6027931289
|  6>  C       -0.1764761247     0.2052560705     0.4962980164
|  7>  C       -1.3995583076    -0.5527085627     0.0411272988
|  8>  O       -2.1177579211    -1.3341913202     1.0200327562
|  9>  C       -1.5722155364    -2.0114536894    -0.1130237634
| 10>  C       -2.6250073666    -2.3246519844    -1.1648058165
| 11>  C       -3.3560741866    -0.9782062277    -1.3879123849
| 12>  C       -2.3595545285     0.0885961322    -0.9330056107
| 13>  O       -2.2764281411     1.2272324569    -1.3319296845
| 14>  H       -0.0702739253     1.3733273883    -1.0253373325
| 15>  H        0.5016031604    -0.4681053126     1.0289641354
| 16>  H       -0.4915281652     0.9853822703     1.2061880326
| 17>  H       -0.7584109318    -2.7006901696     0.0972483933
| 18>  H       -2.1311460509    -2.6574811316    -2.0839197913
| 19>  H       -3.2945832312    -3.1254276277    -0.8389586184
| 20>  H       -3.6567938512    -0.8002015410    -2.4214578414
| 21>  H       -4.2518099945    -0.9020007197    -0.7631668701
| 22> *
| 23>
| 24>                          ****END OF INPUT****

CARTESIAN COORDINATES (ANGSTROEM)
---------------------------------
  O      0.529459    0.744764   -0.602793
  C     -0.176476    0.205256    0.496298
  C     -1.399558   -0.552709    0.041127
  O     -2.117758   -1.334191    1.020033
  C     -1.572216   -2.011454   -0.113024
  C     -2.625007   -2.324652   -1.164806
  C     -3.356074   -0.978206   -1.387912
  C     -2.359555    0.088596   -0.933006
  O     -2.276428    1.227232   -1.331930
  H     -0.070274    1.373327   -1.025337
  H      0.501603   -0.468105    1.028964
  H     -0.491528    0.985382    1.206188
  H     -0.758411   -2.700690    0.097248
  H     -2.131146   -2.657481   -2.083920
  H     -3.294583   -3.125428   -0.838959
  H     -3.656794   -0.800202   -2.421458
  H     -4.251810   -0.902001   -0.763167

 Total Charge           Charge          ....    0
 Multiplicity           Mult            ....    1
 Number of Electrons    NEL             ....   68
 Basis Dimension        Dim             ....  327

ORBITAL ENERGIES
----------------

  NO   OCC          E(Eh)            E(eV)
   0   2.0000     -20.596280      -560.4533
   1   2.0000     -20.569398      -559.7218
   2   2.0000     -20.559660      -559.4568
   3   2.0000     -11.349829      -308.8445
   4   2.0000     -11.312685      -307.8338
   5   2.0000     -11.307306      -307.6874
   6   2.0000     -11.292526      -307.2853
   7   2.0000     -11.256844      -306.3143
   8   2.0000     -11.253223      -306.2158
   9   2.0000      -1.445185       -39.3255
  10   2.0000      -1.408543       -38.3284
  11   2.0000      -1.366157       -37.1750
  12   2.0000      -1.106260       -30.1029
  13   2.0000      -1.011804       -27.5326
  14   2.0000      -0.958281       -26.0761
  15   2.0000      -0.904963       -24.6253
  16   2.0000      -0.826084       -22.4789
  17   2.0000      -0.752833       -20.4856
  18   2.0000      -0.720233       -19.5985
  19   2.0000      -0.691808       -18.8250
  20   2.0000      -0.666144       -18.1267
  21   2.0000      -0.653134       -17.7727
  22   2.0000      -0.629349       -17.1255
  23   2.0000      -0.613627       -16.6976
  24   2.0000      -0.597014       -16.2456
  25   2.0000      -0.574849       -15.6424
  26   2.0000      -0.555351       -15.1119
  27   2.0000      -0.540383       -14.7046
  28   2.0000      -0.527238       -14.3469
  29   2.0000      -0.506206       -13.7746
  30   2.0000      -0.483478       -13.1561
  31   2.0000      -0.477723       -12.9995
  32   2.0000      -0.441404       -12.0112
  33   2.0000      -0.407378       -11.0853
  34   0.0000       0.113647         3.0925
  35   0.0000       0.135697         3.6925
  36   0.0000       0.155153         4.2219
  37   0.0000       0.159551         4.3416
  38   0.0000       0.174701         4.7538

MULLIKEN ATOMIC CHARGES
-----------------------
   0 O :   -0.479730
   1 C :   -0.017907
   2 C :    0.119266
   3 O :   -0.315317
   4 C :   -0.002176
   5 C :   -0.200276
   6 C :   -0.221192
   7 C :    0.151967
   8 O :   -0.306923
   9 H :    0.336296
  10 H :    0.124437
  11 H :    0.119760
  12 H :    0.139573
  13 H :    0.128338
  14 H :    0.131123
  15 H :    0.147030
  16 H :    0.145729
Sum of atomic charges:   -0.0000000

LOEWDIN ATOMIC CHARGES
----------------------
   0 O :   -0.034401
   1 C :   -0.302337
   2 C :   -0.269506
   3 O :    0.205023
   4 C :   -0.227530
   5 C :   -0.226511
   6 C :   -0.207538
   7 C :   -0.273163
   8 O :    0.148671
   9 H :    0.179043
  10 H :    0.138460
  11 H :    0.130812
  12 H :    0.141770
  13 H :    0.147278
  14 H :    0.142403
  15 H :    0.148634
  16 H :    0.158892

  Mayer bond orders larger than 0.1
B(  0-O ,  1-C ) :   0.9352 B(  0-O ,  9-H ) :   0.8249 B(  1-C ,  2-C ) :   0.8657
B(  1-C , 10-H ) :   0.9348 B(  1-C , 11-H ) :   0.9344 B(  2-C ,  3-O ) :   0.8612
B(  2-C ,  4-C ) :   0.8775 B(  2-C ,  7-C ) :   0.9013 B(  3-O ,  4-C ) :   0.9196
B(  4-C ,  5-C ) :   0.9132 B(  4-C , 12-H ) :   0.9152 B(  5-C ,  6-C ) :   0.9354
B(  5-C , 13-H ) :   0.9105 B(  5-C , 14-H ) :   0.9161 B(  6-C ,  7-C ) :   0.9476
B(  6-C , 15-H ) :   0.9228 B(  6-C , 16-H ) :   0.8965 B(  7-C ,  8-O ) :   1.9343

MP2 TOTAL ENERGY:     -458.237665595 Eh
FINAL SINGLE POINT ENERGY      -458.237665594817

DIPOLE MOMENT
-------------
                                X             Y             Z
Electronic contribution:      0.30829       2.97061       1.02086
Nuclear contribution   :     -0.71998      -3.93716      -1.20314
                        -----------------------------------------
Total Dipole Moment    :     -0.41169      -0.96655      -0.18229
                        -----------------------------------------
Magnitude (a.u.)       :      1.06627
Magnitude (Debye)      :      2.71025

                             ****ORCA TERMINATED NORMALLY****
TOTAL RUN TIME: 0 days 0 hours 15 minutes 54 seconds 269 msec
