                         Program Version 3.0.3 - RELEASE   -
|  1> ! RI-MP2 RIJK def2-TZVP def2-TZVP/C def2-TZVP/JK TIGHTSCF
|  2> % maxcore 2000
|  3> % mp2 density relaxed end
|  4> *xyz 0 1
|  5>  C        0.0151318529     1.4785633079    -0.1188210229
|  6>  C        0.0127099305    -0.0379232652     0.0697859692
|  7>  O        0.7263402206    -0.4122387126     1.2469494992
|  8>  C       -1.4104876510    -0.6206114286     0.0673246900
|  9>  C       -1.4374638470    -2.1190316917    -0.0117242505
| 10>  C       -0.6953784740    -3.1953208345     0.8281802254
| 11>  C       -1.3446439548    -3.8692954247    -0.3992798693
| 12>  C       -2.6494499447    -3.0822523772    -0.1435047793
| 13>  O       -0.8644359573    -2.7480888779    -1.2407446225
| 14>  H        1.0387362555     1.8606002253    -0.0797879459
| 15>  H       -0.4260481215     1.7612455701    -1.0798430829
| 16>  H       -0.5649944504     1.9718798493     0.6721474722
| 17>  H        0.5712822903    -0.5077541501    -0.7469077714
| 18>  H        0.3064520101     0.0275626734     1.9948361706
| 19>  H       -1.9414148775    -0.2976717963     0.9739889886
| 20>  H       -1.9706488404    -0.2226532042    -0.7878840982
| 21>  H        0.3905912094    -3.1235920742     0.8111094440
| 22>  H       -1.0936852576    -3.4339986059     1.8182612712
| 23>  H       -1.2115053174    -4.8772935632    -0.7913010404
| 24>  H       -3.2256368513    -3.3115542542     0.7571906990
| 25>  H       -3.2748432746    -2.9214388556    -1.0231944160
| 26> *
| 27>
| 28>                          ****END OF INPUT****

CARTESIAN COORDINATES (ANGSTROEM)
---------------------------------
  C      0.015132    1.478563   -0.118821
  C      0.012710   -0.037923    0.069786
  O      0.726340   -0.412239    1.246949
  C     -1.410488   -0.620611    0.067325
  C     -1.437464   -2.119032   -0.011724
  C     -0.695378   -3.195321    0.828180
  C     -1.344644   -3.869295   -0.399280
  C     -2.649450   -3.082252   -0.143505
  O     -0.864436   -2.748089   -1.240745
  H      1.038736    1.860600   -0.079788
  H     -0.426048    1.761246   -1.079843
  H     -0.564994    1.971880    0.672147
  H      0.571282   -0.507754   -0.746908
  H      0.306452    0.027563    1.994836
  H     -1.941415   -0.297672    0.973989
  H     -1.970649   -0.222653   -0.787884
  H      0.390591   -3.123592    0.811109
  H     -1.093685   -3.433999    1.818261
  H     -1.211505   -4.877294   -0.791301
  H     -3.225637   -3.311554    0.757191
  H     -3.274843   -2.921439   -1.023194

 Total Charge           Charge          ....    0
 Multiplicity           Mult            ....    1
 Number of Electrons    NEL             ....   70
 Basis Dimension        Dim             ....  351

ORBITAL ENERGIES
----------------

  NO   OCC          E(Eh)            E(eV)
   0   2.0000     -20.553185      -559.2806
   1   2.0000     -20.537940      -558.8658
   2   2.0000     -11.298943      -307.4599
   3   2.0000     -11.292509      -307.2848
   4   2.0000     -11.280392      -306.9551
   5   2.0000     -11.231445      -305.6232
   6   2.0000     -11.230561      -305.5991
   7   2.0000     -11.226527      -305.4893
   8   2.0000     -11.219525      -305.2988
   9   2.0000      -1.385569       -37.7032
  10   2.0000      -1.359367       -36.9903
  11   2.0000      -1.074845       -29.2480
  12   2.0000      -1.051847       -28.6222
  13   2.0000      -0.971142       -26.4261
  14   2.0000      -0.919752       -25.0277
  15   2.0000      -0.846471       -23.0336
  16   2.0000      -0.810965       -22.0675
  17   2.0000      -0.738145       -20.0859
  18   2.0000      -0.685601       -18.6562
  19   2.0000      -0.648181       -17.6379
  20   2.0000      -0.633243       -17.2314
  21   2.0000      -0.619623       -16.8608
  22   2.0000      -0.617378       -16.7997
  23   2.0000      -0.602023       -16.3819
  24   2.0000      -0.573834       -15.6148
  25   2.0000      -0.542854       -14.7718
  26   2.0000      -0.526228       -14.3194
  27   2.0000      -0.512002       -13.9323
  28   2.0000      -0.497170       -13.5287
  29   2.0000      -0.482070       -13.1178
  30   2.0000      -0.470553       -12.8044
  31   2.0000      -0.464924       -12.6512
  32   2.0000      -0.443887       -12.0788
  33   2.0000      -0.422959       -11.5093
  34   2.0000      -0.400988       -10.9114
  35   0.0000       0.126274         3.4361
  36   0.0000       0.158294         4.3074
  37   0.0000       0.168878         4.5954
  38   0.0000       0.172591         4.6964
  39   0.0000       0.187481         5.1016

MULLIKEN ATOMIC CHARGES
-----------------------
   0 C :   -0.384142
   1 C :    0.085126
   2 O :   -0.467145
   3 C :   -0.350569
   4 C :    0.097555
   5 C :   -0.132881
   6 C :   -0.065844
   7 C :   -0.116838
   8 O :   -0.321734
   9 H :    0.150420
  10 H :    0.130991
  11 H :    0.109699
  12 H :    0.115791
  13 H :    0.306222
  14 H :    0.121795
  15 H :    0.122666
  16 H :    0.133244
  17 H :    0.106620
  18 H :    0.136341
  19 H :    0.110277
  20 H :    0.112405
Sum of atomic charges:    0.0000000

LOEWDIN ATOMIC CHARGES
----------------------
   0 C :   -0.304921
   1 C :   -0.362303
   2 O :   -0.018054
   3 C :   -0.224152
   4 C :   -0.271569
   5 C :   -0.181960
   6 C :   -0.234833
   7 C :   -0.183587
   8 O :    0.134199
   9 H :    0.127189
  10 H :    0.126885
  11 H :    0.119967
  12 H :    0.152113
  13 H :    0.171736
  14 H :    0.147559
  15 H :    0.155541
  16 H :    0.136895
  17 H :    0.127829
  18 H :    0.121841
  19 H :    0.127939
  20 H :    0.131688

  Mayer bond orders larger than 0.1
B(  0-C ,  1-C ) :   0.9220 B(  0-C ,  9-H ) :   0.9474 B(  0-C , 10-H ) :   0.9364
B(  0-C , 11-H ) :   0.9143 B(  1-C ,  2-O ) :   0.9102 B(  1-C ,  3-C ) :   0.9527
B(  1-C , 12-H ) :   0.9257 B(  2-O , 13-H ) :   0.8446 B(  3-C ,  4-C ) :   0.8778
B(  3-C , 14-H ) :   0.9239 B(  3-C , 15-H ) :   0.9171 B(  4-C ,  5-C ) :   0.8939
B(  4-C ,  7-C ) :   0.8641 B(  4-C ,  8-O ) :   0.8886 B(  5-C ,  6-C ) :   0.9272
B(  5-C , 16-H ) :   0.9153 B(  5-C , 17-H ) :   0.9250 B(  6-C ,  7-C ) :   0.9403
B(  6-C ,  8-O ) :   0.9044 B(  6-C , 18-H ) :   0.8938 B(  7-C , 19-H ) :   0.9168
B(  7-C , 20-H ) :   0.9215

MP2 TOTAL ENERGY:     -423.462061284 Eh
FINAL SINGLE POINT ENERGY      -423.462061284289

DIPOLE MOMENT
-------------
                                X             Y             Z
Electronic contribution:      0.79227      -5.03523      -1.17029
Nuclear contribution   :     -1.54866       5.40765       1.82184
                        -----------------------------------------
Total Dipole Moment    :     -0.75639       0.37242       0.65156
                        -----------------------------------------
Magnitude (a.u.)       :      1.06553
Magnitude (Debye)      :      2.70835

                             ****ORCA TERMINATED NORMALLY****
TOTAL RUN TIME: 0 days 0 hours 19 minutes 12 seconds 565 msec
