                         Program Version 3.0.3 - RELEASE   -
|  1> ! RI-MP2 RIJK def2-TZVP def2-TZVP/C def2-TZVP/JK TIGHTSCF
|  2> % maxcore 2000
|  3> % mp2 density relaxed end
|  4> *xyz 0 1
|  5>  N        0.0773345630     1.2126125396     0.0669459754
|  6>  C       -0.0027559368    -0.0367592471    -0.0111427708
|  7>  O        0.9998523368    -1.0051350229    -0.0425720336
|  8>  C        0.0351078669    -2.0775420303    -0.2922521183
|  9>  C       -0.3506728653    -2.8571050477     0.9837350749
| 10>  C       -1.5236648585    -1.8662391084     1.1957691049
| 11>  C       -2.8560349076    -2.1839270738     0.4428018552
| 12>  C       -2.5212658871    -1.1055596385    -0.6376716619
| 13>  C       -1.1043422131    -1.0399170679    -0.0856505258
| 14>  H        1.0493892477     1.5215229221     0.1202044743
| 15>  H        0.2598491808    -2.5920719000    -1.2275969891
| 16>  H       -0.6494685090    -3.8961885046     0.8175702932
| 17>  H        0.4324725845    -2.8304655499     1.7447840170
| 18>  H       -1.6360840559    -1.3855666819     2.1671948898
| 19>  H       -2.8932003956    -3.2042002993     0.0507024663
| 20>  H       -3.7673085350    -2.0049242639     1.0159936921
| 21>  H       -2.6380150547    -1.3763440035    -1.6902441402
| 22>  H       -3.0558911513    -0.1688178719    -0.4581480533
| 23> *
| 24>
| 25>                          ****END OF INPUT****

CARTESIAN COORDINATES (ANGSTROEM)
---------------------------------
  N      0.077335    1.212613    0.066946
  C     -0.002756   -0.036759   -0.011143
  O      0.999852   -1.005135   -0.042572
  C      0.035108   -2.077542   -0.292252
  C     -0.350673   -2.857105    0.983735
  C     -1.523665   -1.866239    1.195769
  C     -2.856035   -2.183927    0.442802
  C     -2.521266   -1.105560   -0.637672
  C     -1.104342   -1.039917   -0.085651
  H      1.049389    1.521523    0.120204
  H      0.259849   -2.592072   -1.227597
  H     -0.649469   -3.896189    0.817570
  H      0.432473   -2.830466    1.744784
  H     -1.636084   -1.385567    2.167195
  H     -2.893200   -3.204200    0.050702
  H     -3.767309   -2.004924    1.015994
  H     -2.638015   -1.376344   -1.690244
  H     -3.055891   -0.168818   -0.458148

 Total Charge           Charge          ....    0
 Multiplicity           Mult            ....    1
 Number of Electrons    NEL             ....   66
 Basis Dimension        Dim             ....  333

ORBITAL ENERGIES
----------------

  NO   OCC          E(Eh)            E(eV)
   0   2.0000     -20.586968      -560.1999
   1   2.0000     -15.533655      -422.6922
   2   2.0000     -11.334619      -308.4307
   3   2.0000     -11.301001      -307.5159
   4   2.0000     -11.251092      -306.1578
   5   2.0000     -11.249647      -306.1184
   6   2.0000     -11.240317      -305.8646
   7   2.0000     -11.239711      -305.8481
   8   2.0000     -11.238783      -305.8228
   9   2.0000      -1.427380       -38.8410
  10   2.0000      -1.192822       -32.4583
  11   2.0000      -1.173463       -31.9316
  12   2.0000      -1.028699       -27.9923
  13   2.0000      -0.958035       -26.0695
  14   2.0000      -0.891795       -24.2670
  15   2.0000      -0.838345       -22.8125
  16   2.0000      -0.797124       -21.6908
  17   2.0000      -0.715404       -19.4671
  18   2.0000      -0.691957       -18.8291
  19   2.0000      -0.678181       -18.4543
  20   2.0000      -0.654475       -17.8092
  21   2.0000      -0.629404       -17.1270
  22   2.0000      -0.579855       -15.7787
  23   2.0000      -0.574275       -15.6268
  24   2.0000      -0.563853       -15.3432
  25   2.0000      -0.526712       -14.3326
  26   2.0000      -0.496568       -13.5123
  27   2.0000      -0.478693       -13.0259
  28   2.0000      -0.467581       -12.7235
  29   2.0000      -0.446387       -12.1468
  30   2.0000      -0.428317       -11.6551
  31   2.0000      -0.422896       -11.5076
  32   2.0000      -0.383552       -10.4370
  33   0.0000       0.136764         3.7216
  34   0.0000       0.144363         3.9283
  35   0.0000       0.156090         4.2474
  36   0.0000       0.167266         4.5515
  37   0.0000       0.174841         4.7577

MULLIKEN ATOMIC CHARGES
-----------------------
   0 N :   -0.367381
   1 C :    0.062174
   2 O :   -0.273001
   3 C :    0.041868
   4 C :   -0.259403
   5 C :   -0.080922
   6 C :   -0.252168
   7 C :   -0.214342
   8 C :    0.106762
   9 H :    0.229168
  10 H :    0.122446
  11 H :    0.121118
  12 H :    0.131231
  13 H :    0.125678
  14 H :    0.118430
  15 H :    0.126884
  16 H :    0.124045
  17 H :    0.137414
Sum of atomic charges:   -0.0000000

LOEWDIN ATOMIC CHARGES
----------------------
   0 N :   -0.052203
   1 C :   -0.363429
   2 O :    0.224788
   3 C :   -0.176546
   4 C :   -0.205379
   5 C :   -0.136528
   6 C :   -0.205206
   7 C :   -0.192791
   8 C :   -0.150861
   9 H :    0.172591
  10 H :    0.129681
  11 H :    0.134782
  12 H :    0.140716
  13 H :    0.139270
  14 H :    0.132549
  15 H :    0.130275
  16 H :    0.130334
  17 H :    0.147958

  Mayer bond orders larger than 0.1
B(  0-N ,  1-C ) :   2.0850 B(  0-N ,  9-H ) :   0.8468 B(  1-C ,  2-O ) :   1.0582
B(  1-C ,  8-C ) :   0.9317 B(  2-O ,  3-C ) :   0.8963 B(  3-C ,  4-C ) :   0.9169
B(  3-C ,  8-C ) :   0.9104 B(  3-C , 10-H ) :   0.9229 B(  4-C ,  5-C ) :   0.9380
B(  4-C , 11-H ) :   0.9082 B(  4-C , 12-H ) :   0.9042 B(  5-C ,  6-C ) :   0.9075
B(  5-C ,  8-C ) :   0.8801 B(  5-C , 13-H ) :   0.9022 B(  6-C ,  7-C ) :   0.9487
B(  6-C , 14-H ) :   0.9174 B(  6-C , 15-H ) :   0.9251 B(  7-C ,  8-C ) :   0.8840
B(  7-C , 16-H ) :   0.9241 B(  7-C , 17-H ) :   0.9133

MP2 TOTAL ENERGY:     -401.216734677 Eh
FINAL SINGLE POINT ENERGY      -401.216734677360

DIPOLE MOMENT
-------------
                                X             Y             Z
Electronic contribution:      5.08870       3.64192      -0.85700
Nuclear contribution   :     -5.49508      -4.70007       0.87242
                        -----------------------------------------
Total Dipole Moment    :     -0.40638      -1.05815       0.01541
                        -----------------------------------------
Magnitude (a.u.)       :      1.13360
Magnitude (Debye)      :      2.88139

                             ****ORCA TERMINATED NORMALLY****
TOTAL RUN TIME: 0 days 0 hours 17 minutes 43 seconds 320 msec
