                         Program Version 3.0.3 - RELEASE   -
|  1> ! RI-MP2 RIJK def2-TZVP def2-TZVP/C def2-TZVP/JK TIGHTSCF
|  2> % maxcore 2000
|  3> % mp2 density relaxed end
|  4> *xyz 0 1
|  5>  N       -0.1841960860     1.4096332195     0.1151862509
|  6>  C        0.0043135100    -0.0373772374    -0.0030215889
|  7>  C        0.7598482777    -0.4324485329    -1.2196007238
|  8>  N        1.3257905256    -0.6991871224    -2.1921349774
|  9>  C        0.6841164587    -0.5800012695     1.2307425835
| 10>  N        1.7494533255     0.0480003443     1.7215100378
| 11>  N        2.1018080494    -0.6812273261     2.7922027959
| 12>  C        1.2993410141    -1.7527538367     2.9948552637
| 13>  C        0.3554692065    -1.7227003102     1.9901206926
| 14>  H        0.7073835656     1.8325569472     0.3574552055
| 15>  H       -0.4715595607     1.7964532650    -0.7788711007
| 16>  H       -0.9816519104    -0.5101948424    -0.0826723219
| 17>  H        2.8944316624    -0.3906250196     3.3396191731
| 18>  H        1.4562002087    -2.4328471491     3.8166995044
| 19>  H       -0.4514065271    -2.4188840797     1.8302148953
| 20> *
| 21>
| 22>                          ****END OF INPUT****

CARTESIAN COORDINATES (ANGSTROEM)
---------------------------------
  N     -0.184196    1.409633    0.115186
  C      0.004314   -0.037377   -0.003022
  C      0.759848   -0.432449   -1.219601
  N      1.325791   -0.699187   -2.192135
  C      0.684116   -0.580001    1.230743
  N      1.749453    0.048000    1.721510
  N      2.101808   -0.681227    2.792203
  C      1.299341   -1.752754    2.994855
  C      0.355469   -1.722700    1.990121
  H      0.707384    1.832557    0.357455
  H     -0.471560    1.796453   -0.778871
  H     -0.981652   -0.510195   -0.082672
  H      2.894432   -0.390625    3.339619
  H      1.456200   -2.432847    3.816700
  H     -0.451407   -2.418884    1.830215

 Total Charge           Charge          ....    0
 Multiplicity           Mult            ....    1
 Number of Electrons    NEL             ....   64
 Basis Dimension        Dim             ....  315

ORBITAL ENERGIES
----------------

  NO   OCC          E(Eh)            E(eV)
   0   2.0000     -15.656417      -426.0328
   1   2.0000     -15.602834      -424.5747
   2   2.0000     -15.567685      -423.6182
   3   2.0000     -15.565196      -423.5505
   4   2.0000     -11.321861      -308.0835
   5   2.0000     -11.294550      -307.3403
   6   2.0000     -11.281141      -306.9755
   7   2.0000     -11.268451      -306.6301
   8   2.0000     -11.238582      -305.8174
   9   2.0000      -1.395351       -37.9694
  10   2.0000      -1.234507       -33.5927
  11   2.0000      -1.198796       -32.6209
  12   2.0000      -1.117827       -30.4176
  13   2.0000      -1.073227       -29.2040
  14   2.0000      -0.980738       -26.6872
  15   2.0000      -0.841405       -22.8958
  16   2.0000      -0.805155       -21.9094
  17   2.0000      -0.763609       -20.7789
  18   2.0000      -0.716830       -19.5059
  19   2.0000      -0.677673       -18.4404
  20   2.0000      -0.639529       -17.4025
  21   2.0000      -0.623776       -16.9738
  22   2.0000      -0.612586       -16.6693
  23   2.0000      -0.585038       -15.9197
  24   2.0000      -0.569566       -15.4987
  25   2.0000      -0.555430       -15.1140
  26   2.0000      -0.487027       -13.2527
  27   2.0000      -0.468535       -12.7495
  28   2.0000      -0.458969       -12.4892
  29   2.0000      -0.425024       -11.5655
  30   2.0000      -0.379664       -10.3312
  31   2.0000      -0.364367        -9.9149
  32   0.0000       0.124052         3.3756
  33   0.0000       0.125320         3.4101
  34   0.0000       0.137097         3.7306
  35   0.0000       0.151372         4.1190
  36   0.0000       0.169667         4.6169

MULLIKEN ATOMIC CHARGES
-----------------------
   0 N :   -0.518526
   1 C :    0.122970
   2 C :   -0.217851
   3 N :   -0.070867
   4 C :    0.134087
   5 N :   -0.252108
   6 N :   -0.107055
   7 C :   -0.074278
   8 C :   -0.216762
   9 H :    0.254099
  10 H :    0.235388
  11 H :    0.136323
  12 H :    0.263005
  13 H :    0.159854
  14 H :    0.151721
Sum of atomic charges:    0.0000000

LOEWDIN ATOMIC CHARGES
----------------------
   0 N :   -0.119445
   1 C :   -0.288349
   2 C :   -0.171843
   3 N :    0.056859
   4 C :   -0.253671
   5 N :    0.055275
   6 N :    0.140783
   7 C :   -0.230146
   8 C :   -0.168209
   9 H :    0.165301
  10 H :    0.159395
  11 H :    0.175330
  12 H :    0.192193
  13 H :    0.139623
  14 H :    0.146903

  Mayer bond orders larger than 0.1
B(  0-N ,  1-C ) :   0.9880 B(  0-N ,  9-H ) :   0.8772 B(  0-N , 10-H ) :   0.8907
B(  1-C ,  2-C ) :   0.9292 B(  1-C ,  4-C ) :   0.8865 B(  1-C , 11-H ) :   0.9153
B(  2-C ,  3-N ) :   2.8658 B(  4-C ,  5-N ) :   1.4958 B(  4-C ,  8-C ) :   1.2705
B(  5-N ,  6-N ) :   1.0998 B(  5-N ,  7-C ) :   0.1087 B(  6-N ,  7-C ) :   1.2097
B(  6-N , 12-H ) :   0.8711 B(  7-C ,  8-C ) :   1.4621 B(  7-C , 13-H ) :   0.9107
B(  8-C , 14-H ) :   0.9055

MP2 TOTAL ENERGY:     -412.309309382 Eh
FINAL SINGLE POINT ENERGY      -412.309309382002

DIPOLE MOMENT
-------------
                                X             Y             Z
Electronic contribution:      2.02418      -0.82643      -1.48533
Nuclear contribution   :     -2.12164       0.57212       3.22157
                        -----------------------------------------
Total Dipole Moment    :     -0.09747      -0.25430       1.73624
                        -----------------------------------------
Magnitude (a.u.)       :      1.75747
Magnitude (Debye)      :      4.46714

                             ****ORCA TERMINATED NORMALLY****
TOTAL RUN TIME: 0 days 0 hours 16 minutes 42 seconds 556 msec
