                         Program Version 3.0.3 - RELEASE   -
|  1> ! RI-MP2 RIJK def2-TZVP def2-TZVP/C def2-TZVP/JK TIGHTSCF
|  2> % maxcore 2000
|  3> % mp2 density relaxed end
|  4> *xyz 0 1
|  5>  C       -0.1621515046     1.5505874452    -0.0210632590
|  6>  C        0.0275984975     0.0170530168     0.0157153467
|  7>  C        0.8009842043    -0.3812883008     1.2933422812
|  8>  C       -1.3531104942    -0.6784519465     0.0051887780
|  9>  C        0.7871461178    -0.4050876936    -1.1672544923
| 10>  C        1.4079745498    -0.7621466718    -2.1370972470
| 11>  C        2.1428684167    -1.1536577577    -3.3090510030
| 12>  C        3.0627080255    -2.3087848931    -3.3066414639
| 13>  O        1.7911986926    -2.4016324575    -3.9343841400
| 14>  H        0.8030577345     2.0649562111    -0.0181668038
| 15>  H       -0.7078490642     1.8557464104    -0.9182595999
| 16>  H       -0.7296940058     1.8788940662     0.8562457898
| 17>  H        0.2416746424    -0.0718835410     2.1828098442
| 18>  H        0.9485766682    -1.4639237538     1.3391067674
| 19>  H        1.7838290844     0.0976717749     1.3212525829
| 20>  H       -1.9187187463    -0.4112132544    -0.8916342608
| 21>  H       -1.2432498619    -1.7662152081     0.0255809117
| 22>  H       -1.9323205612    -0.3731228844     0.8832542630
| 23>  H        2.3464424228    -0.3551945326    -4.0222764656
| 24>  H        3.9229784042    -2.3046671365    -3.9753234111
| 25>  H        3.1786570073    -2.8850392129    -2.3906327985
| 26> *
| 27>
| 28>                          ****END OF INPUT****

CARTESIAN COORDINATES (ANGSTROEM)
---------------------------------
  C     -0.162152    1.550587   -0.021063
  C      0.027598    0.017053    0.015715
  C      0.800984   -0.381288    1.293342
  C     -1.353110   -0.678452    0.005189
  C      0.787146   -0.405088   -1.167254
  C      1.407975   -0.762147   -2.137097
  C      2.142868   -1.153658   -3.309051
  C      3.062708   -2.308785   -3.306641
  O      1.791199   -2.401632   -3.934384
  H      0.803058    2.064956   -0.018167
  H     -0.707849    1.855746   -0.918260
  H     -0.729694    1.878894    0.856246
  H      0.241675   -0.071884    2.182810
  H      0.948577   -1.463924    1.339107
  H      1.783829    0.097672    1.321253
  H     -1.918719   -0.411213   -0.891634
  H     -1.243250   -1.766215    0.025581
  H     -1.932321   -0.373123    0.883254
  H      2.346442   -0.355195   -4.022276
  H      3.922978   -2.304667   -3.975323
  H      3.178657   -2.885039   -2.390633

 Total Charge           Charge          ....    0
 Multiplicity           Mult            ....    1
 Number of Electrons    NEL             ....   68
 Basis Dimension        Dim             ....  351

ORBITAL ENERGIES
----------------

  NO   OCC          E(Eh)            E(eV)
   0   2.0000     -20.575405      -559.8852
   1   2.0000     -11.310185      -307.7658
   2   2.0000     -11.290906      -307.2412
   3   2.0000     -11.264721      -306.5286
   4   2.0000     -11.229244      -305.5633
   5   2.0000     -11.222325      -305.3750
   6   2.0000     -11.222215      -305.3720
   7   2.0000     -11.222024      -305.3668
   8   2.0000     -11.220977      -305.3383
   9   2.0000      -1.417391       -38.5692
  10   2.0000      -1.121092       -30.5065
  11   2.0000      -1.031920       -28.0800
  12   2.0000      -0.939042       -25.5526
  13   2.0000      -0.938849       -25.5474
  14   2.0000      -0.937944       -25.5227
  15   2.0000      -0.883825       -24.0501
  16   2.0000      -0.807276       -21.9671
  17   2.0000      -0.726032       -19.7563
  18   2.0000      -0.679420       -18.4880
  19   2.0000      -0.652332       -17.7509
  20   2.0000      -0.607143       -16.5212
  21   2.0000      -0.606594       -16.5063
  22   2.0000      -0.576567       -15.6892
  23   2.0000      -0.562600       -15.3091
  24   2.0000      -0.550902       -14.9908
  25   2.0000      -0.549270       -14.9464
  26   2.0000      -0.521301       -14.1853
  27   2.0000      -0.512917       -13.9572
  28   2.0000      -0.491590       -13.3768
  29   2.0000      -0.483756       -13.1637
  30   2.0000      -0.474474       -12.9111
  31   2.0000      -0.461486       -12.5577
  32   2.0000      -0.379141       -10.3169
  33   2.0000      -0.362607        -9.8671
  34   0.0000       0.126515         3.4427
  35   0.0000       0.155792         4.2393
  36   0.0000       0.162721         4.4279
  37   0.0000       0.174228         4.7410
  38   0.0000       0.180871         4.9218

MULLIKEN ATOMIC CHARGES
-----------------------
   0 C :   -0.393509
   1 C :   -0.024852
   2 C :   -0.391336
   3 C :   -0.387350
   4 C :    0.007335
   5 C :    0.101855
   6 C :   -0.171478
   7 C :   -0.024986
   8 O :   -0.308312
   9 H :    0.134105
  10 H :    0.136319
  11 H :    0.132788
  12 H :    0.132356
  13 H :    0.135218
  14 H :    0.133877
  15 H :    0.136713
  16 H :    0.137570
  17 H :    0.131357
  18 H :    0.142641
  19 H :    0.116373
  20 H :    0.123315
Sum of atomic charges:    0.0000000

LOEWDIN ATOMIC CHARGES
----------------------
   0 C :   -0.253190
   1 C :   -0.338335
   2 C :   -0.253712
   3 C :   -0.251646
   4 C :   -0.012881
   5 C :   -0.055581
   6 C :   -0.279622
   7 C :   -0.253107
   8 O :    0.155096
   9 H :    0.128025
  10 H :    0.128699
  11 H :    0.126087
  12 H :    0.125906
  13 H :    0.128355
  14 H :    0.127908
  15 H :    0.129188
  16 H :    0.129348
  17 H :    0.125729
  18 H :    0.150987
  19 H :    0.119060
  20 H :    0.123685

  Mayer bond orders larger than 0.1
B(  0-C ,  1-C ) :   0.9197 B(  0-C ,  9-H ) :   0.9330 B(  0-C , 10-H ) :   0.9329
B(  0-C , 11-H ) :   0.9367 B(  1-C ,  2-C ) :   0.9123 B(  1-C ,  3-C ) :   0.9167
B(  1-C ,  4-C ) :   1.1395 B(  1-C ,  5-C ) :  -0.1779 B(  2-C , 12-H ) :   0.9360
B(  2-C , 13-H ) :   0.9329 B(  2-C , 14-H ) :   0.9330 B(  3-C , 15-H ) :   0.9320
B(  3-C , 16-H ) :   0.9315 B(  3-C , 17-H ) :   0.9357 B(  4-C ,  5-C ) :   2.5893
B(  4-C ,  6-C ) :  -0.1005 B(  5-C ,  6-C ) :   0.9993 B(  6-C ,  7-C ) :   0.9910
B(  6-C ,  8-O ) :   0.9925 B(  6-C , 18-H ) :   0.9389 B(  7-C ,  8-O ) :   0.9024
B(  7-C , 19-H ) :   0.9163 B(  7-C , 20-H ) :   0.9173

MP2 TOTAL ENERGY:     -386.360050889 Eh
FINAL SINGLE POINT ENERGY      -386.360050889283

DIPOLE MOMENT
-------------
                                X             Y             Z
Electronic contribution:      4.57955      -4.35462      -9.74388
Nuclear contribution   :     -4.22823       4.78503      10.31369
                        -----------------------------------------
Total Dipole Moment    :      0.35132       0.43041       0.56981
                        -----------------------------------------
Magnitude (a.u.)       :      0.79584
Magnitude (Debye)      :      2.02285

                             ****ORCA TERMINATED NORMALLY****
TOTAL RUN TIME: 0 days 0 hours 18 minutes 54 seconds 195 msec
