                         Program Version 3.0.3 - RELEASE   -
|  1> ! RI-MP2 RIJK def2-TZVP def2-TZVP/C def2-TZVP/JK TIGHTSCF
|  2> % maxcore 2000
|  3> % mp2 density relaxed end
|  4> *xyz 0 1
|  5>  C        0.0788809950     1.5558024093     0.1985132751
|  6>  C        1.5740269272     1.9899219406    -0.0298358628
|  7>  C        2.2516418754     0.7046567199     0.3472734663
|  8>  C        2.8526594540     0.3362575701     1.4809605780
|  9>  C        2.5425742407    -1.1087071846     1.8356698726
| 10>  C        1.3635789328    -1.4114287360     0.8925281516
| 11>  O        0.1157869890    -0.7563957330     1.2827914786
| 12>  C        0.0551929211     0.0102095160     0.0374275359
| 13>  C        1.4841969245    -0.4409688040    -0.2853552543
| 14>  H       -0.2455334927     1.8115952525     1.2107088101
| 15>  H       -0.6000560200     2.0425521989    -0.5080075864
| 16>  H        1.7279910102     2.2609952634    -1.0812355213
| 17>  H        1.8685368635     2.8418370277     0.5866903700
| 18>  H        3.3316219635     1.0167630243     2.1770524989
| 19>  H        3.3714495733    -1.8122640989     1.6739134786
| 20>  H        2.2441496821    -1.2025903149     2.8867714084
| 21>  H        1.1975716592    -2.4752090147     0.6942433835
| 22>  H       -0.7689110562    -0.3489477582    -0.5879878999
| 23>  H        1.7811699775    -0.7515491485    -1.2884750628
| 24> *
| 25>
| 26>                          ****END OF INPUT****

CARTESIAN COORDINATES (ANGSTROEM)
---------------------------------
  C      0.078881    1.555802    0.198513
  C      1.574027    1.989922   -0.029836
  C      2.251642    0.704657    0.347273
  C      2.852659    0.336258    1.480961
  C      2.542574   -1.108707    1.835670
  C      1.363579   -1.411429    0.892528
  O      0.115787   -0.756396    1.282791
  C      0.055193    0.010210    0.037428
  C      1.484197   -0.440969   -0.285355
  H     -0.245533    1.811595    1.210709
  H     -0.600056    2.042552   -0.508008
  H      1.727991    2.260995   -1.081236
  H      1.868537    2.841837    0.586690
  H      3.331622    1.016763    2.177052
  H      3.371450   -1.812264    1.673913
  H      2.244150   -1.202590    2.886771
  H      1.197572   -2.475209    0.694243
  H     -0.768911   -0.348948   -0.587988
  H      1.781170   -0.751549   -1.288475

 Total Charge           Charge          ....    0
 Multiplicity           Mult            ....    1
 Number of Electrons    NEL             ....   66
 Basis Dimension        Dim             ....  339

ORBITAL ENERGIES
----------------

  NO   OCC          E(Eh)            E(eV)
   0   2.0000     -20.541235      -558.9554
   1   2.0000     -11.278907      -306.9147
   2   2.0000     -11.278275      -306.8975
   3   2.0000     -11.232737      -305.6583
   4   2.0000     -11.227605      -305.5187
   5   2.0000     -11.226344      -305.4843
   6   2.0000     -11.226128      -305.4785
   7   2.0000     -11.225211      -305.4535
   8   2.0000     -11.222439      -305.3781
   9   2.0000      -1.368760       -37.2459
  10   2.0000      -1.139182       -30.9987
  11   2.0000      -1.063751       -28.9461
  12   2.0000      -0.971551       -26.4373
  13   2.0000      -0.937115       -25.5002
  14   2.0000      -0.905775       -24.6474
  15   2.0000      -0.798780       -21.7359
  16   2.0000      -0.752329       -20.4719
  17   2.0000      -0.706293       -19.2192
  18   2.0000      -0.686175       -18.6718
  19   2.0000      -0.656785       -17.8720
  20   2.0000      -0.632468       -17.2103
  21   2.0000      -0.593867       -16.1599
  22   2.0000      -0.583772       -15.8852
  23   2.0000      -0.545708       -14.8495
  24   2.0000      -0.536269       -14.5926
  25   2.0000      -0.516109       -14.0440
  26   2.0000      -0.504835       -13.7373
  27   2.0000      -0.486518       -13.2388
  28   2.0000      -0.470407       -12.8004
  29   2.0000      -0.442049       -12.0288
  30   2.0000      -0.437700       -11.9104
  31   2.0000      -0.411448       -11.1961
  32   2.0000      -0.336020        -9.1436
  33   0.0000       0.139067         3.7842
  34   0.0000       0.140838         3.8324
  35   0.0000       0.156336         4.2541
  36   0.0000       0.172403         4.6913
  37   0.0000       0.185035         5.0351

MULLIKEN ATOMIC CHARGES
-----------------------
   0 C :   -0.235816
   1 C :   -0.228940
   2 C :   -0.020489
   3 C :   -0.237154
   4 C :   -0.144382
   5 C :   -0.017653
   6 O :   -0.335336
   7 C :    0.031696
   8 C :    0.000041
   9 H :    0.124786
  10 H :    0.118865
  11 H :    0.123068
  12 H :    0.124649
  13 H :    0.125578
  14 H :    0.117413
  15 H :    0.121015
  16 H :    0.101771
  17 H :    0.099348
  18 H :    0.131541
Sum of atomic charges:    0.0000000

LOEWDIN ATOMIC CHARGES
----------------------
   0 C :   -0.216332
   1 C :   -0.210500
   2 C :   -0.148052
   3 C :   -0.120470
   4 C :   -0.222645
   5 C :   -0.228312
   6 O :    0.144148
   7 C :   -0.228931
   8 C :   -0.150558
   9 H :    0.144193
  10 H :    0.132726
  11 H :    0.139284
  12 H :    0.138858
  13 H :    0.137034
  14 H :    0.139614
  15 H :    0.145375
  16 H :    0.131197
  17 H :    0.130043
  18 H :    0.143329

  Mayer bond orders larger than 0.1
B(  0-C ,  1-C ) :   0.9246 B(  0-C ,  7-C ) :   0.9093 B(  0-C ,  9-H ) :   0.9158
B(  0-C , 10-H ) :   0.9264 B(  1-C ,  2-C ) :   0.9271 B(  1-C , 11-H ) :   0.9257
B(  1-C , 12-H ) :   0.9251 B(  2-C ,  3-C ) :   1.7803 B(  2-C ,  8-C ) :   0.9015
B(  3-C ,  4-C ) :   0.9344 B(  3-C , 13-H ) :   0.9205 B(  4-C ,  5-C ) :   0.9469
B(  4-C , 14-H ) :   0.9009 B(  4-C , 15-H ) :   0.9112 B(  5-C ,  6-O ) :   0.9533
B(  5-C ,  8-C ) :   0.9168 B(  5-C , 16-H ) :   0.9232 B(  6-O ,  7-C ) :   0.9387
B(  7-C ,  8-C ) :   0.9272 B(  7-C , 17-H ) :   0.9226 B(  8-C , 18-H ) :   0.9031

MP2 TOTAL ENERGY:     -385.203843182 Eh
FINAL SINGLE POINT ENERGY      -385.203843182353

DIPOLE MOMENT
-------------
                                X             Y             Z
Electronic contribution:     -0.30314      -2.16628       0.30668
Nuclear contribution   :      0.55576       2.32018      -0.73529
                        -----------------------------------------
Total Dipole Moment    :      0.25262       0.15390      -0.42861
                        -----------------------------------------
Magnitude (a.u.)       :      0.52078
Magnitude (Debye)      :      1.32371

                             ****ORCA TERMINATED NORMALLY****
TOTAL RUN TIME: 0 days 0 hours 21 minutes 24 seconds 571 msec
