                         Program Version 3.0.3 - RELEASE   -
|  1> ! RI-MP2 RIJK def2-TZVP def2-TZVP/C def2-TZVP/JK TIGHTSCF
|  2> % maxcore 2000
|  3> % mp2 density relaxed end
|  4> *xyz 0 1
|  5>  C        0.7828579922     0.9848880199     0.2366753139
|  6>  C       -0.3102230309    -0.0437521024     0.0726851197
|  7>  O       -1.1237635720    -0.2883763006     0.9327918853
|  8>  C       -0.3370426251    -0.8320931038    -1.2462801528
|  9>  C        0.0377179341    -2.2939987675    -0.9902886610
| 10>  C        0.0973494106    -3.2811247712    -2.1781360349
| 11>  O        1.5108821857    -3.5379835389    -1.9003182368
| 12>  C        1.5175822795    -2.6142299226    -0.8784231912
| 13>  N        2.4570415375    -2.1881211758    -0.1645290805
| 14>  H        1.7478431967     0.4639546572     0.2050323478
| 15>  H        0.7708311526     1.7005864274    -0.5931289365
| 16>  H        0.6710095499     1.5077980887     1.1870828123
| 17>  H       -1.3633722335    -0.7892353125    -1.6272519530
| 18>  H        0.3294790522    -0.3915708180    -1.9940572018
| 19>  H       -0.5403083393    -2.6723153148    -0.1436099309
| 20>  H       -0.4936699711    -4.1950406974    -2.0885923595
| 21>  H       -0.0264976296    -2.8397668944    -3.1708021692
| 22>  H        3.3453023205    -2.6317484234    -0.4033422910
| 23> *
| 24>
| 25>                          ****END OF INPUT****

CARTESIAN COORDINATES (ANGSTROEM)
---------------------------------
  C      0.782858    0.984888    0.236675
  C     -0.310223   -0.043752    0.072685
  O     -1.123764   -0.288376    0.932792
  C     -0.337043   -0.832093   -1.246280
  C      0.037718   -2.293999   -0.990289
  C      0.097349   -3.281125   -2.178136
  O      1.510882   -3.537984   -1.900318
  C      1.517582   -2.614230   -0.878423
  N      2.457042   -2.188121   -0.164529
  H      1.747843    0.463955    0.205032
  H      0.770831    1.700586   -0.593129
  H      0.671010    1.507798    1.187083
  H     -1.363372   -0.789235   -1.627252
  H      0.329479   -0.391571   -1.994057
  H     -0.540308   -2.672315   -0.143610
  H     -0.493670   -4.195041   -2.088592
  H     -0.026498   -2.839767   -3.170802
  H      3.345302   -2.631748   -0.403342

 Total Charge           Charge          ....    0
 Multiplicity           Mult            ....    1
 Number of Electrons    NEL             ....   68
 Basis Dimension        Dim             ....  333

ORBITAL ENERGIES
----------------

  NO   OCC          E(Eh)            E(eV)
   0   2.0000     -20.600849      -560.5776
   1   2.0000     -20.546341      -559.0944
   2   2.0000     -15.545926      -423.0261
   3   2.0000     -11.348296      -308.8028
   4   2.0000     -11.335519      -308.4552
   5   2.0000     -11.311005      -307.7881
   6   2.0000     -11.268962      -306.6440
   7   2.0000     -11.256227      -306.2975
   8   2.0000     -11.229732      -305.5765
   9   2.0000      -1.443361       -39.2759
  10   2.0000      -1.391834       -37.8737
  11   2.0000      -1.206056       -32.8185
  12   2.0000      -1.097249       -29.8577
  13   2.0000      -1.017209       -27.6797
  14   2.0000      -0.954526       -25.9740
  15   2.0000      -0.901448       -24.5296
  16   2.0000      -0.754605       -20.5339
  17   2.0000      -0.745253       -20.2794
  18   2.0000      -0.712842       -19.3974
  19   2.0000      -0.690025       -18.7765
  20   2.0000      -0.675406       -18.3787
  21   2.0000      -0.647663       -17.6238
  22   2.0000      -0.637207       -17.3393
  23   2.0000      -0.601597       -16.3703
  24   2.0000      -0.580010       -15.7829
  25   2.0000      -0.556326       -15.1384
  26   2.0000      -0.541276       -14.7289
  27   2.0000      -0.533234       -14.5100
  28   2.0000      -0.518785       -14.1169
  29   2.0000      -0.511963       -13.9312
  30   2.0000      -0.484208       -13.1760
  31   2.0000      -0.444084       -12.0841
  32   2.0000      -0.414576       -11.2812
  33   2.0000      -0.409752       -11.1499
  34   0.0000       0.126966         3.4549
  35   0.0000       0.138057         3.7567
  36   0.0000       0.150644         4.0992
  37   0.0000       0.162004         4.4083
  38   0.0000       0.166195         4.5224

MULLIKEN ATOMIC CHARGES
-----------------------
   0 C :   -0.430371
   1 C :    0.219425
   2 O :   -0.291225
   3 C :   -0.221950
   4 C :   -0.084990
   5 C :   -0.012088
   6 O :   -0.262528
   7 C :    0.129058
   8 N :   -0.396568
   9 H :    0.177352
  10 H :    0.139760
  11 H :    0.145057
  12 H :    0.138134
  13 H :    0.132113
  14 H :    0.150404
  15 H :    0.122195
  16 H :    0.115721
  17 H :    0.230502
Sum of atomic charges:   -0.0000000

LOEWDIN ATOMIC CHARGES
----------------------
   0 C :   -0.279544
   1 C :   -0.341653
   2 O :    0.150349
   3 C :   -0.207124
   4 C :   -0.193995
   5 C :   -0.208006
   6 O :    0.212315
   7 C :   -0.384901
   8 N :   -0.055571
   9 H :    0.146972
  10 H :    0.134388
  11 H :    0.132520
  12 H :    0.155345
  13 H :    0.146919
  14 H :    0.169638
  15 H :    0.123820
  16 H :    0.124586
  17 H :    0.173942

  Mayer bond orders larger than 0.1
B(  0-C ,  1-C ) :   0.9316 B(  0-C ,  9-H ) :   0.8971 B(  0-C , 10-H ) :   0.9136
B(  0-C , 11-H ) :   0.9361 B(  1-C ,  2-O ) :   1.9927 B(  1-C ,  3-C ) :   0.8683
B(  3-C ,  4-C ) :   0.9134 B(  3-C , 12-H ) :   0.9140 B(  3-C , 13-H ) :   0.9124
B(  4-C ,  5-C ) :   0.9458 B(  4-C ,  7-C ) :   0.9033 B(  4-C , 14-H ) :   0.9073
B(  5-C ,  6-O ) :   0.8922 B(  5-C , 15-H ) :   0.9197 B(  5-C , 16-H ) :   0.9129
B(  6-O ,  7-C ) :   1.0751 B(  7-C ,  8-N ) :   1.9904 B(  8-N , 17-H ) :   0.8426

MP2 TOTAL ENERGY:     -438.374815878 Eh
FINAL SINGLE POINT ENERGY      -438.374815877503

DIPOLE MOMENT
-------------
                                X             Y             Z
Electronic contribution:      0.17649      -3.95576       1.14062
Nuclear contribution   :     -0.25356       3.95307      -2.35263
                        -----------------------------------------
Total Dipole Moment    :     -0.07707      -0.00269      -1.21201
                        -----------------------------------------
Magnitude (a.u.)       :      1.21446
Magnitude (Debye)      :      3.08691

                             ****ORCA TERMINATED NORMALLY****
TOTAL RUN TIME: 0 days 0 hours 16 minutes 20 seconds 693 msec
