                         Program Version 3.0.3 - RELEASE   -
|  1> ! RI-MP2 RIJK def2-TZVP def2-TZVP/C def2-TZVP/JK TIGHTSCF
|  2> % maxcore 2000
|  3> % mp2 density relaxed end
|  4> *xyz 0 1
|  5>  C       -0.1719851127     1.4391397913    -0.0083372043
|  6>  N       -0.0342298634    -0.0186986202     0.0011697963
|  7>  C       -0.0055926872    -0.6685546148    -1.2264794376
|  8>  N       -0.0942454678    -0.0311764538    -2.3125949803
|  9>  O        0.1238011272    -2.0447538259    -1.2183109521
| 10>  N        0.2259374699    -2.7971691429    -0.0537123562
| 11>  C        0.1953570740    -2.1567326292     1.0489259255
| 12>  C        0.0620474382    -0.6924494094     1.2042253025
| 13>  O        0.0398060476    -0.1526163138     2.2898534877
| 14>  H        0.6616562952     1.8839777547    -0.5550186988
| 15>  H       -1.0996168660     1.7175951467    -0.5118997646
| 16>  H       -0.1775370134     1.7686898764     1.0284496336
| 17>  H       -0.0558117033    -0.6649150647    -3.1078745931
| 18>  H        0.2753437816    -2.7494284145     1.9535293315
| 19> *
| 20>
| 21>                          ****END OF INPUT****

CARTESIAN COORDINATES (ANGSTROEM)
---------------------------------
  C     -0.171985    1.439140   -0.008337
  N     -0.034230   -0.018699    0.001170
  C     -0.005593   -0.668555   -1.226479
  N     -0.094245   -0.031176   -2.312595
  O      0.123801   -2.044754   -1.218311
  N      0.225937   -2.797169   -0.053712
  C      0.195357   -2.156733    1.048926
  C      0.062047   -0.692449    1.204225
  O      0.039806   -0.152616    2.289853
  H      0.661656    1.883978   -0.555019
  H     -1.099617    1.717595   -0.511900
  H     -0.177537    1.768690    1.028450
  H     -0.055812   -0.664915   -3.107875
  H      0.275344   -2.749428    1.953529

 Total Charge           Charge          ....    0
 Multiplicity           Mult            ....    1
 Number of Electrons    NEL             ....   66
 Basis Dimension        Dim             ....  309

ORBITAL ENERGIES
----------------

  NO   OCC          E(Eh)            E(eV)
   0   2.0000     -20.666612      -562.3671
   1   2.0000     -20.570178      -559.7430
   2   2.0000     -15.694812      -427.0775
   3   2.0000     -15.645821      -425.7444
   4   2.0000     -15.550855      -423.1603
   5   2.0000     -11.407412      -310.4115
   6   2.0000     -11.402833      -310.2868
   7   2.0000     -11.323821      -308.1368
   8   2.0000     -11.276344      -306.8449
   9   2.0000      -1.515129       -41.2287
  10   2.0000      -1.433070       -38.9958
  11   2.0000      -1.317555       -35.8525
  12   2.0000      -1.250820       -34.0365
  13   2.0000      -1.179490       -32.0956
  14   2.0000      -1.017615       -27.6907
  15   2.0000      -0.925787       -25.1920
  16   2.0000      -0.909219       -24.7411
  17   2.0000      -0.815561       -22.1925
  18   2.0000      -0.751563       -20.4511
  19   2.0000      -0.710848       -19.3431
  20   2.0000      -0.703886       -19.1537
  21   2.0000      -0.668127       -18.1807
  22   2.0000      -0.641469       -17.4553
  23   2.0000      -0.640719       -17.4348
  24   2.0000      -0.610593       -16.6151
  25   2.0000      -0.581451       -15.8221
  26   2.0000      -0.570539       -15.5252
  27   2.0000      -0.549665       -14.9571
  28   2.0000      -0.518340       -14.1047
  29   2.0000      -0.474796       -12.9199
  30   2.0000      -0.459328       -12.4990
  31   2.0000      -0.445874       -12.1328
  32   2.0000      -0.393839       -10.7169
  33   0.0000       0.056393         1.5345
  34   0.0000       0.139242         3.7890
  35   0.0000       0.158545         4.3142
  36   0.0000       0.159808         4.3486
  37   0.0000       0.174839         4.7576

MULLIKEN ATOMIC CHARGES
-----------------------
   0 C :   -0.300640
   1 N :   -0.078563
   2 C :    0.256433
   3 N :   -0.425849
   4 O :   -0.149601
   5 N :   -0.042384
   6 C :   -0.102283
   7 C :    0.251620
   8 O :   -0.326861
   9 H :    0.158492
  10 H :    0.158637
  11 H :    0.183287
  12 H :    0.239661
  13 H :    0.178051
Sum of atomic charges:   -0.0000000

LOEWDIN ATOMIC CHARGES
----------------------
   0 C :   -0.250827
   1 N :    0.227607
   2 C :   -0.448273
   3 N :   -0.060792
   4 O :    0.212389
   5 N :    0.080953
   6 C :   -0.203617
   7 C :   -0.421146
   8 O :    0.129488
   9 H :    0.130275
  10 H :    0.130312
  11 H :    0.134651
  12 H :    0.176986
  13 H :    0.161992

  Mayer bond orders larger than 0.1
B(  0-C ,  1-N ) :   0.8350 B(  0-C ,  9-H ) :   0.9281 B(  0-C , 10-H ) :   0.9280
B(  0-C , 11-H ) :   0.9142 B(  1-N ,  2-C ) :   1.0557 B(  1-N ,  7-C ) :   1.1093
B(  2-C ,  3-N ) :   1.9062 B(  2-C ,  4-O ) :   1.0418 B(  3-N , 12-H ) :   0.8470
B(  4-O ,  5-N ) :   0.8173 B(  5-N ,  6-C ) :   1.7501 B(  6-C ,  7-C ) :   0.9687
B(  6-C , 13-H ) :   0.9115 B(  7-C ,  8-O ) :   1.9000

MP2 TOTAL ENERGY:     -469.243687094 Eh
FINAL SINGLE POINT ENERGY      -469.243687093983

DIPOLE MOMENT
-------------
                                X             Y             Z
Electronic contribution:      0.52757      -5.34865       0.86931
Nuclear contribution   :     -0.53782       5.44024      -0.93154
                        -----------------------------------------
Total Dipole Moment    :     -0.01024       0.09158      -0.06223
                        -----------------------------------------
Magnitude (a.u.)       :      0.11120
Magnitude (Debye)      :      0.28265

                             ****ORCA TERMINATED NORMALLY****
TOTAL RUN TIME: 0 days 0 hours 15 minutes 39 seconds 359 msec
