                         Program Version 3.0.3 - RELEASE   -
|  1> ! RI-MP2 RIJK def2-TZVP def2-TZVP/C def2-TZVP/JK TIGHTSCF
|  2> % maxcore 2000
|  3> % mp2 density relaxed end
|  4> *xyz 0 1
|  5>  C       -0.1965087717     1.5501602914     0.6240478551
|  6>  C        0.0742263377     0.2260426960    -0.0573232728
|  7>  O        1.1682562369    -0.0818265867    -0.4756393706
|  8>  C       -1.0919994479    -0.7592610373    -0.1760360440
|  9>  O       -2.3539064539    -0.1836173084     0.1008088308
| 10>  C       -1.0727523059    -1.6662728922    -1.4493339838
| 11>  C       -1.2558234779    -2.8752938895    -0.5232853297
| 12>  O       -1.5900110929    -4.0089185956    -0.6917017212
| 13>  C       -0.9312136437    -2.0344834761     0.7218941608
| 14>  H        0.7420872736     2.0897956588     0.7524480418
| 15>  H       -0.8857707012     2.1530921503     0.0222256113
| 16>  H       -0.6912599411     1.3949238809     1.5875058787
| 17>  H       -2.6347084676     0.3267229040    -0.6662035772
| 18>  H       -1.8430242408    -1.4878157234    -2.2039304513
| 19>  H       -0.0811471980    -1.6685233870    -1.9126646414
| 20>  H        0.0984621884    -2.1904118147     1.0563258371
| 21>  H       -1.6208365440    -2.1019833505     1.5650815664
| 22> *
| 23>
| 24>                          ****END OF INPUT****

CARTESIAN COORDINATES (ANGSTROEM)
---------------------------------
  C     -0.196509    1.550160    0.624048
  C      0.074226    0.226043   -0.057323
  O      1.168256   -0.081827   -0.475639
  C     -1.091999   -0.759261   -0.176036
  O     -2.353906   -0.183617    0.100809
  C     -1.072752   -1.666273   -1.449334
  C     -1.255823   -2.875294   -0.523285
  O     -1.590011   -4.008919   -0.691702
  C     -0.931214   -2.034483    0.721894
  H      0.742087    2.089796    0.752448
  H     -0.885771    2.153092    0.022226
  H     -0.691260    1.394924    1.587506
  H     -2.634708    0.326723   -0.666204
  H     -1.843024   -1.487816   -2.203930
  H     -0.081147   -1.668523   -1.912665
  H      0.098462   -2.190412    1.056326
  H     -1.620837   -2.101983    1.565082

 Total Charge           Charge          ....    0
 Multiplicity           Mult            ....    1
 Number of Electrons    NEL             ....   68
 Basis Dimension        Dim             ....  327

ORBITAL ENERGIES
----------------

  NO   OCC          E(Eh)            E(eV)
   0   2.0000     -20.593163      -560.3684
   1   2.0000     -20.562651      -559.5382
   2   2.0000     -20.560487      -559.4793
   3   2.0000     -11.347813      -308.7897
   4   2.0000     -11.343573      -308.6743
   5   2.0000     -11.323825      -308.1369
   6   2.0000     -11.255385      -306.2746
   7   2.0000     -11.254267      -306.2442
   8   2.0000     -11.246963      -306.0454
   9   2.0000      -1.415062       -38.5058
  10   2.0000      -1.404268       -38.2121
  11   2.0000      -1.396477       -38.0001
  12   2.0000      -1.141726       -31.0679
  13   2.0000      -1.029611       -28.0171
  14   2.0000      -0.951798       -25.8997
  15   2.0000      -0.906161       -24.6579
  16   2.0000      -0.774639       -21.0790
  17   2.0000      -0.744609       -20.2618
  18   2.0000      -0.709577       -19.3086
  19   2.0000      -0.692385       -18.8408
  20   2.0000      -0.667453       -18.1623
  21   2.0000      -0.640165       -17.4198
  22   2.0000      -0.628105       -17.0916
  23   2.0000      -0.612710       -16.6727
  24   2.0000      -0.608767       -16.5654
  25   2.0000      -0.585025       -15.9193
  26   2.0000      -0.568572       -15.4716
  27   2.0000      -0.554958       -15.1012
  28   2.0000      -0.528053       -14.3691
  29   2.0000      -0.516964       -14.0673
  30   2.0000      -0.505790       -13.7633
  31   2.0000      -0.471261       -12.8237
  32   2.0000      -0.419251       -11.4084
  33   2.0000      -0.409311       -11.1379
  34   0.0000       0.104479         2.8430
  35   0.0000       0.121896         3.3170
  36   0.0000       0.127323         3.4646
  37   0.0000       0.156973         4.2715
  38   0.0000       0.159917         4.3516

MULLIKEN ATOMIC CHARGES
-----------------------
   0 C :   -0.386879
   1 C :    0.138767
   2 O :   -0.297927
   3 C :    0.247376
   4 O :   -0.463493
   5 C :   -0.271187
   6 C :    0.119572
   7 O :   -0.237474
   8 C :   -0.229997
   9 H :    0.157121
  10 H :    0.130783
  11 H :    0.158982
  12 H :    0.325870
  13 H :    0.133369
  14 H :    0.167305
  15 H :    0.158862
  16 H :    0.148950
Sum of atomic charges:    0.0000000

LOEWDIN ATOMIC CHARGES
----------------------
   0 C :   -0.276162
   1 C :   -0.324079
   2 O :    0.152720
   3 C :   -0.324958
   4 O :    0.027749
   5 C :   -0.169814
   6 C :   -0.309173
   7 O :    0.172469
   8 C :   -0.152837
   9 H :    0.134534
  10 H :    0.136911
  11 H :    0.142540
  12 H :    0.181728
  13 H :    0.139937
  14 H :    0.162778
  15 H :    0.157594
  16 H :    0.148064

  Mayer bond orders larger than 0.1
B(  0-C ,  1-C ) :   0.9330 B(  0-C ,  9-H ) :   0.9376 B(  0-C , 10-H ) :   0.9081
B(  0-C , 11-H ) :   0.9097 B(  1-C ,  2-O ) :   1.9545 B(  1-C ,  3-C ) :   0.8451
B(  3-C ,  4-O ) :   0.9867 B(  3-C ,  5-C ) :   0.9147 B(  3-C ,  8-C ) :   0.8716
B(  4-O , 12-H ) :   0.8390 B(  5-C ,  6-C ) :   0.9046 B(  5-C , 13-H ) :   0.9034
B(  5-C , 14-H ) :   0.8836 B(  6-C ,  7-O ) :   2.0485 B(  6-C ,  8-C ) :   0.8980
B(  8-C , 15-H ) :   0.8980 B(  8-C , 16-H ) :   0.8889

MP2 TOTAL ENERGY:     -458.243916842 Eh
FINAL SINGLE POINT ENERGY      -458.243916842110

DIPOLE MOMENT
-------------
                                X             Y             Z
Electronic contribution:     -0.03737      -5.25938      -1.75539
Nuclear contribution   :     -0.33571       6.59645       1.77481
                        -----------------------------------------
Total Dipole Moment    :     -0.37308       1.33707       0.01941
                        -----------------------------------------
Magnitude (a.u.)       :      1.38828
Magnitude (Debye)      :      3.52874

                             ****ORCA TERMINATED NORMALLY****
TOTAL RUN TIME: 0 days 0 hours 16 minutes 28 seconds 509 msec
