                         Program Version 3.0.3 - RELEASE   -
|  1> ! RI-MP2 RIJK def2-TZVP def2-TZVP/C def2-TZVP/JK TIGHTSCF
|  2> % maxcore 2000
|  3> % mp2 density relaxed end
|  4> *xyz 0 1
|  5>  C       -0.3367817936     1.0123008617    -0.4297679028
|  6>  C        0.9401617289     1.2427604261     0.3367854266
|  7>  C        0.4504113787    -0.1638426704     0.0890514534
|  8>  C       -0.0606531580    -0.9932880383     1.2271846150
|  9>  N       -1.1457188578    -0.4170311092     2.0531404709
| 10>  C       -1.4100061062    -1.5985727997     1.2463463014
| 11>  C       -2.4825308443    -1.7097518724     0.1699606219
| 12>  O       -2.8021856480    -3.0514318143     0.6139684720
| 13>  C       -1.8551468376    -2.9859310592     1.7000238720
| 14>  H       -1.2632824399     1.2496496706     0.0799275773
| 15>  H       -0.3394292969     1.1912000126    -1.4991952076
| 16>  H        1.8177793165     1.5857586324    -0.1996990503
| 17>  H        0.8451305632     1.6275352705     1.3463476092
| 18>  H        1.0023725495    -0.7398607188    -0.6494070338
| 19>  H        0.7109737068    -1.5520877266     1.7587261036
| 20>  H       -1.0261432899    -0.6669536514     3.0319322891
| 21>  H       -3.3272842889    -1.0201342029     0.2898267121
| 22>  H       -2.1368253445    -1.6916433604    -0.8700176814
| 23>  H       -1.1051338633    -3.7858757266     1.6473494092
| 24>  H       -2.3491076148    -3.0202456539     2.6820762823
| 25> *
| 26>
| 27>                          ****END OF INPUT****

CARTESIAN COORDINATES (ANGSTROEM)
---------------------------------
  C     -0.336782    1.012301   -0.429768
  C      0.940162    1.242760    0.336785
  C      0.450411   -0.163843    0.089051
  C     -0.060653   -0.993288    1.227185
  N     -1.145719   -0.417031    2.053140
  C     -1.410006   -1.598573    1.246346
  C     -2.482531   -1.709752    0.169961
  O     -2.802186   -3.051432    0.613968
  C     -1.855147   -2.985931    1.700024
  H     -1.263282    1.249650    0.079928
  H     -0.339429    1.191200   -1.499195
  H      1.817779    1.585759   -0.199699
  H      0.845131    1.627535    1.346348
  H      1.002373   -0.739861   -0.649407
  H      0.710974   -1.552088    1.758726
  H     -1.026143   -0.666954    3.031932
  H     -3.327284   -1.020134    0.289827
  H     -2.136825   -1.691643   -0.870018
  H     -1.105134   -3.785876    1.647349
  H     -2.349108   -3.020246    2.682076

 Total Charge           Charge          ....    0
 Multiplicity           Mult            ....    1
 Number of Electrons    NEL             ....   68
 Basis Dimension        Dim             ....  345

ORBITAL ENERGIES
----------------

  NO   OCC          E(Eh)            E(eV)
   0   2.0000     -20.550753      -559.2144
   1   2.0000     -15.564785      -423.5393
   2   2.0000     -11.284406      -307.0643
   3   2.0000     -11.277288      -306.8706
   4   2.0000     -11.270181      -306.6772
   5   2.0000     -11.268827      -306.6404
   6   2.0000     -11.235336      -305.7290
   7   2.0000     -11.223863      -305.4168
   8   2.0000     -11.222329      -305.3751
   9   2.0000      -1.381122       -37.5822
  10   2.0000      -1.271212       -34.5914
  11   2.0000      -1.136568       -30.9276
  12   2.0000      -0.965538       -26.2736
  13   2.0000      -0.941796       -25.6276
  14   2.0000      -0.920387       -25.0450
  15   2.0000      -0.821154       -22.3447
  16   2.0000      -0.791167       -21.5287
  17   2.0000      -0.740883       -20.1605
  18   2.0000      -0.706470       -19.2240
  19   2.0000      -0.683988       -18.6122
  20   2.0000      -0.668558       -18.1924
  21   2.0000      -0.636574       -17.3221
  22   2.0000      -0.594874       -16.1874
  23   2.0000      -0.573122       -15.5954
  24   2.0000      -0.566739       -15.4217
  25   2.0000      -0.523020       -14.2321
  26   2.0000      -0.512813       -13.9544
  27   2.0000      -0.506607       -13.7855
  28   2.0000      -0.477982       -13.0066
  29   2.0000      -0.455605       -12.3977
  30   2.0000      -0.427223       -11.6253
  31   2.0000      -0.422705       -11.5024
  32   2.0000      -0.415134       -11.2964
  33   2.0000      -0.375045       -10.2055
  34   0.0000       0.131082         3.5669
  35   0.0000       0.148858         4.0506
  36   0.0000       0.164021         4.4632
  37   0.0000       0.166850         4.5402
  38   0.0000       0.175363         4.7719

MULLIKEN ATOMIC CHARGES
-----------------------
   0 C :   -0.260265
   1 C :   -0.282828
   2 C :   -0.123540
   3 C :   -0.020002
   4 N :   -0.389278
   5 C :   -0.020764
   6 C :    0.011826
   7 O :   -0.328698
   8 C :    0.004111
   9 H :    0.149291
  10 H :    0.129536
  11 H :    0.130323
  12 H :    0.136122
  13 H :    0.120322
  14 H :    0.126736
  15 H :    0.219085
  16 H :    0.099961
  17 H :    0.105827
  18 H :    0.100684
  19 H :    0.091550
Sum of atomic charges:    0.0000000

LOEWDIN ATOMIC CHARGES
----------------------
   0 C :   -0.224169
   1 C :   -0.222089
   2 C :   -0.218959
   3 C :   -0.221438
   4 N :    0.032957
   5 C :   -0.280114
   6 C :   -0.225056
   7 O :    0.114429
   8 C :   -0.240211
   9 H :    0.138648
  10 H :    0.129678
  11 H :    0.129716
  12 H :    0.135952
  13 H :    0.151197
  14 H :    0.144637
  15 H :    0.168602
  16 H :    0.123310
  17 H :    0.122771
  18 H :    0.120677
  19 H :    0.119463

  Mayer bond orders larger than 0.1
B(  0-C ,  1-C ) :   0.9121 B(  0-C ,  2-C ) :   0.8973 B(  0-C ,  9-H ) :   0.9179
B(  0-C , 10-H ) :   0.9314 B(  1-C ,  2-C ) :   0.8847 B(  1-C , 11-H ) :   0.9317
B(  1-C , 12-H ) :   0.9280 B(  2-C ,  3-C ) :   0.8800 B(  2-C , 13-H ) :   0.9321
B(  3-C ,  4-N ) :   0.9087 B(  3-C ,  5-C ) :   0.8667 B(  3-C , 14-H ) :   0.9306
B(  4-N ,  5-C ) :   0.9153 B(  4-N , 15-H ) :   0.8599 B(  5-C ,  6-C ) :   0.9627
B(  5-C ,  8-C ) :   0.9775 B(  6-C ,  7-O ) :   0.9538 B(  6-C , 16-H ) :   0.9063
B(  6-C , 17-H ) :   0.9118 B(  7-O ,  8-C ) :   0.9739 B(  8-C , 18-H ) :   0.9085
B(  8-C , 19-H ) :   0.9009

MP2 TOTAL ENERGY:     -402.384496454 Eh
FINAL SINGLE POINT ENERGY      -402.384496454037

DIPOLE MOMENT
-------------
                                X             Y             Z
Electronic contribution:     -2.82142      -3.76225       1.28947
Nuclear contribution   :      3.56854       3.79121      -0.96000
                        -----------------------------------------
Total Dipole Moment    :      0.74712       0.02896       0.32947
                        -----------------------------------------
Magnitude (a.u.)       :      0.81705
Magnitude (Debye)      :      2.07679

                             ****ORCA TERMINATED NORMALLY****
TOTAL RUN TIME: 0 days 0 hours 16 minutes 17 seconds 509 msec
