                         Program Version 3.0.3 - RELEASE   -
|  1> ! RI-MP2 RIJK def2-TZVP def2-TZVP/C def2-TZVP/JK TIGHTSCF
|  2> % maxcore 2000
|  3> % mp2 density relaxed end
|  4> *xyz 0 1
|  5>  C       -0.3064932760     1.3041624358    -0.1195109440
|  6>  O       -0.0410841725    -0.0919923731     0.0208954639
|  7>  C        0.6612894197    -0.6141356130    -1.0458556856
|  8>  C        2.1297938208    -0.4078123229    -1.3781010455
|  9>  O        2.2174086013    -1.7684207629    -1.8805503347
| 10>  C        0.8708108178    -2.0586607615    -1.4603802560
| 11>  C        0.5638744120    -3.3997604145    -0.8896226433
| 12>  C       -0.0806506857    -1.1802701339    -2.2477933831
| 13>  O       -1.4434341024    -1.3908934244    -2.0224117497
| 14>  H        0.6244868386     1.8855213993    -0.1219892054
| 15>  H       -0.8590955159     1.5152635337    -1.0439080947
| 16>  H       -0.9082086078     1.5992365013     0.7421781963
| 17>  H        2.3939528398     0.3343750832    -2.1403946794
| 18>  H        2.7604633198    -0.2765594504    -0.4897910515
| 19>  H        1.0951057721    -3.5741998633     0.0507233849
| 20>  H       -0.5116768835    -3.4871127354    -0.7186417335
| 21>  H        0.8602080379    -4.1784240925    -1.6014222908
| 22>  H        0.1533822410    -0.8920290716    -3.2719367080
| 23>  H       -1.6558584172    -0.9882920039    -1.1696833798
| 24> *
| 25>
| 26>                          ****END OF INPUT****

CARTESIAN COORDINATES (ANGSTROEM)
---------------------------------
  C     -0.306493    1.304162   -0.119511
  O     -0.041084   -0.091992    0.020895
  C      0.661289   -0.614136   -1.045856
  C      2.129794   -0.407812   -1.378101
  O      2.217409   -1.768421   -1.880550
  C      0.870811   -2.058661   -1.460380
  C      0.563874   -3.399760   -0.889623
  C     -0.080651   -1.180270   -2.247793
  O     -1.443434   -1.390893   -2.022412
  H      0.624487    1.885521   -0.121989
  H     -0.859096    1.515264   -1.043908
  H     -0.908209    1.599237    0.742178
  H      2.393953    0.334375   -2.140395
  H      2.760463   -0.276559   -0.489791
  H      1.095106   -3.574200    0.050723
  H     -0.511677   -3.487113   -0.718642
  H      0.860208   -4.178424   -1.601422
  H      0.153382   -0.892029   -3.271937
  H     -1.655858   -0.988292   -1.169683

 Total Charge           Charge          ....    0
 Multiplicity           Mult            ....    1
 Number of Electrons    NEL             ....   70
 Basis Dimension        Dim             ....  339

ORBITAL ENERGIES
----------------

  NO   OCC          E(Eh)            E(eV)
   0   2.0000     -20.590484      -560.2955
   1   2.0000     -20.566665      -559.6474
   2   2.0000     -20.560408      -559.4771
   3   2.0000     -11.295775      -307.3737
   4   2.0000     -11.293212      -307.3039
   5   2.0000     -11.291916      -307.2686
   6   2.0000     -11.291148      -307.2478
   7   2.0000     -11.286911      -307.1325
   8   2.0000     -11.222298      -305.3742
   9   2.0000      -1.424131       -38.7526
  10   2.0000      -1.387389       -37.7528
  11   2.0000      -1.370330       -37.2886
  12   2.0000      -1.101409       -29.9709
  13   2.0000      -1.004807       -27.3422
  14   2.0000      -0.953203       -25.9380
  15   2.0000      -0.926655       -25.2156
  16   2.0000      -0.819367       -22.2961
  17   2.0000      -0.747306       -20.3352
  18   2.0000      -0.723083       -19.6761
  19   2.0000      -0.694140       -18.8885
  20   2.0000      -0.669047       -18.2057
  21   2.0000      -0.649063       -17.6619
  22   2.0000      -0.630479       -17.1562
  23   2.0000      -0.619105       -16.8467
  24   2.0000      -0.593033       -16.1372
  25   2.0000      -0.576179       -15.6786
  26   2.0000      -0.557703       -15.1759
  27   2.0000      -0.551061       -14.9951
  28   2.0000      -0.539482       -14.6801
  29   2.0000      -0.518313       -14.1040
  30   2.0000      -0.507154       -13.8004
  31   2.0000      -0.490182       -13.3385
  32   2.0000      -0.457906       -12.4603
  33   2.0000      -0.385901       -10.5009
  34   2.0000      -0.363653        -9.8955
  35   0.0000       0.129466         3.5229
  36   0.0000       0.155940         4.2433
  37   0.0000       0.163766         4.4563
  38   0.0000       0.182049         4.9538
  39   0.0000       0.188910         5.1405

MULLIKEN ATOMIC CHARGES
-----------------------
   0 C :   -0.235205
   1 O :   -0.329288
   2 C :    0.080648
   3 C :   -0.026119
   4 O :   -0.321663
   5 C :    0.140311
   6 C :   -0.403892
   7 C :    0.046748
   8 O :   -0.473882
   9 H :    0.128982
  10 H :    0.138572
  11 H :    0.149668
  12 H :    0.111795
  13 H :    0.106162
  14 H :    0.138138
  15 H :    0.143329
  16 H :    0.146025
  17 H :    0.125682
  18 H :    0.333989
Sum of atomic charges:    0.0000000

LOEWDIN ATOMIC CHARGES
----------------------
   0 C :   -0.329582
   1 O :    0.182206
   2 C :   -0.320239
   3 C :   -0.223672
   4 O :    0.171444
   5 C :   -0.270864
   6 C :   -0.265304
   7 C :   -0.265290
   8 O :    0.009589
   9 H :    0.108213
  10 H :    0.109812
  11 H :    0.116249
  12 H :    0.120714
  13 H :    0.127975
  14 H :    0.131576
  15 H :    0.139493
  16 H :    0.138542
  17 H :    0.136612
  18 H :    0.182527

  Mayer bond orders larger than 0.1
B(  0-C ,  1-O ) :   0.8625 B(  0-C ,  9-H ) :   0.9368 B(  0-C , 10-H ) :   0.9343
B(  0-C , 11-H ) :   0.9378 B(  1-O ,  2-C ) :   0.9692 B(  2-C ,  3-C ) :   0.9599
B(  2-C ,  5-C ) :   0.8891 B(  2-C ,  7-C ) :   0.8948 B(  3-C ,  4-O ) :   0.9345
B(  3-C , 12-H ) :   0.9112 B(  3-C , 13-H ) :   0.9019 B(  4-O ,  5-C ) :   0.9440
B(  5-C ,  6-C ) :   0.8887 B(  5-C ,  7-C ) :   0.8303 B(  6-C , 14-H ) :   0.9348
B(  6-C , 15-H ) :   0.9260 B(  6-C , 16-H ) :   0.9308 B(  7-C ,  8-O ) :   0.9308
B(  7-C , 17-H ) :   0.9171 B(  8-O , 18-H ) :   0.8193

MP2 TOTAL ENERGY:     -459.360382428 Eh
FINAL SINGLE POINT ENERGY      -459.360382428030

DIPOLE MOMENT
-------------
                                X             Y             Z
Electronic contribution:      0.70021      -1.29761      -1.67630
Nuclear contribution   :     -0.75802       2.27412       2.20535
                        -----------------------------------------
Total Dipole Moment    :     -0.05781       0.97651       0.52905
                        -----------------------------------------
Magnitude (a.u.)       :      1.11212
Magnitude (Debye)      :      2.82678

                             ****ORCA TERMINATED NORMALLY****
TOTAL RUN TIME: 0 days 0 hours 16 minutes 30 seconds 613 msec
