                         Program Version 3.0.3 - RELEASE   -
|  1> ! RI-MP2 RIJK def2-TZVP def2-TZVP/C def2-TZVP/JK TIGHTSCF
|  2> % maxcore 2000
|  3> % mp2 density relaxed end
|  4> *xyz 0 1
|  5>  O        0.4978869022    -0.2077314325    -0.8159395154
|  6>  C       -0.0872516525    -0.6199848282     0.3883790429
|  7>  C       -0.1388683187     0.3473686468     1.6056543996
|  8>  C       -1.5308835560    -0.2276798080     1.9486688497
|  9>  C       -1.6301787027    -0.7779683015     0.4954498265
| 10>  O       -1.3716384762    -1.2315379298     2.9487965428
| 11>  C       -2.5624846417    -1.7219965863     3.5000163615
| 12>  C       -3.3061748048    -2.6524852460     2.6235238224
| 13>  N       -3.8929648455    -3.3843674047     1.9489995583
| 14>  H        0.0571296309     0.5980980474    -1.1062090980
| 15>  H        0.4163228089    -1.5512994561     0.6586180467
| 16>  H        0.6272832167     0.2611640507     2.3783423809
| 17>  H       -0.2135223193     1.3903382533     1.2810858622
| 18>  H       -2.3060297385     0.4810034369     2.2664931807
| 19>  H       -2.1435535432    -0.0565003426    -0.1504092495
| 20>  H       -2.0686749936    -1.7644581110     0.3447306523
| 21>  H       -2.2911678265    -2.2623860366     4.4125542593
| 22>  H       -3.2452306697    -0.9060386217     3.7842506970
| 23> *
| 24>
| 25>                          ****END OF INPUT****

CARTESIAN COORDINATES (ANGSTROEM)
---------------------------------
  O      0.497887   -0.207731   -0.815940
  C     -0.087252   -0.619985    0.388379
  C     -0.138868    0.347369    1.605654
  C     -1.530884   -0.227680    1.948669
  C     -1.630179   -0.777968    0.495450
  O     -1.371638   -1.231538    2.948797
  C     -2.562485   -1.721997    3.500016
  C     -3.306175   -2.652485    2.623524
  N     -3.892965   -3.384367    1.949000
  H      0.057130    0.598098   -1.106209
  H      0.416323   -1.551299    0.658618
  H      0.627283    0.261164    2.378342
  H     -0.213522    1.390338    1.281086
  H     -2.306030    0.481003    2.266493
  H     -2.143554   -0.056500   -0.150409
  H     -2.068675   -1.764458    0.344731
  H     -2.291168   -2.262386    4.412554
  H     -3.245231   -0.906039    3.784251

 Total Charge           Charge          ....    0
 Multiplicity           Mult            ....    1
 Number of Electrons    NEL             ....   68
 Basis Dimension        Dim             ....  333

ORBITAL ENERGIES
----------------

  NO   OCC          E(Eh)            E(eV)
   0   2.0000     -20.593359      -560.3738
   1   2.0000     -20.563172      -559.5524
   2   2.0000     -15.582086      -424.0101
   3   2.0000     -11.344463      -308.6985
   4   2.0000     -11.303651      -307.5880
   5   2.0000     -11.287886      -307.1590
   6   2.0000     -11.281308      -306.9800
   7   2.0000     -11.234492      -305.7061
   8   2.0000     -11.232655      -305.6561
   9   2.0000      -1.416099       -38.5340
  10   2.0000      -1.371762       -37.3275
  11   2.0000      -1.227493       -33.4018
  12   2.0000      -1.133489       -30.8438
  13   2.0000      -1.012447       -27.5501
  14   2.0000      -0.922141       -25.0927
  15   2.0000      -0.890310       -24.2266
  16   2.0000      -0.796626       -21.6773
  17   2.0000      -0.747816       -20.3491
  18   2.0000      -0.700863       -19.0715
  19   2.0000      -0.686877       -18.6909
  20   2.0000      -0.675113       -18.3707
  21   2.0000      -0.644732       -17.5440
  22   2.0000      -0.601885       -16.3781
  23   2.0000      -0.589391       -16.0381
  24   2.0000      -0.576143       -15.6776
  25   2.0000      -0.561035       -15.2665
  26   2.0000      -0.546420       -14.8688
  27   2.0000      -0.525630       -14.3031
  28   2.0000      -0.521590       -14.1932
  29   2.0000      -0.480377       -13.0717
  30   2.0000      -0.467101       -12.7105
  31   2.0000      -0.452626       -12.3166
  32   2.0000      -0.434715       -11.8292
  33   2.0000      -0.426129       -11.5956
  34   0.0000       0.122403         3.3308
  35   0.0000       0.134004         3.6464
  36   0.0000       0.150167         4.0862
  37   0.0000       0.156811         4.2670
  38   0.0000       0.166358         4.5268

MULLIKEN ATOMIC CHARGES
-----------------------
   0 O :   -0.453208
   1 C :    0.047418
   2 C :   -0.199677
   3 C :    0.021659
   4 C :   -0.255160
   5 O :   -0.288081
   6 C :    0.018913
   7 C :   -0.169475
   8 N :   -0.069552
   9 H :    0.310245
  10 H :    0.111409
  11 H :    0.130041
  12 H :    0.114154
  13 H :    0.090832
  14 H :    0.114011
  15 H :    0.159634
  16 H :    0.169583
  17 H :    0.147253
Sum of atomic charges:   -0.0000000

LOEWDIN ATOMIC CHARGES
----------------------
   0 O :   -0.011778
   1 C :   -0.334216
   2 C :   -0.208693
   3 C :   -0.285283
   4 C :   -0.214322
   5 O :    0.197568
   6 C :   -0.315213
   7 C :   -0.191405
   8 N :    0.065269
   9 H :    0.174047
  10 H :    0.147291
  11 H :    0.133836
  12 H :    0.138564
  13 H :    0.125401
  14 H :    0.138796
  15 H :    0.137357
  16 H :    0.157252
  17 H :    0.145529

  Mayer bond orders larger than 0.1
B(  0-O ,  1-C ) :   0.9713 B(  0-O ,  9-H ) :   0.8407 B(  1-C ,  2-C ) :   0.9272
B(  1-C ,  4-C ) :   0.9275 B(  1-C , 10-H ) :   0.9207 B(  2-C ,  3-C ) :   0.9133
B(  2-C , 11-H ) :   0.9177 B(  2-C , 12-H ) :   0.9184 B(  3-C ,  4-C ) :   0.9175
B(  3-C ,  5-O ) :   0.9307 B(  3-C , 13-H ) :   0.9240 B(  4-C , 14-H ) :   0.9185
B(  4-C , 15-H ) :   0.9203 B(  5-O ,  6-C ) :   0.9813 B(  6-C ,  7-C ) :   0.8569
B(  6-C , 16-H ) :   0.9100 B(  6-C , 17-H ) :   0.9444 B(  7-C ,  8-N ) :   2.8285

MP2 TOTAL ENERGY:     -438.346287075 Eh
FINAL SINGLE POINT ENERGY      -438.346287075234

DIPOLE MOMENT
-------------
                                X             Y             Z
Electronic contribution:     -2.31730      -4.46693       1.23234
Nuclear contribution   :      2.22143       5.86614      -0.43367
                        -----------------------------------------
Total Dipole Moment    :     -0.09587       1.39921       0.79867
                        -----------------------------------------
Magnitude (a.u.)       :      1.61396
Magnitude (Debye)      :      4.10236

                             ****ORCA TERMINATED NORMALLY****
TOTAL RUN TIME: 0 days 0 hours 15 minutes 30 seconds 22 msec
