                         Program Version 3.0.3 - RELEASE   -
|  1> ! RI-MP2 RIJK def2-TZVP def2-TZVP/C def2-TZVP/JK TIGHTSCF
|  2> % maxcore 2000
|  3> % mp2 density relaxed end
|  4> *xyz 0 1
|  5>  C       -1.8391716271     0.2812879176     1.9676709918
|  6>  C       -0.9189554439    -0.6065418663     1.1666079583
|  7>  N       -0.1156681683     0.0329656266     0.1149065500
|  8>  C        0.5714191242    -0.5740037905     1.2724136622
|  9>  C        1.3520559126     0.3414826084     2.1909038596
| 10>  C        1.6145716011     1.7281286211     1.6261353313
| 11>  O        2.4033375622     2.4642569766     2.5528072496
| 12>  C        1.1645215967     0.1935479639     3.6849426837
| 13>  C        2.4340499437    -0.2925520014     3.0327144886
| 14>  H       -1.3519595091     1.2217109656     2.2329298408
| 15>  H       -2.7421324068     0.5161688780     1.3937987021
| 16>  H       -2.1475608035    -0.2154075069     2.8937577503
| 17>  H       -1.3405442768    -1.5826216471     0.9258491903
| 18>  H       -0.0364911912    -0.5652024444    -0.7019327302
| 19>  H        1.0607648276    -1.5300051981     1.0885566945
| 20>  H        2.1286172300     1.6292163005     0.6575780061
| 21>  H        0.6614867065     2.2370077361     1.4272675202
| 22>  H        2.5227295701     3.3496304593     2.1998117645
| 23>  H        1.2281353342     1.0914130526     4.2877467442
| 24>  H        0.4495058242    -0.5455917043     4.0304826917
| 25>  H        2.5836171445    -1.3637975105     2.9356808487
| 26>  H        3.3351684091     0.2829348835     3.2047246117
| 27> *
| 28>
| 29>                          ****END OF INPUT****

CARTESIAN COORDINATES (ANGSTROEM)
---------------------------------
  C     -1.839172    0.281288    1.967671
  C     -0.918955   -0.606542    1.166608
  N     -0.115668    0.032966    0.114907
  C      0.571419   -0.574004    1.272414
  C      1.352056    0.341483    2.190904
  C      1.614572    1.728129    1.626135
  O      2.403338    2.464257    2.552807
  C      1.164522    0.193548    3.684943
  C      2.434050   -0.292552    3.032714
  H     -1.351960    1.221711    2.232930
  H     -2.742132    0.516169    1.393799
  H     -2.147561   -0.215408    2.893758
  H     -1.340544   -1.582622    0.925849
  H     -0.036491   -0.565202   -0.701933
  H      1.060765   -1.530005    1.088557
  H      2.128617    1.629216    0.657578
  H      0.661487    2.237008    1.427268
  H      2.522730    3.349630    2.199812
  H      1.228135    1.091413    4.287747
  H      0.449506   -0.545592    4.030483
  H      2.583617   -1.363798    2.935681
  H      3.335168    0.282935    3.204725

 Total Charge           Charge          ....    0
 Multiplicity           Mult            ....    1
 Number of Electrons    NEL             ....   70
 Basis Dimension        Dim             ....  357

ORBITAL ENERGIES
----------------

  NO   OCC          E(Eh)            E(eV)
   0   2.0000     -20.549924      -559.1919
   1   2.0000     -15.553345      -423.2280
   2   2.0000     -11.267198      -306.5960
   3   2.0000     -11.258131      -306.3493
   4   2.0000     -11.257336      -306.3277
   5   2.0000     -11.231134      -305.6147
   6   2.0000     -11.214415      -305.1597
   7   2.0000     -11.212339      -305.1033
   8   2.0000     -11.211681      -305.0853
   9   2.0000      -1.355586       -36.8874
  10   2.0000      -1.260610       -34.3029
  11   2.0000      -1.135263       -30.8921
  12   2.0000      -0.987229       -26.8639
  13   2.0000      -0.944606       -25.7040
  14   2.0000      -0.885133       -24.0857
  15   2.0000      -0.815332       -22.1863
  16   2.0000      -0.801747       -21.8166
  17   2.0000      -0.723521       -19.6880
  18   2.0000      -0.707930       -19.2638
  19   2.0000      -0.696234       -18.9455
  20   2.0000      -0.630198       -17.1486
  21   2.0000      -0.621514       -16.9123
  22   2.0000      -0.616029       -16.7630
  23   2.0000      -0.573174       -15.5969
  24   2.0000      -0.557640       -15.1742
  25   2.0000      -0.546973       -14.8839
  26   2.0000      -0.521844       -14.2001
  27   2.0000      -0.505943       -13.7674
  28   2.0000      -0.483812       -13.1652
  29   2.0000      -0.472709       -12.8631
  30   2.0000      -0.464911       -12.6509
  31   2.0000      -0.449678       -12.2364
  32   2.0000      -0.403632       -10.9834
  33   2.0000      -0.398956       -10.8561
  34   2.0000      -0.367164        -9.9910
  35   0.0000       0.133104         3.6219
  36   0.0000       0.142437         3.8759
  37   0.0000       0.159168         4.3312
  38   0.0000       0.170005         4.6261
  39   0.0000       0.189129         5.1465

MULLIKEN ATOMIC CHARGES
-----------------------
   0 C :   -0.397846
   1 C :    0.003467
   2 N :   -0.414608
   3 C :   -0.092250
   4 C :    0.111704
   5 C :   -0.034303
   6 O :   -0.483615
   7 C :   -0.285812
   8 C :   -0.307600
   9 H :    0.143374
  10 H :    0.133295
  11 H :    0.122397
  12 H :    0.112945
  13 H :    0.218349
  14 H :    0.126728
  15 H :    0.093656
  16 H :    0.103623
  17 H :    0.315356
  18 H :    0.137489
  19 H :    0.125472
  20 H :    0.123818
  21 H :    0.144361
Sum of atomic charges:    0.0000000

LOEWDIN ATOMIC CHARGES
----------------------
   0 C :   -0.293580
   1 C :   -0.280850
   2 N :    0.007330
   3 C :   -0.212208
   4 C :   -0.244776
   5 C :   -0.300986
   6 O :   -0.042144
   7 C :   -0.204986
   8 C :   -0.206183
   9 H :    0.130354
  10 H :    0.126169
  11 H :    0.125817
  12 H :    0.135107
  13 H :    0.163786
  14 H :    0.142381
  15 H :    0.122865
  16 H :    0.121291
  17 H :    0.172915
  18 H :    0.137806
  19 H :    0.131734
  20 H :    0.129537
  21 H :    0.138623

  Mayer bond orders larger than 0.1
B(  0-C ,  1-C ) :   0.9028 B(  0-C ,  9-H ) :   0.9432 B(  0-C , 10-H ) :   0.9346
B(  0-C , 11-H ) :   0.9364 B(  1-C ,  2-N ) :   0.8746 B(  1-C ,  3-C ) :   0.9118
B(  1-C , 12-H ) :   0.9228 B(  2-N ,  3-C ) :   0.9572 B(  2-N , 13-H ) :   0.8685
B(  3-C ,  4-C ) :   0.8345 B(  3-C , 14-H ) :   0.9392 B(  4-C ,  5-C ) :   0.9463
B(  4-C ,  7-C ) :   0.8711 B(  4-C ,  8-C ) :   0.8732 B(  5-C ,  6-O ) :   0.9903
B(  5-C , 15-H ) :   0.9276 B(  5-C , 16-H ) :   0.9226 B(  6-O , 17-H ) :   0.8488
B(  7-C ,  8-C ) :   0.9283 B(  7-C , 18-H ) :   0.9191 B(  7-C , 19-H ) :   0.9272
B(  8-C , 20-H ) :   0.9284 B(  8-C , 21-H ) :   0.9148

MP2 TOTAL ENERGY:     -403.615846755 Eh
FINAL SINGLE POINT ENERGY      -403.615846755431

DIPOLE MOMENT
-------------
                                X             Y             Z
Electronic contribution:      2.97075       0.96485      -1.53330
Nuclear contribution   :     -3.21043      -1.22312       1.08325
                        -----------------------------------------
Total Dipole Moment    :     -0.23968      -0.25828      -0.45005
                        -----------------------------------------
Magnitude (a.u.)       :      0.57158
Magnitude (Debye)      :      1.45283

                             ****ORCA TERMINATED NORMALLY****
TOTAL RUN TIME: 0 days 0 hours 18 minutes 53 seconds 766 msec
