                         Program Version 3.0.3 - RELEASE   -
|  1> ! RI-MP2 RIJK def2-TZVP def2-TZVP/C def2-TZVP/JK TIGHTSCF
|  2> % maxcore 2000
|  3> % mp2 density relaxed end
|  4> *xyz 0 1
|  5>  C        0.0150408214     1.5190041795    -0.0464319602
|  6>  C        0.0385863166     0.0052692003    -0.0074402448
|  7>  C        0.4744419299    -0.7006526180    -1.2951611693
|  8>  C        0.3603999839    -2.1593733473    -0.8363401768
|  9>  O        0.5866643698    -3.1648336158    -1.4589186515
| 10>  C       -0.1064058390    -2.0154904814     0.5870845233
| 11>  C        0.6465954148    -0.7857595976     1.2138047782
| 12>  C       -0.6192665144    -0.4807272767     2.0501418767
| 13>  C       -1.1364377808    -0.8285056430     0.6336301632
| 14>  H        1.0105580809     1.9122506949    -0.2813104135
| 15>  H       -0.6659912367     1.8720415778    -0.8290025492
| 16>  H       -0.3042248720     1.9665576660     0.8979707550
| 17>  H       -0.1827744564    -0.5005469300    -2.1489580810
| 18>  H        1.4985825827    -0.4600695543    -1.6020788207
| 19>  H       -0.2774017125    -2.9133460666     1.1786517143
| 20>  H        1.6890107874    -0.7814822553     1.5404048826
| 21>  H       -0.8587038579    -1.1981476871     2.8388200733
| 22>  H       -0.7597103794     0.5415279085     2.4065124993
| 23>  H       -2.1705549985    -0.8740376839     0.2845727709
| 24> *
| 25>
| 26>                          ****END OF INPUT****

CARTESIAN COORDINATES (ANGSTROEM)
---------------------------------
  C      0.015041    1.519004   -0.046432
  C      0.038586    0.005269   -0.007440
  C      0.474442   -0.700653   -1.295161
  C      0.360400   -2.159373   -0.836340
  O      0.586664   -3.164834   -1.458919
  C     -0.106406   -2.015490    0.587085
  C      0.646595   -0.785760    1.213805
  C     -0.619267   -0.480727    2.050142
  C     -1.136438   -0.828506    0.633630
  H      1.010558    1.912251   -0.281310
  H     -0.665991    1.872042   -0.829003
  H     -0.304225    1.966558    0.897971
  H     -0.182774   -0.500547   -2.148958
  H      1.498583   -0.460070   -1.602079
  H     -0.277402   -2.913346    1.178652
  H      1.689011   -0.781482    1.540405
  H     -0.858704   -1.198148    2.838820
  H     -0.759710    0.541528    2.406512
  H     -2.170555   -0.874038    0.284573

 Total Charge           Charge          ....    0
 Multiplicity           Mult            ....    1
 Number of Electrons    NEL             ....   66
 Basis Dimension        Dim             ....  339

ORBITAL ENERGIES
----------------

  NO   OCC          E(Eh)            E(eV)
   0   2.0000     -20.539600      -558.9109
   1   2.0000     -11.322227      -308.0935
   2   2.0000     -11.260849      -306.4233
   3   2.0000     -11.260694      -306.4191
   4   2.0000     -11.259257      -306.3800
   5   2.0000     -11.246555      -306.0343
   6   2.0000     -11.240837      -305.8787
   7   2.0000     -11.232752      -305.6587
   8   2.0000     -11.227703      -305.5213
   9   2.0000      -1.382692       -37.6250
  10   2.0000      -1.242328       -33.8055
  11   2.0000      -1.046380       -28.4734
  12   2.0000      -1.005928       -27.3727
  13   2.0000      -0.912571       -24.8323
  14   2.0000      -0.873800       -23.7773
  15   2.0000      -0.852924       -23.2092
  16   2.0000      -0.746909       -20.3244
  17   2.0000      -0.710671       -19.3383
  18   2.0000      -0.687839       -18.7170
  19   2.0000      -0.652578       -17.7575
  20   2.0000      -0.619621       -16.8608
  21   2.0000      -0.618422       -16.8281
  22   2.0000      -0.587699       -15.9921
  23   2.0000      -0.574179       -15.6242
  24   2.0000      -0.544247       -14.8097
  25   2.0000      -0.531048       -14.4505
  26   2.0000      -0.513995       -13.9865
  27   2.0000      -0.483311       -13.1516
  28   2.0000      -0.470494       -12.8028
  29   2.0000      -0.453051       -12.3281
  30   2.0000      -0.444821       -12.1042
  31   2.0000      -0.427530       -11.6337
  32   2.0000      -0.385957       -10.5024
  33   0.0000       0.130535         3.5520
  34   0.0000       0.139406         3.7934
  35   0.0000       0.153096         4.1660
  36   0.0000       0.161128         4.3845
  37   0.0000       0.177434         4.8282

MULLIKEN ATOMIC CHARGES
-----------------------
   0 C :   -0.408682
   1 C :    0.030314
   2 C :   -0.205367
   3 C :    0.083639
   4 O :   -0.267118
   5 C :   -0.087685
   6 C :   -0.107113
   7 C :   -0.234250
   8 C :   -0.107138
   9 H :    0.137346
  10 H :    0.137340
  11 H :    0.131671
  12 H :    0.129881
  13 H :    0.129862
  14 H :    0.129493
  15 H :    0.135321
  16 H :    0.120347
  17 H :    0.116819
  18 H :    0.135321
Sum of atomic charges:    0.0000000

LOEWDIN ATOMIC CHARGES
----------------------
   0 C :   -0.268150
   1 C :   -0.210074
   2 C :   -0.178701
   3 C :   -0.299285
   4 O :    0.147935
   5 C :   -0.125079
   6 C :   -0.111575
   7 C :   -0.193072
   8 C :   -0.111561
   9 H :    0.130740
  10 H :    0.130737
  11 H :    0.126808
  12 H :    0.150125
  13 H :    0.150120
  14 H :    0.146830
  15 H :    0.129355
  16 H :    0.130697
  17 H :    0.124793
  18 H :    0.129357

  Mayer bond orders larger than 0.1
B(  0-C ,  1-C ) :   0.8972 B(  0-C ,  9-H ) :   0.9375 B(  0-C , 10-H ) :   0.9375
B(  0-C , 11-H ) :   0.9335 B(  1-C ,  2-C ) :   0.9285 B(  1-C ,  6-C ) :   0.8555
B(  1-C ,  8-C ) :   0.8555 B(  2-C ,  3-C ) :   0.9507 B(  2-C ,  5-C ) :  -0.1357
B(  2-C , 12-H ) :   0.8913 B(  2-C , 13-H ) :   0.8913 B(  3-C ,  4-O ) :   2.0730
B(  3-C ,  5-C ) :   0.8867 B(  5-C ,  6-C ) :   0.8310 B(  5-C ,  8-C ) :   0.8310
B(  5-C , 14-H ) :   0.9172 B(  6-C ,  7-C ) :   0.9006 B(  6-C , 15-H ) :   0.8849
B(  7-C ,  8-C ) :   0.9006 B(  7-C , 16-H ) :   0.9281 B(  7-C , 17-H ) :   0.9238
B(  8-C , 18-H ) :   0.8849

MP2 TOTAL ENERGY:     -385.202130373 Eh
FINAL SINGLE POINT ENERGY      -385.202130372729

DIPOLE MOMENT
-------------
                                X             Y             Z
Electronic contribution:      1.04714      -7.39154      -2.67307
Nuclear contribution   :     -1.29002       8.50457       3.33794
                        -----------------------------------------
Total Dipole Moment    :     -0.24288       1.11303       0.66487
                        -----------------------------------------
Magnitude (a.u.)       :      1.31904
Magnitude (Debye)      :      3.35274

                             ****ORCA TERMINATED NORMALLY****
TOTAL RUN TIME: 0 days 0 hours 20 minutes 48 seconds 287 msec
