                         Program Version 3.0.3 - RELEASE   -
|  1> ! RI-MP2 RIJK def2-TZVP def2-TZVP/C def2-TZVP/JK TIGHTSCF
|  2> % maxcore 2000
|  3> % mp2 density relaxed end
|  4> *xyz 0 1
|  5>  C       -0.3051851169     1.4204452246    -0.0932300297
|  6>  C       -0.4458817559    -0.0249556378     0.3471380413
|  7>  O       -1.2509667599    -0.7040584481    -0.6144826528
|  8>  C       -1.4429181088    -2.0386277875    -0.3285558871
|  9>  C       -2.3602454033    -2.5127030198     0.7521092166
| 10>  O       -3.4324476154    -1.5609256380     0.9403859408
| 11>  C       -3.8686593564    -1.7845710857    -0.3686627243
| 12>  N       -4.8940096471    -1.3816131954    -0.9594083105
| 13>  C       -2.7459222125    -2.7124145372    -0.7137617257
| 14>  H        0.3028019739     1.9777193510     0.6255112793
| 15>  H        0.1738393264     1.4798867338    -1.0744566045
| 16>  H       -1.2877839624     1.8950619705    -0.1610952820
| 17>  H        0.5407822287    -0.5100572797     0.4180912579
| 18>  H       -0.9219225121    -0.0921557652     1.3356978765
| 19>  H       -0.5696453204    -2.6809343190    -0.4750867710
| 20>  H       -2.1639602203    -3.2082150404     1.5571532806
| 21>  H       -5.4521693783    -0.7715399874    -0.3602391400
| 22>  H       -2.8083763193    -3.5858201087    -1.3459313955
| 23> *
| 24>
| 25>                          ****END OF INPUT****

CARTESIAN COORDINATES (ANGSTROEM)
---------------------------------
  C     -0.305185    1.420445   -0.093230
  C     -0.445882   -0.024956    0.347138
  O     -1.250967   -0.704058   -0.614483
  C     -1.442918   -2.038628   -0.328556
  C     -2.360245   -2.512703    0.752109
  O     -3.432448   -1.560926    0.940386
  C     -3.868659   -1.784571   -0.368663
  N     -4.894010   -1.381613   -0.959408
  C     -2.745922   -2.712415   -0.713762
  H      0.302802    1.977719    0.625511
  H      0.173839    1.479887   -1.074457
  H     -1.287784    1.895062   -0.161095
  H      0.540782   -0.510057    0.418091
  H     -0.921923   -0.092156    1.335698
  H     -0.569645   -2.680934   -0.475087
  H     -2.163960   -3.208215    1.557153
  H     -5.452169   -0.771540   -0.360239
  H     -2.808376   -3.585820   -1.345931

 Total Charge           Charge          ....    0
 Multiplicity           Mult            ....    1
 Number of Electrons    NEL             ....   68
 Basis Dimension        Dim             ....  333

ORBITAL ENERGIES
----------------

  NO   OCC          E(Eh)            E(eV)
   0   2.0000     -20.595033      -560.4193
   1   2.0000     -20.573377      -559.8301
   2   2.0000     -15.538856      -422.8338
   3   2.0000     -11.345549      -308.7281
   4   2.0000     -11.316496      -307.9375
   5   2.0000     -11.315535      -307.9114
   6   2.0000     -11.284646      -307.0708
   7   2.0000     -11.261735      -306.4474
   8   2.0000     -11.219614      -305.3012
   9   2.0000      -1.448555       -39.4172
  10   2.0000      -1.394709       -37.9520
  11   2.0000      -1.200262       -32.6608
  12   2.0000      -1.142339       -31.0846
  13   2.0000      -1.022250       -27.8168
  14   2.0000      -0.908390       -24.7185
  15   2.0000      -0.862998       -23.4834
  16   2.0000      -0.818278       -22.2665
  17   2.0000      -0.752935       -20.4884
  18   2.0000      -0.730603       -19.8807
  19   2.0000      -0.707648       -19.2561
  20   2.0000      -0.685961       -18.6660
  21   2.0000      -0.653293       -17.7770
  22   2.0000      -0.625006       -17.0073
  23   2.0000      -0.603645       -16.4260
  24   2.0000      -0.578932       -15.7536
  25   2.0000      -0.545614       -14.8469
  26   2.0000      -0.533948       -14.5295
  27   2.0000      -0.527895       -14.3647
  28   2.0000      -0.504376       -13.7248
  29   2.0000      -0.471497       -12.8301
  30   2.0000      -0.459587       -12.5060
  31   2.0000      -0.439401       -11.9567
  32   2.0000      -0.412383       -11.2215
  33   2.0000      -0.394669       -10.7395
  34   0.0000       0.136421         3.7122
  35   0.0000       0.148569         4.0428
  36   0.0000       0.159252         4.3335
  37   0.0000       0.169757         4.6193
  38   0.0000       0.182482         4.9656

MULLIKEN ATOMIC CHARGES
-----------------------
   0 C :   -0.369199
   1 C :   -0.039971
   2 O :   -0.279931
   3 C :   -0.003358
   4 C :    0.086195
   5 O :   -0.286998
   6 C :    0.158920
   7 N :   -0.364657
   8 C :   -0.155929
   9 H :    0.123746
  10 H :    0.131589
  11 H :    0.138713
  12 H :    0.091627
  13 H :    0.109390
  14 H :    0.115329
  15 H :    0.150669
  16 H :    0.232802
  17 H :    0.161064
Sum of atomic charges:   -0.0000000

LOEWDIN ATOMIC CHARGES
----------------------
   0 C :   -0.313990
   1 C :   -0.330093
   2 O :    0.208308
   3 C :   -0.292254
   4 C :   -0.202338
   5 O :    0.224986
   6 C :   -0.366219
   7 N :   -0.035482
   8 C :   -0.119595
   9 H :    0.125621
  10 H :    0.125018
  11 H :    0.127201
  12 H :    0.117755
  13 H :    0.123161
  14 H :    0.148491
  15 H :    0.134555
  16 H :    0.176302
  17 H :    0.148572

  Mayer bond orders larger than 0.1
B(  0-C ,  1-C ) :   0.9577 B(  0-C ,  9-H ) :   0.9310 B(  0-C , 10-H ) :   0.9353
B(  0-C , 11-H ) :   0.9361 B(  1-C ,  2-O ) :   0.8780 B(  1-C , 12-H ) :   0.9203
B(  1-C , 13-H ) :   0.9225 B(  2-O ,  3-C ) :   1.0230 B(  3-C ,  4-C ) :   0.8961
B(  3-C ,  8-C ) :   0.8703 B(  3-C , 14-H ) :   0.9373 B(  4-C ,  5-O ) :   0.8969
B(  4-C ,  8-C ) :   0.8414 B(  4-C , 15-H ) :   0.9140 B(  5-O ,  6-C ) :   1.0142
B(  6-C ,  7-N ) :   2.0561 B(  6-C ,  8-C ) :   0.9466 B(  7-N , 16-H ) :   0.8435
B(  8-C , 17-H ) :   0.9082

MP2 TOTAL ENERGY:     -438.311288095 Eh
FINAL SINGLE POINT ENERGY      -438.311288094966

DIPOLE MOMENT
-------------
                                X             Y             Z
Electronic contribution:     -6.73563      -5.43784      -0.58215
Nuclear contribution   :      7.80392       5.00879       1.32493
                        -----------------------------------------
Total Dipole Moment    :      1.06829      -0.42905       0.74278
                        -----------------------------------------
Magnitude (a.u.)       :      1.37006
Magnitude (Debye)      :      3.48241

                             ****ORCA TERMINATED NORMALLY****
TOTAL RUN TIME: 0 days 0 hours 15 minutes 7 seconds 501 msec
