                         Program Version 3.0.3 - RELEASE   -
|  1> ! RI-MP2 RIJK def2-TZVP def2-TZVP/C def2-TZVP/JK TIGHTSCF
|  2> % maxcore 2000
|  3> % mp2 density relaxed end
|  4> *xyz 0 1
|  5>  O       -0.3033284658     1.4592426988     0.2952646631
|  6>  C       -0.0670402894     0.0697467042     0.1434235496
|  7>  C       -1.4150041748    -0.6095760596    -0.0692115895
|  8>  C       -1.3054881843    -2.1193152357    -0.2271369370
|  9>  C       -1.0035998742    -2.9470384789     1.0661248618
| 10>  N       -2.2665545654    -3.6540421310     0.8519484515
| 11>  C       -2.6501125626    -2.9027677711    -0.3412714449
| 12>  C       -2.9299333157    -4.6130265436     1.5301205356
| 13>  O       -4.0148472914    -5.0569310919     1.2111747304
| 14>  H        0.5415259314     1.8975958208     0.4318247567
| 15>  H        0.5897970596    -0.1343882736    -0.7184771521
| 16>  H        0.4290332959    -0.3502487177     1.0344832167
| 17>  H       -2.0684525490    -0.3664418015     0.7780348766
| 18>  H       -1.8848481110    -0.1771696445    -0.9608742534
| 19>  H       -0.6162209124    -2.3688550277    -1.0384243367
| 20>  H       -0.1147680802    -3.5862969552     1.0272191724
| 21>  H       -0.9743518862    -2.3537539066     1.9886870966
| 22>  H       -3.5531658054    -2.2972622744    -0.2043087850
| 23>  H       -2.7751608838    -3.5236647587    -1.2337658156
| 24>  H       -2.3626971154    -4.9573745022     2.4204521233
| 25> *
| 26>
| 27>                          ****END OF INPUT****

CARTESIAN COORDINATES (ANGSTROEM)
---------------------------------
  O     -0.303328    1.459243    0.295265
  C     -0.067040    0.069747    0.143424
  C     -1.415004   -0.609576   -0.069212
  C     -1.305488   -2.119315   -0.227137
  C     -1.003600   -2.947038    1.066125
  N     -2.266555   -3.654042    0.851948
  C     -2.650113   -2.902768   -0.341271
  C     -2.929933   -4.613027    1.530121
  O     -4.014847   -5.056931    1.211175
  H      0.541526    1.897596    0.431825
  H      0.589797   -0.134388   -0.718477
  H      0.429033   -0.350249    1.034483
  H     -2.068453   -0.366442    0.778035
  H     -1.884848   -0.177170   -0.960874
  H     -0.616221   -2.368855   -1.038424
  H     -0.114768   -3.586297    1.027219
  H     -0.974352   -2.353754    1.988687
  H     -3.553166   -2.297262   -0.204309
  H     -2.775161   -3.523665   -1.233766
  H     -2.362697   -4.957375    2.420452

 Total Charge           Charge          ....    0
 Multiplicity           Mult            ....    1
 Number of Electrons    NEL             ....   70
 Basis Dimension        Dim             ....  345

ORBITAL ENERGIES
----------------

  NO   OCC          E(Eh)            E(eV)
   0   2.0000     -20.565964      -559.6283
   1   2.0000     -20.514842      -558.2372
   2   2.0000     -15.583248      -424.0417
   3   2.0000     -11.340940      -308.6027
   4   2.0000     -11.288608      -307.1786
   5   2.0000     -11.281921      -306.9967
   6   2.0000     -11.270935      -306.6977
   7   2.0000     -11.253826      -306.2322
   8   2.0000     -11.234292      -305.7006
   9   2.0000      -1.375209       -37.4213
  10   2.0000      -1.370659       -37.2975
  11   2.0000      -1.272258       -34.6199
  12   2.0000      -1.083644       -29.4874
  13   2.0000      -0.999355       -27.1938
  14   2.0000      -0.950450       -25.8631
  15   2.0000      -0.875253       -23.8168
  16   2.0000      -0.803196       -21.8561
  17   2.0000      -0.757244       -20.6057
  18   2.0000      -0.716714       -19.5028
  19   2.0000      -0.706011       -19.2115
  20   2.0000      -0.677960       -18.4482
  21   2.0000      -0.655429       -17.8351
  22   2.0000      -0.637928       -17.3589
  23   2.0000      -0.598460       -16.2849
  24   2.0000      -0.576326       -15.6826
  25   2.0000      -0.570583       -15.5264
  26   2.0000      -0.549870       -14.9627
  27   2.0000      -0.537168       -14.6171
  28   2.0000      -0.519717       -14.1422
  29   2.0000      -0.498471       -13.5641
  30   2.0000      -0.492561       -13.4033
  31   2.0000      -0.465657       -12.6712
  32   2.0000      -0.454505       -12.3677
  33   2.0000      -0.419782       -11.4229
  34   2.0000      -0.374525       -10.1913
  35   0.0000       0.122591         3.3359
  36   0.0000       0.136378         3.7110
  37   0.0000       0.143119         3.8945
  38   0.0000       0.154633         4.2078
  39   0.0000       0.163964         4.4617

MULLIKEN ATOMIC CHARGES
-----------------------
   0 O :   -0.461042
   1 C :   -0.071992
   2 C :   -0.228821
   3 C :   -0.051269
   4 C :   -0.181984
   5 N :   -0.057672
   6 C :   -0.140311
   7 C :    0.122398
   8 O :   -0.363732
   9 H :    0.317421
  10 H :    0.095497
  11 H :    0.096284
  12 H :    0.125121
  13 H :    0.125662
  14 H :    0.110333
  15 H :    0.120930
  16 H :    0.118805
  17 H :    0.125278
  18 H :    0.124574
  19 H :    0.074522
Sum of atomic charges:   -0.0000000

LOEWDIN ATOMIC CHARGES
----------------------
   0 O :   -0.046926
   1 C :   -0.350702
   2 C :   -0.255167
   3 C :   -0.218232
   4 C :   -0.207585
   5 N :    0.174971
   6 C :   -0.192822
   7 C :   -0.428156
   8 O :    0.053672
   9 H :    0.173492
  10 H :    0.115395
  11 H :    0.114736
  12 H :    0.146081
  13 H :    0.146688
  14 H :    0.148250
  15 H :    0.125318
  16 H :    0.127859
  17 H :    0.133196
  18 H :    0.129784
  19 H :    0.110149

  Mayer bond orders larger than 0.1
B(  0-O ,  1-C ) :   1.0229 B(  0-O ,  9-H ) :   0.8474 B(  1-C ,  2-C ) :   0.9296
B(  1-C , 10-H ) :   0.9290 B(  1-C , 11-H ) :   0.9331 B(  2-C ,  3-C ) :   0.8962
B(  2-C , 12-H ) :   0.9194 B(  2-C , 13-H ) :   0.9266 B(  3-C ,  4-C ) :   0.9258
B(  3-C ,  6-C ) :   0.9225 B(  3-C , 14-H ) :   0.9195 B(  4-C ,  5-N ) :   0.9250
B(  4-C , 15-H ) :   0.9111 B(  4-C , 16-H ) :   0.9052 B(  5-N ,  6-C ) :   0.8863
B(  5-N ,  7-C ) :   1.1445 B(  6-C , 17-H ) :   0.9156 B(  6-C , 18-H ) :   0.9238
B(  7-C ,  8-O ) :   1.9054 B(  7-C , 19-H ) :   0.9296

MP2 TOTAL ENERGY:     -439.564876191 Eh
FINAL SINGLE POINT ENERGY      -439.564876190936

DIPOLE MOMENT
-------------
                                X             Y             Z
Electronic contribution:     -4.13973      -4.77594       1.68355
Nuclear contribution   :      6.06674       5.66134      -1.86414
                        -----------------------------------------
Total Dipole Moment    :      1.92701       0.88539      -0.18058
                        -----------------------------------------
Magnitude (a.u.)       :      2.12836
Magnitude (Debye)      :      5.40985

                             ****ORCA TERMINATED NORMALLY****
TOTAL RUN TIME: 0 days 0 hours 15 minutes 37 seconds 993 msec
