                         Program Version 3.0.3 - RELEASE   -
|  1> ! RI-MP2 RIJK def2-TZVP def2-TZVP/C def2-TZVP/JK TIGHTSCF
|  2> % maxcore 2000
|  3> % mp2 density relaxed end
|  4> *xyz 0 1
|  5>  C        0.0636971563     1.2972319644     0.0723574918
|  6>  O       -0.0607885597    -0.1047237543    -0.0977613903
|  7>  C        0.6679664126    -0.6125588304    -1.1735525168
|  8>  O        2.0836125669    -0.5779515278    -0.9769693373
|  9>  C        2.4072568071    -1.9919880229    -0.9745971839
| 10>  C        1.3234899451    -2.6071804230    -0.0647047640
| 11>  C        0.4315098213    -2.1286950901    -1.2672875632
| 12>  O       -0.8633847396    -2.5510761516    -1.5121559046
| 13>  C        1.6102586447    -2.5315016216    -2.1915412033
| 14>  H        1.0980659994     1.5759279667     0.3038163019
| 15>  H       -0.2569207839     1.8380155636    -0.8303803768
| 16>  H       -0.5837586884     1.5787430837     0.9053601980
| 17>  H        0.4148599091    -0.0582507588    -2.0909270942
| 18>  H        3.4768792552    -2.1263614678    -0.8377702623
| 19>  H        1.3714792796    -3.6955122894    -0.0085633129
| 20>  H        1.1664586488    -2.1511909802     0.9126656676
| 21>  H       -1.4392407835    -2.0373338812    -0.9318120752
| 22>  H        1.7284033467    -2.0084583708    -3.1432997346
| 23>  H        1.6872351824    -3.6123679487    -2.3192367699
| 24> *
| 25>
| 26>                          ****END OF INPUT****

CARTESIAN COORDINATES (ANGSTROEM)
---------------------------------
  C      0.063697    1.297232    0.072357
  O     -0.060789   -0.104724   -0.097761
  C      0.667966   -0.612559   -1.173553
  O      2.083613   -0.577952   -0.976969
  C      2.407257   -1.991988   -0.974597
  C      1.323490   -2.607180   -0.064705
  C      0.431510   -2.128695   -1.267288
  O     -0.863385   -2.551076   -1.512156
  C      1.610259   -2.531502   -2.191541
  H      1.098066    1.575928    0.303816
  H     -0.256921    1.838016   -0.830380
  H     -0.583759    1.578743    0.905360
  H      0.414860   -0.058251   -2.090927
  H      3.476879   -2.126361   -0.837770
  H      1.371479   -3.695512   -0.008563
  H      1.166459   -2.151191    0.912666
  H     -1.439241   -2.037334   -0.931812
  H      1.728403   -2.008458   -3.143300
  H      1.687235   -3.612368   -2.319237

 Total Charge           Charge          ....    0
 Multiplicity           Mult            ....    1
 Number of Electrons    NEL             ....   70
 Basis Dimension        Dim             ....  339

ORBITAL ENERGIES
----------------

  NO   OCC          E(Eh)            E(eV)
   0   2.0000     -20.569354      -559.7206
   1   2.0000     -20.566732      -559.6492
   2   2.0000     -20.558620      -559.4285
   3   2.0000     -11.331167      -308.3367
   4   2.0000     -11.297201      -307.4125
   5   2.0000     -11.291452      -307.2560
   6   2.0000     -11.275987      -306.8352
   7   2.0000     -11.230513      -305.5978
   8   2.0000     -11.225260      -305.4549
   9   2.0000      -1.428864       -38.8814
  10   2.0000      -1.375814       -37.4378
  11   2.0000      -1.358567       -36.9685
  12   2.0000      -1.123289       -30.5663
  13   2.0000      -0.988173       -26.8895
  14   2.0000      -0.923492       -25.1295
  15   2.0000      -0.899101       -24.4658
  16   2.0000      -0.798759       -21.7353
  17   2.0000      -0.783264       -21.3137
  18   2.0000      -0.735577       -20.0161
  19   2.0000      -0.689431       -18.7604
  20   2.0000      -0.681421       -18.5424
  21   2.0000      -0.644954       -17.5501
  22   2.0000      -0.623823       -16.9751
  23   2.0000      -0.605218       -16.4688
  24   2.0000      -0.586654       -15.9637
  25   2.0000      -0.575642       -15.6640
  26   2.0000      -0.551543       -15.0083
  27   2.0000      -0.531033       -14.4502
  28   2.0000      -0.520781       -14.1712
  29   2.0000      -0.512397       -13.9430
  30   2.0000      -0.495089       -13.4720
  31   2.0000      -0.455544       -12.3960
  32   2.0000      -0.441230       -12.0065
  33   2.0000      -0.422920       -11.5082
  34   2.0000      -0.405594       -11.0368
  35   0.0000       0.146401         3.9838
  36   0.0000       0.159274         4.3341
  37   0.0000       0.163154         4.4396
  38   0.0000       0.177500         4.8300
  39   0.0000       0.192127         5.2281

MULLIKEN ATOMIC CHARGES
-----------------------
   0 C :   -0.228514
   1 O :   -0.312391
   2 C :    0.115526
   3 O :   -0.324940
   4 C :    0.044416
   5 C :   -0.264806
   6 C :    0.251868
   7 O :   -0.471800
   8 C :   -0.258695
   9 H :    0.143738
  10 H :    0.112785
  11 H :    0.139664
  12 H :    0.080974
  13 H :    0.135106
  14 H :    0.125253
  15 H :    0.126900
  16 H :    0.331286
  17 H :    0.122480
  18 H :    0.131148
Sum of atomic charges:   -0.0000000

LOEWDIN ATOMIC CHARGES
----------------------
   0 C :   -0.344716
   1 O :    0.162814
   2 C :   -0.373036
   3 O :    0.171933
   4 C :   -0.253307
   5 C :   -0.186073
   6 C :   -0.358355
   7 O :    0.031186
   8 C :   -0.176467
   9 H :    0.109957
  10 H :    0.104093
  11 H :    0.113455
  12 H :    0.129422
  13 H :    0.130253
  14 H :    0.141384
  15 H :    0.132390
  16 H :    0.189025
  17 H :    0.132381
  18 H :    0.143662

  Mayer bond orders larger than 0.1
B(  0-C ,  1-O ) :   0.8894 B(  0-C ,  9-H ) :   0.9399 B(  0-C , 10-H ) :   0.9336
B(  0-C , 11-H ) :   0.9379 B(  1-O ,  2-C ) :   1.0209 B(  2-C ,  3-O ) :   0.9880
B(  2-C ,  6-C ) :   0.9241 B(  2-C , 12-H ) :   0.9296 B(  3-O ,  4-C ) :   0.8935
B(  4-C ,  5-C ) :   0.9378 B(  4-C ,  8-C ) :   0.9174 B(  4-C , 13-H ) :   0.9222
B(  5-C ,  6-C ) :   0.8984 B(  5-C , 14-H ) :   0.9234 B(  5-C , 15-H ) :   0.9021
B(  6-C ,  7-O ) :   0.9809 B(  6-C ,  8-C ) :   0.8967 B(  7-O , 16-H ) :   0.8249
B(  8-C , 17-H ) :   0.9208 B(  8-C , 18-H ) :   0.9203

MP2 TOTAL ENERGY:     -459.409829406 Eh
FINAL SINGLE POINT ENERGY      -459.409829406050

DIPOLE MOMENT
-------------
                                X             Y             Z
Electronic contribution:     -0.49226      -1.65438      -0.71760
Nuclear contribution   :      0.51067       1.90441       0.87443
                        -----------------------------------------
Total Dipole Moment    :      0.01841       0.25003       0.15683
                        -----------------------------------------
Magnitude (a.u.)       :      0.29572
Magnitude (Debye)      :      0.75166

                             ****ORCA TERMINATED NORMALLY****
TOTAL RUN TIME: 0 days 0 hours 26 minutes 25 seconds 365 msec
