                         Program Version 3.0.3 - RELEASE   -
|  1> ! RI-MP2 RIJK def2-TZVP def2-TZVP/C def2-TZVP/JK TIGHTSCF
|  2> % maxcore 2000
|  3> % mp2 density relaxed end
|  4> *xyz 0 1
|  5>  O       -0.1439420778     1.4018284089     0.0133233250
|  6>  C       -0.0342767636    -0.0101116055     0.0223505919
|  7>  C        0.4802882954    -0.6078108407     1.3795346308
|  8>  C       -0.7789225246    -1.3879063482     1.7951175599
|  9>  C       -1.1668994258    -2.0854193575     0.4587349466
| 10>  C       -1.4399737904    -0.6264682164    -0.0011897128
| 11>  C       -1.9053179778    -0.3401429675     1.4707578712
| 12>  C       -3.2540388836    -0.7741855867     1.7868286194
| 13>  N       -4.3294357572    -1.1095792610     2.0495253251
| 14>  H        0.7406523582     1.7761999564     0.0689810743
| 15>  H        0.5594283106    -0.3574558250    -0.8339708947
| 16>  H        1.3460655416    -1.2645186689     1.2573426317
| 17>  H        0.7421853015     0.1906652397     2.0798318244
| 18>  H       -0.7676767844    -1.9162921757     2.7472904190
| 19>  H       -0.3892311746    -2.6495938973    -0.0635267090
| 20>  H       -2.0795609555    -2.6780770727     0.5321623525
| 21>  H       -2.0735533067    -0.3812890648    -0.8514835699
| 22>  H       -1.7508364252     0.6806960228     1.8265540245
| 23> *
| 24>
| 25>                          ****END OF INPUT****

CARTESIAN COORDINATES (ANGSTROEM)
---------------------------------
  O     -0.143942    1.401828    0.013323
  C     -0.034277   -0.010112    0.022351
  C      0.480288   -0.607811    1.379535
  C     -0.778923   -1.387906    1.795118
  C     -1.166899   -2.085419    0.458735
  C     -1.439974   -0.626468   -0.001190
  C     -1.905318   -0.340143    1.470758
  C     -3.254039   -0.774186    1.786829
  N     -4.329436   -1.109579    2.049525
  H      0.740652    1.776200    0.068981
  H      0.559428   -0.357456   -0.833971
  H      1.346066   -1.264519    1.257343
  H      0.742185    0.190665    2.079832
  H     -0.767677   -1.916292    2.747290
  H     -0.389231   -2.649594   -0.063527
  H     -2.079561   -2.678077    0.532162
  H     -2.073553   -0.381289   -0.851484
  H     -1.750836    0.680696    1.826554

 Total Charge           Charge          ....    0
 Multiplicity           Mult            ....    1
 Number of Electrons    NEL             ....   66
 Basis Dimension        Dim             ....  333

ORBITAL ENERGIES
----------------

  NO   OCC          E(Eh)            E(eV)
   0   2.0000     -20.572730      -559.8124
   1   2.0000     -15.561437      -423.4482
   2   2.0000     -11.301032      -307.5167
   3   2.0000     -11.277881      -306.8867
   4   2.0000     -11.266333      -306.5725
   5   2.0000     -11.263571      -306.4973
   6   2.0000     -11.259271      -306.3803
   7   2.0000     -11.244626      -305.9818
   8   2.0000     -11.243599      -305.9539
   9   2.0000      -1.381611       -37.5956
  10   2.0000      -1.224486       -33.3200
  11   2.0000      -1.195722       -32.5372
  12   2.0000      -1.008229       -27.4353
  13   2.0000      -0.963382       -26.2150
  14   2.0000      -0.948809       -25.8184
  15   2.0000      -0.802249       -21.8303
  16   2.0000      -0.788431       -21.4543
  17   2.0000      -0.718967       -19.5641
  18   2.0000      -0.714232       -19.4353
  19   2.0000      -0.673542       -18.3280
  20   2.0000      -0.643484       -17.5101
  21   2.0000      -0.602185       -16.3863
  22   2.0000      -0.571746       -15.5580
  23   2.0000      -0.560426       -15.2500
  24   2.0000      -0.547149       -14.8887
  25   2.0000      -0.520367       -14.1599
  26   2.0000      -0.513850       -13.9826
  27   2.0000      -0.499680       -13.5970
  28   2.0000      -0.490245       -13.3403
  29   2.0000      -0.472160       -12.8481
  30   2.0000      -0.449646       -12.2355
  31   2.0000      -0.435585       -11.8529
  32   2.0000      -0.422969       -11.5096
  33   0.0000       0.122833         3.3425
  34   0.0000       0.141214         3.8426
  35   0.0000       0.148144         4.0312
  36   0.0000       0.161485         4.3942
  37   0.0000       0.176833         4.8119

MULLIKEN ATOMIC CHARGES
-----------------------
   0 O :   -0.459806
   1 C :   -0.009005
   2 C :   -0.281417
   3 C :   -0.030467
   4 C :   -0.315623
   5 C :    0.016055
   6 C :   -0.048008
   7 C :   -0.234056
   8 N :   -0.044129
   9 H :    0.320026
  10 H :    0.104980
  11 H :    0.129667
  12 H :    0.127629
  13 H :    0.142805
  14 H :    0.124317
  15 H :    0.154732
  16 H :    0.146719
  17 H :    0.155581
Sum of atomic charges:    0.0000000

LOEWDIN ATOMIC CHARGES
----------------------
   0 O :   -0.013035
   1 C :   -0.309178
   2 C :   -0.213125
   3 C :   -0.167854
   4 C :   -0.182882
   5 C :   -0.151082
   6 C :   -0.165746
   7 C :   -0.173929
   8 N :    0.057327
   9 H :    0.176421
  10 H :    0.133833
  11 H :    0.136751
  12 H :    0.138525
  13 H :    0.139818
  14 H :    0.130857
  15 H :    0.147032
  16 H :    0.144313
  17 H :    0.171954

  Mayer bond orders larger than 0.1
B(  0-O ,  1-C ) :   1.0804 B(  0-O ,  5-C ) :  -0.1034 B(  0-O ,  9-H ) :   0.8419
B(  1-C ,  2-C ) :   0.9307 B(  1-C ,  5-C ) :   0.8775 B(  1-C , 10-H ) :   0.9586
B(  2-C ,  3-C ) :   0.8932 B(  2-C , 11-H ) :   0.9208 B(  2-C , 12-H ) :   0.9207
B(  3-C ,  4-C ) :   0.9120 B(  3-C ,  6-C ) :   0.8569 B(  3-C , 13-H ) :   0.9130
B(  4-C ,  5-C ) :   0.9110 B(  4-C , 14-H ) :   0.9278 B(  4-C , 15-H ) :   0.9146
B(  5-C ,  6-C ) :   0.8709 B(  5-C , 16-H ) :   0.9084 B(  6-C ,  7-C ) :   0.9444
B(  6-C , 17-H ) :   0.8963 B(  7-C ,  8-N ) :   2.8904

MP2 TOTAL ENERGY:     -401.272285808 Eh
FINAL SINGLE POINT ENERGY      -401.272285807543

DIPOLE MOMENT
-------------
                                X             Y             Z
Electronic contribution:     -5.68805       1.43670       1.40498
Nuclear contribution   :      7.79444      -1.37895      -1.80528
                        -----------------------------------------
Total Dipole Moment    :      2.10639       0.05775      -0.40031
                        -----------------------------------------
Magnitude (a.u.)       :      2.14487
Magnitude (Debye)      :      5.45183

                             ****ORCA TERMINATED NORMALLY****
TOTAL RUN TIME: 0 days 0 hours 17 minutes 28 seconds 654 msec
