                         Program Version 3.0.3 - RELEASE   -
|  1> ! RI-MP2 RIJK def2-TZVP def2-TZVP/C def2-TZVP/JK TIGHTSCF
|  2> % maxcore 2000
|  3> % mp2 density relaxed end
|  4> *xyz 0 1
|  5>  C        0.4210653276     0.8352731591     1.3011892130
|  6>  C        0.1833318407    -0.0037913746     0.0585866023
|  7>  O        0.9678371620    -0.0180084522    -0.8648840044
|  8>  C       -1.0996392857    -0.8085818972     0.0559177136
|  9>  C       -1.5336746144    -1.6908612976    -1.1426458334
| 10>  C       -0.4182418608    -2.7170524798    -0.8315999699
| 11>  C       -1.1312441585    -2.3213253554     0.4801244868
| 12>  O       -2.4273946765    -2.4354392438    -0.2140953071
| 13>  H        1.4146209939     1.2830868508     1.2633292112
| 14>  H       -0.3337459515     1.6280130135     1.3646691372
| 15>  H        0.3153220625     0.2271216363     2.2066570576
| 16>  H       -1.9282842852    -0.2603991701     0.5118453900
| 17>  H       -1.9477162234    -1.3777710939    -2.1003136367
| 18>  H       -0.6330502111    -3.7322441392    -1.1658400878
| 19>  H        0.6143011975    -2.4096803802    -0.9887192336
| 20>  H       -1.0547155470    -2.7440339858     1.4826291112
| 21> *
| 22>
| 23>                          ****END OF INPUT****

CARTESIAN COORDINATES (ANGSTROEM)
---------------------------------
  C      0.421065    0.835273    1.301189
  C      0.183332   -0.003791    0.058587
  O      0.967837   -0.018008   -0.864884
  C     -1.099639   -0.808582    0.055918
  C     -1.533675   -1.690861   -1.142646
  C     -0.418242   -2.717052   -0.831600
  C     -1.131244   -2.321325    0.480124
  O     -2.427395   -2.435439   -0.214095
  H      1.414621    1.283087    1.263329
  H     -0.333746    1.628013    1.364669
  H      0.315322    0.227122    2.206657
  H     -1.928284   -0.260399    0.511845
  H     -1.947716   -1.377771   -2.100314
  H     -0.633050   -3.732244   -1.165840
  H      0.614301   -2.409680   -0.988719
  H     -1.054716   -2.744034    1.482629

 Total Charge           Charge          ....    0
 Multiplicity           Mult            ....    1
 Number of Electrons    NEL             ....   60
 Basis Dimension        Dim             ....  296

ORBITAL ENERGIES
----------------

  NO   OCC          E(Eh)            E(eV)
   0   2.0000     -20.557364      -559.3943
   1   2.0000     -20.554409      -559.3139
   2   2.0000     -11.341520      -308.6184
   3   2.0000     -11.317354      -307.9609
   4   2.0000     -11.310348      -307.7702
   5   2.0000     -11.257328      -306.3275
   6   2.0000     -11.243053      -305.9390
   7   2.0000     -11.239290      -305.8366
   8   2.0000      -1.408066       -38.3154
   9   2.0000      -1.394937       -37.9582
  10   2.0000      -1.092022       -29.7154
  11   2.0000      -1.025443       -27.9037
  12   2.0000      -0.945707       -25.7340
  13   2.0000      -0.893336       -24.3089
  14   2.0000      -0.808223       -21.9929
  15   2.0000      -0.721856       -19.6427
  16   2.0000      -0.713671       -19.4200
  17   2.0000      -0.665116       -18.0987
  18   2.0000      -0.649744       -17.6804
  19   2.0000      -0.624463       -16.9925
  20   2.0000      -0.597594       -16.2614
  21   2.0000      -0.572319       -15.5736
  22   2.0000      -0.555882       -15.1263
  23   2.0000      -0.526588       -14.3292
  24   2.0000      -0.514309       -13.9951
  25   2.0000      -0.501593       -13.6490
  26   2.0000      -0.479164       -13.0387
  27   2.0000      -0.458499       -12.4764
  28   2.0000      -0.434209       -11.8154
  29   2.0000      -0.406292       -11.0558
  30   0.0000       0.123323         3.3558
  31   0.0000       0.131053         3.5661
  32   0.0000       0.163746         4.4558
  33   0.0000       0.173301         4.7158
  34   0.0000       0.181162         4.9297

MULLIKEN ATOMIC CHARGES
-----------------------
   0 C :   -0.414297
   1 C :    0.202147
   2 O :   -0.295086
   3 C :   -0.070178
   4 C :   -0.014977
   5 C :   -0.161844
   6 C :   -0.069217
   7 O :   -0.309502
   8 H :    0.155068
   9 H :    0.151914
  10 H :    0.144254
  11 H :    0.130611
  12 H :    0.146144
  13 H :    0.122793
  14 H :    0.142845
  15 H :    0.139325
Sum of atomic charges:    0.0000000

LOEWDIN ATOMIC CHARGES
----------------------
   0 C :   -0.277072
   1 C :   -0.335065
   2 O :    0.150864
   3 C :   -0.166558
   4 C :   -0.192677
   5 C :   -0.192779
   6 C :   -0.208911
   7 O :    0.129142
   8 H :    0.133767
   9 H :    0.139954
  10 H :    0.136389
  11 H :    0.159904
  12 H :    0.128165
  13 H :    0.134208
  14 H :    0.135672
  15 H :    0.124995

  Mayer bond orders larger than 0.1
B(  0-C ,  1-C ) :   0.9185 B(  0-C ,  8-H ) :   0.9373 B(  0-C ,  9-H ) :   0.9155
B(  0-C , 10-H ) :   0.9148 B(  1-C ,  2-O ) :   1.9784 B(  1-C ,  3-C ) :   0.8739
B(  3-C ,  4-C ) :   0.9128 B(  3-C ,  6-C ) :   0.9020 B(  3-C , 11-H ) :   0.8965
B(  4-C ,  5-C ) :   0.9161 B(  4-C ,  7-O ) :   0.9028 B(  4-C , 12-H ) :   0.8815
B(  5-C ,  6-C ) :   0.9269 B(  5-C , 13-H ) :   0.9232 B(  5-C , 14-H ) :   0.9097
B(  6-C ,  7-O ) :   0.9234 B(  6-C , 15-H ) :   0.8883

MP2 TOTAL ENERGY:     -383.043051557 Eh
FINAL SINGLE POINT ENERGY      -383.043051557322

DIPOLE MOMENT
-------------
                                X             Y             Z
Electronic contribution:     -1.24705      -1.33403      -2.75886
Nuclear contribution   :      1.34299       1.58545       3.44812
                        -----------------------------------------
Total Dipole Moment    :      0.09594       0.25143       0.68926
                        -----------------------------------------
Magnitude (a.u.)       :      0.73993
Magnitude (Debye)      :      1.88076

                             ****ORCA TERMINATED NORMALLY****
TOTAL RUN TIME: 0 days 0 hours 12 minutes 36 seconds 100 msec
