                         Program Version 3.0.3 - RELEASE   -
|  1> ! RI-MP2 RIJK def2-TZVP def2-TZVP/C def2-TZVP/JK TIGHTSCF
|  2> % maxcore 2000
|  3> % mp2 density relaxed end
|  4> *xyz 0 1
|  5>  O       -0.0640873060     0.1913451296     0.6950674597
|  6>  C       -0.0464587572     1.2305336644     0.1104088964
|  7>  O       -1.1786312911     1.7728298826    -0.3932644703
|  8>  C       -1.0661667993     3.0217467710    -1.0902877685
|  9>  C       -0.1070172620     3.9302709514    -0.3619841533
| 10>  O        1.1998212111     3.3388380048    -0.3361927888
| 11>  C        1.2827837521     2.0087868762    -0.1045268112
| 12>  O        2.3363539256     1.4517977445    -0.0620772098
| 13>  H       -0.7281624427     2.8426571505    -2.1180132149
| 14>  H       -2.0725841128     3.4447125442    -1.1181798323
| 15>  H        0.0037780945     4.8873311875    -0.8760987925
| 16>  H       -0.4493058021     4.1159492532     0.6631508756
| 17> *
| 18>
| 19>                          ****END OF INPUT****

CARTESIAN COORDINATES (ANGSTROEM)
---------------------------------
  O     -0.064087    0.191345    0.695067
  C     -0.046459    1.230534    0.110409
  O     -1.178631    1.772830   -0.393264
  C     -1.066167    3.021747   -1.090288
  C     -0.107017    3.930271   -0.361984
  O      1.199821    3.338838   -0.336193
  C      1.282784    2.008787   -0.104527
  O      2.336354    1.451798   -0.062077
  H     -0.728162    2.842657   -2.118013
  H     -2.072584    3.444713   -1.118180
  H      0.003778    4.887331   -0.876099
  H     -0.449306    4.115949    0.663151

 Total Charge           Charge          ....    0
 Multiplicity           Mult            ....    1
 Number of Electrons    NEL             ....   60
 Basis Dimension        Dim             ....  272

ORBITAL ENERGIES
----------------

  NO   OCC          E(Eh)            E(eV)
   0   2.0000     -20.639089      -561.6182
   1   2.0000     -20.639086      -561.6181
   2   2.0000     -20.578326      -559.9647
   3   2.0000     -20.578319      -559.9645
   4   2.0000     -11.419014      -310.7272
   5   2.0000     -11.418496      -310.7131
   6   2.0000     -11.338470      -308.5355
   7   2.0000     -11.337787      -308.5169
   8   2.0000      -1.511853       -41.1396
   9   2.0000      -1.475188       -40.1419
  10   2.0000      -1.414751       -38.4973
  11   2.0000      -1.388479       -37.7824
  12   2.0000      -1.082363       -29.4526
  13   2.0000      -0.946635       -25.7593
  14   2.0000      -0.945383       -25.7252
  15   2.0000      -0.783589       -21.3225
  16   2.0000      -0.782832       -21.3020
  17   2.0000      -0.733474       -19.9589
  18   2.0000      -0.711448       -19.3595
  19   2.0000      -0.675867       -18.3913
  20   2.0000      -0.661422       -17.9982
  21   2.0000      -0.650247       -17.6941
  22   2.0000      -0.638894       -17.3852
  23   2.0000      -0.621124       -16.9017
  24   2.0000      -0.567587       -15.4448
  25   2.0000      -0.546520       -14.8716
  26   2.0000      -0.513000       -13.9595
  27   2.0000      -0.499256       -13.5854
  28   2.0000      -0.476515       -12.9666
  29   2.0000      -0.456857       -12.4317
  30   0.0000       0.071818         1.9543
  31   0.0000       0.118125         3.2143
  32   0.0000       0.151759         4.1296
  33   0.0000       0.169110         4.6017
  34   0.0000       0.173737         4.7276

MULLIKEN ATOMIC CHARGES
-----------------------
   0 O :   -0.229346
   1 C :    0.232502
   2 O :   -0.205515
   3 C :   -0.090299
   4 C :   -0.090293
   5 O :   -0.205515
   6 C :    0.232499
   7 O :   -0.229346
   8 H :    0.141030
   9 H :    0.151627
  10 H :    0.151626
  11 H :    0.141029
Sum of atomic charges:   -0.0000000

LOEWDIN ATOMIC CHARGES
----------------------
   0 O :    0.192527
   1 C :   -0.451992
   2 O :    0.264847
   3 C :   -0.286567
   4 C :   -0.286566
   5 O :    0.264848
   6 C :   -0.451992
   7 O :    0.192525
   8 H :    0.137350
   9 H :    0.143834
  10 H :    0.143834
  11 H :    0.137351

  Mayer bond orders larger than 0.1
B(  0-O ,  1-C ) :   2.0249 B(  1-C ,  2-O ) :   1.1033 B(  1-C ,  6-C ) :   0.8695
B(  2-O ,  3-C ) :   0.8497 B(  3-C ,  4-C ) :   0.9444 B(  3-C ,  8-H ) :   0.9263
B(  3-C ,  9-H ) :   0.9214 B(  4-C ,  5-O ) :   0.8497 B(  4-C , 10-H ) :   0.9214
B(  4-C , 11-H ) :   0.9263 B(  5-O ,  6-C ) :   1.1033 B(  6-C ,  7-O ) :   2.0249

MP2 TOTAL ENERGY:     -454.965579552 Eh
FINAL SINGLE POINT ENERGY      -454.965579552098

DIPOLE MOMENT
-------------
                                X             Y             Z
Electronic contribution:      2.91379      -4.48972       1.76332
Nuclear contribution   :     -4.13412       6.37003      -2.50194
                        -----------------------------------------
Total Dipole Moment    :     -1.22033       1.88031      -0.73862
                        -----------------------------------------
Magnitude (a.u.)       :      2.36015
Magnitude (Debye)      :      5.99904

                             ****ORCA TERMINATED NORMALLY****
TOTAL RUN TIME: 0 days 0 hours 9 minutes 4 seconds 188 msec
