                         Program Version 3.0.3 - RELEASE   -
|  1> ! RI-MP2 RIJK def2-TZVP def2-TZVP/C def2-TZVP/JK TIGHTSCF
|  2> % maxcore 2000
|  3> % mp2 density relaxed end
|  4> *xyz 0 1
|  5>  O       -0.2316814578    -0.0713454922    -0.1243792610
|  6>  C       -0.1529483559     1.1349851406    -0.0741862030
|  7>  N       -1.1133627643     2.0508418196    -0.4967138286
|  8>  C       -0.7636009453     3.3970123441    -0.1184064457
|  9>  C       -1.0430668265     3.8982846287     1.3369957706
| 10>  C        0.4875276654     4.1099152724     1.5360832951
| 11>  C        0.7560055775     3.3057042067     0.2343992496
| 12>  N        0.9147223025     1.8770828757     0.4126425795
| 13>  H       -2.0672929199     1.7316605857    -0.5465639548
| 14>  H       -1.0249855632     4.1248759113    -0.8898300039
| 15>  H       -1.6745339136     4.7843775537     1.4303793645
| 16>  H       -1.4528514155     3.1056499267     1.9669399283
| 17>  H        0.7853634563     5.1571763995     1.4349684025
| 18>  H        0.9303245073     3.7005561715     2.4459321759
| 19>  H        1.4823403981     3.7255065448    -0.4694339239
| 20>  H        1.8135792449     1.4296544014     0.4746835450
| 21> *
| 22>
| 23>                          ****END OF INPUT****

CARTESIAN COORDINATES (ANGSTROEM)
---------------------------------
  O     -0.231681   -0.071345   -0.124379
  C     -0.152948    1.134985   -0.074186
  N     -1.113363    2.050842   -0.496714
  C     -0.763601    3.397012   -0.118406
  C     -1.043067    3.898285    1.336996
  C      0.487528    4.109915    1.536083
  C      0.756006    3.305704    0.234399
  N      0.914722    1.877083    0.412643
  H     -2.067293    1.731661   -0.546564
  H     -1.024986    4.124876   -0.889830
  H     -1.674534    4.784378    1.430379
  H     -1.452851    3.105650    1.966940
  H      0.785363    5.157176    1.434968
  H      0.930325    3.700556    2.445932
  H      1.482340    3.725507   -0.469434
  H      1.813579    1.429654    0.474684

 Total Charge           Charge          ....    0
 Multiplicity           Mult            ....    1
 Number of Electrons    NEL             ....   60
 Basis Dimension        Dim             ....  296

ORBITAL ENERGIES
----------------

  NO   OCC          E(Eh)            E(eV)
   0   2.0000     -20.506583      -558.0125
   1   2.0000     -15.576375      -423.8547
   2   2.0000     -15.574991      -423.8170
   3   2.0000     -11.367575      -309.3275
   4   2.0000     -11.280955      -306.9704
   5   2.0000     -11.280371      -306.9545
   6   2.0000     -11.235897      -305.7443
   7   2.0000     -11.235209      -305.7256
   8   2.0000      -1.389626       -37.8137
   9   2.0000      -1.284163       -34.9439
  10   2.0000      -1.180523       -32.1237
  11   2.0000      -1.109433       -30.1892
  12   2.0000      -0.913780       -24.8652
  13   2.0000      -0.906431       -24.6652
  14   2.0000      -0.828471       -22.5438
  15   2.0000      -0.782081       -21.2815
  16   2.0000      -0.712614       -19.3912
  17   2.0000      -0.681867       -18.5546
  18   2.0000      -0.653701       -17.7881
  19   2.0000      -0.623519       -16.9668
  20   2.0000      -0.616543       -16.7770
  21   2.0000      -0.590058       -16.0563
  22   2.0000      -0.571999       -15.5649
  23   2.0000      -0.524143       -14.2627
  24   2.0000      -0.513058       -13.9610
  25   2.0000      -0.496760       -13.5175
  26   2.0000      -0.458680       -12.4813
  27   2.0000      -0.430157       -11.7052
  28   2.0000      -0.398640       -10.8476
  29   2.0000      -0.379480       -10.3262
  30   0.0000       0.129684         3.5289
  31   0.0000       0.147853         4.0233
  32   0.0000       0.155598         4.2340
  33   0.0000       0.160436         4.3657
  34   0.0000       0.187493         5.1019

MULLIKEN ATOMIC CHARGES
-----------------------
   0 O :   -0.359690
   1 C :    0.291193
   2 N :   -0.340732
   3 C :   -0.016686
   4 C :   -0.258686
   5 C :   -0.197506
   6 C :    0.044628
   7 N :   -0.371114
   8 H :    0.245224
   9 H :    0.119670
  10 H :    0.122527
  11 H :    0.126038
  12 H :    0.117937
  13 H :    0.114901
  14 H :    0.120772
  15 H :    0.241526
Sum of atomic charges:   -0.0000000

LOEWDIN ATOMIC CHARGES
----------------------
   0 O :    0.061787
   1 C :   -0.535415
   2 N :    0.099894
   3 C :   -0.233231
   4 C :   -0.221655
   5 C :   -0.223651
   6 C :   -0.228785
   7 N :    0.111394
   8 H :    0.185021
   9 H :    0.140928
  10 H :    0.126046
  11 H :    0.137739
  12 H :    0.133575
  13 H :    0.129135
  14 H :    0.132351
  15 H :    0.184868

  Mayer bond orders larger than 0.1
B(  0-O ,  1-C ) :   2.0160 B(  1-C ,  2-N ) :   1.0915 B(  1-C ,  7-N ) :   1.0924
B(  2-N ,  3-C ) :   0.9501 B(  2-N ,  8-H ) :   0.8651 B(  3-C ,  4-C ) :   0.9294
B(  3-C ,  6-C ) :   0.9115 B(  3-C ,  9-H ) :   0.9262 B(  4-C ,  5-C ) :   0.9460
B(  4-C , 10-H ) :   0.9306 B(  4-C , 11-H ) :   0.9151 B(  5-C ,  6-C ) :   0.9125
B(  5-C , 12-H ) :   0.9194 B(  5-C , 13-H ) :   0.9153 B(  6-C ,  7-N ) :   0.9439
B(  6-C , 14-H ) :   0.9345 B(  7-N , 15-H ) :   0.8755

MP2 TOTAL ENERGY:     -379.328695479 Eh
FINAL SINGLE POINT ENERGY      -379.328695478575

DIPOLE MOMENT
-------------
                                X             Y             Z
Electronic contribution:      0.15119      -6.11947      -2.76169
Nuclear contribution   :     -0.04261       7.78295       2.94872
                        -----------------------------------------
Total Dipole Moment    :      0.10859       1.66348       0.18703
                        -----------------------------------------
Magnitude (a.u.)       :      1.67748
Magnitude (Debye)      :      4.26381

                             ****ORCA TERMINATED NORMALLY****
TOTAL RUN TIME: 0 days 0 hours 11 minutes 5 seconds 261 msec
