                         Program Version 3.0.3 - RELEASE   -
|  1> ! RI-MP2 RIJK def2-TZVP def2-TZVP/C def2-TZVP/JK TIGHTSCF
|  2> % maxcore 2000
|  3> % mp2 density relaxed end
|  4> *xyz 0 1
|  5>  C       -0.1497875185     1.5348196609    -0.0159405438
|  6>  C        0.0466340864     0.0138624663     0.0138864060
|  7>  C        0.7318189610    -0.4785053279    -1.2462063938
|  8>  O        2.1634744410    -0.3055031957    -1.2977316520
|  9>  C        1.6306652759    -1.6454516494    -1.2317024891
| 10>  C        1.9152524656    -2.4144930464     0.0452676311
| 11>  C        1.0336266094    -1.9762504501     1.2301081134
| 12>  C        0.8111253866    -0.4562490355     1.2757730195
| 13>  O        2.0251285869     0.2550531067     1.4685049805
| 14>  H        0.8136834395     2.0495201889    -0.0152987606
| 15>  H       -0.7081232883     1.8425178045    -0.9062623002
| 16>  H       -0.7064485942     1.8692490865     0.8650778774
| 17>  H       -0.9434184507    -0.4646994588     0.0382147492
| 18>  H        0.2348266881    -0.2219315570    -2.1833244872
| 19>  H        1.7701904890    -2.1937025652    -2.1631624718
| 20>  H        1.7770615716    -3.4838911962    -0.1455722938
| 21>  H        2.9759924751    -2.2811647371     0.2878172981
| 22>  H        0.0533294225    -2.4649177972     1.1582240686
| 23>  H        1.4869980321    -2.3031904309     2.1705160344
| 24>  H        0.1945998331    -0.2204326773     2.1515749108
| 25>  H        2.4912389479     0.2306376710     0.6204649032
| 26> *
| 27>
| 28>                          ****END OF INPUT****

CARTESIAN COORDINATES (ANGSTROEM)
---------------------------------
  C     -0.149788    1.534820   -0.015941
  C      0.046634    0.013862    0.013886
  C      0.731819   -0.478505   -1.246206
  O      2.163474   -0.305503   -1.297732
  C      1.630665   -1.645452   -1.231702
  C      1.915252   -2.414493    0.045268
  C      1.033627   -1.976250    1.230108
  C      0.811125   -0.456249    1.275773
  O      2.025129    0.255053    1.468505
  H      0.813683    2.049520   -0.015299
  H     -0.708123    1.842518   -0.906262
  H     -0.706449    1.869249    0.865078
  H     -0.943418   -0.464699    0.038215
  H      0.234827   -0.221932   -2.183324
  H      1.770190   -2.193703   -2.163162
  H      1.777062   -3.483891   -0.145572
  H      2.975992   -2.281165    0.287817
  H      0.053329   -2.464918    1.158224
  H      1.486998   -2.303190    2.170516
  H      0.194600   -0.220433    2.151575
  H      2.491239    0.230638    0.620465

 Total Charge           Charge          ....    0
 Multiplicity           Mult            ....    1
 Number of Electrons    NEL             ....   70
 Basis Dimension        Dim             ....  351

ORBITAL ENERGIES
----------------

  NO   OCC          E(Eh)            E(eV)
   0   2.0000     -20.572637      -559.8099
   1   2.0000     -20.536370      -558.8230
   2   2.0000     -11.292516      -307.2850
   3   2.0000     -11.291105      -307.2466
   4   2.0000     -11.276638      -306.8529
   5   2.0000     -11.238045      -305.8028
   6   2.0000     -11.234498      -305.7062
   7   2.0000     -11.225191      -305.4530
   8   2.0000     -11.215003      -305.1758
   9   2.0000      -1.415332       -38.5132
  10   2.0000      -1.346768       -36.6474
  11   2.0000      -1.092393       -29.7255
  12   2.0000      -1.049186       -28.5498
  13   2.0000      -0.957337       -26.0505
  14   2.0000      -0.922000       -25.0889
  15   2.0000      -0.849663       -23.1205
  16   2.0000      -0.827622       -22.5207
  17   2.0000      -0.746831       -20.3223
  18   2.0000      -0.716883       -19.5074
  19   2.0000      -0.648255       -17.6399
  20   2.0000      -0.648003       -17.6331
  21   2.0000      -0.624841       -17.0028
  22   2.0000      -0.615957       -16.7610
  23   2.0000      -0.590334       -16.0638
  24   2.0000      -0.563912       -15.3448
  25   2.0000      -0.548643       -14.9293
  26   2.0000      -0.538835       -14.6624
  27   2.0000      -0.530748       -14.4424
  28   2.0000      -0.510515       -13.8918
  29   2.0000      -0.506182       -13.7739
  30   2.0000      -0.483183       -13.1481
  31   2.0000      -0.459336       -12.4992
  32   2.0000      -0.436169       -11.8688
  33   2.0000      -0.429131       -11.6772
  34   2.0000      -0.414429       -11.2772
  35   0.0000       0.128475         3.4960
  36   0.0000       0.153404         4.1743
  37   0.0000       0.161861         4.4045
  38   0.0000       0.170160         4.6303
  39   0.0000       0.187251         5.0953

MULLIKEN ATOMIC CHARGES
-----------------------
   0 C :   -0.389399
   1 C :   -0.090320
   2 C :   -0.009182
   3 O :   -0.365743
   4 C :    0.022183
   5 C :   -0.265325
   6 C :   -0.181357
   7 C :    0.087539
   8 O :   -0.483546
   9 H :    0.142410
  10 H :    0.128564
  11 H :    0.131213
  12 H :    0.093619
  13 H :    0.125866
  14 H :    0.124213
  15 H :    0.124609
  16 H :    0.134442
  17 H :    0.110135
  18 H :    0.125671
  19 H :    0.101092
  20 H :    0.333316
Sum of atomic charges:   -0.0000000

LOEWDIN ATOMIC CHARGES
----------------------
   0 C :   -0.284200
   1 C :   -0.258213
   2 C :   -0.235954
   3 O :    0.144322
   4 C :   -0.251777
   5 C :   -0.249958
   6 C :   -0.241373
   7 C :   -0.321605
   8 O :   -0.015332
   9 H :    0.129430
  10 H :    0.122583
  11 H :    0.126422
  12 H :    0.163566
  13 H :    0.140687
  14 H :    0.138035
  15 H :    0.144592
  16 H :    0.149166
  17 H :    0.141757
  18 H :    0.141479
  19 H :    0.146285
  20 H :    0.170086

  Mayer bond orders larger than 0.1
B(  0-C ,  1-C ) :   0.9145 B(  0-C ,  9-H ) :   0.9258 B(  0-C , 10-H ) :   0.9402
B(  0-C , 11-H ) :   0.9386 B(  1-C ,  2-C ) :   0.9409 B(  1-C ,  7-C ) :   0.9206
B(  1-C , 12-H ) :   0.9105 B(  2-C ,  3-O ) :   0.8675 B(  2-C ,  4-C ) :   0.9779
B(  2-C , 13-H ) :   0.9212 B(  3-O ,  4-C ) :   0.8698 B(  4-C ,  5-C ) :   0.9198
B(  4-C , 14-H ) :   0.9268 B(  5-C ,  6-C ) :   0.9337 B(  5-C , 15-H ) :   0.9259
B(  5-C , 16-H ) :   0.9171 B(  6-C ,  7-C ) :   0.9009 B(  6-C , 17-H ) :   0.9246
B(  6-C , 18-H ) :   0.9288 B(  7-C ,  8-O ) :   0.9534 B(  7-C , 19-H ) :   0.9314
B(  8-O , 20-H ) :   0.8081

MP2 TOTAL ENERGY:     -423.533040034 Eh
FINAL SINGLE POINT ENERGY      -423.533040033571

DIPOLE MOMENT
-------------
                                X             Y             Z
Electronic contribution:      3.40641      -0.09275      -1.74254
Nuclear contribution   :     -4.18856      -0.68526       1.28202
                        -----------------------------------------
Total Dipole Moment    :     -0.78215      -0.77801      -0.46052
                        -----------------------------------------
Magnitude (a.u.)       :      1.19547
Magnitude (Debye)      :      3.03863

                             ****ORCA TERMINATED NORMALLY****
TOTAL RUN TIME: 0 days 0 hours 19 minutes 24 seconds 143 msec
