                         Program Version 3.0.3 - RELEASE   -
|  1> ! RI-MP2 RIJK def2-TZVP def2-TZVP/C def2-TZVP/JK TIGHTSCF
|  2> % maxcore 2000
|  3> % mp2 density relaxed end
|  4> *xyz 0 1
|  5>  N        0.6495641825     1.0330353599    -0.1531156154
|  6>  C        0.2911161063    -0.1652465503     0.0100338704
|  7>  O       -0.9874655171    -0.5253175014    -0.2206535584
|  8>  C       -1.3660573739    -1.8474002068     0.1170942045
|  9>  C       -2.0977213173    -2.0463170633     1.4764330346
| 10>  C       -3.1196659239    -2.8926973129     0.7120688267
| 11>  C       -3.6325480415    -4.2260160414     1.0275629756
| 12>  O       -4.4717077994    -3.0603941807     1.0750790003
| 13>  C       -2.6277235507    -2.3414069123    -0.6295114974
| 14>  H        1.6450898167     1.1263236924     0.0369871168
| 15>  H        0.9311940430    -1.0028808429     0.3223065997
| 16>  H       -0.5146917477    -2.5269485194    -0.0012930212
| 17>  H       -1.5461476154    -2.5066160255     2.2989588930
| 18>  H       -2.5377844291    -1.1020324385     1.8096752225
| 19>  H       -3.8552836157    -4.9268109600     0.2237087875
| 20>  H       -3.4112016643    -4.6792752509     1.9932067440
| 21>  H       -3.2316189610    -1.4876784289    -0.9496927955
| 22>  H       -2.4943106716    -3.0303711871    -1.4655551976
| 23> *
| 24>
| 25>                          ****END OF INPUT****

CARTESIAN COORDINATES (ANGSTROEM)
---------------------------------
  N      0.649564    1.033035   -0.153116
  C      0.291116   -0.165247    0.010034
  O     -0.987466   -0.525318   -0.220654
  C     -1.366057   -1.847400    0.117094
  C     -2.097721   -2.046317    1.476433
  C     -3.119666   -2.892697    0.712069
  C     -3.632548   -4.226016    1.027563
  O     -4.471708   -3.060394    1.075079
  C     -2.627724   -2.341407   -0.629511
  H      1.645090    1.126324    0.036987
  H      0.931194   -1.002881    0.322307
  H     -0.514692   -2.526949   -0.001293
  H     -1.546148   -2.506616    2.298959
  H     -2.537784   -1.102032    1.809675
  H     -3.855284   -4.926811    0.223709
  H     -3.411202   -4.679275    1.993207
  H     -3.231619   -1.487678   -0.949693
  H     -2.494311   -3.030371   -1.465555

 Total Charge           Charge          ....    0
 Multiplicity           Mult            ....    1
 Number of Electrons    NEL             ....   68
 Basis Dimension        Dim             ....  333

ORBITAL ENERGIES
----------------

  NO   OCC          E(Eh)            E(eV)
   0   2.0000     -20.596973      -560.4721
   1   2.0000     -20.574487      -559.8603
   2   2.0000     -15.542743      -422.9395
   3   2.0000     -11.342144      -308.6354
   4   2.0000     -11.310533      -307.7752
   5   2.0000     -11.302725      -307.5628
   6   2.0000     -11.289754      -307.2098
   7   2.0000     -11.241318      -305.8918
   8   2.0000     -11.240744      -305.8762
   9   2.0000      -1.434944       -39.0468
  10   2.0000      -1.421043       -38.6685
  11   2.0000      -1.204830       -32.7851
  12   2.0000      -1.135863       -30.9084
  13   2.0000      -0.934922       -25.4405
  14   2.0000      -0.927524       -25.2392
  15   2.0000      -0.890039       -24.2192
  16   2.0000      -0.828122       -22.5343
  17   2.0000      -0.767417       -20.8825
  18   2.0000      -0.722324       -19.6554
  19   2.0000      -0.690681       -18.7944
  20   2.0000      -0.683759       -18.6060
  21   2.0000      -0.669740       -18.2246
  22   2.0000      -0.629848       -17.1390
  23   2.0000      -0.602950       -16.4071
  24   2.0000      -0.589563       -16.0428
  25   2.0000      -0.565239       -15.3809
  26   2.0000      -0.541034       -14.7223
  27   2.0000      -0.510947       -13.9036
  28   2.0000      -0.484513       -13.1843
  29   2.0000      -0.482296       -13.1239
  30   2.0000      -0.442165       -12.0319
  31   2.0000      -0.439571       -11.9613
  32   2.0000      -0.435527       -11.8513
  33   2.0000      -0.399417       -10.8687
  34   0.0000       0.128894         3.5074
  35   0.0000       0.148440         4.0392
  36   0.0000       0.151621         4.1258
  37   0.0000       0.163986         4.4623
  38   0.0000       0.171623         4.6701

MULLIKEN ATOMIC CHARGES
-----------------------
   0 N :   -0.336704
   1 C :    0.064417
   2 O :   -0.204887
   3 C :   -0.026092
   4 C :   -0.145487
   5 C :    0.063657
   6 C :   -0.109641
   7 O :   -0.327292
   8 C :   -0.146396
   9 H :    0.225414
  10 H :    0.077730
  11 H :    0.095408
  12 H :    0.129773
  13 H :    0.131194
  14 H :    0.119042
  15 H :    0.118680
  16 H :    0.136514
  17 H :    0.134671
Sum of atomic charges:    0.0000000

LOEWDIN ATOMIC CHARGES
----------------------
   0 N :   -0.080062
   1 C :   -0.398438
   2 O :    0.266222
   3 C :   -0.278729
   4 C :   -0.177463
   5 C :   -0.323334
   6 C :   -0.235488
   7 O :    0.171909
   8 C :   -0.171388
   9 H :    0.168161
  10 H :    0.105522
  11 H :    0.135118
  12 H :    0.131675
  13 H :    0.153859
  14 H :    0.121749
  15 H :    0.121531
  16 H :    0.155743
  17 H :    0.133415

  Mayer bond orders larger than 0.1
B(  0-N ,  1-C ) :   1.9668 B(  0-N ,  9-H ) :   0.8495 B(  1-C ,  2-O ) :   1.0426
B(  1-C , 10-H ) :   0.9234 B(  2-O ,  3-C ) :   0.9396 B(  3-C ,  4-C ) :   0.9518
B(  3-C ,  8-C ) :   0.9375 B(  3-C , 11-H ) :   0.9327 B(  4-C ,  5-C ) :   0.8992
B(  4-C , 12-H ) :   0.9171 B(  4-C , 13-H ) :   0.8859 B(  5-C ,  6-C ) :   1.0000
B(  5-C ,  7-O ) :   0.9111 B(  5-C ,  8-C ) :   0.8889 B(  6-C ,  7-O ) :   0.8999
B(  6-C , 14-H ) :   0.9154 B(  6-C , 15-H ) :   0.9152 B(  8-C , 16-H ) :   0.8939
B(  8-C , 17-H ) :   0.9198

MP2 TOTAL ENERGY:     -438.314872254 Eh
FINAL SINGLE POINT ENERGY      -438.314872254025

DIPOLE MOMENT
-------------
                                X             Y             Z
Electronic contribution:     -1.11942       2.39519      -0.51030
Nuclear contribution   :      2.11757      -3.89613       0.78716
                        -----------------------------------------
Total Dipole Moment    :      0.99815      -1.50094       0.27685
                        -----------------------------------------
Magnitude (a.u.)       :      1.82367
Magnitude (Debye)      :      4.63540

                             ****ORCA TERMINATED NORMALLY****
TOTAL RUN TIME: 0 days 0 hours 14 minutes 4 seconds 11 msec
