                         Program Version 3.0.3 - RELEASE   -
|  1> ! RI-MP2 RIJK def2-TZVP def2-TZVP/C def2-TZVP/JK TIGHTSCF
|  2> % maxcore 2000
|  3> % mp2 density relaxed end
|  4> *xyz 0 1
|  5>  O       -0.1118128169     1.4283794790     0.0779465593
|  6>  C        0.0223516259     0.0172832391     0.0038685388
|  7>  C        0.7712091529    -0.5350429404     1.2215704942
|  8>  O        0.9744051993    -1.9338369623     1.1196324958
|  9>  C       -0.1783926360    -2.6817677786     0.8458873547
| 10>  C       -1.4604854415    -2.5553576102     1.6413720809
| 11>  C       -1.4044151904    -2.0733386188     0.2105728674
| 12>  O       -2.1451044812    -2.8597471644    -0.6861297534
| 13>  C       -1.3892799980    -0.5693921892    -0.0679931065
| 14>  H        0.7656605937     1.8196607962     0.0153447178
| 15>  H        0.5856436214    -0.2809075734    -0.8951940408
| 16>  H        1.7718618548    -0.0951938257     1.2906651854
| 17>  H        0.2256749624    -0.2653462899     2.1396176843
| 18>  H        0.1016033572    -3.6808046830     0.5298594607
| 19>  H       -2.0064062209    -3.4723631868     1.8314078129
| 20>  H       -1.5359256949    -1.8057812182     2.4216042650
| 21>  H       -1.6902213648    -2.8510710196    -1.5359481613
| 22>  H       -2.0202336129    -0.0272597203     0.6454262456
| 23>  H       -1.8155146502    -0.3918897834    -1.0596413007
| 24> *
| 25>
| 26>                          ****END OF INPUT****

CARTESIAN COORDINATES (ANGSTROEM)
---------------------------------
  O     -0.111813    1.428379    0.077947
  C      0.022352    0.017283    0.003869
  C      0.771209   -0.535043    1.221570
  O      0.974405   -1.933837    1.119632
  C     -0.178393   -2.681768    0.845887
  C     -1.460485   -2.555358    1.641372
  C     -1.404415   -2.073339    0.210573
  O     -2.145104   -2.859747   -0.686130
  C     -1.389280   -0.569392   -0.067993
  H      0.765661    1.819661    0.015345
  H      0.585644   -0.280908   -0.895194
  H      1.771862   -0.095194    1.290665
  H      0.225675   -0.265346    2.139618
  H      0.101603   -3.680805    0.529859
  H     -2.006406   -3.472363    1.831408
  H     -1.535926   -1.805781    2.421604
  H     -1.690221   -2.851071   -1.535948
  H     -2.020234   -0.027260    0.645426
  H     -1.815515   -0.391890   -1.059641

 Total Charge           Charge          ....    0
 Multiplicity           Mult            ....    1
 Number of Electrons    NEL             ....   70
 Basis Dimension        Dim             ....  339

ORBITAL ENERGIES
----------------

  NO   OCC          E(Eh)            E(eV)
   0   2.0000     -20.568168      -559.6883
   1   2.0000     -20.567857      -559.6798
   2   2.0000     -20.566663      -559.6474
   3   2.0000     -11.291498      -307.2573
   4   2.0000     -11.289370      -307.1994
   5   2.0000     -11.285279      -307.0881
   6   2.0000     -11.281913      -306.9965
   7   2.0000     -11.230299      -305.5920
   8   2.0000     -11.224137      -305.4243
   9   2.0000      -1.395401       -37.9708
  10   2.0000      -1.374348       -37.3979
  11   2.0000      -1.370698       -37.2986
  12   2.0000      -1.128304       -30.7027
  13   2.0000      -1.051383       -28.6096
  14   2.0000      -0.944709       -25.7068
  15   2.0000      -0.860931       -23.4271
  16   2.0000      -0.811177       -22.0733
  17   2.0000      -0.763696       -20.7812
  18   2.0000      -0.725324       -19.7371
  19   2.0000      -0.705744       -19.2043
  20   2.0000      -0.689689       -18.7674
  21   2.0000      -0.638987       -17.3877
  22   2.0000      -0.634317       -17.2606
  23   2.0000      -0.618207       -16.8223
  24   2.0000      -0.578869       -15.7518
  25   2.0000      -0.567724       -15.4485
  26   2.0000      -0.552195       -15.0260
  27   2.0000      -0.546847       -14.8805
  28   2.0000      -0.531200       -14.4547
  29   2.0000      -0.519838       -14.1455
  30   2.0000      -0.489786       -13.3277
  31   2.0000      -0.478156       -13.0113
  32   2.0000      -0.446108       -12.1392
  33   2.0000      -0.404039       -10.9945
  34   2.0000      -0.369123       -10.0443
  35   0.0000       0.124557         3.3894
  36   0.0000       0.141810         3.8589
  37   0.0000       0.156574         4.2606
  38   0.0000       0.176873         4.8129
  39   0.0000       0.190469         5.1829

MULLIKEN ATOMIC CHARGES
-----------------------
   0 O :   -0.454293
   1 C :    0.058162
   2 C :   -0.100110
   3 O :   -0.295901
   4 C :    0.002180
   5 C :   -0.304738
   6 C :    0.185249
   7 O :   -0.457602
   8 C :   -0.244219
   9 H :    0.316649
  10 H :    0.075790
  11 H :    0.119145
  12 H :    0.110118
  13 H :    0.131970
  14 H :    0.135752
  15 H :    0.136928
  16 H :    0.319066
  17 H :    0.131921
  18 H :    0.133933
Sum of atomic charges:    0.0000000

LOEWDIN ATOMIC CHARGES
----------------------
   0 O :   -0.012143
   1 C :   -0.353893
   2 C :   -0.302016
   3 O :    0.189054
   4 C :   -0.273641
   5 C :   -0.189414
   6 C :   -0.346910
   7 O :    0.020934
   8 C :   -0.202669
   9 H :    0.175902
  10 H :    0.135523
  11 H :    0.129347
  12 H :    0.124980
  13 H :    0.145743
  14 H :    0.142307
  15 H :    0.137404
  16 H :    0.180111
  17 H :    0.151296
  18 H :    0.148085

  Mayer bond orders larger than 0.1
B(  0-O ,  1-C ) :   1.0209 B(  0-O ,  9-H ) :   0.8448 B(  1-C ,  2-C ) :   0.9057
B(  1-C ,  8-C ) :   0.9132 B(  1-C , 10-H ) :   0.9389 B(  2-C ,  3-O ) :   0.9332
B(  2-C , 11-H ) :   0.9237 B(  2-C , 12-H ) :   0.9364 B(  3-O ,  4-C ) :   0.9569
B(  4-C ,  5-C ) :   0.8952 B(  4-C ,  6-C ) :   0.8417 B(  4-C , 13-H ) :   0.9385
B(  5-C ,  6-C ) :   0.8406 B(  5-C , 14-H ) :   0.9131 B(  5-C , 15-H ) :   0.9154
B(  6-C ,  7-O ) :   0.9583 B(  6-C ,  8-C ) :   0.8863 B(  7-O , 16-H ) :   0.8412
B(  8-C , 17-H ) :   0.9135 B(  8-C , 18-H ) :   0.9358

MP2 TOTAL ENERGY:     -459.409359864 Eh
FINAL SINGLE POINT ENERGY      -459.409359864310

DIPOLE MOMENT
-------------
                                X             Y             Z
Electronic contribution:      0.82166      -1.30643      -1.06728
Nuclear contribution   :     -0.22745       1.59434       0.71834
                        -----------------------------------------
Total Dipole Moment    :      0.59421       0.28790      -0.34894
                        -----------------------------------------
Magnitude (a.u.)       :      0.74682
Magnitude (Debye)      :      1.89826

                             ****ORCA TERMINATED NORMALLY****
TOTAL RUN TIME: 0 days 0 hours 16 minutes 13 seconds 227 msec
