                         Program Version 3.0.3 - RELEASE   -
|  1> ! RI-MP2 RIJK def2-TZVP def2-TZVP/C def2-TZVP/JK TIGHTSCF
|  2> % maxcore 2000
|  3> % mp2 density relaxed end
|  4> *xyz 0 1
|  5>  C       -0.0341826713     1.5473693147    -0.0622795521
|  6>  C        0.0305838183     0.0296920810    -0.0239527491
|  7>  C       -1.1435841460    -0.6510982965    -0.5150190159
|  8>  N       -2.0829766049    -1.1973994094    -0.9104188087
|  9>  C        1.3495275988    -0.6794020532    -0.2445434731
| 10>  O        2.4305822211     0.1360224867    -0.5109166624
| 11>  C        0.7356645851    -0.6914615351     1.1516613963
| 12>  C        1.3488598379     0.0867438405     2.1866882560
| 13>  N        1.8678757591     0.6994351154     3.0193640163
| 14>  H        0.9082782545     1.9761833230     0.2760844863
| 15>  H       -0.2208753502     1.8836706274    -1.0852569541
| 16>  H       -0.8432426965     1.9098776719     0.5764546198
| 17>  H        1.3180399679    -1.6272859584    -0.7792954069
| 18>  H        3.2014640423    -0.1905933098    -0.0323232024
| 19>  H        0.2881850739    -1.6215404981     1.4843511401
| 20> *
| 21>
| 22>                          ****END OF INPUT****

CARTESIAN COORDINATES (ANGSTROEM)
---------------------------------
  C     -0.034183    1.547369   -0.062280
  C      0.030584    0.029692   -0.023953
  C     -1.143584   -0.651098   -0.515019
  N     -2.082977   -1.197399   -0.910419
  C      1.349528   -0.679402   -0.244543
  O      2.430582    0.136022   -0.510917
  C      0.735665   -0.691462    1.151661
  C      1.348860    0.086744    2.186688
  N      1.867876    0.699435    3.019364
  H      0.908278    1.976183    0.276084
  H     -0.220875    1.883671   -1.085257
  H     -0.843243    1.909878    0.576455
  H      1.318040   -1.627286   -0.779295
  H      3.201464   -0.190593   -0.032323
  H      0.288185   -1.621540    1.484351

 Total Charge           Charge          ....    0
 Multiplicity           Mult            ....    1
 Number of Electrons    NEL             ....   64
 Basis Dimension        Dim             ....  315

ORBITAL ENERGIES
----------------

  NO   OCC          E(Eh)            E(eV)
   0   2.0000     -20.613060      -560.9099
   1   2.0000     -15.592823      -424.3023
   2   2.0000     -15.590921      -424.2505
   3   2.0000     -11.354067      -308.9599
   4   2.0000     -11.328532      -308.2650
   5   2.0000     -11.319571      -308.0212
   6   2.0000     -11.297628      -307.4241
   7   2.0000     -11.293277      -307.3057
   8   2.0000     -11.257359      -306.3283
   9   2.0000      -1.430844       -38.9352
  10   2.0000      -1.253666       -34.1140
  11   2.0000      -1.238031       -33.6885
  12   2.0000      -1.198420       -32.6107
  13   2.0000      -1.028501       -27.9869
  14   2.0000      -0.947480       -25.7822
  15   2.0000      -0.888416       -24.1750
  16   2.0000      -0.776789       -21.1375
  17   2.0000      -0.768196       -20.9037
  18   2.0000      -0.700800       -19.0697
  19   2.0000      -0.650151       -17.6915
  20   2.0000      -0.637341       -17.3429
  21   2.0000      -0.615343       -16.7443
  22   2.0000      -0.585732       -15.9386
  23   2.0000      -0.578393       -15.7389
  24   2.0000      -0.568112       -15.4591
  25   2.0000      -0.560427       -15.2500
  26   2.0000      -0.527355       -14.3501
  27   2.0000      -0.517756       -14.0889
  28   2.0000      -0.495948       -13.4954
  29   2.0000      -0.487060       -13.2536
  30   2.0000      -0.444143       -12.0857
  31   2.0000      -0.427135       -11.6229
  32   0.0000       0.106279         2.8920
  33   0.0000       0.119619         3.2550
  34   0.0000       0.132021         3.5925
  35   0.0000       0.148642         4.0447
  36   0.0000       0.155485         4.2310

MULLIKEN ATOMIC CHARGES
-----------------------
   0 C :   -0.394893
   1 C :    0.161428
   2 C :   -0.180203
   3 N :   -0.040842
   4 C :    0.025176
   5 O :   -0.445409
   6 C :   -0.045735
   7 C :   -0.216408
   8 N :   -0.037538
   9 H :    0.174556
  10 H :    0.158031
  11 H :    0.157747
  12 H :    0.154561
  13 H :    0.345127
  14 H :    0.184403
Sum of atomic charges:    0.0000000

LOEWDIN ATOMIC CHARGES
----------------------
   0 C :   -0.226471
   1 C :   -0.204633
   2 C :   -0.146785
   3 N :    0.079533
   4 C :   -0.249443
   5 O :    0.043051
   6 C :   -0.145798
   7 C :   -0.177878
   8 N :    0.078291
   9 H :    0.143595
  10 H :    0.141206
  11 H :    0.140023
  12 H :    0.148896
  13 H :    0.196139
  14 H :    0.180274

  Mayer bond orders larger than 0.1
B(  0-C ,  1-C ) :   0.9520 B(  0-C ,  9-H ) :   0.9163 B(  0-C , 10-H ) :   0.9270
B(  0-C , 11-H ) :   0.9282 B(  1-C ,  2-C ) :   0.9177 B(  1-C ,  4-C ) :   0.7981
B(  1-C ,  6-C ) :   0.7935 B(  2-C ,  3-N ) :   2.8502 B(  4-C ,  5-O ) :   1.0891
B(  4-C ,  6-C ) :   0.8483 B(  4-C , 12-H ) :   0.9604 B(  5-O , 13-H ) :   0.8241
B(  6-C ,  7-C ) :   0.9804 B(  6-C , 14-H ) :   0.8981 B(  7-C ,  8-N ) :   2.8231

MP2 TOTAL ENERGY:     -416.112801083 Eh
FINAL SINGLE POINT ENERGY      -416.112801082537

DIPOLE MOMENT
-------------
                                X             Y             Z
Electronic contribution:     -0.44470      -2.83907       1.63932
Nuclear contribution   :      1.24899       2.49813      -1.97920
                        -----------------------------------------
Total Dipole Moment    :      0.80428      -0.34093      -0.33988
                        -----------------------------------------
Magnitude (a.u.)       :      0.93735
Magnitude (Debye)      :      2.38255

                             ****ORCA TERMINATED NORMALLY****
TOTAL RUN TIME: 0 days 0 hours 14 minutes 42 seconds 908 msec
