                         Program Version 3.0.3 - RELEASE   -
|  1> ! RI-MP2 RIJK def2-TZVP def2-TZVP/C def2-TZVP/JK TIGHTSCF
|  2> % maxcore 2000
|  3> % mp2 density relaxed end
|  4> *xyz 0 1
|  5>  C        0.1426129263     1.4995703399    -0.6192730212
|  6>  C       -0.0223437178     0.0740294808    -0.1432471593
|  7>  C        1.0979128636    -0.8758797679    -0.1423314627
|  8>  O        0.6604991622    -0.2554149254     1.0718708052
|  9>  C       -1.4471064059    -0.4541217254    -0.2072867839
| 10>  N       -1.6368092836    -1.8596008577     0.2428758890
| 11>  C       -2.5719203369    -1.4767345136     1.3384903062
| 12>  C       -2.3505662203    -0.0040699384     0.9667322250
| 13>  O       -2.7162055635     1.0495733924     1.3901158892
| 14>  H        1.1681160589     1.8369922686    -0.4530372075
| 15>  H       -0.0872991269     1.5860929558    -1.6869543271
| 16>  H       -0.5353515784     2.1618622509    -0.0713171750
| 17>  H        0.8889023195    -1.9408711720    -0.2076168241
| 18>  H        2.0714108001    -0.5499821849    -0.5075468381
| 19>  H       -1.8853363788    -0.2134940099    -1.1860531526
| 20>  H       -2.0716238759    -2.4418801445    -0.4621050859
| 21>  H       -3.6132085260    -1.8023643088     1.2214697409
| 22>  H       -2.2205217365    -1.7614536898     2.3360171021
| 23> *
| 24>
| 25>                          ****END OF INPUT****

CARTESIAN COORDINATES (ANGSTROEM)
---------------------------------
  C      0.142613    1.499570   -0.619273
  C     -0.022344    0.074029   -0.143247
  C      1.097913   -0.875880   -0.142331
  O      0.660499   -0.255415    1.071871
  C     -1.447106   -0.454122   -0.207287
  N     -1.636809   -1.859601    0.242876
  C     -2.571920   -1.476735    1.338490
  C     -2.350566   -0.004070    0.966732
  O     -2.716206    1.049573    1.390116
  H      1.168116    1.836992   -0.453037
  H     -0.087299    1.586093   -1.686954
  H     -0.535352    2.161862   -0.071317
  H      0.888902   -1.940871   -0.207617
  H      2.071411   -0.549982   -0.507547
  H     -1.885336   -0.213494   -1.186053
  H     -2.071624   -2.441880   -0.462105
  H     -3.613209   -1.802364    1.221470
  H     -2.220522   -1.761454    2.336017

 Total Charge           Charge          ....    0
 Multiplicity           Mult            ....    1
 Number of Electrons    NEL             ....   68
 Basis Dimension        Dim             ....  333

ORBITAL ENERGIES
----------------

  NO   OCC          E(Eh)            E(eV)
   0   2.0000     -20.564936      -559.6003
   1   2.0000     -20.564117      -559.5781
   2   2.0000     -15.566041      -423.5735
   3   2.0000     -11.341369      -308.6143
   4   2.0000     -11.298617      -307.4510
   5   2.0000     -11.282004      -306.9989
   6   2.0000     -11.279502      -306.9309
   7   2.0000     -11.273427      -306.7655
   8   2.0000     -11.226075      -305.4770
   9   2.0000      -1.413674       -38.4680
  10   2.0000      -1.406390       -38.2698
  11   2.0000      -1.251579       -34.0572
  12   2.0000      -1.037597       -28.2344
  13   2.0000      -0.953281       -25.9401
  14   2.0000      -0.946302       -25.7502
  15   2.0000      -0.907931       -24.7061
  16   2.0000      -0.802773       -21.8446
  17   2.0000      -0.732694       -19.9376
  18   2.0000      -0.710246       -19.3268
  19   2.0000      -0.689456       -18.7611
  20   2.0000      -0.657370       -17.8879
  21   2.0000      -0.635607       -17.2958
  22   2.0000      -0.619712       -16.8632
  23   2.0000      -0.587607       -15.9896
  24   2.0000      -0.571427       -15.5493
  25   2.0000      -0.556772       -15.1505
  26   2.0000      -0.553638       -15.0653
  27   2.0000      -0.523791       -14.2531
  28   2.0000      -0.519673       -14.1410
  29   2.0000      -0.509675       -13.8690
  30   2.0000      -0.453929       -12.3520
  31   2.0000      -0.446688       -12.1550
  32   2.0000      -0.404151       -10.9975
  33   2.0000      -0.393096       -10.6967
  34   0.0000       0.113592         3.0910
  35   0.0000       0.141484         3.8500
  36   0.0000       0.150283         4.0894
  37   0.0000       0.163487         4.4487
  38   0.0000       0.179503         4.8845

MULLIKEN ATOMIC CHARGES
-----------------------
   0 C :   -0.445749
   1 C :    0.179017
   2 C :   -0.078020
   3 O :   -0.350032
   4 C :    0.046680
   5 N :   -0.363415
   6 C :   -0.132371
   7 C :    0.101169
   8 O :   -0.245352
   9 H :    0.143582
  10 H :    0.130809
  11 H :    0.163170
  12 H :    0.128068
  13 H :    0.114802
  14 H :    0.126095
  15 H :    0.215123
  16 H :    0.132440
  17 H :    0.133986
Sum of atomic charges:   -0.0000000

LOEWDIN ATOMIC CHARGES
----------------------
   0 C :   -0.262382
   1 C :   -0.342104
   2 C :   -0.240889
   3 O :    0.169504
   4 C :   -0.211616
   5 N :    0.006184
   6 C :   -0.236651
   7 C :   -0.288822
   8 O :    0.177336
   9 H :    0.134049
  10 H :    0.129918
  11 H :    0.137453
  12 H :    0.123842
  13 H :    0.120182
  14 H :    0.153774
  15 H :    0.160498
  16 H :    0.131817
  17 H :    0.137909

  Mayer bond orders larger than 0.1
B(  0-C ,  1-C ) :   0.9000 B(  0-C ,  9-H ) :   0.9357 B(  0-C , 10-H ) :   0.9386
B(  0-C , 11-H ) :   0.9288 B(  1-C ,  2-C ) :   0.9904 B(  1-C ,  3-O ) :   0.8260
B(  1-C ,  4-C ) :   0.8821 B(  2-C ,  3-O ) :   0.9075 B(  2-C , 12-H ) :   0.8894
B(  2-C , 13-H ) :   0.9179 B(  4-C ,  5-N ) :   1.0196 B(  4-C ,  7-C ) :   0.7796
B(  4-C , 14-H ) :   0.8969 B(  5-N ,  6-C ) :   0.9713 B(  5-N , 15-H ) :   0.8739
B(  6-C ,  7-C ) :   0.9370 B(  6-C , 16-H ) :   0.9059 B(  6-C , 17-H ) :   0.9001
B(  7-C ,  8-O ) :   2.0362

MP2 TOTAL ENERGY:     -438.329525412 Eh
FINAL SINGLE POINT ENERGY      -438.329525412299

DIPOLE MOMENT
-------------
                                X             Y             Z
Electronic contribution:     -2.58165       0.12505       3.44883
Nuclear contribution   :      2.33496      -0.83965      -4.65735
                        -----------------------------------------
Total Dipole Moment    :     -0.24669      -0.71461      -1.20852
                        -----------------------------------------
Magnitude (a.u.)       :      1.42550
Magnitude (Debye)      :      3.62333

                             ****ORCA TERMINATED NORMALLY****
TOTAL RUN TIME: 0 days 0 hours 17 minutes 52 seconds 802 msec
