                         Program Version 3.0.3 - RELEASE   -
|  1> ! RI-MP2 RIJK def2-TZVP def2-TZVP/C def2-TZVP/JK TIGHTSCF
|  2> % maxcore 2000
|  3> % mp2 density relaxed end
|  4> *xyz 0 1
|  5>  O       -0.0718536002     1.4161605325    -0.2086816213
|  6>  C       -0.0351546403     0.0580760993     0.2048582856
|  7>  C       -1.4301495004    -0.5075620747     0.0206345524
|  8>  C       -1.8646311437    -0.7445522817    -1.4421085891
|  9>  O       -1.8909055618    -2.1801470456    -1.2479912515
| 10>  C       -1.5698620183    -2.0244950472     0.1345795875
| 11>  C       -0.7472170886    -3.0358992387     0.8653895243
| 12>  C       -2.2268972307    -2.8564151421     1.1851763324
| 13>  H        0.8169765590     1.7770760038    -0.1430428990
| 14>  H        0.6798713888    -0.5273154357    -0.3945237051
| 15>  H        0.2693196760    -0.0315966114     1.2604134800
| 16>  H       -2.1431626063     0.0666322130     0.6172735223
| 17>  H       -2.8519576727    -0.3543316074    -1.7123054046
| 18>  H       -1.1349577300    -0.4461026480    -2.2027034715
| 19>  H       -0.4616003042    -3.9230813482     0.3102730832
| 20>  H       -0.0136952352    -2.6996495731     1.5911865591
| 21>  H       -2.5020294173    -2.3890929686     2.1256237767
| 22>  H       -2.9072866741    -3.6288840362     0.8432149685
| 23> *
| 24>
| 25>                          ****END OF INPUT****

CARTESIAN COORDINATES (ANGSTROEM)
---------------------------------
  O     -0.071854    1.416161   -0.208682
  C     -0.035155    0.058076    0.204858
  C     -1.430150   -0.507562    0.020635
  C     -1.864631   -0.744552   -1.442109
  O     -1.890906   -2.180147   -1.247991
  C     -1.569862   -2.024495    0.134580
  C     -0.747217   -3.035899    0.865390
  C     -2.226897   -2.856415    1.185176
  H      0.816977    1.777076   -0.143043
  H      0.679871   -0.527315   -0.394524
  H      0.269320   -0.031597    1.260413
  H     -2.143163    0.066632    0.617274
  H     -2.851958   -0.354332   -1.712305
  H     -1.134958   -0.446103   -2.202703
  H     -0.461600   -3.923081    0.310273
  H     -0.013695   -2.699650    1.591187
  H     -2.502029   -2.389093    2.125624
  H     -2.907287   -3.628884    0.843215

 Total Charge           Charge          ....    0
 Multiplicity           Mult            ....    1
 Number of Electrons    NEL             ....   62
 Basis Dimension        Dim             ....  308

ORBITAL ENERGIES
----------------

  NO   OCC          E(Eh)            E(eV)
   0   2.0000     -20.563428      -559.5593
   1   2.0000     -20.547158      -559.1166
   2   2.0000     -11.288302      -307.1703
   3   2.0000     -11.283448      -307.0382
   4   2.0000     -11.274718      -306.8007
   5   2.0000     -11.235474      -305.7328
   6   2.0000     -11.226060      -305.4766
   7   2.0000     -11.224384      -305.4310
   8   2.0000      -1.382172       -37.6108
   9   2.0000      -1.366619       -37.1876
  10   2.0000      -1.128997       -30.7216
  11   2.0000      -1.043656       -28.3993
  12   2.0000      -0.906795       -24.6751
  13   2.0000      -0.855221       -23.2717
  14   2.0000      -0.830068       -22.5873
  15   2.0000      -0.732917       -19.9437
  16   2.0000      -0.704876       -19.1807
  17   2.0000      -0.679736       -18.4965
  18   2.0000      -0.657432       -17.8896
  19   2.0000      -0.648490       -17.6463
  20   2.0000      -0.616605       -16.7787
  21   2.0000      -0.576015       -15.6742
  22   2.0000      -0.569207       -15.4889
  23   2.0000      -0.522741       -14.2245
  24   2.0000      -0.516514       -14.0551
  25   2.0000      -0.502054       -13.6616
  26   2.0000      -0.493471       -13.4280
  27   2.0000      -0.469832       -12.7848
  28   2.0000      -0.443410       -12.0658
  29   2.0000      -0.410505       -11.1704
  30   2.0000      -0.372284       -10.1304
  31   0.0000       0.129873         3.5340
  32   0.0000       0.149905         4.0791
  33   0.0000       0.162104         4.4111
  34   0.0000       0.178930         4.8689
  35   0.0000       0.184548         5.0218

MULLIKEN ATOMIC CHARGES
-----------------------
   0 O :   -0.465439
   1 C :   -0.143777
   2 C :    0.016970
   3 C :   -0.043923
   4 O :   -0.319901
   5 C :    0.122787
   6 C :   -0.262429
   7 C :   -0.277355
   8 H :    0.318323
   9 H :    0.117775
  10 H :    0.096546
  11 H :    0.113465
  12 H :    0.098406
  13 H :    0.104344
  14 H :    0.135134
  15 H :    0.126453
  16 H :    0.127188
  17 H :    0.135434
Sum of atomic charges:   -0.0000000

LOEWDIN ATOMIC CHARGES
----------------------
   0 O :   -0.044809
   1 C :   -0.330234
   2 C :   -0.202058
   3 C :   -0.228436
   4 O :    0.164315
   5 C :   -0.293130
   6 C :   -0.210334
   7 C :   -0.207521
   8 H :    0.173530
   9 H :    0.123605
  10 H :    0.117581
  11 H :    0.152266
  12 H :    0.118843
  13 H :    0.121893
  14 H :    0.139665
  15 H :    0.131909
  16 H :    0.133238
  17 H :    0.139674

  Mayer bond orders larger than 0.1
B(  0-O ,  1-C ) :   1.0278 B(  0-O ,  8-H ) :   0.8472 B(  1-C ,  2-C ) :   0.9006
B(  1-C ,  9-H ) :   0.9246 B(  1-C , 10-H ) :   0.9332 B(  2-C ,  3-C ) :   0.9721
B(  2-C ,  5-C ) :   0.8800 B(  2-C , 11-H ) :   0.9123 B(  3-C ,  4-O ) :   0.9365
B(  3-C , 12-H ) :   0.9143 B(  3-C , 13-H ) :   0.9035 B(  4-O ,  5-C ) :   0.9870
B(  5-C ,  6-C ) :   0.8514 B(  5-C ,  7-C ) :   0.8704 B(  6-C ,  7-C ) :   0.9168
B(  6-C , 14-H ) :   0.9151 B(  6-C , 15-H ) :   0.9152 B(  7-C , 16-H ) :   0.9177
B(  7-C , 17-H ) :   0.9178

MP2 TOTAL ENERGY:     -384.259409611 Eh
FINAL SINGLE POINT ENERGY      -384.259409610757

DIPOLE MOMENT
-------------
                                X             Y             Z
Electronic contribution:     -0.94290       0.70502      -2.33778
Nuclear contribution   :      1.59470      -0.37526       2.90358
                        -----------------------------------------
Total Dipole Moment    :      0.65180       0.32976       0.56580
                        -----------------------------------------
Magnitude (a.u.)       :      0.92397
Magnitude (Debye)      :      2.34854

                             ****ORCA TERMINATED NORMALLY****
TOTAL RUN TIME: 0 days 0 hours 11 minutes 42 seconds 954 msec
