                         Program Version 3.0.3 - RELEASE   -
|  1> ! RI-MP2 RIJK def2-TZVP def2-TZVP/C def2-TZVP/JK TIGHTSCF
|  2> % maxcore 2000
|  3> % mp2 density relaxed end
|  4> *xyz 0 1
|  5>  C       -0.3106261192     1.5117991680    -0.0332352877
|  6>  N        0.0834164999     0.1214593279     0.0108787226
|  7>  C        1.0478561197    -0.4522810400    -0.9466524620
|  8>  C        2.3992094435     0.3041645790    -1.0318419258
|  9>  C        3.0466246718    -0.1451604009     0.2984198685
| 10>  C        2.1568202947     0.3150644535     1.4761624881
| 11>  C        0.8461608779    -0.4432120568     1.1402822851
| 12>  C        1.4092841172    -1.5199639152     0.1461522599
| 13>  O        2.8085776597    -1.5632934317     0.2815770140
| 14>  H        0.5141845632     2.2417041363     0.0432373076
| 15>  H       -0.8376037732     1.7067581675    -0.9737613059
| 16>  H       -1.0076716692     1.7144264697     0.7873572971
| 17>  H        0.6279516602    -0.7433268015    -1.9127790692
| 18>  H        2.9938286025    -0.0585237998    -1.8754149428
| 19>  H        2.2861484514     1.3869682223    -1.1266927997
| 20>  H        4.1153783507     0.0429820744     0.4008934960
| 21>  H        2.5785903051    -0.0398448428     2.4210855300
| 22>  H        2.0285831936     1.3985498801     1.5382732283
| 23>  H        0.2487716605    -0.7262765938     2.0105861061
| 24>  H        0.9694432001    -2.5120754362     0.1079538399
| 25> *
| 26>
| 27>                          ****END OF INPUT****

CARTESIAN COORDINATES (ANGSTROEM)
---------------------------------
  C     -0.310626    1.511799   -0.033235
  N      0.083416    0.121459    0.010879
  C      1.047856   -0.452281   -0.946652
  C      2.399209    0.304165   -1.031842
  C      3.046625   -0.145160    0.298420
  C      2.156820    0.315064    1.476162
  C      0.846161   -0.443212    1.140282
  C      1.409284   -1.519964    0.146152
  O      2.808578   -1.563293    0.281577
  H      0.514185    2.241704    0.043237
  H     -0.837604    1.706758   -0.973761
  H     -1.007672    1.714426    0.787357
  H      0.627952   -0.743327   -1.912779
  H      2.993829   -0.058524   -1.875415
  H      2.286148    1.386968   -1.126693
  H      4.115378    0.042982    0.400893
  H      2.578590   -0.039845    2.421086
  H      2.028583    1.398550    1.538273
  H      0.248772   -0.726277    2.010586
  H      0.969443   -2.512075    0.107954

 Total Charge           Charge          ....    0
 Multiplicity           Mult            ....    1
 Number of Electrons    NEL             ....   68
 Basis Dimension        Dim             ....  345

ORBITAL ENERGIES
----------------

  NO   OCC          E(Eh)            E(eV)
   0   2.0000     -20.553008      -559.2758
   1   2.0000     -15.543334      -422.9556
   2   2.0000     -11.279905      -306.9418
   3   2.0000     -11.276359      -306.8453
   4   2.0000     -11.255701      -306.2832
   5   2.0000     -11.255690      -306.2829
   6   2.0000     -11.243142      -305.9414
   7   2.0000     -11.222836      -305.3889
   8   2.0000     -11.222823      -305.3885
   9   2.0000      -1.396282       -37.9948
  10   2.0000      -1.245327       -33.8871
  11   2.0000      -1.049342       -28.5540
  12   2.0000      -1.005716       -27.3669
  13   2.0000      -1.005306       -27.3558
  14   2.0000      -0.873787       -23.7770
  15   2.0000      -0.826755       -22.4972
  16   2.0000      -0.789614       -21.4865
  17   2.0000      -0.733097       -19.9486
  18   2.0000      -0.717714       -19.5300
  19   2.0000      -0.659274       -17.9398
  20   2.0000      -0.645009       -17.5516
  21   2.0000      -0.605403       -16.4739
  22   2.0000      -0.588912       -16.0251
  23   2.0000      -0.572100       -15.5676
  24   2.0000      -0.547047       -14.8859
  25   2.0000      -0.546315       -14.8660
  26   2.0000      -0.532925       -14.5016
  27   2.0000      -0.508177       -13.8282
  28   2.0000      -0.492750       -13.4084
  29   2.0000      -0.485472       -13.2104
  30   2.0000      -0.451703       -12.2915
  31   2.0000      -0.434362       -11.8196
  32   2.0000      -0.406910       -11.0726
  33   2.0000      -0.347833        -9.4650
  34   0.0000       0.136133         3.7044
  35   0.0000       0.163797         4.4572
  36   0.0000       0.167395         4.5550
  37   0.0000       0.173861         4.7310
  38   0.0000       0.188164         5.1202

MULLIKEN ATOMIC CHARGES
-----------------------
   0 C :   -0.325656
   1 N :   -0.163640
   2 C :    0.029087
   3 C :   -0.369401
   4 C :    0.193468
   5 C :   -0.369397
   6 C :    0.029088
   7 C :   -0.085842
   8 O :   -0.314385
   9 H :    0.096719
  10 H :    0.140487
  11 H :    0.140486
  12 H :    0.119959
  13 H :    0.120392
  14 H :    0.131047
  15 H :    0.127084
  16 H :    0.120392
  17 H :    0.131047
  18 H :    0.119959
  19 H :    0.129104
Sum of atomic charges:    0.0000000

LOEWDIN ATOMIC CHARGES
----------------------
   0 C :   -0.339361
   1 N :    0.108298
   2 C :   -0.221096
   3 C :   -0.218886
   4 C :   -0.283205
   5 C :   -0.218885
   6 C :   -0.221097
   7 C :   -0.240149
   8 O :    0.201008
   9 H :    0.097550
  10 H :    0.120503
  11 H :    0.120504
  12 H :    0.131857
  13 H :    0.141669
  14 H :    0.137189
  15 H :    0.136829
  16 H :    0.141669
  17 H :    0.137190
  18 H :    0.131857
  19 H :    0.136558

  Mayer bond orders larger than 0.1
B(  0-C ,  1-N ) :   0.9027 B(  0-C ,  9-H ) :   0.9184 B(  0-C , 10-H ) :   0.9378
B(  0-C , 11-H ) :   0.9378 B(  1-N ,  2-C ) :   0.9914 B(  1-N ,  6-C ) :   0.9914
B(  2-C ,  3-C ) :   0.8985 B(  2-C ,  7-C ) :   0.8834 B(  2-C , 12-H ) :   0.9229
B(  3-C ,  4-C ) :   0.9047 B(  3-C , 13-H ) :   0.9138 B(  3-C , 14-H ) :   0.9376
B(  4-C ,  5-C ) :   0.9047 B(  4-C ,  8-O ) :   0.8728 B(  4-C , 15-H ) :   0.9287
B(  5-C ,  6-C ) :   0.8985 B(  5-C , 16-H ) :   0.9138 B(  5-C , 17-H ) :   0.9376
B(  6-C ,  7-C ) :   0.8834 B(  6-C , 18-H ) :   0.9229 B(  7-C ,  8-O ) :   1.0349
B(  7-C , 19-H ) :   0.9029

MP2 TOTAL ENERGY:     -402.454791642 Eh
FINAL SINGLE POINT ENERGY      -402.454791642158

DIPOLE MOMENT
-------------
                                X             Y             Z
Electronic contribution:      1.82134      -5.45647       0.19971
Nuclear contribution   :     -1.86816       6.10068      -0.20703
                        -----------------------------------------
Total Dipole Moment    :     -0.04682       0.64421      -0.00732
                        -----------------------------------------
Magnitude (a.u.)       :      0.64595
Magnitude (Debye)      :      1.64189

                             ****ORCA TERMINATED NORMALLY****
TOTAL RUN TIME: 0 days 0 hours 19 minutes 50 seconds 392 msec
