                         Program Version 3.0.3 - RELEASE   -
|  1> ! RI-MP2 RIJK def2-TZVP def2-TZVP/C def2-TZVP/JK TIGHTSCF
|  2> % maxcore 2000
|  3> % mp2 density relaxed end
|  4> *xyz 0 1
|  5>  O        0.2679971604     1.1546733245    -0.7906607319
|  6>  C        0.0518467125    -0.0370055018    -0.0866386892
|  7>  C        0.1473309992     0.0057235433     1.4696967357
|  8>  C       -1.2977477323    -0.5627290218     1.5860313641
|  9>  C       -2.3886678516     0.4075026365     2.0752144881
| 10>  C       -2.7237975030     1.3074359020     0.8706247925
| 11>  O       -1.7934049997     2.3937965664     0.7193005485
| 12>  C       -2.5502444981     0.3863754978    -0.3460812856
| 13>  C       -1.4172249907    -0.5854250052     0.0215638706
| 14>  H       -0.2828203710     1.8319428367    -0.3688511233
| 15>  H        0.7265731779    -0.7747555417    -0.5303379115
| 16>  H        0.9292573857    -0.6261622412     1.8993789045
| 17>  H        0.2702149700     1.0173898376     1.8647913613
| 18>  H       -1.3568386769    -1.5276745191     2.0925786887
| 19>  H       -3.2918650765    -0.1492533877     2.3531728418
| 20>  H       -2.0903848756     0.9887843422     2.9568141053
| 21>  H       -3.7385444365     1.7215261470     0.9348445449
| 22>  H       -1.7374004444     2.8686338863     1.5544839290
| 23>  H       -3.4812106529    -0.1662086550    -0.5095598164
| 24>  H       -2.3409903968     0.9628930264    -1.2512874096
| 25>  H       -1.5527821996    -1.5621539833    -0.4477363176
| 26> *
| 27>
| 28>                          ****END OF INPUT****

CARTESIAN COORDINATES (ANGSTROEM)
---------------------------------
  O      0.267997    1.154673   -0.790661
  C      0.051847   -0.037006   -0.086639
  C      0.147331    0.005724    1.469697
  C     -1.297748   -0.562729    1.586031
  C     -2.388668    0.407503    2.075214
  C     -2.723798    1.307436    0.870625
  O     -1.793405    2.393797    0.719301
  C     -2.550244    0.386375   -0.346081
  C     -1.417225   -0.585425    0.021564
  H     -0.282820    1.831943   -0.368851
  H      0.726573   -0.774756   -0.530338
  H      0.929257   -0.626162    1.899379
  H      0.270215    1.017390    1.864791
  H     -1.356839   -1.527675    2.092579
  H     -3.291865   -0.149253    2.353173
  H     -2.090385    0.988784    2.956814
  H     -3.738544    1.721526    0.934845
  H     -1.737400    2.868634    1.554484
  H     -3.481211   -0.166209   -0.509560
  H     -2.340990    0.962893   -1.251287
  H     -1.552782   -1.562154   -0.447736

 Total Charge           Charge          ....    0
 Multiplicity           Mult            ....    1
 Number of Electrons    NEL             ....   70
 Basis Dimension        Dim             ....  351

ORBITAL ENERGIES
----------------

  NO   OCC          E(Eh)            E(eV)
   0   2.0000     -20.570883      -559.7622
   1   2.0000     -20.529496      -558.6360
   2   2.0000     -11.286892      -307.1320
   3   2.0000     -11.265118      -306.5394
   4   2.0000     -11.229016      -305.5571
   5   2.0000     -11.225886      -305.4719
   6   2.0000     -11.220439      -305.3237
   7   2.0000     -11.218760      -305.2780
   8   2.0000     -11.212199      -305.0994
   9   2.0000      -1.376270       -37.4502
  10   2.0000      -1.341148       -36.4945
  11   2.0000      -1.141288       -31.0560
  12   2.0000      -1.030455       -28.0401
  13   2.0000      -0.977926       -26.6107
  14   2.0000      -0.888298       -24.1718
  15   2.0000      -0.849937       -23.1280
  16   2.0000      -0.782662       -21.2973
  17   2.0000      -0.734081       -19.9754
  18   2.0000      -0.711169       -19.3519
  19   2.0000      -0.676402       -18.4058
  20   2.0000      -0.656365       -17.8606
  21   2.0000      -0.631982       -17.1971
  22   2.0000      -0.604523       -16.4499
  23   2.0000      -0.576553       -15.6888
  24   2.0000      -0.568942       -15.4817
  25   2.0000      -0.550500       -14.9799
  26   2.0000      -0.534507       -14.5447
  27   2.0000      -0.519492       -14.1361
  28   2.0000      -0.512028       -13.9330
  29   2.0000      -0.480461       -13.0740
  30   2.0000      -0.463783       -12.6202
  31   2.0000      -0.441349       -12.0097
  32   2.0000      -0.436376       -11.8744
  33   2.0000      -0.409935       -11.1549
  34   2.0000      -0.392496       -10.6803
  35   0.0000       0.122735         3.3398
  36   0.0000       0.146091         3.9753
  37   0.0000       0.164175         4.4674
  38   0.0000       0.170878         4.6498
  39   0.0000       0.187258         5.0956

MULLIKEN ATOMIC CHARGES
-----------------------
   0 O :   -0.466864
   1 C :    0.018423
   2 C :   -0.245862
   3 C :   -0.005663
   4 C :   -0.350513
   5 C :    0.106302
   6 O :   -0.516870
   7 C :   -0.297832
   8 C :   -0.047119
   9 H :    0.339648
  10 H :    0.094226
  11 H :    0.114566
  12 H :    0.094061
  13 H :    0.107901
  14 H :    0.118307
  15 H :    0.131973
  16 H :    0.104300
  17 H :    0.320499
  18 H :    0.122402
  19 H :    0.150123
  20 H :    0.107992
Sum of atomic charges:    0.0000000

LOEWDIN ATOMIC CHARGES
----------------------
   0 O :   -0.014186
   1 C :   -0.312714
   2 C :   -0.210274
   3 C :   -0.196687
   4 C :   -0.231239
   5 C :   -0.321692
   6 O :   -0.029096
   7 C :   -0.220149
   8 C :   -0.180465
   9 H :    0.168580
  10 H :    0.135034
  11 H :    0.127892
  12 H :    0.128532
  13 H :    0.139111
  14 H :    0.144666
  15 H :    0.134973
  16 H :    0.132017
  17 H :    0.172858
  18 H :    0.144673
  19 H :    0.147844
  20 H :    0.140323

  Mayer bond orders larger than 0.1
B(  0-O ,  1-C ) :   1.0186 B(  0-O ,  9-H ) :   0.8076 B(  1-C ,  2-C ) :   0.9370
B(  1-C ,  8-C ) :   0.8950 B(  1-C , 10-H ) :   0.9403 B(  2-C ,  3-C ) :   0.9462
B(  2-C , 11-H ) :   0.9168 B(  2-C , 12-H ) :   0.9094 B(  3-C ,  4-C ) :   0.8811
B(  3-C ,  8-C ) :   0.9243 B(  3-C , 13-H ) :   0.9169 B(  4-C ,  5-C ) :   0.9397
B(  4-C , 14-H ) :   0.9221 B(  4-C , 15-H ) :   0.9368 B(  5-C ,  6-O ) :   0.8851
B(  5-C ,  7-C ) :   0.9164 B(  5-C , 16-H ) :   0.9430 B(  6-O , 17-H ) :   0.8407
B(  7-C ,  8-C ) :   0.9088 B(  7-C , 18-H ) :   0.9210 B(  7-C , 19-H ) :   0.9242
B(  8-C , 20-H ) :   0.9080

MP2 TOTAL ENERGY:     -423.536354265 Eh
FINAL SINGLE POINT ENERGY      -423.536354265148

DIPOLE MOMENT
-------------
                                X             Y             Z
Electronic contribution:      1.49709       1.85189      -2.09679
Nuclear contribution   :     -2.35075      -2.02794       3.14584
                        -----------------------------------------
Total Dipole Moment    :     -0.85367      -0.17605       1.04905
                        -----------------------------------------
Magnitude (a.u.)       :      1.36391
Magnitude (Debye)      :      3.46678

                             ****ORCA TERMINATED NORMALLY****
TOTAL RUN TIME: 0 days 0 hours 19 minutes 41 seconds 16 msec
