                         Program Version 3.0.3 - RELEASE   -
|  1> ! RI-MP2 RIJK def2-TZVP def2-TZVP/C def2-TZVP/JK TIGHTSCF
|  2> % maxcore 2000
|  3> % mp2 density relaxed end
|  4> *xyz 0 1
|  5>  O       -0.7567842555     1.0783215026     0.6877513671
|  6>  C        0.1182862518     1.1272739931    -0.1382030637
|  7>  C        1.3443603079     2.0117160836    -0.0613022489
|  8>  C        1.2531574960     3.0616890202    -1.2147224117
|  9>  C        0.6852001993     4.2725026876    -0.5126739631
| 10>  C        0.7516396558     4.1604051502     0.8118398338
| 11>  C        1.3952949573     2.8624990689     1.2427737022
| 12>  C        0.8030321422     2.1898631944     2.4817125312
| 13>  O        1.3699540588     1.3056801939     3.0713554652
| 14>  H        0.0596538949     0.5168872164    -1.0679185341
| 15>  H        2.2204222825     1.3656265599    -0.1794021588
| 16>  H        2.2435122654     3.2717998950    -1.6387850411
| 17>  H        0.6305465334     2.7128113592    -2.0484589225
| 18>  H        0.3075640763     5.1323271959    -1.0538971272
| 19>  H        0.4342800970     4.9146648207     1.5231682950
| 20>  H        2.4512791418     3.0324642080     1.4989048688
| 21>  H       -0.1601246849     2.6069846403     2.8410458577
| 22> *
| 23>
| 24>                          ****END OF INPUT****

CARTESIAN COORDINATES (ANGSTROEM)
---------------------------------
  O     -0.756784    1.078322    0.687751
  C      0.118286    1.127274   -0.138203
  C      1.344360    2.011716   -0.061302
  C      1.253157    3.061689   -1.214722
  C      0.685200    4.272503   -0.512674
  C      0.751640    4.160405    0.811840
  C      1.395295    2.862499    1.242774
  C      0.803032    2.189863    2.481713
  O      1.369954    1.305680    3.071355
  H      0.059654    0.516887   -1.067919
  H      2.220422    1.365627   -0.179402
  H      2.243512    3.271800   -1.638785
  H      0.630547    2.712811   -2.048459
  H      0.307564    5.132327   -1.053897
  H      0.434280    4.914665    1.523168
  H      2.451279    3.032464    1.498905
  H     -0.160125    2.606985    2.841046

 Total Charge           Charge          ....    0
 Multiplicity           Mult            ....    1
 Number of Electrons    NEL             ....   66
 Basis Dimension        Dim             ....  327

ORBITAL ENERGIES
----------------

  NO   OCC          E(Eh)            E(eV)
   0   2.0000     -20.569308      -559.7193
   1   2.0000     -20.545273      -559.0653
   2   2.0000     -11.343278      -308.6663
   3   2.0000     -11.327314      -308.2319
   4   2.0000     -11.267376      -306.6009
   5   2.0000     -11.259165      -306.3775
   6   2.0000     -11.257419      -306.3300
   7   2.0000     -11.248177      -306.0785
   8   2.0000     -11.245660      -306.0100
   9   2.0000      -1.410880       -38.3920
  10   2.0000      -1.386295       -37.7230
  11   2.0000      -1.168233       -31.7892
  12   2.0000      -1.020620       -27.7725
  13   2.0000      -1.009247       -27.4630
  14   2.0000      -0.889291       -24.1988
  15   2.0000      -0.818687       -22.2776
  16   2.0000      -0.772509       -21.0210
  17   2.0000      -0.754923       -20.5425
  18   2.0000      -0.707997       -19.2656
  19   2.0000      -0.688526       -18.7358
  20   2.0000      -0.655367       -17.8334
  21   2.0000      -0.643637       -17.5142
  22   2.0000      -0.603404       -16.4194
  23   2.0000      -0.581069       -15.8117
  24   2.0000      -0.568584       -15.4720
  25   2.0000      -0.558636       -15.2013
  26   2.0000      -0.542394       -14.7593
  27   2.0000      -0.515552       -14.0289
  28   2.0000      -0.500647       -13.6233
  29   2.0000      -0.492233       -13.3943
  30   2.0000      -0.432061       -11.7570
  31   2.0000      -0.415890       -11.3169
  32   2.0000      -0.367389        -9.9972
  33   0.0000       0.113155         3.0791
  34   0.0000       0.133600         3.6354
  35   0.0000       0.138402         3.7661
  36   0.0000       0.140275         3.8171
  37   0.0000       0.163202         4.4410

MULLIKEN ATOMIC CHARGES
-----------------------
   0 O :   -0.262733
   1 C :    0.052331
   2 C :   -0.025552
   3 C :   -0.206742
   4 C :   -0.164419
   5 C :   -0.243802
   6 C :    0.048291
   7 C :    0.081907
   8 O :   -0.270276
   9 H :    0.100349
  10 H :    0.140698
  11 H :    0.132643
  12 H :    0.129260
  13 H :    0.138318
  14 H :    0.139657
  15 H :    0.119544
  16 H :    0.090526
Sum of atomic charges:   -0.0000000

LOEWDIN ATOMIC CHARGES
----------------------
   0 O :    0.163886
   1 C :   -0.266145
   2 C :   -0.195374
   3 C :   -0.207248
   4 C :   -0.150939
   5 C :   -0.133609
   6 C :   -0.203023
   7 C :   -0.278228
   8 O :    0.128678
   9 H :    0.119475
  10 H :    0.164821
  11 H :    0.145246
  12 H :    0.142616
  13 H :    0.139740
  14 H :    0.142723
  15 H :    0.173541
  16 H :    0.113840

  Mayer bond orders larger than 0.1
B(  0-O ,  1-C ) :   1.9544 B(  1-C ,  2-C ) :   0.8597 B(  1-C ,  9-H ) :   0.9410
B(  2-C ,  3-C ) :   0.8961 B(  2-C ,  6-C ) :   0.9023 B(  2-C , 10-H ) :   0.9028
B(  3-C ,  4-C ) :   0.9510 B(  3-C , 11-H ) :   0.9057 B(  3-C , 12-H ) :   0.9239
B(  4-C ,  5-C ) :   1.7684 B(  4-C , 13-H ) :   0.9251 B(  5-C ,  6-C ) :   0.9041
B(  5-C , 14-H ) :   0.9209 B(  6-C ,  7-C ) :   0.8272 B(  6-C , 15-H ) :   0.8939
B(  7-C ,  8-O ) :   1.9876 B(  7-C , 16-H ) :   0.9494

MP2 TOTAL ENERGY:     -421.133074729 Eh
FINAL SINGLE POINT ENERGY      -421.133074729007

DIPOLE MOMENT
-------------
                                X             Y             Z
Electronic contribution:     -1.52748      -3.12240       4.26811
Nuclear contribution   :      1.96354       4.02453      -5.60721
                        -----------------------------------------
Total Dipole Moment    :      0.43606       0.90213      -1.33910
                        -----------------------------------------
Magnitude (a.u.)       :      1.67247
Magnitude (Debye)      :      4.25108

                             ****ORCA TERMINATED NORMALLY****
TOTAL RUN TIME: 0 days 0 hours 21 minutes 17 seconds 338 msec
