                         Program Version 3.0.3 - RELEASE   -
|  1> ! RI-MP2 RIJK def2-TZVP def2-TZVP/C def2-TZVP/JK TIGHTSCF
|  2> % maxcore 2000
|  3> % mp2 density relaxed end
|  4> *xyz 0 1
|  5>  C        0.0594240271     1.4829054726     0.1304311202
|  6>  C       -0.0422775913    -0.0032530140    -0.0383565903
|  7>  C       -0.9805028813    -0.8393106960     0.7804936281
|  8>  C       -1.0826399724    -2.2335562757     0.1917988070
|  9>  C        0.3923624501    -2.0058652951    -0.1773618306
| 10>  N        0.5115024503    -0.9604298985     0.9821059830
| 11>  C        0.4580905372    -0.8513477892    -1.2149001564
| 12>  C       -0.3852789569    -0.9234414093    -2.4867089157
| 13>  C        1.9190995441    -0.5301475117    -1.5503448081
| 14>  H        1.0605440361     1.8452997776    -0.1240132403
| 15>  H       -0.6635145472     2.0021091434    -0.5091844199
| 16>  H       -0.1440329530     1.7658943645     1.1678894192
| 17>  H       -1.6094415037    -0.3941754795     1.5447012978
| 18>  H       -1.1725913694    -2.9766558579     0.9889096085
| 19>  H       -1.8090440525    -2.4526400385    -0.5964505264
| 20>  H        1.1036773972    -2.8300851165    -0.2250317841
| 21>  H       -1.4455907522    -1.0834190949    -2.2767104328
| 22>  H       -0.2998768351     0.0092070130    -3.0559804659
| 23>  H       -0.0421910762    -1.7346841728    -3.1396148983
| 24>  H        2.3357274109    -1.2979664346    -2.2118697497
| 25>  H        2.0068586238     0.4314118859    -2.0681665183
| 26>  H        2.5333372645    -0.4882014232    -0.6465403069
| 27> *
| 28>
| 29>                          ****END OF INPUT****

CARTESIAN COORDINATES (ANGSTROEM)
---------------------------------
  C      0.059424    1.482905    0.130431
  C     -0.042278   -0.003253   -0.038357
  C     -0.980503   -0.839311    0.780494
  C     -1.082640   -2.233556    0.191799
  C      0.392362   -2.005865   -0.177362
  N      0.511502   -0.960430    0.982106
  C      0.458091   -0.851348   -1.214900
  C     -0.385279   -0.923441   -2.486709
  C      1.919100   -0.530148   -1.550345
  H      1.060544    1.845300   -0.124013
  H     -0.663515    2.002109   -0.509184
  H     -0.144033    1.765894    1.167889
  H     -1.609442   -0.394175    1.544701
  H     -1.172591   -2.976656    0.988910
  H     -1.809044   -2.452640   -0.596451
  H      1.103677   -2.830085   -0.225032
  H     -1.445591   -1.083419   -2.276710
  H     -0.299877    0.009207   -3.055980
  H     -0.042191   -1.734684   -3.139615
  H      2.335727   -1.297966   -2.211870
  H      2.006859    0.431412   -2.068167
  H      2.533337   -0.488201   -0.646540

 Total Charge           Charge          ....    0
 Multiplicity           Mult            ....    1
 Number of Electrons    NEL             ....   68
 Basis Dimension        Dim             ....  357

ORBITAL ENERGIES
----------------

  NO   OCC          E(Eh)            E(eV)
   0   2.0000     -15.551547      -423.1791
   1   2.0000     -11.260237      -306.4066
   2   2.0000     -11.259712      -306.3923
   3   2.0000     -11.255897      -306.2885
   4   2.0000     -11.240343      -305.8653
   5   2.0000     -11.228422      -305.5409
   6   2.0000     -11.220224      -305.3178
   7   2.0000     -11.215552      -305.1907
   8   2.0000     -11.212676      -305.1124
   9   2.0000      -1.310717       -35.6664
  10   2.0000      -1.065713       -28.9995
  11   2.0000      -1.022347       -27.8195
  12   2.0000      -0.962211       -26.1831
  13   2.0000      -0.933077       -25.3903
  14   2.0000      -0.898767       -24.4567
  15   2.0000      -0.841887       -22.9089
  16   2.0000      -0.743457       -20.2305
  17   2.0000      -0.683881       -18.6093
  18   2.0000      -0.675201       -18.3732
  19   2.0000      -0.634475       -17.2649
  20   2.0000      -0.617437       -16.8013
  21   2.0000      -0.576552       -15.6888
  22   2.0000      -0.567548       -15.4438
  23   2.0000      -0.556542       -15.1443
  24   2.0000      -0.551415       -15.0048
  25   2.0000      -0.532588       -14.4925
  26   2.0000      -0.529972       -14.4213
  27   2.0000      -0.517601       -14.0847
  28   2.0000      -0.492253       -13.3949
  29   2.0000      -0.477706       -12.9990
  30   2.0000      -0.432614       -11.7720
  31   2.0000      -0.414151       -11.2696
  32   2.0000      -0.396515       -10.7897
  33   2.0000      -0.365079        -9.9343
  34   0.0000       0.131666         3.5828
  35   0.0000       0.158376         4.3096
  36   0.0000       0.163260         4.4425
  37   0.0000       0.170595         4.6421
  38   0.0000       0.193450         5.2641

MULLIKEN ATOMIC CHARGES
-----------------------
   0 C :   -0.457707
   1 C :    0.073567
   2 C :   -0.166932
   3 C :   -0.178236
   4 C :   -0.066535
   5 N :   -0.233122
   6 C :    0.200167
   7 C :   -0.424196
   8 C :   -0.488693
   9 H :    0.143172
  10 H :    0.136952
  11 H :    0.143108
  12 H :    0.126789
  13 H :    0.118901
  14 H :    0.113085
  15 H :    0.131030
  16 H :    0.134964
  17 H :    0.132816
  18 H :    0.132763
  19 H :    0.133687
  20 H :    0.133722
  21 H :    0.160698
Sum of atomic charges:   -0.0000000

LOEWDIN ATOMIC CHARGES
----------------------
   0 C :   -0.266279
   1 C :   -0.240547
   2 C :   -0.192543
   3 C :   -0.215368
   4 C :   -0.148888
   5 N :    0.154551
   6 C :   -0.261302
   7 C :   -0.267149
   8 C :   -0.262951
   9 H :    0.130715
  10 H :    0.130890
  11 H :    0.135932
  12 H :    0.134579
  13 H :    0.143467
  14 H :    0.124687
  15 H :    0.131200
  16 H :    0.125231
  17 H :    0.128645
  18 H :    0.127861
  19 H :    0.126636
  20 H :    0.124931
  21 H :    0.135702

  Mayer bond orders larger than 0.1
B(  0-C ,  1-C ) :   0.8566 B(  0-C ,  9-H ) :   0.9418 B(  0-C , 10-H ) :   0.9426
B(  0-C , 11-H ) :   0.9361 B(  1-C ,  2-C ) :   0.9066 B(  1-C ,  5-N ) :   0.8421
B(  1-C ,  6-C ) :   0.8805 B(  2-C ,  3-C ) :   0.9632 B(  2-C ,  5-N ) :   0.9085
B(  2-C , 12-H ) :   0.9168 B(  3-C ,  4-C ) :   0.9345 B(  3-C , 13-H ) :   0.9140
B(  3-C , 14-H ) :   0.9138 B(  4-C ,  5-N ) :   0.9453 B(  4-C ,  6-C ) :   0.9288
B(  4-C , 15-H ) :   0.9024 B(  6-C ,  7-C ) :   0.8905 B(  6-C ,  8-C ) :   0.8733
B(  7-C , 16-H ) :   0.9365 B(  7-C , 17-H ) :   0.9354 B(  7-C , 18-H ) :   0.9334
B(  8-C , 19-H ) :   0.9358 B(  8-C , 20-H ) :   0.9408 B(  8-C , 21-H ) :   0.9348

MP2 TOTAL ENERGY:     -366.514051953 Eh
FINAL SINGLE POINT ENERGY      -366.514051952662

DIPOLE MOMENT
-------------
                                X             Y             Z
Electronic contribution:     -0.83553      -2.29599       4.93414
Nuclear contribution   :      0.44498       2.31108      -5.51381
                        -----------------------------------------
Total Dipole Moment    :     -0.39055       0.01510      -0.57967
                        -----------------------------------------
Magnitude (a.u.)       :      0.69913
Magnitude (Debye)      :      1.77704

                             ****ORCA TERMINATED NORMALLY****
TOTAL RUN TIME: 0 days 0 hours 23 minutes 35 seconds 564 msec
