                         Program Version 3.0.3 - RELEASE   -
|  1> ! RI-MP2 RIJK def2-TZVP def2-TZVP/C def2-TZVP/JK TIGHTSCF
|  2> % maxcore 2000
|  3> % mp2 density relaxed end
|  4> *xyz 0 1
|  5>  O        0.1082144473     1.4072005795    -0.1930403572
|  6>  C        0.0511003372     0.0616963612    -0.0487382442
|  7>  C       -0.2499725357    -0.8297579798    -1.2250295067
|  8>  C       -1.1085051143    -0.9839182592    -0.0004648025
|  9>  O       -0.3729323342    -1.7510280459     0.9894870556
| 10>  C        0.6050633217    -0.7554690878     1.0791673233
| 11>  N        1.5353834722    -0.5851203259     1.8938109779
| 12>  C       -2.5148079492    -0.8651758127     0.1145679354
| 13>  N       -3.6629525708    -0.7436778765     0.2007419993
| 14>  H        0.0804880343     1.8165426551     0.6811955361
| 15>  H       -0.7172211989    -0.2901930215    -2.0436167030
| 16>  H        0.4070810677    -1.6468533131    -1.5072941588
| 17>  H        1.5870590425    -1.3334393633     2.5863314549
| 18> *
| 19>
| 20>                          ****END OF INPUT****

CARTESIAN COORDINATES (ANGSTROEM)
---------------------------------
  O      0.108214    1.407201   -0.193040
  C      0.051100    0.061696   -0.048738
  C     -0.249973   -0.829758   -1.225030
  C     -1.108505   -0.983918   -0.000465
  O     -0.372932   -1.751028    0.989487
  C      0.605063   -0.755469    1.079167
  N      1.535383   -0.585120    1.893811
  C     -2.514808   -0.865176    0.114568
  N     -3.662953   -0.743678    0.200742
  H      0.080488    1.816543    0.681196
  H     -0.717221   -0.290193   -2.043617
  H      0.407081   -1.646853   -1.507294
  H      1.587059   -1.333439    2.586331

 Total Charge           Charge          ....    0
 Multiplicity           Mult            ....    1
 Number of Electrons    NEL             ....   64
 Basis Dimension        Dim             ....  303

ORBITAL ENERGIES
----------------

  NO   OCC          E(Eh)            E(eV)
   0   2.0000     -20.632703      -561.4444
   1   2.0000     -20.623518      -561.1944
   2   2.0000     -15.598887      -424.4673
   3   2.0000     -15.577452      -423.8840
   4   2.0000     -11.378278      -309.6187
   5   2.0000     -11.368257      -309.3460
   6   2.0000     -11.362921      -309.2008
   7   2.0000     -11.299977      -307.4880
   8   2.0000     -11.295732      -307.3725
   9   2.0000      -1.484175       -40.3864
  10   2.0000      -1.435595       -39.0645
  11   2.0000      -1.245475       -33.8911
  12   2.0000      -1.234488       -33.5921
  13   2.0000      -1.172336       -31.9009
  14   2.0000      -0.977394       -26.5962
  15   2.0000      -0.920840       -25.0573
  16   2.0000      -0.822676       -22.3862
  17   2.0000      -0.781987       -21.2790
  18   2.0000      -0.749323       -20.3901
  19   2.0000      -0.698621       -19.0104
  20   2.0000      -0.680184       -18.5088
  21   2.0000      -0.658136       -17.9088
  22   2.0000      -0.616768       -16.7831
  23   2.0000      -0.599606       -16.3161
  24   2.0000      -0.586590       -15.9619
  25   2.0000      -0.570612       -15.5271
  26   2.0000      -0.539158       -14.6712
  27   2.0000      -0.517831       -14.0909
  28   2.0000      -0.481840       -13.1115
  29   2.0000      -0.472476       -12.8567
  30   2.0000      -0.442422       -12.0389
  31   2.0000      -0.402719       -10.9585
  32   0.0000       0.109430         2.9778
  33   0.0000       0.118837         3.2337
  34   0.0000       0.137152         3.7321
  35   0.0000       0.142007         3.8642
  36   0.0000       0.155446         4.2299

MULLIKEN ATOMIC CHARGES
-----------------------
   0 O :   -0.420306
   1 C :    0.164953
   2 C :   -0.198139
   3 C :    0.280199
   4 O :   -0.256422
   5 C :    0.096788
   6 N :   -0.342449
   7 C :   -0.209191
   8 N :   -0.039007
   9 H :    0.349189
  10 H :    0.164087
  11 H :    0.163200
  12 H :    0.247098
Sum of atomic charges:   -0.0000000

LOEWDIN ATOMIC CHARGES
----------------------
   0 O :    0.089817
   1 C :   -0.280419
   2 C :   -0.113865
   3 C :   -0.230313
   4 O :    0.259161
   5 C :   -0.354798
   6 N :   -0.016660
   7 C :   -0.149874
   8 N :    0.096652
   9 H :    0.206214
  10 H :    0.163429
  11 H :    0.147953
  12 H :    0.182703

  Mayer bond orders larger than 0.1
B(  0-O ,  1-C ) :   1.1463 B(  0-O ,  9-H ) :   0.8187 B(  1-C ,  2-C ) :   0.8871
B(  1-C ,  3-C ) :   0.7138 B(  1-C ,  5-C ) :   0.9447 B(  2-C ,  3-C ) :   0.8718
B(  2-C , 10-H ) :   0.9123 B(  2-C , 11-H ) :   0.9001 B(  3-C ,  4-O ) :   0.9138
B(  3-C ,  7-C ) :   0.9336 B(  4-O ,  5-C ) :   1.0232 B(  5-C ,  6-N ) :   2.0993
B(  6-N , 12-H ) :   0.8411 B(  7-C ,  8-N ) :   2.8236

MP2 TOTAL ENERGY:     -451.973101436 Eh
FINAL SINGLE POINT ENERGY      -451.973101436395

DIPOLE MOMENT
-------------
                                X             Y             Z
Electronic contribution:     -2.56257      -0.64797       1.30408
Nuclear contribution   :      3.43753       0.64362      -1.49054
                        -----------------------------------------
Total Dipole Moment    :      0.87496      -0.00434      -0.18645
                        -----------------------------------------
Magnitude (a.u.)       :      0.89462
Magnitude (Debye)      :      2.27394

                             ****ORCA TERMINATED NORMALLY****
TOTAL RUN TIME: 0 days 0 hours 13 minutes 52 seconds 137 msec
