                         Program Version 3.0.3 - RELEASE   -
|  1> ! RI-MP2 RIJK def2-TZVP def2-TZVP/C def2-TZVP/JK TIGHTSCF
|  2> % maxcore 2000
|  3> % mp2 density relaxed end
|  4> *xyz 0 1
|  5>  O        0.0254835949     1.3977386300     0.1592763095
|  6>  C        0.0051574382     0.0111100441     0.0032952628
|  7>  C       -1.4230702307    -0.5473700148    -0.1105472593
|  8>  C       -1.4029698331    -2.0644215252    -0.1903431527
|  9>  O       -2.1975591257    -2.7877239101     0.3342148205
| 10>  O       -0.3516461563    -2.6159777229    -0.8721221910
| 11>  C        0.4662270474    -1.8272125336    -1.7333415608
| 12>  C        0.7386883397    -0.4116793030    -1.2528658417
| 13>  O        1.4366695032     0.3559751475    -1.8730601952
| 14>  H        0.6692192898     1.7289807483    -0.4868195722
| 15>  H        0.5004261462    -0.4883386261     0.8564566306
| 16>  H       -2.0295665754    -0.2617622266     0.7490256361
| 17>  H       -1.9070030201    -0.1361799477    -1.0056003920
| 18>  H        1.4137494360    -2.3625800606    -1.8394557235
| 19>  H        0.0150870162    -1.7626767194    -2.7326271509
| 20> *
| 21>
| 22>                          ****END OF INPUT****

CARTESIAN COORDINATES (ANGSTROEM)
---------------------------------
  O      0.025484    1.397739    0.159276
  C      0.005157    0.011110    0.003295
  C     -1.423070   -0.547370   -0.110547
  C     -1.402970   -2.064422   -0.190343
  O     -2.197559   -2.787724    0.334215
  O     -0.351646   -2.615978   -0.872122
  C      0.466227   -1.827213   -1.733342
  C      0.738688   -0.411679   -1.252866
  O      1.436670    0.355975   -1.873060
  H      0.669219    1.728981   -0.486820
  H      0.500426   -0.488339    0.856457
  H     -2.029567   -0.261762    0.749026
  H     -1.907003   -0.136180   -1.005600
  H      1.413749   -2.362580   -1.839456
  H      0.015087   -1.762677   -2.732627

 Total Charge           Charge          ....    0
 Multiplicity           Mult            ....    1
 Number of Electrons    NEL             ....   68
 Basis Dimension        Dim             ....  315

ORBITAL ENERGIES
----------------

  NO   OCC          E(Eh)            E(eV)
   0   2.0000     -20.626733      -561.2819
   1   2.0000     -20.594288      -560.3991
   2   2.0000     -20.585237      -560.1528
   3   2.0000     -20.560950      -559.4919
   4   2.0000     -11.403458      -310.3039
   5   2.0000     -11.373470      -309.4878
   6   2.0000     -11.336863      -308.4917
   7   2.0000     -11.330372      -308.3151
   8   2.0000     -11.277472      -306.8756
   9   2.0000      -1.480520       -40.2870
  10   2.0000      -1.445277       -39.3280
  11   2.0000      -1.393001       -37.9055
  12   2.0000      -1.386363       -37.7249
  13   2.0000      -1.105293       -30.0765
  14   2.0000      -1.043913       -28.4063
  15   2.0000      -0.933999       -25.4154
  16   2.0000      -0.852785       -23.2055
  17   2.0000      -0.779703       -21.2168
  18   2.0000      -0.747331       -20.3359
  19   2.0000      -0.724283       -19.7088
  20   2.0000      -0.711430       -19.3590
  21   2.0000      -0.690944       -18.8015
  22   2.0000      -0.667534       -18.1645
  23   2.0000      -0.641528       -17.4569
  24   2.0000      -0.636179       -17.3113
  25   2.0000      -0.604991       -16.4626
  26   2.0000      -0.582176       -15.8418
  27   2.0000      -0.569391       -15.4939
  28   2.0000      -0.564200       -15.3527
  29   2.0000      -0.540034       -14.6951
  30   2.0000      -0.493993       -13.4422
  31   2.0000      -0.478450       -13.0193
  32   2.0000      -0.461064       -12.5462
  33   2.0000      -0.445558       -12.1242
  34   0.0000       0.096056         2.6138
  35   0.0000       0.118384         3.2214
  36   0.0000       0.142714         3.8835
  37   0.0000       0.153288         4.1712
  38   0.0000       0.165674         4.5082

MULLIKEN ATOMIC CHARGES
-----------------------
   0 O :   -0.461577
   1 C :    0.072612
   2 C :   -0.200981
   3 C :    0.207225
   4 O :   -0.260134
   5 O :   -0.215647
   6 C :   -0.058873
   7 C :    0.116247
   8 O :   -0.296155
   9 H :    0.339566
  10 H :    0.124121
  11 H :    0.167726
  12 H :    0.145948
  13 H :    0.166956
  14 H :    0.152965
Sum of atomic charges:    0.0000000

LOEWDIN ATOMIC CHARGES
----------------------
   0 O :    0.009797
   1 C :   -0.335806
   2 C :   -0.196639
   3 C :   -0.464189
   4 O :    0.158037
   5 O :    0.254030
   6 C :   -0.249636
   7 C :   -0.315421
   8 O :    0.160532
   9 H :    0.188765
  10 H :    0.161216
  11 H :    0.163219
  12 H :    0.161610
  13 H :    0.154422
  14 H :    0.150063

  Mayer bond orders larger than 0.1
B(  0-O ,  1-C ) :   1.0803 B(  0-O ,  9-H ) :   0.8054 B(  1-C ,  2-C ) :   0.8343
B(  1-C ,  7-C ) :   0.9185 B(  1-C , 10-H ) :   0.9101 B(  2-C ,  3-C ) :   0.9249
B(  2-C , 11-H ) :   0.9054 B(  2-C , 12-H ) :   0.9001 B(  3-C ,  4-O ) :   2.0504
B(  3-C ,  5-O ) :   1.0713 B(  5-O ,  6-C ) :   0.8929 B(  6-C ,  7-C ) :   0.8883
B(  6-C , 13-H ) :   0.9088 B(  6-C , 14-H ) :   0.9211 B(  7-C ,  8-O ) :   1.9184

MP2 TOTAL ENERGY:     -494.184403760 Eh
FINAL SINGLE POINT ENERGY      -494.184403759617

DIPOLE MOMENT
-------------
                                X             Y             Z
Electronic contribution:      0.13838      -1.79642       0.13539
Nuclear contribution   :      0.39656       2.10577      -0.72057
                        -----------------------------------------
Total Dipole Moment    :      0.53494       0.30935      -0.58518
                        -----------------------------------------
Magnitude (a.u.)       :      0.85105
Magnitude (Debye)      :      2.16320

                             ****ORCA TERMINATED NORMALLY****
TOTAL RUN TIME: 0 days 0 hours 15 minutes 29 seconds 932 msec
