                         Program Version 3.0.3 - RELEASE   -
|  1> ! RI-MP2 RIJK def2-TZVP def2-TZVP/C def2-TZVP/JK TIGHTSCF
|  2> % maxcore 2000
|  3> % mp2 density relaxed end
|  4> *xyz 0 1
|  5>  C        0.0825903586     1.4851544530     0.0630593466
|  6>  C        0.0035024565    -0.0013528975     0.1305236367
|  7>  O       -0.7163824078    -0.7106834003    -0.8911775075
|  8>  C       -1.2361303327    -1.6501127497     0.0908815999
|  9>  C       -0.4142035474    -1.0213880464     1.2027825884
| 10>  C        1.0144545181    -0.9165760697     0.7357818997
| 11>  C        2.0016067684    -1.9025161143     0.1239566398
| 12>  C        3.0053064729    -1.2321594790     1.0884131512
| 13>  O        1.9741073838    -0.3763561872     1.6458536488
| 14>  H        0.7220042561     1.8529516198     0.8697042193
| 15>  H        0.5245692967     1.7940930449    -0.8914325093
| 16>  H       -0.9053261528     1.9485175078     0.1455737343
| 17>  H       -2.3184297621    -1.5223623996     0.2093229882
| 18>  H       -1.0179851204    -2.6915469469    -0.1768949123
| 19>  H       -0.6927912043    -0.8929238727     2.2407051978
| 20>  H        1.7977993459    -2.9551957351     0.3305161757
| 21>  H        2.1930688131    -1.7702817677    -0.9415869026
| 22>  H        3.4433672500    -1.8791914696     1.8553145563
| 23>  H        3.7985177274    -0.6455489696     0.6118290491
| 24> *
| 25>
| 26>                          ****END OF INPUT****

CARTESIAN COORDINATES (ANGSTROEM)
---------------------------------
  C      0.082590    1.485154    0.063059
  C      0.003502   -0.001353    0.130524
  O     -0.716382   -0.710683   -0.891178
  C     -1.236130   -1.650113    0.090882
  C     -0.414204   -1.021388    1.202783
  C      1.014455   -0.916576    0.735782
  C      2.001607   -1.902516    0.123957
  C      3.005306   -1.232159    1.088413
  O      1.974107   -0.376356    1.645854
  H      0.722004    1.852952    0.869704
  H      0.524569    1.794093   -0.891433
  H     -0.905326    1.948518    0.145574
  H     -2.318430   -1.522362    0.209323
  H     -1.017985   -2.691547   -0.176895
  H     -0.692791   -0.892924    2.240705
  H      1.797799   -2.955196    0.330516
  H      2.193069   -1.770282   -0.941587
  H      3.443367   -1.879191    1.855315
  H      3.798518   -0.645549    0.611829

 Total Charge           Charge          ....    0
 Multiplicity           Mult            ....    1
 Number of Electrons    NEL             ....   68
 Basis Dimension        Dim             ....  339

ORBITAL ENERGIES
----------------

  NO   OCC          E(Eh)            E(eV)
   0   2.0000     -20.556545      -559.3720
   1   2.0000     -20.554335      -559.3119
   2   2.0000     -11.292095      -307.2735
   3   2.0000     -11.289538      -307.2040
   4   2.0000     -11.286520      -307.1218
   5   2.0000     -11.285112      -307.0835
   6   2.0000     -11.234508      -305.7065
   7   2.0000     -11.232840      -305.6611
   8   2.0000     -11.219868      -305.3081
   9   2.0000      -1.401012       -38.1235
  10   2.0000      -1.379042       -37.5256
  11   2.0000      -1.107972       -30.1495
  12   2.0000      -1.016015       -27.6472
  13   2.0000      -0.998772       -27.1780
  14   2.0000      -0.923267       -25.1234
  15   2.0000      -0.863961       -23.5096
  16   2.0000      -0.752015       -20.4634
  17   2.0000      -0.725701       -19.7473
  18   2.0000      -0.689621       -18.7655
  19   2.0000      -0.676507       -18.4087
  20   2.0000      -0.659713       -17.9517
  21   2.0000      -0.644099       -17.5268
  22   2.0000      -0.584829       -15.9140
  23   2.0000      -0.577246       -15.7077
  24   2.0000      -0.568320       -15.4648
  25   2.0000      -0.545556       -14.8453
  26   2.0000      -0.538475       -14.6526
  27   2.0000      -0.515202       -14.0194
  28   2.0000      -0.506858       -13.7923
  29   2.0000      -0.485887       -13.2217
  30   2.0000      -0.473308       -12.8794
  31   2.0000      -0.457924       -12.4608
  32   2.0000      -0.379344       -10.3225
  33   2.0000      -0.354461        -9.6454
  34   0.0000       0.139971         3.8088
  35   0.0000       0.157296         4.2803
  36   0.0000       0.164137         4.4664
  37   0.0000       0.178133         4.8472
  38   0.0000       0.182512         4.9664

MULLIKEN ATOMIC CHARGES
-----------------------
   0 C :   -0.429881
   1 C :    0.180708
   2 O :   -0.334756
   3 C :   -0.019637
   4 C :   -0.210774
   5 C :    0.171004
   6 C :   -0.267953
   7 C :   -0.002617
   8 O :   -0.342664
   9 H :    0.157712
  10 H :    0.139097
  11 H :    0.136863
  12 H :    0.108939
  13 H :    0.101429
  14 H :    0.145363
  15 H :    0.122175
  16 H :    0.141274
  17 H :    0.103283
  18 H :    0.100435
Sum of atomic charges:   -0.0000000

LOEWDIN ATOMIC CHARGES
----------------------
   0 C :   -0.267013
   1 C :   -0.269544
   2 O :    0.164833
   3 C :   -0.237289
   4 C :   -0.147493
   5 C :   -0.263753
   6 C :   -0.201175
   7 C :   -0.250661
   8 O :    0.168635
   9 H :    0.141416
  10 H :    0.136011
  11 H :    0.130380
  12 H :    0.124380
  13 H :    0.118553
  14 H :    0.142583
  15 H :    0.135577
  16 H :    0.139051
  17 H :    0.117611
  18 H :    0.117896

  Mayer bond orders larger than 0.1
B(  0-C ,  1-C ) :   0.8795 B(  0-C ,  9-H ) :   0.9284 B(  0-C , 10-H ) :   0.9355
B(  0-C , 11-H ) :   0.9357 B(  1-C ,  2-O ) :   0.9739 B(  1-C ,  4-C ) :   0.8842
B(  1-C ,  5-C ) :   0.8488 B(  2-O ,  3-C ) :   0.9247 B(  3-C ,  4-C ) :   0.9655
B(  3-C , 12-H ) :   0.9086 B(  3-C , 13-H ) :   0.9167 B(  4-C ,  5-C ) :   0.8471
B(  4-C , 14-H ) :   0.8984 B(  5-C ,  6-C ) :   0.8839 B(  5-C ,  8-O ) :   0.9482
B(  6-C ,  7-C ) :   0.9930 B(  6-C , 15-H ) :   0.9156 B(  6-C , 16-H ) :   0.9216
B(  7-C ,  8-O ) :   0.9240 B(  7-C , 17-H ) :   0.9148 B(  7-C , 18-H ) :   0.9148

MP2 TOTAL ENERGY:     -422.246987988 Eh
FINAL SINGLE POINT ENERGY      -422.246987987835

DIPOLE MOMENT
-------------
                                X             Y             Z
Electronic contribution:     -0.86871      -0.57663       0.46773
Nuclear contribution   :      1.03468       0.14064      -0.29754
                        -----------------------------------------
Total Dipole Moment    :      0.16597      -0.43599       0.17020
                        -----------------------------------------
Magnitude (a.u.)       :      0.49659
Magnitude (Debye)      :      1.26224

                             ****ORCA TERMINATED NORMALLY****
TOTAL RUN TIME: 0 days 0 hours 16 minutes 28 seconds 318 msec
