                         Program Version 3.0.3 - RELEASE   -
|  1> ! RI-MP2 RIJK def2-TZVP def2-TZVP/C def2-TZVP/JK TIGHTSCF
|  2> % maxcore 2000
|  3> % mp2 density relaxed end
|  4> *xyz 0 1
|  5>  N        0.6875940016     0.2523677313    -0.6252861873
|  6>  C       -0.2013262327     0.1184900122     0.3810784841
|  7>  O       -0.1720457948     0.6930428044     1.4454930667
|  8>  C       -1.3878439184    -0.8550763599     0.0574127870
|  9>  C       -2.3019237286    -0.2450203266    -0.9051638629
| 10>  N       -3.0323525008     0.2342596729    -1.6616221995
| 11>  C       -0.9084309070    -2.2172533998    -0.4990917268
| 12>  N       -1.3908436963    -3.2962586552     0.1572652927
| 13>  O       -0.1500681750    -2.2911886730    -1.4478932143
| 14>  H        1.5066531817     0.8136929576    -0.4546346669
| 15>  H        0.6842745577    -0.4264620544    -1.3764439652
| 16>  H       -1.9108054767    -0.9731455819     1.0090687640
| 17>  H       -2.0568186893    -3.2230665512     0.9060224993
| 18>  H       -1.1416443114    -4.2116152964    -0.1831803710
| 19> *
| 20>
| 21>                          ****END OF INPUT****

CARTESIAN COORDINATES (ANGSTROEM)
---------------------------------
  N      0.687594    0.252368   -0.625286
  C     -0.201326    0.118490    0.381078
  O     -0.172046    0.693043    1.445493
  C     -1.387844   -0.855076    0.057413
  C     -2.301924   -0.245020   -0.905164
  N     -3.032353    0.234260   -1.661622
  C     -0.908431   -2.217253   -0.499092
  N     -1.390844   -3.296259    0.157265
  O     -0.150068   -2.291189   -1.447893
  H      1.506653    0.813693   -0.454635
  H      0.684275   -0.426462   -1.376444
  H     -1.910805   -0.973146    1.009069
  H     -2.056819   -3.223067    0.906022
  H     -1.141644   -4.211615   -0.183180

 Total Charge           Charge          ....    0
 Multiplicity           Mult            ....    1
 Number of Electrons    NEL             ....   66
 Basis Dimension        Dim             ....  309

ORBITAL ENERGIES
----------------

  NO   OCC          E(Eh)            E(eV)
   0   2.0000     -20.565460      -559.6146
   1   2.0000     -20.548464      -559.1521
   2   2.0000     -15.628919      -425.2845
   3   2.0000     -15.596673      -424.4071
   4   2.0000     -15.592415      -424.2912
   5   2.0000     -11.408385      -310.4379
   6   2.0000     -11.388781      -309.9045
   7   2.0000     -11.328234      -308.2569
   8   2.0000     -11.297079      -307.4092
   9   2.0000      -1.434476       -39.0341
  10   2.0000      -1.413078       -38.4518
  11   2.0000      -1.261175       -34.3183
  12   2.0000      -1.243163       -33.8282
  13   2.0000      -1.232050       -33.5258
  14   2.0000      -1.095303       -29.8047
  15   2.0000      -0.870979       -23.7006
  16   2.0000      -0.834809       -22.7163
  17   2.0000      -0.786811       -21.4102
  18   2.0000      -0.760015       -20.6811
  19   2.0000      -0.741392       -20.1743
  20   2.0000      -0.711649       -19.3649
  21   2.0000      -0.665333       -18.1046
  22   2.0000      -0.645221       -17.5573
  23   2.0000      -0.621842       -16.9212
  24   2.0000      -0.610017       -16.5994
  25   2.0000      -0.586911       -15.9707
  26   2.0000      -0.569774       -15.5043
  27   2.0000      -0.504932       -13.7399
  28   2.0000      -0.494525       -13.4567
  29   2.0000      -0.470149       -12.7934
  30   2.0000      -0.459446       -12.5022
  31   2.0000      -0.443569       -12.0701
  32   2.0000      -0.431564       -11.7435
  33   0.0000       0.096898         2.6367
  34   0.0000       0.125169         3.4060
  35   0.0000       0.136038         3.7018
  36   0.0000       0.145130         3.9492
  37   0.0000       0.146434         3.9847

MULLIKEN ATOMIC CHARGES
-----------------------
   0 N :   -0.458686
   1 C :    0.243611
   2 O :   -0.319403
   3 C :    0.044351
   4 C :   -0.209040
   5 N :   -0.049346
   6 C :    0.333901
   7 N :   -0.464410
   8 O :   -0.374619
   9 H :    0.262109
  10 H :    0.297892
  11 H :    0.145996
  12 H :    0.273861
  13 H :    0.273782
Sum of atomic charges:   -0.0000000

LOEWDIN ATOMIC CHARGES
----------------------
   0 N :    0.018498
   1 C :   -0.452890
   2 O :    0.107326
   3 C :   -0.173420
   4 C :   -0.162343
   5 N :    0.080482
   6 C :   -0.442657
   7 N :    0.017844
   8 O :    0.093903
   9 H :    0.180285
  10 H :    0.184706
  11 H :    0.184753
  12 H :    0.179636
  13 H :    0.183877

  Mayer bond orders larger than 0.1
B(  0-N ,  1-C ) :   1.2268 B(  0-N ,  9-H ) :   0.8581 B(  0-N , 10-H ) :   0.8238
B(  1-C ,  2-O ) :   2.0064 B(  1-C ,  3-C ) :   0.8264 B(  3-C ,  4-C ) :   0.9196
B(  3-C ,  6-C ) :   0.8471 B(  3-C , 11-H ) :   0.8974 B(  4-C ,  5-N ) :   2.8455
B(  6-C ,  7-N ) :   1.2071 B(  6-C ,  8-O ) :   1.8560 B(  7-N , 12-H ) :   0.8634
B(  7-N , 13-H ) :   0.8525

MP2 TOTAL ENERGY:     -469.335876594 Eh
FINAL SINGLE POINT ENERGY      -469.335876593834

DIPOLE MOMENT
-------------
                                X             Y             Z
Electronic contribution:     -1.19126       1.72837      -0.74496
Nuclear contribution   :      1.63696      -3.41099       1.44439
                        -----------------------------------------
Total Dipole Moment    :      0.44570      -1.68262       0.69944
                        -----------------------------------------
Magnitude (a.u.)       :      1.87592
Magnitude (Debye)      :      4.76821

                             ****ORCA TERMINATED NORMALLY****
TOTAL RUN TIME: 0 days 0 hours 14 minutes 39 seconds 164 msec
