                         Program Version 3.0.3 - RELEASE   -
|  1> ! RI-MP2 RIJK def2-TZVP def2-TZVP/C def2-TZVP/JK TIGHTSCF
|  2> % maxcore 2000
|  3> % mp2 density relaxed end
|  4> *xyz 0 1
|  5>  C       -0.1330021846     1.3591561317     0.0096176825
|  6>  O        0.1747762975    -0.0188401104     0.0625321114
|  7>  C        0.7263694766    -0.5260636773    -1.1047507081
|  8>  C        0.0009894721    -0.5171412194    -2.5034893833
|  9>  C        1.0605977062    -1.6411604645    -2.7693102466
| 10>  C        2.3574909176    -0.8308464514    -2.6317634429
| 11>  C        2.1448266020    -0.0926266637    -1.5407892813
| 12>  C        0.8049325642    -2.0806852982    -1.2749265248
| 13>  C        1.7924895923    -2.9253901999    -0.4916477311
| 14>  H        0.7561275270     1.9733862964    -0.1935759131
| 15>  H       -0.8853804237     1.5771238537    -0.7621345315
| 16>  H       -0.5369474389     1.6356893020     0.9861634748
| 17>  H       -1.0288262965    -0.8844345433    -2.4573030267
| 18>  H        0.0785894400     0.3858786049    -3.1119748294
| 19>  H        0.9604512641    -2.3393871098    -3.5980857811
| 20>  H        3.2238061062    -0.8874261398    -3.2758939203
| 21>  H        2.7826404318     0.6154305532    -1.0313040829
| 22>  H       -0.2028728713    -2.5013918995    -1.1803156627
| 23>  H        2.8113777338    -2.5386849855    -0.5730526372
| 24>  H        1.5185740905    -2.9461001854     0.5684990630
| 25>  H        1.7887927933    -3.9594357838    -0.8536769586
| 26> *
| 27>
| 28>                          ****END OF INPUT****

CARTESIAN COORDINATES (ANGSTROEM)
---------------------------------
  C     -0.133002    1.359156    0.009618
  O      0.174776   -0.018840    0.062532
  C      0.726369   -0.526064   -1.104751
  C      0.000989   -0.517141   -2.503489
  C      1.060598   -1.641160   -2.769310
  C      2.357491   -0.830846   -2.631763
  C      2.144827   -0.092627   -1.540789
  C      0.804933   -2.080685   -1.274927
  C      1.792490   -2.925390   -0.491648
  H      0.756128    1.973386   -0.193576
  H     -0.885380    1.577124   -0.762135
  H     -0.536947    1.635689    0.986163
  H     -1.028826   -0.884435   -2.457303
  H      0.078589    0.385879   -3.111975
  H      0.960451   -2.339387   -3.598086
  H      3.223806   -0.887426   -3.275894
  H      2.782640    0.615431   -1.031304
  H     -0.202873   -2.501392   -1.180316
  H      2.811378   -2.538685   -0.573053
  H      1.518574   -2.946100    0.568499
  H      1.788793   -3.959436   -0.853677

 Total Charge           Charge          ....    0
 Multiplicity           Mult            ....    1
 Number of Electrons    NEL             ....   68
 Basis Dimension        Dim             ....  351

ORBITAL ENERGIES
----------------

  NO   OCC          E(Eh)            E(eV)
   0   2.0000     -20.557018      -559.3849
   1   2.0000     -11.289332      -307.1983
   2   2.0000     -11.271036      -306.7005
   3   2.0000     -11.237241      -305.7809
   4   2.0000     -11.229281      -305.5643
   5   2.0000     -11.224308      -305.4290
   6   2.0000     -11.224131      -305.4241
   7   2.0000     -11.220461      -305.3243
   8   2.0000     -11.204152      -304.8805
   9   2.0000      -1.382142       -37.6100
  10   2.0000      -1.188934       -32.3525
  11   2.0000      -1.006534       -27.3892
  12   2.0000      -0.970268       -26.4023
  13   2.0000      -0.949549       -25.8385
  14   2.0000      -0.878760       -23.9123
  15   2.0000      -0.838682       -22.8217
  16   2.0000      -0.741121       -20.1669
  17   2.0000      -0.723221       -19.6798
  18   2.0000      -0.703279       -19.1372
  19   2.0000      -0.635945       -17.3049
  20   2.0000      -0.627864       -17.0850
  21   2.0000      -0.607446       -16.5295
  22   2.0000      -0.590792       -16.0763
  23   2.0000      -0.579213       -15.7612
  24   2.0000      -0.555253       -15.1092
  25   2.0000      -0.541573       -14.7370
  26   2.0000      -0.510833       -13.9005
  27   2.0000      -0.494648       -13.4600
  28   2.0000      -0.478128       -13.0105
  29   2.0000      -0.467178       -12.7125
  30   2.0000      -0.454360       -12.3638
  31   2.0000      -0.428341       -11.6558
  32   2.0000      -0.396378       -10.7860
  33   2.0000      -0.332344        -9.0435
  34   0.0000       0.140686         3.8283
  35   0.0000       0.143778         3.9124
  36   0.0000       0.155018         4.2182
  37   0.0000       0.172107         4.6833
  38   0.0000       0.176923         4.8143

MULLIKEN ATOMIC CHARGES
-----------------------
   0 C :   -0.215852
   1 O :   -0.303887
   2 C :    0.241862
   3 C :   -0.240325
   4 C :   -0.043696
   5 C :   -0.242646
   6 C :   -0.255576
   7 C :   -0.027187
   8 C :   -0.437970
   9 H :    0.113483
  10 H :    0.119239
  11 H :    0.142813
  12 H :    0.118417
  13 H :    0.119485
  14 H :    0.133548
  15 H :    0.131651
  16 H :    0.135199
  17 H :    0.101499
  18 H :    0.140327
  19 H :    0.140067
  20 H :    0.129548
Sum of atomic charges:   -0.0000000

LOEWDIN ATOMIC CHARGES
----------------------
   0 C :   -0.342403
   1 O :    0.188314
   2 C :   -0.305622
   3 C :   -0.171992
   4 C :   -0.165382
   5 C :   -0.130522
   6 C :   -0.119519
   7 C :   -0.179301
   8 C :   -0.295234
   9 H :    0.103779
  10 H :    0.104878
  11 H :    0.113770
  12 H :    0.133695
  13 H :    0.127458
  14 H :    0.133547
  15 H :    0.132531
  16 H :    0.135183
  17 H :    0.154795
  18 H :    0.127628
  19 H :    0.129347
  20 H :    0.125049

  Mayer bond orders larger than 0.1
B(  0-C ,  1-O ) :   0.8951 B(  0-C ,  9-H ) :   0.9313 B(  0-C , 10-H ) :   0.9350
B(  0-C , 11-H ) :   0.9412 B(  1-O ,  2-C ) :   1.0271 B(  2-C ,  3-C ) :   0.8856
B(  2-C ,  6-C ) :   0.8895 B(  2-C ,  7-C ) :   0.9028 B(  3-C ,  4-C ) :   0.9108
B(  3-C , 12-H ) :   0.9237 B(  3-C , 13-H ) :   0.9092 B(  4-C ,  5-C ) :   0.8986
B(  4-C ,  7-C ) :   0.8995 B(  4-C , 14-H ) :   0.9095 B(  5-C ,  6-C ) :   1.7254
B(  5-C , 15-H ) :   0.9296 B(  6-C , 16-H ) :   0.9257 B(  7-C ,  8-C ) :   0.9057
B(  7-C , 17-H ) :   0.9253 B(  8-C , 18-H ) :   0.9334 B(  8-C , 19-H ) :   0.9366
B(  8-C , 20-H ) :   0.9360

MP2 TOTAL ENERGY:     -386.372257194 Eh
FINAL SINGLE POINT ENERGY      -386.372257194184

DIPOLE MOMENT
-------------
                                X             Y             Z
Electronic contribution:      0.23422       0.64085      -0.51719
Nuclear contribution   :     -0.25774      -0.41905       0.21995
                        -----------------------------------------
Total Dipole Moment    :     -0.02352       0.22181      -0.29723
                        -----------------------------------------
Magnitude (a.u.)       :      0.37162
Magnitude (Debye)      :      0.94458

                             ****ORCA TERMINATED NORMALLY****
TOTAL RUN TIME: 0 days 0 hours 19 minutes 43 seconds 372 msec
