                         Program Version 3.0.3 - RELEASE   -
|  1> ! RI-MP2 RIJK def2-TZVP def2-TZVP/C def2-TZVP/JK TIGHTSCF
|  2> % maxcore 2000
|  3> % mp2 density relaxed end
|  4> *xyz 0 1
|  5>  O        0.0104752716     0.0437088426     0.2270674015
|  6>  C       -0.0008009926     1.2284695180     0.0472783775
|  7>  C       -1.2451860734     2.0965618350    -0.1969992231
|  8>  O       -0.8008664786     3.3479075192    -0.7035746759
|  9>  C        0.5715748005     3.4913268726    -0.4836398288
| 10>  C        1.0814264039     3.3849711555     0.9034278875
| 11>  C        1.1844041938     2.1595153625    -0.0406506746
| 12>  C        2.4639640326     1.6718898191    -0.4442154285
| 13>  N        3.5055715739     1.2922407181    -0.7737187497
| 14>  H       -1.8984912351     1.6196618884    -0.9328185198
| 15>  H       -1.8098175287     2.2140022539     0.7383500964
| 16>  H        1.0545708865     4.1245659813    -1.2173055791
| 17>  H        2.0304097193     3.8546966774     1.1329013355
| 18>  H        0.3826899660     3.3221179066     1.7301578610
| 19> *
| 20>
| 21>                          ****END OF INPUT****

CARTESIAN COORDINATES (ANGSTROEM)
---------------------------------
  O      0.010475    0.043709    0.227067
  C     -0.000801    1.228470    0.047278
  C     -1.245186    2.096562   -0.196999
  O     -0.800866    3.347908   -0.703575
  C      0.571575    3.491327   -0.483640
  C      1.081426    3.384971    0.903428
  C      1.184404    2.159515   -0.040651
  C      2.463964    1.671890   -0.444215
  N      3.505572    1.292241   -0.773719
  H     -1.898491    1.619662   -0.932819
  H     -1.809818    2.214002    0.738350
  H      1.054571    4.124566   -1.217306
  H      2.030410    3.854697    1.132901
  H      0.382690    3.322118    1.730158

 Total Charge           Charge          ....    0
 Multiplicity           Mult            ....    1
 Number of Electrons    NEL             ....   64
 Basis Dimension        Dim             ....  309

ORBITAL ENERGIES
----------------

  NO   OCC          E(Eh)            E(eV)
   0   2.0000     -20.610311      -560.8351
   1   2.0000     -20.582226      -560.0708
   2   2.0000     -15.583453      -424.0473
   3   2.0000     -11.373338      -309.4843
   4   2.0000     -11.348244      -308.8014
   5   2.0000     -11.323644      -308.1320
   6   2.0000     -11.314142      -307.8734
   7   2.0000     -11.293668      -307.3163
   8   2.0000     -11.288776      -307.1832
   9   2.0000      -1.448796       -39.4237
  10   2.0000      -1.423354       -38.7314
  11   2.0000      -1.236852       -33.6565
  12   2.0000      -1.191956       -32.4348
  13   2.0000      -1.039954       -28.2986
  14   2.0000      -0.947983       -25.7959
  15   2.0000      -0.879563       -23.9341
  16   2.0000      -0.831608       -22.6292
  17   2.0000      -0.757360       -20.6088
  18   2.0000      -0.709443       -19.3049
  19   2.0000      -0.688765       -18.7423
  20   2.0000      -0.673270       -18.3206
  21   2.0000      -0.639383       -17.3985
  22   2.0000      -0.621839       -16.9211
  23   2.0000      -0.595378       -16.2010
  24   2.0000      -0.585789       -15.9401
  25   2.0000      -0.571692       -15.5565
  26   2.0000      -0.547333       -14.8937
  27   2.0000      -0.518195       -14.1008
  28   2.0000      -0.491379       -13.3711
  29   2.0000      -0.466364       -12.6904
  30   2.0000      -0.436994       -11.8912
  31   2.0000      -0.413492       -11.2517
  32   0.0000       0.102320         2.7843
  33   0.0000       0.122104         3.3226
  34   0.0000       0.138202         3.7607
  35   0.0000       0.152521         4.1503
  36   0.0000       0.157649         4.2898

MULLIKEN ATOMIC CHARGES
-----------------------
   0 O :   -0.236653
   1 C :    0.095320
   2 C :   -0.049147
   3 O :   -0.301355
   4 C :    0.072253
   5 C :   -0.275000
   6 C :    0.166504
   7 C :   -0.216941
   8 N :   -0.039669
   9 H :    0.154175
  10 H :    0.137683
  11 H :    0.162460
  12 H :    0.168910
  13 H :    0.161458
Sum of atomic charges:   -0.0000000

LOEWDIN ATOMIC CHARGES
----------------------
   0 O :    0.191407
   1 C :   -0.280062
   2 C :   -0.247016
   3 O :    0.200729
   4 C :   -0.229464
   5 C :   -0.133563
   6 C :   -0.180362
   7 C :   -0.149054
   8 N :    0.082818
   9 H :    0.146832
  10 H :    0.140707
  11 H :    0.153275
  12 H :    0.154928
  13 H :    0.148825

  Mayer bond orders larger than 0.1
B(  0-O ,  1-C ) :   2.0501 B(  1-C ,  2-C ) :   0.9550 B(  1-C ,  6-C ) :   0.8613
B(  2-C ,  3-O ) :   0.9213 B(  2-C ,  9-H ) :   0.9080 B(  2-C , 10-H ) :   0.9066
B(  3-O ,  4-C ) :   0.9805 B(  4-C ,  5-C ) :   0.9076 B(  4-C ,  6-C ) :   0.8159
B(  4-C , 11-H ) :   0.9215 B(  5-C ,  6-C ) :   0.7963 B(  5-C , 12-H ) :   0.9130
B(  5-C , 13-H ) :   0.8985 B(  6-C ,  7-C ) :   0.9253 B(  7-C ,  8-N ) :   2.8523

MP2 TOTAL ENERGY:     -435.967016691 Eh
FINAL SINGLE POINT ENERGY      -435.967016691349

DIPOLE MOMENT
-------------
                                X             Y             Z
Electronic contribution:      2.36636      -3.08025      -1.55228
Nuclear contribution   :     -3.47819       4.42295       2.10182
                        -----------------------------------------
Total Dipole Moment    :     -1.11183       1.34270       0.54954
                        -----------------------------------------
Magnitude (a.u.)       :      1.82784
Magnitude (Debye)      :      4.64600

                             ****ORCA TERMINATED NORMALLY****
TOTAL RUN TIME: 0 days 0 hours 15 minutes 14 seconds 229 msec
