                         Program Version 3.0.3 - RELEASE   -
|  1> ! RI-MP2 RIJK def2-TZVP def2-TZVP/C def2-TZVP/JK TIGHTSCF
|  2> % maxcore 2000
|  3> % mp2 density relaxed end
|  4> *xyz 0 1
|  5>  C        0.0706761389    -3.7121162468     0.1602293075
|  6>  C        0.0451835531    -2.5070690038     0.0871596118
|  7>  C        0.0170447557    -1.1495776465     0.0022767587
|  8>  C       -0.0055968971     0.0584240910    -0.0682419491
|  9>  C       -0.0299772697     1.5207567343    -0.1778677132
| 10>  O       -0.7323450946     2.1215503627     0.9149114945
| 11>  C        0.1607300855     2.9135107099     1.6986789980
| 12>  C        1.4580753086     2.9088594764     0.9425357439
| 13>  C        1.3580266067     2.1292054330    -0.1250920536
| 14>  H        0.0918627863    -4.7715051317     0.2264771693
| 15>  H       -0.5553042449     1.7857974476    -1.1091147708
| 16>  H       -0.2635417091     3.9214370026     1.8117324720
| 17>  H        0.2677770287     2.4871209867     2.7085905941
| 18>  H        2.3307353462     3.4654668599     1.2594586679
| 19>  H        2.1177393457     1.9018880546    -0.8600310312
| 20> *
| 21>
| 22>                          ****END OF INPUT****

CARTESIAN COORDINATES (ANGSTROEM)
---------------------------------
  C      0.070676   -3.712116    0.160229
  C      0.045184   -2.507069    0.087160
  C      0.017045   -1.149578    0.002277
  C     -0.005597    0.058424   -0.068242
  C     -0.029977    1.520757   -0.177868
  O     -0.732345    2.121550    0.914911
  C      0.160730    2.913511    1.698679
  C      1.458075    2.908859    0.942536
  C      1.358027    2.129205   -0.125092
  H      0.091863   -4.771505    0.226477
  H     -0.555304    1.785797   -1.109115
  H     -0.263542    3.921437    1.811732
  H      0.267777    2.487121    2.708591
  H      2.330735    3.465467    1.259459
  H      2.117739    1.901888   -0.860031

 Total Charge           Charge          ....    0
 Multiplicity           Mult            ....    1
 Number of Electrons    NEL             ....   62
 Basis Dimension        Dim             ....  315

ORBITAL ENERGIES
----------------

  NO   OCC          E(Eh)            E(eV)
   0   2.0000     -20.567428      -559.6682
   1   2.0000     -11.323659      -308.1324
   2   2.0000     -11.290435      -307.2284
   3   2.0000     -11.258686      -306.3644
   4   2.0000     -11.254436      -306.2488
   5   2.0000     -11.250799      -306.1498
   6   2.0000     -11.249058      -306.1024
   7   2.0000     -11.248805      -306.0955
   8   2.0000     -11.247238      -306.0529
   9   2.0000      -1.392796       -37.8999
  10   2.0000      -1.099220       -29.9113
  11   2.0000      -1.083249       -29.4767
  12   2.0000      -1.043528       -28.3959
  13   2.0000      -0.988631       -26.9020
  14   2.0000      -0.872605       -23.7448
  15   2.0000      -0.819986       -22.3130
  16   2.0000      -0.782191       -21.2845
  17   2.0000      -0.719445       -19.5771
  18   2.0000      -0.710574       -19.3357
  19   2.0000      -0.696213       -18.9449
  20   2.0000      -0.624715       -16.9994
  21   2.0000      -0.596235       -16.2244
  22   2.0000      -0.589078       -16.0296
  23   2.0000      -0.535969       -14.5845
  24   2.0000      -0.510379       -13.8881
  25   2.0000      -0.482992       -13.1429
  26   2.0000      -0.479778       -13.0554
  27   2.0000      -0.456691       -12.4272
  28   2.0000      -0.375109       -10.2072
  29   2.0000      -0.358332        -9.7507
  30   2.0000      -0.352808        -9.6004
  31   0.0000       0.106926         2.9096
  32   0.0000       0.112710         3.0670
  33   0.0000       0.144037         3.9195
  34   0.0000       0.149086         4.0568
  35   0.0000       0.158756         4.3200

MULLIKEN ATOMIC CHARGES
-----------------------
   0 C :   -0.148314
   1 C :   -0.009294
   2 C :    0.072417
   3 C :   -0.157742
   4 C :    0.081844
   5 O :   -0.326135
   6 C :    0.005341
   7 C :   -0.184994
   8 C :   -0.182994
   9 H :    0.194250
  10 H :    0.134920
  11 H :    0.116194
  12 H :    0.113021
  13 H :    0.143407
  14 H :    0.148078
Sum of atomic charges:    0.0000000

LOEWDIN ATOMIC CHARGES
----------------------
   0 C :   -0.044573
   1 C :   -0.096548
   2 C :   -0.050490
   3 C :    0.011568
   4 C :   -0.281069
   5 O :    0.181865
   6 C :   -0.278884
   7 C :   -0.156042
   8 C :   -0.127418
   9 H :    0.130390
  10 H :    0.162726
  11 H :    0.129659
  12 H :    0.129102
  13 H :    0.143530
  14 H :    0.146184

  Mayer bond orders larger than 0.1
B(  0-C ,  1-C ) :   2.5472 B(  0-C ,  3-C ) :   0.1216 B(  0-C ,  9-H ) :   0.8878
B(  1-C ,  2-C ) :   1.2896 B(  2-C ,  3-C ) :   2.5655 B(  2-C ,  4-C ) :  -0.1027
B(  3-C ,  4-C ) :   0.9983 B(  4-C ,  5-O ) :   0.9660 B(  4-C ,  8-C ) :   0.9666
B(  4-C , 10-H ) :   0.9225 B(  5-O ,  6-C ) :   0.9338 B(  6-C ,  7-C ) :   0.9791
B(  6-C , 11-H ) :   0.9190 B(  6-C , 12-H ) :   0.9075 B(  7-C ,  8-C ) :   1.8018
B(  7-C , 13-H ) :   0.9120 B(  8-C , 14-H ) :   0.9133

MP2 TOTAL ENERGY:     -382.722215706 Eh
FINAL SINGLE POINT ENERGY      -382.722215706134

DIPOLE MOMENT
-------------
                                X             Y             Z
Electronic contribution:     -1.66200      -4.63242      -1.49343
Nuclear contribution   :      2.33544       4.99264       1.46149
                        -----------------------------------------
Total Dipole Moment    :      0.67344       0.36022      -0.03194
                        -----------------------------------------
Magnitude (a.u.)       :      0.76440
Magnitude (Debye)      :      1.94295

                             ****ORCA TERMINATED NORMALLY****
TOTAL RUN TIME: 0 days 0 hours 13 minutes 33 seconds 845 msec
