                         Program Version 3.0.3 - RELEASE   -
|  1> ! RI-MP2 RIJK def2-TZVP def2-TZVP/C def2-TZVP/JK TIGHTSCF
|  2> % maxcore 2000
|  3> % mp2 density relaxed end
|  4> *xyz 0 1
|  5>  C        0.2508936806     1.6209497872    -0.0060016588
|  6>  C       -0.0492337052     0.1107153173    -0.0335357174
|  7>  C        0.4788125473    -0.5247644422    -1.3255379262
|  8>  C        0.2161964117    -2.0371947119    -1.4319497412
|  9>  C        1.2756939531    -2.9059074527    -0.7833366491
| 10>  O        1.8164162858    -3.8303930925    -1.3592336110
| 11>  N        1.6204694522    -2.6190956367     0.5237433041
| 12>  C        1.1539986335    -1.6579171219     1.4256932028
| 13>  C        0.4507313162    -0.5378381595     1.2306870362
| 14>  H        1.3308036770     1.8037850020    -0.0004525413
| 15>  H       -0.1749053117     2.1205517716    -0.8822621388
| 16>  H       -0.1717233798     2.0913476466     0.8874907756
| 17>  H       -1.1467896951     0.0047842501    -0.0466031712
| 18>  H       -0.0033868667    -0.0252085071    -2.1725810472
| 19>  H        1.5532669016    -0.3262652455    -1.4266796362
| 20>  H       -0.7561466818    -2.2761781779    -0.9806623177
| 21>  H        0.1784318379    -2.3598119685    -2.4737626442
| 22>  H        2.2948412850    -3.2796394000     0.8829888095
| 23>  H        1.4316947614    -1.9131382044     2.4440656189
| 24>  H        0.2021303870     0.0003060259     2.1423099031
| 25> *
| 26>
| 27>                          ****END OF INPUT****

CARTESIAN COORDINATES (ANGSTROEM)
---------------------------------
  C      0.250894    1.620950   -0.006002
  C     -0.049234    0.110715   -0.033536
  C      0.478813   -0.524764   -1.325538
  C      0.216196   -2.037195   -1.431950
  C      1.275694   -2.905907   -0.783337
  O      1.816416   -3.830393   -1.359234
  N      1.620469   -2.619096    0.523743
  C      1.153999   -1.657917    1.425693
  C      0.450731   -0.537838    1.230687
  H      1.330804    1.803785   -0.000453
  H     -0.174905    2.120552   -0.882262
  H     -0.171723    2.091348    0.887491
  H     -1.146790    0.004784   -0.046603
  H     -0.003387   -0.025209   -2.172581
  H      1.553267   -0.326265   -1.426680
  H     -0.756147   -2.276178   -0.980662
  H      0.178432   -2.359812   -2.473763
  H      2.294841   -3.279639    0.882989
  H      1.431695   -1.913138    2.444066
  H      0.202130    0.000306    2.142310

 Total Charge           Charge          ....    0
 Multiplicity           Mult            ....    1
 Number of Electrons    NEL             ....   68
 Basis Dimension        Dim             ....  345

ORBITAL ENERGIES
----------------

  NO   OCC          E(Eh)            E(eV)
   0   2.0000     -20.521503      -558.4185
   1   2.0000     -15.594964      -424.3606
   2   2.0000     -11.352791      -308.9252
   3   2.0000     -11.282926      -307.0240
   4   2.0000     -11.244007      -305.9650
   5   2.0000     -11.239936      -305.8542
   6   2.0000     -11.236875      -305.7709
   7   2.0000     -11.229002      -305.5567
   8   2.0000     -11.222803      -305.3880
   9   2.0000      -1.387211       -37.7479
  10   2.0000      -1.246157       -33.9097
  11   2.0000      -1.110977       -30.2312
  12   2.0000      -1.047515       -28.5043
  13   2.0000      -0.992799       -27.0154
  14   2.0000      -0.903058       -24.5735
  15   2.0000      -0.872919       -23.7533
  16   2.0000      -0.790250       -21.5038
  17   2.0000      -0.750966       -20.4348
  18   2.0000      -0.688144       -18.7253
  19   2.0000      -0.676931       -18.4202
  20   2.0000      -0.629946       -17.1417
  21   2.0000      -0.617250       -16.7962
  22   2.0000      -0.603176       -16.4132
  23   2.0000      -0.592582       -16.1250
  24   2.0000      -0.580260       -15.7897
  25   2.0000      -0.554713       -15.0945
  26   2.0000      -0.532340       -14.4857
  27   2.0000      -0.531669       -14.4675
  28   2.0000      -0.489171       -13.3110
  29   2.0000      -0.481769       -13.1096
  30   2.0000      -0.470411       -12.8005
  31   2.0000      -0.463356       -12.6086
  32   2.0000      -0.423349       -11.5199
  33   2.0000      -0.327227        -8.9043
  34   0.0000       0.118835         3.2337
  35   0.0000       0.140573         3.8252
  36   0.0000       0.153709         4.1826
  37   0.0000       0.158703         4.3185
  38   0.0000       0.167423         4.5558

MULLIKEN ATOMIC CHARGES
-----------------------
   0 C :   -0.403825
   1 C :   -0.002015
   2 C :   -0.252275
   3 C :   -0.176054
   4 C :    0.186108
   5 O :   -0.335968
   6 N :   -0.268622
   7 C :   -0.034828
   8 C :   -0.247643
   9 H :    0.130751
  10 H :    0.131476
  11 H :    0.133371
  12 H :    0.098871
  13 H :    0.129705
  14 H :    0.132005
  15 H :    0.134820
  16 H :    0.146674
  17 H :    0.242716
  18 H :    0.133073
  19 H :    0.121659
Sum of atomic charges:   -0.0000000

LOEWDIN ATOMIC CHARGES
----------------------
   0 C :   -0.285939
   1 C :   -0.280417
   2 C :   -0.232400
   3 C :   -0.218574
   4 C :   -0.435348
   5 O :    0.091489
   6 N :    0.139013
   7 C :   -0.229695
   8 C :   -0.182703
   9 H :    0.125317
  10 H :    0.123025
  11 H :    0.123385
  12 H :    0.159826
  13 H :    0.144053
  14 H :    0.147255
  15 H :    0.156642
  16 H :    0.153695
  17 H :    0.200353
  18 H :    0.147148
  19 H :    0.153875

  Mayer bond orders larger than 0.1
B(  0-C ,  1-C ) :   0.9017 B(  0-C ,  9-H ) :   0.9328 B(  0-C , 10-H ) :   0.9373
B(  0-C , 11-H ) :   0.9398 B(  1-C ,  2-C ) :   0.9336 B(  1-C ,  8-C ) :   0.9193
B(  1-C , 12-H ) :   0.9265 B(  2-C ,  3-C ) :   0.8539 B(  2-C , 13-H ) :   0.9309
B(  2-C , 14-H ) :   0.9244 B(  3-C ,  4-C ) :   0.9465 B(  3-C , 15-H ) :   0.9085
B(  3-C , 16-H ) :   0.9288 B(  4-C ,  5-O ) :   2.0028 B(  4-C ,  6-N ) :   1.0980
B(  6-N ,  7-C ) :   1.0183 B(  6-N , 17-H ) :   0.8587 B(  7-C ,  8-C ) :   1.7614
B(  7-C , 18-H ) :   0.9133 B(  8-C , 19-H ) :   0.9178

MP2 TOTAL ENERGY:     -402.504213474 Eh
FINAL SINGLE POINT ENERGY      -402.504213474342

DIPOLE MOMENT
-------------
                                X             Y             Z
Electronic contribution:      3.50846      -9.46302       0.01501
Nuclear contribution   :     -3.93690      10.35179       0.69978
                        -----------------------------------------
Total Dipole Moment    :     -0.42844       0.88877       0.71479
                        -----------------------------------------
Magnitude (a.u.)       :      1.21836
Magnitude (Debye)      :      3.09683

                             ****ORCA TERMINATED NORMALLY****
TOTAL RUN TIME: 0 days 0 hours 19 minutes 16 seconds 793 msec
