                         Program Version 3.0.3 - RELEASE   -
|  1> ! RI-MP2 RIJK def2-TZVP def2-TZVP/C def2-TZVP/JK TIGHTSCF
|  2> % maxcore 2000
|  3> % mp2 density relaxed end
|  4> *xyz 0 1
|  5>  O       -0.0611827300     1.4863821153     0.1758695772
|  6>  C        0.0502061208     0.0827362583     0.0114809373
|  7>  C       -1.3615705803    -0.4932863457     0.0150305832
|  8>  C       -1.4143009028    -2.0183528821    -0.0645216144
|  9>  C       -2.8508719369    -2.5902103291     0.0265421825
| 10>  C       -2.8078911353    -3.8778563183    -0.8085510544
| 11>  C       -1.6548563398    -3.6545649254    -1.7927034549
| 12>  O       -1.3758698949    -4.3174309469    -2.7666256073
| 13>  N       -0.9690590202    -2.5523267980    -1.3464476753
| 14>  H        0.8211344498     1.8672130053     0.1412031968
| 15>  H        0.5606377293    -0.1632512149    -0.9346190842
| 16>  H        0.6384010006    -0.3713963960     0.8265995413
| 17>  H       -1.8541911365    -0.1728447216     0.9409076273
| 18>  H       -1.9275752585    -0.0638149256    -0.8192283820
| 19>  H       -0.8012589012    -2.4338104156     0.7531422895
| 20>  H       -3.1578016459    -2.7451802965     1.0629270007
| 21>  H       -3.5459989717    -1.8733036439    -0.4231048528
| 22>  H       -2.5608693142    -4.7572122767    -0.2022874759
| 23>  H       -3.7321354109    -4.1023778447    -1.3435364875
| 24>  H       -0.0744584917    -2.3329202578    -1.7554525572
| 25> *
| 26>
| 27>                          ****END OF INPUT****

CARTESIAN COORDINATES (ANGSTROEM)
---------------------------------
  O     -0.061183    1.486382    0.175870
  C      0.050206    0.082736    0.011481
  C     -1.361571   -0.493286    0.015031
  C     -1.414301   -2.018353   -0.064522
  C     -2.850872   -2.590210    0.026542
  C     -2.807891   -3.877856   -0.808551
  C     -1.654856   -3.654565   -1.792703
  O     -1.375870   -4.317431   -2.766626
  N     -0.969059   -2.552327   -1.346448
  H      0.821134    1.867213    0.141203
  H      0.560638   -0.163251   -0.934619
  H      0.638401   -0.371396    0.826600
  H     -1.854191   -0.172845    0.940908
  H     -1.927575   -0.063815   -0.819228
  H     -0.801259   -2.433810    0.753142
  H     -3.157802   -2.745180    1.062927
  H     -3.545999   -1.873304   -0.423105
  H     -2.560869   -4.757212   -0.202287
  H     -3.732135   -4.102378   -1.343536
  H     -0.074458   -2.332920   -1.755453

 Total Charge           Charge          ....    0
 Multiplicity           Mult            ....    1
 Number of Electrons    NEL             ....   70
 Basis Dimension        Dim             ....  345

ORBITAL ENERGIES
----------------

  NO   OCC          E(Eh)            E(eV)
   0   2.0000     -20.566713      -559.6487
   1   2.0000     -20.513358      -558.1968
   2   2.0000     -15.579316      -423.9347
   3   2.0000     -11.343486      -308.6719
   4   2.0000     -11.290048      -307.2178
   5   2.0000     -11.283340      -307.0353
   6   2.0000     -11.242289      -305.9182
   7   2.0000     -11.240280      -305.8636
   8   2.0000     -11.233621      -305.6824
   9   2.0000      -1.377748       -37.4904
  10   2.0000      -1.371422       -37.3183
  11   2.0000      -1.250798       -34.0359
  12   2.0000      -1.068076       -29.0638
  13   2.0000      -1.049265       -28.5520
  14   2.0000      -0.948438       -25.8083
  15   2.0000      -0.850292       -23.1376
  16   2.0000      -0.815323       -22.1861
  17   2.0000      -0.790271       -21.5044
  18   2.0000      -0.712087       -19.3769
  19   2.0000      -0.704816       -19.1790
  20   2.0000      -0.655083       -17.8257
  21   2.0000      -0.651958       -17.7407
  22   2.0000      -0.611051       -16.6275
  23   2.0000      -0.599163       -16.3041
  24   2.0000      -0.585003       -15.9187
  25   2.0000      -0.560868       -15.2620
  26   2.0000      -0.557077       -15.1588
  27   2.0000      -0.551690       -15.0122
  28   2.0000      -0.524813       -14.2809
  29   2.0000      -0.517726       -14.0880
  30   2.0000      -0.481350       -13.0982
  31   2.0000      -0.475459       -12.9379
  32   2.0000      -0.456361       -12.4182
  33   2.0000      -0.412291       -11.2190
  34   2.0000      -0.390610       -10.6290
  35   0.0000       0.123099         3.3497
  36   0.0000       0.132021         3.5925
  37   0.0000       0.152870         4.1598
  38   0.0000       0.158455         4.3118
  39   0.0000       0.161244         4.3877

MULLIKEN ATOMIC CHARGES
-----------------------
   0 O :   -0.460140
   1 C :   -0.085247
   2 C :   -0.174985
   3 C :    0.029946
   4 C :   -0.258440
   5 C :   -0.182478
   6 C :    0.190449
   7 O :   -0.341035
   8 N :   -0.320972
   9 H :    0.317384
  10 H :    0.088825
  11 H :    0.096667
  12 H :    0.118168
  13 H :    0.121751
  14 H :    0.101971
  15 H :    0.130057
  16 H :    0.123839
  17 H :    0.130884
  18 H :    0.138840
  19 H :    0.234515
Sum of atomic charges:   -0.0000000

LOEWDIN ATOMIC CHARGES
----------------------
   0 O :   -0.046096
   1 C :   -0.354786
   2 C :   -0.252130
   3 C :   -0.271636
   4 C :   -0.223272
   5 C :   -0.219607
   6 C :   -0.447406
   7 O :    0.082085
   8 N :    0.133598
   9 H :    0.173738
  10 H :    0.111493
  11 H :    0.115429
  12 H :    0.149239
  13 H :    0.145166
  14 H :    0.143327
  15 H :    0.136685
  16 H :    0.144251
  17 H :    0.151477
  18 H :    0.146908
  19 H :    0.181538

  Mayer bond orders larger than 0.1
B(  0-O ,  1-C ) :   1.0283 B(  0-O ,  9-H ) :   0.8471 B(  1-C ,  2-C ) :   0.9282
B(  1-C , 10-H ) :   0.9383 B(  1-C , 11-H ) :   0.9260 B(  2-C ,  3-C ) :   0.8991
B(  2-C , 12-H ) :   0.9245 B(  2-C , 13-H ) :   0.9141 B(  3-C ,  4-C ) :   0.9251
B(  3-C ,  8-N ) :   0.8107 B(  3-C , 14-H ) :   0.9253 B(  4-C ,  5-C ) :   0.9265
B(  4-C , 15-H ) :   0.9282 B(  4-C , 16-H ) :   0.9254 B(  5-C ,  6-C ) :   0.9124
B(  5-C , 17-H ) :   0.9123 B(  5-C , 18-H ) :   0.9230 B(  6-C ,  7-O ) :   2.0154
B(  6-C ,  8-N ) :   1.1573 B(  8-N , 19-H ) :   0.8650

MP2 TOTAL ENERGY:     -439.616621268 Eh
FINAL SINGLE POINT ENERGY      -439.616621268085

DIPOLE MOMENT
-------------
                                X             Y             Z
Electronic contribution:      1.29895      -3.11641      -4.59470
Nuclear contribution   :     -0.83180       3.82536       5.80201
                        -----------------------------------------
Total Dipole Moment    :      0.46714       0.70895       1.20731
                        -----------------------------------------
Magnitude (a.u.)       :      1.47595
Magnitude (Debye)      :      3.75157

                             ****ORCA TERMINATED NORMALLY****
TOTAL RUN TIME: 0 days 0 hours 16 minutes 46 seconds 432 msec
