                         Program Version 3.0.3 - RELEASE   -
|  1> ! RI-MP2 RIJK def2-TZVP def2-TZVP/C def2-TZVP/JK TIGHTSCF
|  2> % maxcore 2000
|  3> % mp2 density relaxed end
|  4> *xyz 0 1
|  5>  C       -0.1072603931     1.5651800258    -0.0337499211
|  6>  C       -0.0242192559     0.0330958069     0.0343481126
|  7>  C        0.6193530300    -0.5465848486    -1.2434515794
|  8>  C        0.9172871054    -2.0248697542    -1.0927983653
|  9>  O        0.5274600314    -2.8620777567    -1.8725466884
| 10>  C        1.7600235735    -2.3835260518     0.1246790910
| 11>  C        1.5299120628    -1.4885611833     1.3230882790
| 12>  C        2.2506938184    -1.8899057445     2.5809632479
| 13>  C        0.7200605251    -0.4283030098     1.2644911058
| 14>  H        0.8934743762     2.0085502206    -0.0833444456
| 15>  H       -0.6664051451     1.8890399957    -0.9173093145
| 16>  H       -0.6104265878     1.9701710973     0.8503892223
| 17>  H       -1.0564356665    -0.3467354007     0.0922865730
| 18>  H       -0.0121120236    -0.3967059115    -2.1224448188
| 19>  H        1.5743810853    -0.0279771226    -1.4120141431
| 20>  H        1.5722398420    -3.4353847855     0.3705317662
| 21>  H        2.8192664065    -2.3383457216    -0.1765042526
| 22>  H        3.3371771875    -1.9108996622     2.4237098081
| 23>  H        2.0386803580    -1.2037441830     3.4049592306
| 24>  H        1.9645144488    -2.9018269825     2.8953784140
| 25>  H        0.5680595810     0.1655134923     2.1644669482
| 26> *
| 27>
| 28>                          ****END OF INPUT****

CARTESIAN COORDINATES (ANGSTROEM)
---------------------------------
  C     -0.107260    1.565180   -0.033750
  C     -0.024219    0.033096    0.034348
  C      0.619353   -0.546585   -1.243452
  C      0.917287   -2.024870   -1.092798
  O      0.527460   -2.862078   -1.872547
  C      1.760024   -2.383526    0.124679
  C      1.529912   -1.488561    1.323088
  C      2.250694   -1.889906    2.580963
  C      0.720061   -0.428303    1.264491
  H      0.893474    2.008550   -0.083344
  H     -0.666405    1.889040   -0.917309
  H     -0.610427    1.970171    0.850389
  H     -1.056436   -0.346735    0.092287
  H     -0.012112   -0.396706   -2.122445
  H      1.574381   -0.027977   -1.412014
  H      1.572240   -3.435385    0.370532
  H      2.819266   -2.338346   -0.176504
  H      3.337177   -1.910900    2.423710
  H      2.038680   -1.203744    3.404959
  H      1.964514   -2.901827    2.895378
  H      0.568060    0.165513    2.164467

 Total Charge           Charge          ....    0
 Multiplicity           Mult            ....    1
 Number of Electrons    NEL             ....   68
 Basis Dimension        Dim             ....  351

ORBITAL ENERGIES
----------------

  NO   OCC          E(Eh)            E(eV)
   0   2.0000     -20.541227      -558.9552
   1   2.0000     -11.326016      -308.1966
   2   2.0000     -11.246957      -306.0453
   3   2.0000     -11.246879      -306.0431
   4   2.0000     -11.240536      -305.8705
   5   2.0000     -11.234268      -305.7000
   6   2.0000     -11.229712      -305.5760
   7   2.0000     -11.228277      -305.5369
   8   2.0000     -11.224840      -305.4434
   9   2.0000      -1.384794       -37.6822
  10   2.0000      -1.139637       -31.0111
  11   2.0000      -1.065060       -28.9818
  12   2.0000      -1.004713       -27.3396
  13   2.0000      -0.946491       -25.7553
  14   2.0000      -0.938393       -25.5350
  15   2.0000      -0.818403       -22.2699
  16   2.0000      -0.767317       -20.8797
  17   2.0000      -0.701441       -19.0872
  18   2.0000      -0.665514       -18.1096
  19   2.0000      -0.650593       -17.7035
  20   2.0000      -0.625073       -17.0091
  21   2.0000      -0.614693       -16.7267
  22   2.0000      -0.584023       -15.8921
  23   2.0000      -0.569452       -15.4956
  24   2.0000      -0.565788       -15.3959
  25   2.0000      -0.554816       -15.0973
  26   2.0000      -0.536298       -14.5934
  27   2.0000      -0.527747       -14.3607
  28   2.0000      -0.511888       -13.9292
  29   2.0000      -0.505046       -13.7430
  30   2.0000      -0.480011       -13.0618
  31   2.0000      -0.462816       -12.5939
  32   2.0000      -0.400888       -10.9087
  33   2.0000      -0.349563        -9.5121
  34   0.0000       0.120389         3.2759
  35   0.0000       0.142275         3.8715
  36   0.0000       0.146757         3.9935
  37   0.0000       0.155317         4.2264
  38   0.0000       0.172130         4.6839

MULLIKEN ATOMIC CHARGES
-----------------------
   0 C :   -0.408548
   1 C :    0.030070
   2 C :   -0.217814
   3 C :    0.159715
   4 O :   -0.273191
   5 C :   -0.209755
   6 C :    0.027410
   7 C :   -0.404961
   8 C :   -0.268301
   9 H :    0.127919
  10 H :    0.137192
  11 H :    0.135289
  12 H :    0.107842
  13 H :    0.133648
  14 H :    0.122913
  15 H :    0.139252
  16 H :    0.138048
  17 H :    0.135077
  18 H :    0.134331
  19 H :    0.139510
  20 H :    0.114354
Sum of atomic charges:   -0.0000000

LOEWDIN ATOMIC CHARGES
----------------------
   0 C :   -0.288139
   1 C :   -0.261698
   2 C :   -0.197762
   3 C :   -0.315040
   4 O :    0.149372
   5 C :   -0.190028
   6 C :   -0.192064
   7 C :   -0.269798
   8 C :   -0.132243
   9 H :    0.124445
  10 H :    0.124897
  11 H :    0.124217
  12 H :    0.161717
  13 H :    0.147410
  14 H :    0.157211
  15 H :    0.157501
  16 H :    0.161969
  17 H :    0.130166
  18 H :    0.129109
  19 H :    0.130872
  20 H :    0.147887

  Mayer bond orders larger than 0.1
B(  0-C ,  1-C ) :   0.8980 B(  0-C ,  9-H ) :   0.9326 B(  0-C , 10-H ) :   0.9395
B(  0-C , 11-H ) :   0.9400 B(  1-C ,  2-C ) :   0.9013 B(  1-C ,  8-C ) :   0.9073
B(  1-C , 12-H ) :   0.9143 B(  2-C ,  3-C ) :   0.9198 B(  2-C ,  5-C ) :  -0.1021
B(  2-C , 13-H ) :   0.9128 B(  2-C , 14-H ) :   0.9018 B(  3-C ,  4-O ) :   2.0657
B(  3-C ,  5-C ) :   0.9226 B(  5-C ,  6-C ) :   0.9121 B(  5-C , 15-H ) :   0.9049
B(  5-C , 16-H ) :   0.8910 B(  6-C ,  7-C ) :   0.8980 B(  6-C ,  8-C ) :   1.7582
B(  7-C , 17-H ) :   0.9306 B(  7-C , 18-H ) :   0.9451 B(  7-C , 19-H ) :   0.9279
B(  8-C , 20-H ) :   0.9203

MP2 TOTAL ENERGY:     -386.452484387 Eh
FINAL SINGLE POINT ENERGY      -386.452484386958

DIPOLE MOMENT
-------------
                                X             Y             Z
Electronic contribution:     -1.05127      -5.64923      -5.03479
Nuclear contribution   :      1.40127       6.39745       5.80885
                        -----------------------------------------
Total Dipole Moment    :      0.35000       0.74822       0.77406
                        -----------------------------------------
Magnitude (a.u.)       :      1.13204
Magnitude (Debye)      :      2.87741

                             ****ORCA TERMINATED NORMALLY****
TOTAL RUN TIME: 0 days 0 hours 18 minutes 53 seconds 586 msec
