                         Program Version 3.0.3 - RELEASE   -
|  1> ! RI-MP2 RIJK def2-TZVP def2-TZVP/C def2-TZVP/JK TIGHTSCF
|  2> % maxcore 2000
|  3> % mp2 density relaxed end
|  4> *xyz 0 1
|  5>  O       -0.4463329861     1.3528636893    -0.0683739241
|  6>  C       -0.1823143306    -0.0080837853     0.0637370318
|  7>  C       -0.1690867851    -0.8844940195    -1.1654471331
|  8>  C       -1.3012705418    -0.9883683778    -0.1590970818
|  9>  C       -1.1948952490    -2.0954493496     0.8916967664
| 10>  C        0.2596929349    -1.9589235462     1.4472016451
| 11>  C        0.6242111358    -0.4710980464     1.2702912467
| 12>  C       -2.1964042631    -1.9054197403     1.9450185505
| 13>  N       -2.9833466493    -1.7576267340     2.7788055066
| 14>  H        0.3446450634     1.7811970373    -0.4133181988
| 15>  H       -0.4269559285    -0.3925166304    -2.0965793020
| 16>  H        0.5524181232    -1.6896003052    -1.2645099326
| 17>  H       -2.2838399882    -0.6444087220    -0.4567967968
| 18>  H       -1.3554825873    -3.0917628167     0.4646958688
| 19>  H        0.3341098166    -2.2955141142     2.4824483393
| 20>  H        0.9203241924    -2.5950963677     0.8525594223
| 21>  H        1.7038613869    -0.3248789722     1.1564037549
| 22>  H        0.2968048558     0.1183817708     2.1334824470
| 23> *
| 24>
| 25>                          ****END OF INPUT****

CARTESIAN COORDINATES (ANGSTROEM)
---------------------------------
  O     -0.446333    1.352864   -0.068374
  C     -0.182314   -0.008084    0.063737
  C     -0.169087   -0.884494   -1.165447
  C     -1.301271   -0.988368   -0.159097
  C     -1.194895   -2.095449    0.891697
  C      0.259693   -1.958924    1.447202
  C      0.624211   -0.471098    1.270291
  C     -2.196404   -1.905420    1.945019
  N     -2.983347   -1.757627    2.778806
  H      0.344645    1.781197   -0.413318
  H     -0.426956   -0.392517   -2.096579
  H      0.552418   -1.689600   -1.264510
  H     -2.283840   -0.644409   -0.456797
  H     -1.355483   -3.091763    0.464696
  H      0.334110   -2.295514    2.482448
  H      0.920324   -2.595096    0.852559
  H      1.703861   -0.324879    1.156404
  H      0.296805    0.118382    2.133482

 Total Charge           Charge          ....    0
 Multiplicity           Mult            ....    1
 Number of Electrons    NEL             ....   66
 Basis Dimension        Dim             ....  333

ORBITAL ENERGIES
----------------

  NO   OCC          E(Eh)            E(eV)
   0   2.0000     -20.575643      -559.8917
   1   2.0000     -15.564087      -423.5203
   2   2.0000     -11.302159      -307.5474
   3   2.0000     -11.287666      -307.1530
   4   2.0000     -11.267170      -306.5953
   5   2.0000     -11.253691      -306.2285
   6   2.0000     -11.252514      -306.1965
   7   2.0000     -11.243812      -305.9597
   8   2.0000     -11.241450      -305.8954
   9   2.0000      -1.388174       -37.7741
  10   2.0000      -1.218537       -33.1581
  11   2.0000      -1.186217       -32.2786
  12   2.0000      -1.062241       -28.9051
  13   2.0000      -1.006650       -27.3923
  14   2.0000      -0.883100       -24.0304
  15   2.0000      -0.817124       -22.2351
  16   2.0000      -0.785560       -21.3762
  17   2.0000      -0.732983       -19.9455
  18   2.0000      -0.696367       -18.9491
  19   2.0000      -0.665382       -18.1060
  20   2.0000      -0.630285       -17.1509
  21   2.0000      -0.619326       -16.8527
  22   2.0000      -0.590976       -16.0813
  23   2.0000      -0.567100       -15.4316
  24   2.0000      -0.552118       -15.0239
  25   2.0000      -0.533985       -14.5305
  26   2.0000      -0.525250       -14.2928
  27   2.0000      -0.513975       -13.9860
  28   2.0000      -0.497281       -13.5317
  29   2.0000      -0.455653       -12.3990
  30   2.0000      -0.447795       -12.1851
  31   2.0000      -0.420114       -11.4319
  32   2.0000      -0.407428       -11.0867
  33   0.0000       0.121705         3.3118
  34   0.0000       0.133801         3.6409
  35   0.0000       0.151292         4.1169
  36   0.0000       0.161801         4.4028
  37   0.0000       0.172017         4.6808

MULLIKEN ATOMIC CHARGES
-----------------------
   0 O :   -0.446685
   1 C :    0.149841
   2 C :   -0.305287
   3 C :   -0.113625
   4 C :    0.107541
   5 C :   -0.273402
   6 C :   -0.246064
   7 C :   -0.264933
   8 N :   -0.049683
   9 H :    0.325775
  10 H :    0.145212
  11 H :    0.132490
  12 H :    0.149039
  13 H :    0.139624
  14 H :    0.153244
  15 H :    0.137688
  16 H :    0.119837
  17 H :    0.139388
Sum of atomic charges:    0.0000000

LOEWDIN ATOMIC CHARGES
----------------------
   0 O :    0.032524
   1 C :   -0.347488
   2 C :   -0.186160
   3 C :   -0.144616
   4 C :   -0.205519
   5 C :   -0.201034
   6 C :   -0.212255
   7 C :   -0.165287
   8 N :    0.060097
   9 H :    0.184761
  10 H :    0.143336
  11 H :    0.135245
  12 H :    0.157874
  13 H :    0.174195
  14 H :    0.145226
  15 H :    0.139638
  16 H :    0.137995
  17 H :    0.151469

  Mayer bond orders larger than 0.1
B(  0-O ,  1-C ) :   1.0419 B(  0-O ,  9-H ) :   0.8371 B(  1-C ,  2-C ) :   0.8999
B(  1-C ,  3-C ) :   0.8636 B(  1-C ,  6-C ) :   0.9555 B(  2-C ,  3-C ) :   0.8751
B(  2-C , 10-H ) :   0.9281 B(  2-C , 11-H ) :   0.9025 B(  3-C ,  4-C ) :   0.8776
B(  3-C , 12-H ) :   0.9183 B(  4-C ,  5-C ) :   0.8673 B(  4-C ,  7-C ) :   0.9254
B(  4-C , 13-H ) :   0.9054 B(  5-C ,  6-C ) :   0.9217 B(  5-C , 14-H ) :   0.9228
B(  5-C , 15-H ) :   0.9340 B(  6-C , 16-H ) :   0.9185 B(  6-C , 17-H ) :   0.9219
B(  7-C ,  8-N ) :   2.8849

MP2 TOTAL ENERGY:     -401.276620166 Eh
FINAL SINGLE POINT ENERGY      -401.276620165984

DIPOLE MOMENT
-------------
                                X             Y             Z
Electronic contribution:     -5.16905       0.64455       2.42462
Nuclear contribution   :      6.84821      -0.86085      -3.64589
                        -----------------------------------------
Total Dipole Moment    :      1.67916      -0.21630      -1.22128
                        -----------------------------------------
Magnitude (a.u.)       :      2.08756
Magnitude (Debye)      :      5.30615

                             ****ORCA TERMINATED NORMALLY****
TOTAL RUN TIME: 0 days 0 hours 17 minutes 13 seconds 306 msec
