                         Program Version 3.0.3 - RELEASE   -
|  1> ! RI-MP2 RIJK def2-TZVP def2-TZVP/C def2-TZVP/JK TIGHTSCF
|  2> % maxcore 2000
|  3> % mp2 density relaxed end
|  4> *xyz 0 1
|  5>  C       -0.0233486015     1.5236015107     0.0320102191
|  6>  C        0.0030103863     0.0181100927     0.0006331365
|  7>  C       -0.0266197464    -0.6728750992    -1.1770098379
|  8>  C       -0.0018789510    -2.1208785017    -1.2427235433
|  9>  O       -0.0251307784    -2.8149527663    -2.2464884739
| 10>  N        0.0553591420    -2.7262898655     0.0304758097
| 11>  C        0.0854666319    -2.0558152644     1.2133418513
| 12>  C        0.0610563350    -0.6984861767     1.2398934185
| 13>  H        0.8712792957     1.9177500024     0.5277272993
| 14>  H       -0.0729394192     1.9460312620    -0.9737111815
| 15>  H       -0.8871524867     1.8856851562     0.6012854512
| 16>  H       -0.0707202132    -0.1615057958    -2.1315868142
| 17>  H        0.0734321191    -3.7362638480     0.0096642217
| 18>  H        0.1290334293    -2.6666576436     2.1073171309
| 19>  H        0.0852880671    -0.1730928628     2.1856288926
| 20> *
| 21>
| 22>                          ****END OF INPUT****

CARTESIAN COORDINATES (ANGSTROEM)
---------------------------------
  C     -0.023349    1.523602    0.032010
  C      0.003010    0.018110    0.000633
  C     -0.026620   -0.672875   -1.177010
  C     -0.001879   -2.120879   -1.242724
  O     -0.025131   -2.814953   -2.246488
  N      0.055359   -2.726290    0.030476
  C      0.085467   -2.055815    1.213342
  C      0.061056   -0.698486    1.239893
  H      0.871279    1.917750    0.527727
  H     -0.072939    1.946031   -0.973711
  H     -0.887152    1.885685    0.601285
  H     -0.070720   -0.161506   -2.131587
  H      0.073432   -3.736264    0.009664
  H      0.129033   -2.666658    2.107317
  H      0.085288   -0.173093    2.185629

 Total Charge           Charge          ....    0
 Multiplicity           Mult            ....    1
 Number of Electrons    NEL             ....   58
 Basis Dimension        Dim             ....  290

ORBITAL ENERGIES
----------------

  NO   OCC          E(Eh)            E(eV)
   0   2.0000     -20.504828      -557.9647
   1   2.0000     -15.617292      -424.9681
   2   2.0000     -11.347951      -308.7934
   3   2.0000     -11.308417      -307.7177
   4   2.0000     -11.276159      -306.8399
   5   2.0000     -11.240395      -305.8667
   6   2.0000     -11.235260      -305.7270
   7   2.0000     -11.228330      -305.5384
   8   2.0000      -1.374688       -37.4072
   9   2.0000      -1.271162       -34.5901
  10   2.0000      -1.122308       -30.5396
  11   2.0000      -1.028313       -27.9818
  12   2.0000      -0.979652       -26.6577
  13   2.0000      -0.869208       -23.6523
  14   2.0000      -0.830402       -22.5964
  15   2.0000      -0.752408       -20.4741
  16   2.0000      -0.700520       -19.0621
  17   2.0000      -0.660747       -17.9798
  18   2.0000      -0.620665       -16.8892
  19   2.0000      -0.611345       -16.6355
  20   2.0000      -0.609143       -16.5756
  21   2.0000      -0.580001       -15.7826
  22   2.0000      -0.566590       -15.4177
  23   2.0000      -0.544545       -14.8178
  24   2.0000      -0.522118       -14.2076
  25   2.0000      -0.484080       -13.1725
  26   2.0000      -0.422014       -11.4836
  27   2.0000      -0.406832       -11.0705
  28   2.0000      -0.312299        -8.4981
  29   0.0000       0.093665         2.5488
  30   0.0000       0.130288         3.5453
  31   0.0000       0.140363         3.8195
  32   0.0000       0.146686         3.9915
  33   0.0000       0.171886         4.6773

MULLIKEN ATOMIC CHARGES
-----------------------
   0 C :   -0.430674
   1 C :    0.115410
   2 C :   -0.210714
   3 C :    0.209079
   4 O :   -0.370146
   5 N :   -0.210150
   6 C :   -0.022085
   7 C :   -0.194153
   8 H :    0.147310
   9 H :    0.143392
  10 H :    0.147171
  11 H :    0.135592
  12 H :    0.248612
  13 H :    0.150028
  14 H :    0.141328
Sum of atomic charges:    0.0000000

LOEWDIN ATOMIC CHARGES
----------------------
   0 C :   -0.258281
   1 C :   -0.166627
   2 C :   -0.096404
   3 C :   -0.434175
   4 O :    0.058547
   5 N :    0.194320
   6 C :   -0.195218
   7 C :   -0.159967
   8 H :    0.134982
   9 H :    0.131462
  10 H :    0.134889
  11 H :    0.156482
  12 H :    0.202263
  13 H :    0.144964
  14 H :    0.152765

  Mayer bond orders larger than 0.1
B(  0-C ,  1-C ) :   0.8672 B(  0-C ,  8-H ) :   0.9308 B(  0-C ,  9-H ) :   0.9483
B(  0-C , 10-H ) :   0.9311 B(  1-C ,  2-C ) :   1.4636 B(  1-C ,  7-C ) :   1.1078
B(  2-C ,  3-C ) :   1.0830 B(  2-C , 11-H ) :   0.9364 B(  3-C ,  4-O ) :   1.9611
B(  3-C ,  5-N ) :   1.0379 B(  5-N ,  6-C ) :   1.1712 B(  5-N , 12-H ) :   0.8551
B(  6-C ,  7-C ) :   1.5620 B(  6-C , 13-H ) :   0.9094 B(  7-C , 14-H ) :   0.9262

MP2 TOTAL ENERGY:     -362.109099541 Eh
FINAL SINGLE POINT ENERGY      -362.109099541145

DIPOLE MOMENT
-------------
                                X             Y             Z
Electronic contribution:      0.02898      -6.48257      -2.51067
Nuclear contribution   :      0.01906       7.00510       4.10379
                        -----------------------------------------
Total Dipole Moment    :      0.04804       0.52253       1.59312
                        -----------------------------------------
Magnitude (a.u.)       :      1.67731
Magnitude (Debye)      :      4.26338

                             ****ORCA TERMINATED NORMALLY****
TOTAL RUN TIME: 0 days 0 hours 11 minutes 24 seconds 510 msec
