                         Program Version 3.0.3 - RELEASE   -
|  1> ! RI-MP2 RIJK def2-TZVP def2-TZVP/C def2-TZVP/JK TIGHTSCF
|  2> % maxcore 2000
|  3> % mp2 density relaxed end
|  4> *xyz 0 1
|  5>  N       -0.1197946108     1.1878772190    -0.1883910504
|  6>  C       -0.0766328322    -0.0521332877    -0.0324825267
|  7>  O        1.0201790531    -0.9076546799     0.1195350585
|  8>  C        0.1570671466    -2.0478268583     0.2699362751
|  9>  C        0.3558969280    -3.4667801071    -0.2080544622
| 10>  C       -0.6581687806    -3.8895514994     0.9154711984
| 11>  C       -0.5121920736    -2.4822223235     1.6033217618
| 12>  N       -1.5794482052    -1.4744153687     1.4263099022
| 13>  C       -1.0992361516    -1.1825409995     0.0486977900
| 14>  H        0.8142228570     1.6017269195    -0.1730128687
| 15>  H        0.1093289587    -3.6977569543    -1.2472126972
| 16>  H        1.3638207896    -3.8327104820     0.0084097647
| 17>  H       -1.6674546793    -4.0787270082     0.5426415654
| 18>  H       -0.3428168870    -4.7352692415     1.5279302660
| 19>  H       -0.0210125279    -2.4828158738     2.5780303905
| 20>  H       -2.5303568764    -1.8235235274     1.4753772110
| 21>  H       -1.8001729784    -1.2804158973    -0.7814666684
| 22> *
| 23>
| 24>                          ****END OF INPUT****

CARTESIAN COORDINATES (ANGSTROEM)
---------------------------------
  N     -0.119795    1.187877   -0.188391
  C     -0.076633   -0.052133   -0.032483
  O      1.020179   -0.907655    0.119535
  C      0.157067   -2.047827    0.269936
  C      0.355897   -3.466780   -0.208054
  C     -0.658169   -3.889551    0.915471
  C     -0.512192   -2.482222    1.603322
  N     -1.579448   -1.474415    1.426310
  C     -1.099236   -1.182541    0.048698
  H      0.814223    1.601727   -0.173013
  H      0.109329   -3.697757   -1.247213
  H      1.363821   -3.832710    0.008410
  H     -1.667455   -4.078727    0.542642
  H     -0.342817   -4.735269    1.527930
  H     -0.021013   -2.482816    2.578030
  H     -2.530357   -1.823524    1.475377
  H     -1.800173   -1.280416   -0.781467

 Total Charge           Charge          ....    0
 Multiplicity           Mult            ....    1
 Number of Electrons    NEL             ....   66
 Basis Dimension        Dim             ....  327

ORBITAL ENERGIES
----------------

  NO   OCC          E(Eh)            E(eV)
   0   2.0000     -20.593163      -560.3685
   1   2.0000     -15.563739      -423.5109
   2   2.0000     -15.539509      -422.8515
   3   2.0000     -11.338491      -308.5360
   4   2.0000     -11.304686      -307.6161
   5   2.0000     -11.283260      -307.0331
   6   2.0000     -11.273306      -306.7622
   7   2.0000     -11.248333      -306.0827
   8   2.0000     -11.247419      -306.0578
   9   2.0000      -1.437051       -39.1042
  10   2.0000      -1.253458       -34.1083
  11   2.0000      -1.198760       -32.6199
  12   2.0000      -1.103516       -30.0282
  13   2.0000      -0.981886       -26.7185
  14   2.0000      -0.900226       -24.4964
  15   2.0000      -0.885853       -24.1053
  16   2.0000      -0.779459       -21.2102
  17   2.0000      -0.719662       -19.5830
  18   2.0000      -0.713211       -19.4075
  19   2.0000      -0.699689       -19.0395
  20   2.0000      -0.684264       -18.6198
  21   2.0000      -0.653140       -17.7728
  22   2.0000      -0.597426       -16.2568
  23   2.0000      -0.566599       -15.4180
  24   2.0000      -0.555653       -15.1201
  25   2.0000      -0.526704       -14.3324
  26   2.0000      -0.519538       -14.1374
  27   2.0000      -0.499234       -13.5849
  28   2.0000      -0.474260       -12.9053
  29   2.0000      -0.446669       -12.1545
  30   2.0000      -0.438144       -11.9225
  31   2.0000      -0.394161       -10.7257
  32   2.0000      -0.378914       -10.3108
  33   0.0000       0.125465         3.4141
  34   0.0000       0.136924         3.7259
  35   0.0000       0.155255         4.2247
  36   0.0000       0.170203         4.6315
  37   0.0000       0.179663         4.8889

MULLIKEN ATOMIC CHARGES
-----------------------
   0 N :   -0.349993
   1 C :    0.090205
   2 O :   -0.276038
   3 C :    0.284428
   4 C :   -0.243194
   5 C :   -0.196661
   6 C :   -0.156305
   7 N :   -0.331301
   8 C :   -0.012052
   9 H :    0.232255
  10 H :    0.126076
  11 H :    0.130522
  12 H :    0.116979
  13 H :    0.130629
  14 H :    0.115134
  15 H :    0.208905
  16 H :    0.130412
Sum of atomic charges:   -0.0000000

LOEWDIN ATOMIC CHARGES
----------------------
   0 N :   -0.039120
   1 C :   -0.349951
   2 O :    0.244902
   3 C :   -0.264007
   4 C :   -0.198718
   5 C :   -0.204360
   6 C :   -0.199351
   7 N :    0.023751
   8 C :   -0.163697
   9 H :    0.175220
  10 H :    0.130938
  11 H :    0.145317
  12 H :    0.132324
  13 H :    0.131577
  14 H :    0.134016
  15 H :    0.159743
  16 H :    0.141415

  Mayer bond orders larger than 0.1
B(  0-N ,  1-C ) :   2.1244 B(  0-N ,  9-H ) :   0.8457 B(  1-C ,  2-O ) :   1.0374
B(  1-C ,  8-C ) :   0.8761 B(  2-O ,  3-C ) :   0.9381 B(  3-C ,  4-C ) :   0.9081
B(  3-C ,  6-C ) :   0.8546 B(  3-C ,  8-C ) :   0.9273 B(  4-C ,  5-C ) :   0.9367
B(  4-C , 10-H ) :   0.9160 B(  4-C , 11-H ) :   0.9085 B(  5-C ,  6-C ) :   0.8770
B(  5-C , 12-H ) :   0.9158 B(  5-C , 13-H ) :   0.9203 B(  6-C ,  7-N ) :   1.0074
B(  6-C , 14-H ) :   0.9121 B(  7-N ,  8-C ) :   0.9587 B(  7-N , 15-H ) :   0.8663
B(  8-C , 16-H ) :   0.8856

MP2 TOTAL ENERGY:     -417.240322563 Eh
FINAL SINGLE POINT ENERGY      -417.240322562869

DIPOLE MOMENT
-------------
                                X             Y             Z
Electronic contribution:      1.60764       5.67821      -0.49700
Nuclear contribution   :     -1.77809      -7.15932       0.39574
                        -----------------------------------------
Total Dipole Moment    :     -0.17046      -1.48110      -0.10126
                        -----------------------------------------
Magnitude (a.u.)       :      1.49432
Magnitude (Debye)      :      3.79825

                             ****ORCA TERMINATED NORMALLY****
TOTAL RUN TIME: 0 days 0 hours 16 minutes 37 seconds 951 msec
