                         Program Version 3.0.3 - RELEASE   -
|  1> ! RI-MP2 RIJK def2-TZVP def2-TZVP/C def2-TZVP/JK TIGHTSCF
|  2> % maxcore 2000
|  3> % mp2 density relaxed end
|  4> *xyz 0 1
|  5>  C        0.1411536082     1.4221280947    -0.2443935586
|  6>  C       -0.0123651903    -0.0624689643     0.1109474004
|  7>  N        0.4609358936    -0.3965781072     1.4602648939
|  8>  C       -1.4807079478    -0.5589452430    -0.0099948289
|  9>  C       -2.1123088631    -0.0875955923    -1.2539571132
| 10>  N       -2.6187939877     0.2851691249    -2.2230637240
| 11>  N       -1.5330755615    -2.0188641442    -0.0039131417
| 12>  C       -1.6868161049    -2.6638015578     1.2961994484
| 13>  C       -2.8231942144    -2.6225923947     0.3389678709
| 14>  H        1.1860648574     1.7232633728    -0.1218671442
| 15>  H       -0.1583095005     1.6361761254    -1.2736893675
| 16>  H       -0.4668628818     2.0480754000     0.4208484182
| 17>  H        0.5649316628    -0.6695347014    -0.5940358350
| 18>  H        1.4756494851    -0.4098074630     1.4717795373
| 19>  H        0.1833417186     0.3362434766     2.1093024691
| 20>  H       -2.0556188127    -0.1162018262     0.8268153211
| 21>  H       -1.1060285591    -3.5707433291     1.4319957502
| 22>  H       -1.7391683105    -2.0273595599     2.1746433407
| 23>  H       -3.6515875562    -1.9562321116     0.5730464847
| 24>  H       -3.0960062251    -3.4948197794    -0.2466114820
| 25> *
| 26>
| 27>                          ****END OF INPUT****

CARTESIAN COORDINATES (ANGSTROEM)
---------------------------------
  C      0.141154    1.422128   -0.244394
  C     -0.012365   -0.062469    0.110947
  N      0.460936   -0.396578    1.460265
  C     -1.480708   -0.558945   -0.009995
  C     -2.112309   -0.087596   -1.253957
  N     -2.618794    0.285169   -2.223064
  N     -1.533076   -2.018864   -0.003913
  C     -1.686816   -2.663802    1.296199
  C     -2.823194   -2.622592    0.338968
  H      1.186065    1.723263   -0.121867
  H     -0.158310    1.636176   -1.273689
  H     -0.466863    2.048075    0.420848
  H      0.564932   -0.669535   -0.594036
  H      1.475649   -0.409807    1.471780
  H      0.183342    0.336243    2.109302
  H     -2.055619   -0.116202    0.826815
  H     -1.106029   -3.570743    1.431996
  H     -1.739168   -2.027360    2.174643
  H     -3.651588   -1.956232    0.573046
  H     -3.096006   -3.494820   -0.246611

 Total Charge           Charge          ....    0
 Multiplicity           Mult            ....    1
 Number of Electrons    NEL             ....   68
 Basis Dimension        Dim             ....  345

ORBITAL ENERGIES
----------------

  NO   OCC          E(Eh)            E(eV)
   0   2.0000     -15.575462      -423.8299
   1   2.0000     -15.566630      -423.5895
   2   2.0000     -15.556596      -423.3165
   3   2.0000     -11.309950      -307.7594
   4   2.0000     -11.280452      -306.9567
   5   2.0000     -11.267658      -306.6086
   6   2.0000     -11.262907      -306.4793
   7   2.0000     -11.262166      -306.4591
   8   2.0000     -11.228543      -305.5442
   9   2.0000      -1.293573       -35.1999
  10   2.0000      -1.215172       -33.0665
  11   2.0000      -1.202424       -32.7196
  12   2.0000      -1.063869       -28.9494
  13   2.0000      -0.986414       -26.8417
  14   2.0000      -0.862874       -23.4800
  15   2.0000      -0.857389       -23.3307
  16   2.0000      -0.827520       -22.5180
  17   2.0000      -0.729528       -19.8515
  18   2.0000      -0.699026       -19.0215
  19   2.0000      -0.668836       -18.1999
  20   2.0000      -0.635820       -17.3016
  21   2.0000      -0.621385       -16.9087
  22   2.0000      -0.587586       -15.9890
  23   2.0000      -0.573102       -15.5949
  24   2.0000      -0.552267       -15.0279
  25   2.0000      -0.541344       -14.7307
  26   2.0000      -0.534509       -14.5447
  27   2.0000      -0.509575       -13.8662
  28   2.0000      -0.495479       -13.4827
  29   2.0000      -0.473331       -12.8800
  30   2.0000      -0.460033       -12.5181
  31   2.0000      -0.452435       -12.3114
  32   2.0000      -0.413233       -11.2446
  33   2.0000      -0.388048       -10.5593
  34   0.0000       0.118116         3.2141
  35   0.0000       0.140788         3.8310
  36   0.0000       0.161594         4.3972
  37   0.0000       0.165363         4.4997
  38   0.0000       0.175255         4.7689

MULLIKEN ATOMIC CHARGES
-----------------------
   0 C :   -0.396134
   1 C :   -0.014794
   2 N :   -0.542204
   3 C :    0.112389
   4 C :   -0.192258
   5 N :   -0.047341
   6 N :   -0.220643
   7 C :   -0.119379
   8 C :   -0.187953
   9 H :    0.131579
  10 H :    0.155511
  11 H :    0.122420
  12 H :    0.115837
  13 H :    0.239235
  14 H :    0.225564
  15 H :    0.107850
  16 H :    0.132594
  17 H :    0.112758
  18 H :    0.129018
  19 H :    0.135953
Sum of atomic charges:    0.0000000

LOEWDIN ATOMIC CHARGES
----------------------
   0 C :   -0.300297
   1 C :   -0.320444
   2 N :   -0.136501
   3 C :   -0.270962
   4 C :   -0.162886
   5 N :    0.066246
   6 N :    0.125724
   7 C :   -0.256800
   8 C :   -0.257732
   9 H :    0.124113
  10 H :    0.133380
  11 H :    0.123919
  12 H :    0.155858
  13 H :    0.156889
  14 H :    0.153624
  15 H :    0.161770
  16 H :    0.127271
  17 H :    0.122889
  18 H :    0.126238
  19 H :    0.127702

  Mayer bond orders larger than 0.1
B(  0-C ,  1-C ) :   0.9496 B(  0-C ,  9-H ) :   0.9352 B(  0-C , 10-H ) :   0.9259
B(  0-C , 11-H ) :   0.9205 B(  1-C ,  2-N ) :   0.9799 B(  1-C ,  3-C ) :   0.8807
B(  1-C , 12-H ) :   0.9202 B(  2-N , 13-H ) :   0.8946 B(  2-N , 14-H ) :   0.8874
B(  3-C ,  4-C ) :   0.9052 B(  3-C ,  6-N ) :   0.8737 B(  3-C , 15-H ) :   0.8959
B(  4-C ,  5-N ) :   2.8838 B(  6-N ,  7-C ) :   0.8798 B(  6-N ,  8-C ) :   0.8692
B(  7-C ,  8-C ) :   0.9422 B(  7-C , 16-H ) :   0.9281 B(  7-C , 17-H ) :   0.9234
B(  8-C , 18-H ) :   0.9206 B(  8-C , 19-H ) :   0.9267

MP2 TOTAL ENERGY:     -398.614222275 Eh
FINAL SINGLE POINT ENERGY      -398.614222274585

DIPOLE MOMENT
-------------
                                X             Y             Z
Electronic contribution:     -3.83460      -1.30592      -4.92735
Nuclear contribution   :      4.57995       1.43019       6.43661
                        -----------------------------------------
Total Dipole Moment    :      0.74535       0.12427       1.50926
                        -----------------------------------------
Magnitude (a.u.)       :      1.68785
Magnitude (Debye)      :      4.29018

                             ****ORCA TERMINATED NORMALLY****
TOTAL RUN TIME: 0 days 0 hours 19 minutes 52 seconds 544 msec
