                         Program Version 3.0.3 - RELEASE   -
|  1> ! RI-MP2 RIJK def2-TZVP def2-TZVP/C def2-TZVP/JK TIGHTSCF
|  2> % maxcore 2000
|  3> % mp2 density relaxed end
|  4> *xyz 0 1
|  5>  C       -0.3307574048     1.6188198299    -0.1393788013
|  6>  C        0.0652750152     0.1554068312     0.0093318366
|  7>  O       -1.0709408178    -0.5470979828     0.4776692885
|  8>  C        0.5701541403    -0.4367995454    -1.3175009830
|  9>  C        0.9851560544    -1.8910824858    -1.2186010251
| 10>  O        0.6704652603    -2.6030938873    -0.2776954456
| 11>  C        1.8030224616    -2.4467313885    -2.3382668027
| 12>  C        3.0305561691    -3.2164523172    -1.9416646525
| 13>  N        1.8699298799    -3.9079730292    -2.4777512157
| 14>  H        0.5186864826     2.2283035441    -0.4628475265
| 15>  H       -1.1368223513     1.7228124145    -0.8729813396
| 16>  H       -0.6922336822     2.0032394990     0.8177643926
| 17>  H        0.8868907027     0.0825449080     0.7422267456
| 18>  H       -0.7851407626    -1.4650501264     0.5817045446
| 19>  H       -0.2292880528    -0.3783581739    -2.0713519674
| 20>  H        1.4104829851     0.1439265230    -1.7199227691
| 21>  H        1.8125451321    -1.8817272088    -3.2654907680
| 22>  H        3.8988858093    -3.1783670435    -2.5928823176
| 23>  H        3.2387476612    -3.2911821348    -0.8779588743
| 24>  H        1.3381586577    -4.3012995961    -1.7000116995
| 25> *
| 26>
| 27>                          ****END OF INPUT****

CARTESIAN COORDINATES (ANGSTROEM)
---------------------------------
  C     -0.330757    1.618820   -0.139379
  C      0.065275    0.155407    0.009332
  O     -1.070941   -0.547098    0.477669
  C      0.570154   -0.436800   -1.317501
  C      0.985156   -1.891082   -1.218601
  O      0.670465   -2.603094   -0.277695
  C      1.803022   -2.446731   -2.338267
  C      3.030556   -3.216452   -1.941665
  N      1.869930   -3.907973   -2.477751
  H      0.518686    2.228304   -0.462848
  H     -1.136822    1.722812   -0.872981
  H     -0.692234    2.003239    0.817764
  H      0.886891    0.082545    0.742227
  H     -0.785141   -1.465050    0.581705
  H     -0.229288   -0.378358   -2.071352
  H      1.410483    0.143927   -1.719923
  H      1.812545   -1.881727   -3.265491
  H      3.898886   -3.178367   -2.592882
  H      3.238748   -3.291182   -0.877959
  H      1.338159   -4.301300   -1.700012

 Total Charge           Charge          ....    0
 Multiplicity           Mult            ....    1
 Number of Electrons    NEL             ....   70
 Basis Dimension        Dim             ....  345

ORBITAL ENERGIES
----------------

  NO   OCC          E(Eh)            E(eV)
   0   2.0000     -20.564851      -559.5981
   1   2.0000     -20.542682      -558.9948
   2   2.0000     -15.577405      -423.8827
   3   2.0000     -11.353724      -308.9505
   4   2.0000     -11.288342      -307.1714
   5   2.0000     -11.280818      -306.9667
   6   2.0000     -11.280107      -306.9473
   7   2.0000     -11.250775      -306.1491
   8   2.0000     -11.218426      -305.2689
   9   2.0000      -1.412176       -38.4273
  10   2.0000      -1.354159       -36.8485
  11   2.0000      -1.281957       -34.8838
  12   2.0000      -1.072672       -29.1889
  13   2.0000      -0.995709       -27.0946
  14   2.0000      -0.925935       -25.1960
  15   2.0000      -0.887054       -24.1380
  16   2.0000      -0.811274       -22.0759
  17   2.0000      -0.771639       -20.9974
  18   2.0000      -0.716901       -19.5079
  19   2.0000      -0.701574       -19.0908
  20   2.0000      -0.675279       -18.3753
  21   2.0000      -0.641407       -17.4536
  22   2.0000      -0.632562       -17.2129
  23   2.0000      -0.599656       -16.3175
  24   2.0000      -0.576676       -15.6922
  25   2.0000      -0.557061       -15.1584
  26   2.0000      -0.538180       -14.6446
  27   2.0000      -0.529878       -14.4187
  28   2.0000      -0.523284       -14.2393
  29   2.0000      -0.510555       -13.8929
  30   2.0000      -0.499493       -13.5919
  31   2.0000      -0.490564       -13.3489
  32   2.0000      -0.440104       -11.9758
  33   2.0000      -0.426810       -11.6141
  34   2.0000      -0.408648       -11.1199
  35   0.0000       0.115095         3.1319
  36   0.0000       0.129459         3.5227
  37   0.0000       0.153841         4.1862
  38   0.0000       0.165738         4.5100
  39   0.0000       0.169328         4.6076

MULLIKEN ATOMIC CHARGES
-----------------------
   0 C :   -0.374257
   1 C :    0.118064
   2 O :   -0.480544
   3 C :   -0.279526
   4 C :    0.224864
   5 O :   -0.380376
   6 C :   -0.087477
   7 C :   -0.147786
   8 N :   -0.350560
   9 H :    0.118346
  10 H :    0.126527
  11 H :    0.145570
  12 H :    0.080405
  13 H :    0.333828
  14 H :    0.143354
  15 H :    0.142935
  16 H :    0.145521
  17 H :    0.134905
  18 H :    0.144391
  19 H :    0.241813
Sum of atomic charges:   -0.0000000

LOEWDIN ATOMIC CHARGES
----------------------
   0 C :   -0.292763
   1 C :   -0.377743
   2 O :   -0.018545
   3 C :   -0.223919
   4 C :   -0.311507
   5 O :    0.122593
   6 C :   -0.254034
   7 C :   -0.245429
   8 N :    0.009902
   9 H :    0.123433
  10 H :    0.126072
  11 H :    0.129336
  12 H :    0.135913
  13 H :    0.173341
  14 H :    0.164354
  15 H :    0.156736
  16 H :    0.148990
  17 H :    0.127835
  18 H :    0.129117
  19 H :    0.176318

  Mayer bond orders larger than 0.1
B(  0-C ,  1-C ) :   0.9027 B(  0-C ,  9-H ) :   0.9357 B(  0-C , 10-H ) :   0.9348
B(  0-C , 11-H ) :   0.9401 B(  1-C ,  2-O ) :   0.9754 B(  1-C ,  3-C ) :   0.9246
B(  1-C , 12-H ) :   0.9399 B(  2-O , 13-H ) :   0.8178 B(  3-C ,  4-C ) :   0.9256
B(  3-C , 14-H ) :   0.8733 B(  3-C , 15-H ) :   0.9088 B(  4-C ,  5-O ) :   1.7812
B(  4-C ,  6-C ) :   0.9619 B(  6-C ,  7-C ) :   0.9048 B(  6-C ,  8-N ) :   0.9405
B(  6-C , 16-H ) :   0.9109 B(  7-C ,  8-N ) :   0.9256 B(  7-C , 17-H ) :   0.9251
B(  7-C , 18-H ) :   0.9118 B(  8-N , 19-H ) :   0.8625

MP2 TOTAL ENERGY:     -439.562926460 Eh
FINAL SINGLE POINT ENERGY      -439.562926459565

DIPOLE MOMENT
-------------
                                X             Y             Z
Electronic contribution:     -0.34937      -6.65021       0.19423
Nuclear contribution   :      1.31892       7.21859      -0.58855
                        -----------------------------------------
Total Dipole Moment    :      0.96956       0.56838      -0.39432
                        -----------------------------------------
Magnitude (a.u.)       :      1.19104
Magnitude (Debye)      :      3.02739

                             ****ORCA TERMINATED NORMALLY****
TOTAL RUN TIME: 0 days 0 hours 18 minutes 32 seconds 930 msec
