                         Program Version 3.0.3 - RELEASE   -
|  1> ! RI-MP2 RIJK def2-TZVP def2-TZVP/C def2-TZVP/JK TIGHTSCF
|  2> % maxcore 2000
|  3> % mp2 density relaxed end
|  4> *xyz 0 1
|  5>  N       -0.0145936684     1.2714461138    -0.2025789981
|  6>  C        0.0163674654    -0.0125129307     0.2340264676
|  7>  O        0.9397700672    -0.5579402246     0.7970094917
|  8>  C       -1.3180739046    -0.7459689462     0.0105226369
|  9>  O       -2.3744631197    -0.1549139299     0.0234044879
| 10>  C       -1.2493204210    -2.2645036649    -0.2302135910
| 11>  N       -2.3510286849    -2.9146374360     0.2210974982
| 12>  O       -0.3125514683    -2.7599248552    -0.8168446962
| 13>  H        0.7534879332     1.8783783999     0.0352073486
| 14>  H       -0.8990178883     1.6786985715    -0.4600842386
| 15>  H       -3.1555477387    -2.3769023004     0.5003136340
| 16>  H       -2.4709848719    -3.8843174173    -0.0242436308
| 17> *
| 18>
| 19>                          ****END OF INPUT****

CARTESIAN COORDINATES (ANGSTROEM)
---------------------------------
  N     -0.014594    1.271446   -0.202579
  C      0.016367   -0.012513    0.234026
  O      0.939770   -0.557940    0.797009
  C     -1.318074   -0.745969    0.010523
  O     -2.374463   -0.154914    0.023404
  C     -1.249320   -2.264504   -0.230214
  N     -2.351029   -2.914637    0.221097
  O     -0.312551   -2.759925   -0.816845
  H      0.753488    1.878378    0.035207
  H     -0.899018    1.678699   -0.460084
  H     -3.155548   -2.376902    0.500314
  H     -2.470985   -3.884317   -0.024244

 Total Charge           Charge          ....    0
 Multiplicity           Mult            ....    1
 Number of Electrons    NEL             ....   60
 Basis Dimension        Dim             ....  272

ORBITAL ENERGIES
----------------

  NO   OCC          E(Eh)            E(eV)
   0   2.0000     -20.616147      -560.9939
   1   2.0000     -20.550829      -559.2165
   2   2.0000     -20.550815      -559.2161
   3   2.0000     -15.605235      -424.6400
   4   2.0000     -15.605227      -424.6398
   5   2.0000     -11.384332      -309.7834
   6   2.0000     -11.382650      -309.7377
   7   2.0000     -11.382537      -309.7346
   8   2.0000      -1.459666       -39.7195
   9   2.0000      -1.410562       -38.3833
  10   2.0000      -1.406231       -38.2655
  11   2.0000      -1.238965       -33.7139
  12   2.0000      -1.235536       -33.6206
  13   2.0000      -0.979060       -26.6416
  14   2.0000      -0.879985       -23.9456
  15   2.0000      -0.790689       -21.5157
  16   2.0000      -0.771191       -20.9852
  17   2.0000      -0.731125       -19.8949
  18   2.0000      -0.714910       -19.4537
  19   2.0000      -0.690880       -18.7998
  20   2.0000      -0.645271       -17.5587
  21   2.0000      -0.636528       -17.3208
  22   2.0000      -0.617629       -16.8065
  23   2.0000      -0.591831       -16.1045
  24   2.0000      -0.557412       -15.1679
  25   2.0000      -0.540423       -14.7057
  26   2.0000      -0.480519       -13.0756
  27   2.0000      -0.440235       -11.9794
  28   2.0000      -0.434497       -11.8233
  29   2.0000      -0.421135       -11.4597
  30   0.0000       0.049930         1.3587
  31   0.0000       0.128451         3.4953
  32   0.0000       0.135375         3.6838
  33   0.0000       0.159063         4.3283
  34   0.0000       0.177318         4.8251

MULLIKEN ATOMIC CHARGES
-----------------------
   0 N :   -0.460126
   1 C :    0.244428
   2 O :   -0.299727
   3 C :    0.226629
   4 O :   -0.291700
   5 C :    0.244528
   6 N :   -0.460141
   7 O :   -0.299730
   8 H :    0.267501
   9 H :    0.280421
  10 H :    0.280412
  11 H :    0.267507
Sum of atomic charges:   -0.0000000

LOEWDIN ATOMIC CHARGES
----------------------
   0 N :    0.003723
   1 C :   -0.461877
   2 O :    0.130722
   3 C :   -0.235080
   4 O :    0.168939
   5 C :   -0.461876
   6 N :    0.003737
   7 O :    0.130715
   8 H :    0.178963
   9 H :    0.181534
  10 H :    0.181536
  11 H :    0.178964

  Mayer bond orders larger than 0.1
B(  0-N ,  1-C ) :   1.1824 B(  0-N ,  8-H ) :   0.8570 B(  0-N ,  9-H ) :   0.8548
B(  1-C ,  2-O ) :   1.9659 B(  1-C ,  3-C ) :   0.8531 B(  3-C ,  4-O ) :   1.8600
B(  3-C ,  5-C ) :   0.8531 B(  5-C ,  6-N ) :   1.1824 B(  5-C ,  7-O ) :   1.9660
B(  6-N , 10-H ) :   0.8548 B(  6-N , 11-H ) :   0.8570

MP2 TOTAL ENERGY:     -451.169070379 Eh
FINAL SINGLE POINT ENERGY      -451.169070379256

DIPOLE MOMENT
-------------
                                X             Y             Z
Electronic contribution:      0.88924      -0.49772      -0.01218
Nuclear contribution   :     -2.25384       1.26111       0.03046
                        -----------------------------------------
Total Dipole Moment    :     -1.36459       0.76339       0.01828
                        -----------------------------------------
Magnitude (a.u.)       :      1.56372
Magnitude (Debye)      :      3.97465

                             ****ORCA TERMINATED NORMALLY****
TOTAL RUN TIME: 0 days 0 hours 8 minutes 56 seconds 301 msec
