                         Program Version 3.0.3 - RELEASE   -
|  1> ! RI-MP2 RIJK def2-TZVP def2-TZVP/C def2-TZVP/JK TIGHTSCF
|  2> % maxcore 2000
|  3> % mp2 density relaxed end
|  4> *xyz 0 1
|  5>  C       -0.1668390508     1.5273730392    -0.0674182875
|  6>  C       -0.2582215918     0.0130558442    -0.2685761533
|  7>  C        0.9687460414    -0.5664748624    -0.9964290427
|  8>  C        0.8920163826    -2.0491565037    -1.2015900897
|  9>  N        1.6784719280    -2.8658664198    -0.5094508976
| 10>  N        1.3261578061    -4.1115058779    -0.9315953150
| 11>  C        0.3494920246    -4.0964723435    -1.8719811158
| 12>  N       -0.1882627138    -5.2820148612    -2.3817651882
| 13>  C        0.0363399419    -2.7670885991    -2.0784641874
| 14>  H        0.7142128902     1.7949261349     0.5265933653
| 15>  H       -0.0878529356     2.0515343756    -1.0267978707
| 16>  H       -1.0487957964     1.9152803078     0.4520636240
| 17>  H       -0.3618659501    -0.4876383516     0.7014599717
| 18>  H       -1.1649126558    -0.2317462885    -0.8358236706
| 19>  H        1.0788129544    -0.0623410651    -1.9660187094
| 20>  H        1.8743128935    -0.3491068649    -0.4201414692
| 21>  H        1.7467033661    -4.9156969017    -0.4992852703
| 22>  H        0.5151508271    -5.9267093153    -2.7239239368
| 23>  H       -0.8528471119    -5.0990200440    -3.1215663416
| 24>  H       -0.6875359396    -2.3738783932    -2.7745100551
| 25> *
| 26>
| 27>                          ****END OF INPUT****

CARTESIAN COORDINATES (ANGSTROEM)
---------------------------------
  C     -0.166839    1.527373   -0.067418
  C     -0.258222    0.013056   -0.268576
  C      0.968746   -0.566475   -0.996429
  C      0.892016   -2.049157   -1.201590
  N      1.678472   -2.865866   -0.509451
  N      1.326158   -4.111506   -0.931595
  C      0.349492   -4.096472   -1.871981
  N     -0.188263   -5.282015   -2.381765
  C      0.036340   -2.767089   -2.078464
  H      0.714213    1.794926    0.526593
  H     -0.087853    2.051534   -1.026798
  H     -1.048796    1.915280    0.452064
  H     -0.361866   -0.487638    0.701460
  H     -1.164913   -0.231746   -0.835824
  H      1.078813   -0.062341   -1.966019
  H      1.874313   -0.349107   -0.420141
  H      1.746703   -4.915697   -0.499285
  H      0.515151   -5.926709   -2.723924
  H     -0.852847   -5.099020   -3.121566
  H     -0.687536   -2.373878   -2.774510

 Total Charge           Charge          ....    0
 Multiplicity           Mult            ....    1
 Number of Electrons    NEL             ....   68
 Basis Dimension        Dim             ....  345

ORBITAL ENERGIES
----------------

  NO   OCC          E(Eh)            E(eV)
   0   2.0000     -15.615413      -424.9170
   1   2.0000     -15.583066      -424.0368
   2   2.0000     -15.562052      -423.4650
   3   2.0000     -11.310709      -307.7800
   4   2.0000     -11.248184      -306.0787
   5   2.0000     -11.217065      -305.2319
   6   2.0000     -11.215064      -305.1774
   7   2.0000     -11.208212      -304.9909
   8   2.0000     -11.201010      -304.7950
   9   2.0000      -1.359058       -36.9818
  10   2.0000      -1.223014       -33.2799
  11   2.0000      -1.099505       -29.9190
  12   2.0000      -1.040277       -28.3074
  13   2.0000      -1.020157       -27.7599
  14   2.0000      -0.934158       -25.4197
  15   2.0000      -0.812988       -22.1225
  16   2.0000      -0.806975       -21.9589
  17   2.0000      -0.755426       -20.5562
  18   2.0000      -0.727312       -19.7912
  19   2.0000      -0.674500       -18.3541
  20   2.0000      -0.637002       -17.3337
  21   2.0000      -0.612236       -16.6598
  22   2.0000      -0.596276       -16.2255
  23   2.0000      -0.587526       -15.9874
  24   2.0000      -0.573193       -15.5974
  25   2.0000      -0.551874       -15.0173
  26   2.0000      -0.520429       -14.1616
  27   2.0000      -0.485701       -13.2166
  28   2.0000      -0.483707       -13.1623
  29   2.0000      -0.470876       -12.8132
  30   2.0000      -0.464587       -12.6421
  31   2.0000      -0.437862       -11.9148
  32   2.0000      -0.346254        -9.4220
  33   2.0000      -0.311427        -8.4744
  34   0.0000       0.120185         3.2704
  35   0.0000       0.144350         3.9280
  36   0.0000       0.157788         4.2936
  37   0.0000       0.167162         4.5487
  38   0.0000       0.183860         5.0031

MULLIKEN ATOMIC CHARGES
-----------------------
   0 C :   -0.384342
   1 C :   -0.192762
   2 C :   -0.299056
   3 C :    0.116180
   4 N :   -0.230148
   5 N :   -0.147450
   6 C :    0.197834
   7 N :   -0.532787
   8 C :   -0.258872
   9 H :    0.123581
  10 H :    0.118388
  11 H :    0.130701
  12 H :    0.117584
  13 H :    0.103026
  14 H :    0.117039
  15 H :    0.129596
  16 H :    0.249412
  17 H :    0.252169
  18 H :    0.255929
  19 H :    0.133978
Sum of atomic charges:   -0.0000000

LOEWDIN ATOMIC CHARGES
----------------------
   0 C :   -0.322899
   1 C :   -0.287864
   2 C :   -0.235023
   3 C :   -0.287312
   4 N :    0.037711
   5 N :    0.130387
   6 C :   -0.345428
   7 N :   -0.093890
   8 C :   -0.184453
   9 H :    0.120645
  10 H :    0.118940
  11 H :    0.119879
  12 H :    0.137488
  13 H :    0.133068
  14 H :    0.143277
  15 H :    0.148697
  16 H :    0.184599
  17 H :    0.168273
  18 H :    0.174418
  19 H :    0.139487

  Mayer bond orders larger than 0.1
B(  0-C ,  1-C ) :   0.9137 B(  0-C ,  9-H ) :   0.9397 B(  0-C , 10-H ) :   0.9391
B(  0-C , 11-H ) :   0.9421 B(  1-C ,  2-C ) :   0.9248 B(  1-C , 12-H ) :   0.9348
B(  1-C , 13-H ) :   0.9341 B(  2-C ,  3-C ) :   0.8937 B(  2-C , 14-H ) :   0.9343
B(  2-C , 15-H ) :   0.9338 B(  3-C ,  4-N ) :   1.6131 B(  3-C ,  8-C ) :   1.2610
B(  4-N ,  5-N ) :   1.0169 B(  4-N ,  6-C ) :   0.1016 B(  5-N ,  6-C ) :   1.2096
B(  5-N , 16-H ) :   0.8724 B(  6-C ,  7-N ) :   1.0209 B(  6-C ,  8-C ) :   1.4368
B(  7-N , 17-H ) :   0.8723 B(  7-N , 18-H ) :   0.8807 B(  8-C , 19-H ) :   0.9086

MP2 TOTAL ENERGY:     -398.665098080 Eh
FINAL SINGLE POINT ENERGY      -398.665098079545

DIPOLE MOMENT
-------------
                                X             Y             Z
Electronic contribution:      3.29809     -11.12376      -1.69298
Nuclear contribution   :     -3.57356      10.28673       0.83951
                        -----------------------------------------
Total Dipole Moment    :     -0.27547      -0.83703      -0.85348
                        -----------------------------------------
Magnitude (a.u.)       :      1.22676
Magnitude (Debye)      :      3.11817

                             ****ORCA TERMINATED NORMALLY****
TOTAL RUN TIME: 0 days 0 hours 18 minutes 26 seconds 82 msec
