                         Program Version 3.0.3 - RELEASE   -
|  1> ! RI-MP2 RIJK def2-TZVP def2-TZVP/C def2-TZVP/JK TIGHTSCF
|  2> % maxcore 2000
|  3> % mp2 density relaxed end
|  4> *xyz 0 1
|  5>  C        0.0492982540     1.5024580777    -0.2172846436
|  6>  O        1.4726341989     1.4491116883     0.1430711164
|  7>  C        1.1880765479     0.2600538368     0.9106918369
|  8>  C        1.8258510490    -1.1285697685     1.0373462808
|  9>  C        0.5171188030    -1.7615051179     1.5955120778
| 10>  C       -0.1771533993    -0.7205274843     2.4555655072
| 11>  C        0.6821822475     0.5256469229     2.3566968146
| 12>  C       -0.7222758971    -0.9848742308     1.0666801069
| 13>  C       -0.0673073048    -0.0201876479     0.1002276004
| 14>  H       -0.5033830087     2.1867053608     0.4346243960
| 15>  H       -0.0825807377     1.7944645330    -1.2619593135
| 16>  H        2.1352377343    -1.5502319786     0.0777255993
| 17>  H        2.6497770501    -1.2081729869     1.7531298258
| 18>  H        0.4547292131    -2.8184320225     1.8180332202
| 19>  H       -0.7301774975    -0.9908254840     3.3460498863
| 20>  H        1.5064420698     0.5482079024     3.0769788741
| 21>  H        0.1145156047     1.4543362496     2.4476016212
| 22>  H       -1.6573666694    -1.5047775207     0.9033871539
| 23>  H        0.1953874723    -0.5446629195    -0.8240992707
| 24> *
| 25>
| 26>                          ****END OF INPUT****

CARTESIAN COORDINATES (ANGSTROEM)
---------------------------------
  C      0.049298    1.502458   -0.217285
  O      1.472634    1.449112    0.143071
  C      1.188077    0.260054    0.910692
  C      1.825851   -1.128570    1.037346
  C      0.517119   -1.761505    1.595512
  C     -0.177153   -0.720527    2.455566
  C      0.682182    0.525647    2.356697
  C     -0.722276   -0.984874    1.066680
  C     -0.067307   -0.020188    0.100228
  H     -0.503383    2.186705    0.434624
  H     -0.082581    1.794465   -1.261959
  H      2.135238   -1.550232    0.077726
  H      2.649777   -1.208173    1.753130
  H      0.454729   -2.818432    1.818033
  H     -0.730177   -0.990825    3.346050
  H      1.506442    0.548208    3.076979
  H      0.114516    1.454336    2.447602
  H     -1.657367   -1.504778    0.903387
  H      0.195387   -0.544663   -0.824099

 Total Charge           Charge          ....    0
 Multiplicity           Mult            ....    1
 Number of Electrons    NEL             ....   66
 Basis Dimension        Dim             ....  339

ORBITAL ENERGIES
----------------

  NO   OCC          E(Eh)            E(eV)
   0   2.0000     -20.550554      -559.2090
   1   2.0000     -11.284077      -307.0553
   2   2.0000     -11.279692      -306.9360
   3   2.0000     -11.239320      -305.8374
   4   2.0000     -11.238028      -305.8023
   5   2.0000     -11.233958      -305.6915
   6   2.0000     -11.231220      -305.6170
   7   2.0000     -11.225995      -305.4749
   8   2.0000     -11.221057      -305.3405
   9   2.0000      -1.375464       -37.4283
  10   2.0000      -1.208808       -32.8933
  11   2.0000      -1.001756       -27.2592
  12   2.0000      -0.996876       -27.1264
  13   2.0000      -0.968795       -26.3623
  14   2.0000      -0.887997       -24.1636
  15   2.0000      -0.770607       -20.9693
  16   2.0000      -0.756854       -20.5950
  17   2.0000      -0.731928       -19.9168
  18   2.0000      -0.697574       -18.9819
  19   2.0000      -0.658999       -17.9323
  20   2.0000      -0.614973       -16.7343
  21   2.0000      -0.609563       -16.5871
  22   2.0000      -0.582488       -15.8503
  23   2.0000      -0.567963       -15.4551
  24   2.0000      -0.529783       -14.4161
  25   2.0000      -0.515965       -14.0401
  26   2.0000      -0.514483       -13.9998
  27   2.0000      -0.496404       -13.5079
  28   2.0000      -0.481005       -13.0888
  29   2.0000      -0.408858       -11.1256
  30   2.0000      -0.402657       -10.9569
  31   2.0000      -0.397371       -10.8130
  32   2.0000      -0.383207       -10.4276
  33   0.0000       0.142173         3.8687
  34   0.0000       0.162797         4.4299
  35   0.0000       0.164303         4.4709
  36   0.0000       0.167804         4.5662
  37   0.0000       0.190416         5.1815

MULLIKEN ATOMIC CHARGES
-----------------------
   0 C :   -0.032334
   1 O :   -0.320300
   2 C :    0.219487
   3 C :   -0.223209
   4 C :   -0.137335
   5 C :   -0.139134
   6 C :   -0.256177
   7 C :   -0.171338
   8 C :   -0.119305
   9 H :    0.097426
  10 H :    0.113840
  11 H :    0.121373
  12 H :    0.123496
  13 H :    0.133701
  14 H :    0.131843
  15 H :    0.122130
  16 H :    0.116689
  17 H :    0.132125
  18 H :    0.087019
Sum of atomic charges:   -0.0000000

LOEWDIN ATOMIC CHARGES
----------------------
   0 C :   -0.228983
   1 O :    0.144680
   2 C :   -0.291671
   3 C :   -0.183081
   4 C :   -0.143468
   5 C :   -0.175192
   6 C :   -0.177000
   7 C :   -0.155262
   8 C :   -0.171459
   9 H :    0.117680
  10 H :    0.119002
  11 H :    0.140391
  12 H :    0.138842
  13 H :    0.139780
  14 H :    0.141593
  15 H :    0.141463
  16 H :    0.140682
  17 H :    0.140093
  18 H :    0.161910

  Mayer bond orders larger than 0.1
B(  0-C ,  1-O ) :   0.9195 B(  0-C ,  8-C ) :   0.9643 B(  0-C ,  9-H ) :   0.9085
B(  0-C , 10-H ) :   0.9064 B(  1-O ,  2-C ) :   0.9905 B(  2-C ,  3-C ) :   0.9331
B(  2-C ,  6-C ) :   0.9177 B(  2-C ,  8-C ) :   0.8890 B(  3-C ,  4-C ) :   0.9325
B(  3-C , 11-H ) :   0.9150 B(  3-C , 12-H ) :   0.9243 B(  4-C ,  5-C ) :   0.8342
B(  4-C ,  7-C ) :   0.8445 B(  4-C , 13-H ) :   0.9323 B(  5-C ,  6-C ) :   0.9630
B(  5-C ,  7-C ) :   0.8518 B(  5-C , 14-H ) :   0.9293 B(  6-C , 15-H ) :   0.9259
B(  6-C , 16-H ) :   0.9142 B(  7-C ,  8-C ) :   0.9776 B(  7-C , 17-H ) :   0.9226
B(  8-C , 18-H ) :   0.9093

MP2 TOTAL ENERGY:     -385.169850748 Eh
FINAL SINGLE POINT ENERGY      -385.169850748316

DIPOLE MOMENT
-------------
                                X             Y             Z
Electronic contribution:      0.76795       1.37536      -1.16167
Nuclear contribution   :     -1.32151      -1.87799       1.36044
                        -----------------------------------------
Total Dipole Moment    :     -0.55356      -0.50263       0.19877
                        -----------------------------------------
Magnitude (a.u.)       :      0.77368
Magnitude (Debye)      :      1.96654

                             ****ORCA TERMINATED NORMALLY****
TOTAL RUN TIME: 0 days 0 hours 19 minutes 30 seconds 847 msec
