                         Program Version 3.0.3 - RELEASE   -
|  1> ! RI-MP2 RIJK def2-TZVP def2-TZVP/C def2-TZVP/JK TIGHTSCF
|  2> % maxcore 2000
|  3> % mp2 density relaxed end
|  4> *xyz 0 1
|  5>  O        0.1297539904     1.3551616624     0.2483073655
|  6>  C        0.0167158022    -0.0504148876     0.3384652883
|  7>  C       -1.3462039099    -0.5304051549    -0.1870240671
|  8>  N       -1.5041124816    -1.9683624450    -0.0726207566
|  9>  C       -1.8928836209    -2.7004355024     1.0089876954
| 10>  C       -1.7764025407    -3.9989478797     0.5675146113
| 11>  O       -2.0474897682    -5.1313982762     1.2418731033
| 12>  N       -1.3351151972    -4.0016889549    -0.7102226248
| 13>  N       -1.1657508981    -2.7593415872    -1.0976993332
| 14>  H        0.2651210359     1.5887123657    -0.6755886280
| 15>  H        0.8176395611    -0.5742865597    -0.2012274783
| 16>  H        0.1128561383    -0.3026525482     1.3993810314
| 17>  H       -2.1515511075    -0.0355700601     0.3619809064
| 18>  H       -1.4495654193    -0.2881058296    -1.2478383417
| 19>  H       -2.2110237371    -2.2629459828     1.9382888658
| 20>  H       -1.8643503374    -5.8624765697     0.6379105723
| 21> *
| 22>
| 23>                          ****END OF INPUT****

CARTESIAN COORDINATES (ANGSTROEM)
---------------------------------
  O      0.129754    1.355162    0.248307
  C      0.016716   -0.050415    0.338465
  C     -1.346204   -0.530405   -0.187024
  N     -1.504112   -1.968362   -0.072621
  C     -1.892884   -2.700436    1.008988
  C     -1.776403   -3.998948    0.567515
  O     -2.047490   -5.131398    1.241873
  N     -1.335115   -4.001689   -0.710223
  N     -1.165751   -2.759342   -1.097699
  H      0.265121    1.588712   -0.675589
  H      0.817640   -0.574287   -0.201227
  H      0.112856   -0.302653    1.399381
  H     -2.151551   -0.035570    0.361981
  H     -1.449565   -0.288106   -1.247838
  H     -2.211024   -2.262946    1.938289
  H     -1.864350   -5.862477    0.637911

 Total Charge           Charge          ....    0
 Multiplicity           Mult            ....    1
 Number of Electrons    NEL             ....   68
 Basis Dimension        Dim             ....  321

ORBITAL ENERGIES
----------------

  NO   OCC          E(Eh)            E(eV)
   0   2.0000     -20.597713      -560.4923
   1   2.0000     -20.577771      -559.9496
   2   2.0000     -15.668330      -426.3569
   3   2.0000     -15.644629      -425.7120
   4   2.0000     -15.593966      -424.3334
   5   2.0000     -11.321127      -308.0635
   6   2.0000     -11.298966      -307.4605
   7   2.0000     -11.293678      -307.3166
   8   2.0000     -11.276038      -306.8366
   9   2.0000      -1.453636       -39.5554
  10   2.0000      -1.411074       -38.3973
  11   2.0000      -1.383347       -37.6428
  12   2.0000      -1.223480       -33.2926
  13   2.0000      -1.079422       -29.3726
  14   2.0000      -1.035113       -28.1669
  15   2.0000      -0.905115       -24.6294
  16   2.0000      -0.847788       -23.0695
  17   2.0000      -0.828183       -22.5360
  18   2.0000      -0.748700       -20.3732
  19   2.0000      -0.724419       -19.7124
  20   2.0000      -0.693959       -18.8836
  21   2.0000      -0.670411       -18.2428
  22   2.0000      -0.646784       -17.5999
  23   2.0000      -0.635118       -17.2824
  24   2.0000      -0.606652       -16.5078
  25   2.0000      -0.591268       -16.0892
  26   2.0000      -0.576384       -15.6842
  27   2.0000      -0.564467       -15.3599
  28   2.0000      -0.519638       -14.1401
  29   2.0000      -0.508752       -13.8438
  30   2.0000      -0.477244       -12.9865
  31   2.0000      -0.448948       -12.2165
  32   2.0000      -0.403947       -10.9920
  33   2.0000      -0.337183        -9.1752
  34   0.0000       0.120175         3.2701
  35   0.0000       0.125244         3.4081
  36   0.0000       0.143504         3.9050
  37   0.0000       0.152754         4.1566
  38   0.0000       0.175515         4.7760

MULLIKEN ATOMIC CHARGES
-----------------------
   0 O :   -0.464875
   1 C :   -0.066884
   2 C :   -0.179908
   3 N :    0.148063
   4 C :   -0.195260
   5 C :    0.197460
   6 O :   -0.438522
   7 N :   -0.193752
   8 N :   -0.201004
   9 H :    0.323226
  10 H :    0.133459
  11 H :    0.123655
  12 H :    0.147048
  13 H :    0.151376
  14 H :    0.168629
  15 H :    0.347287
Sum of atomic charges:   -0.0000000

LOEWDIN ATOMIC CHARGES
----------------------
   0 O :   -0.037104
   1 C :   -0.345586
   2 C :   -0.256744
   3 N :    0.183957
   4 C :   -0.215327
   5 C :   -0.432101
   6 O :    0.073777
   7 N :   -0.001298
   8 N :   -0.040158
   9 H :    0.178769
  10 H :    0.123757
  11 H :    0.130525
  12 H :    0.143581
  13 H :    0.145451
  14 H :    0.144695
  15 H :    0.203804

  Mayer bond orders larger than 0.1
B(  0-O ,  1-C ) :   0.9562 B(  0-O ,  9-H ) :   0.8435 B(  1-C ,  2-C ) :   0.9037
B(  1-C , 10-H ) :   0.9398 B(  1-C , 11-H ) :   0.9246 B(  2-C ,  3-N ) :   0.8337
B(  2-C , 12-H ) :   0.9235 B(  2-C , 13-H ) :   0.9145 B(  3-N ,  4-C ) :   1.1632
B(  3-N ,  8-N ) :   1.0444 B(  4-C ,  5-C ) :   1.4244 B(  4-C ,  8-N ) :   0.1188
B(  4-C , 14-H ) :   0.9088 B(  5-C ,  6-O ) :   1.0995 B(  5-C ,  7-N ) :   1.3957
B(  6-O , 15-H ) :   0.8142 B(  7-N ,  8-N ) :   1.2204

MP2 TOTAL ENERGY:     -470.452922494 Eh
FINAL SINGLE POINT ENERGY      -470.452922493582

DIPOLE MOMENT
-------------
                                X             Y             Z
Electronic contribution:     -1.83403      -6.17432      -0.76856
Nuclear contribution   :      1.72393       6.87239       1.03853
                        -----------------------------------------
Total Dipole Moment    :     -0.11010       0.69808       0.26997
                        -----------------------------------------
Magnitude (a.u.)       :      0.75652
Magnitude (Debye)      :      1.92292

                             ****ORCA TERMINATED NORMALLY****
TOTAL RUN TIME: 0 days 0 hours 14 minutes 48 seconds 344 msec
