                         Program Version 3.0.3 - RELEASE   -
|  1> ! RI-MP2 RIJK def2-TZVP def2-TZVP/C def2-TZVP/JK TIGHTSCF
|  2> % maxcore 2000
|  3> % mp2 density relaxed end
|  4> *xyz 0 1
|  5>  C       -0.0316189657     1.5486268487    -0.0280372044
|  6>  C        0.0178866445     0.0397457500     0.0031573730
|  7>  C       -1.2983064759    -0.7793612225     0.0609307715
|  8>  O       -0.8601811078    -1.4848743085     1.2520431183
|  9>  C        0.3907975344    -0.7838413341     1.2604335497
| 10>  C        1.5686252685    -1.4258930208     0.4807493571
| 11>  N        0.9980893564    -2.0921046169    -0.7135080040
| 12>  C        1.2097901658    -0.6322079602    -0.7351930776
| 13>  H        0.9556855995     1.9808416428     0.1711820765
| 14>  H       -0.3584593861     1.9127662408    -1.0096203049
| 15>  H       -0.7267900811     1.9380265944     0.7226741346
| 16>  H       -2.1907757629    -0.1755037604     0.2688923600
| 17>  H       -1.4837346375    -1.4620802259    -0.7721844015
| 18>  H        0.6455529128    -0.3394958835     2.2271953652
| 19>  H        2.5352399574    -1.7260634790     0.8675632304
| 20>  H        1.7777078938    -2.5205134905    -1.2113699868
| 21>  H        1.8447374338    -0.1678483345    -1.4811219071
| 22> *
| 23>
| 24>                          ****END OF INPUT****

CARTESIAN COORDINATES (ANGSTROEM)
---------------------------------
  C     -0.031619    1.548627   -0.028037
  C      0.017887    0.039746    0.003157
  C     -1.298306   -0.779361    0.060931
  O     -0.860181   -1.484874    1.252043
  C      0.390798   -0.783841    1.260434
  C      1.568625   -1.425893    0.480749
  N      0.998089   -2.092105   -0.713508
  C      1.209790   -0.632208   -0.735193
  H      0.955686    1.980842    0.171182
  H     -0.358459    1.912766   -1.009620
  H     -0.726790    1.938027    0.722674
  H     -2.190776   -0.175504    0.268892
  H     -1.483735   -1.462080   -0.772184
  H      0.645553   -0.339496    2.227195
  H      2.535240   -1.726063    0.867563
  H      1.777708   -2.520513   -1.211370
  H      1.844737   -0.167848   -1.481122

 Total Charge           Charge          ....    0
 Multiplicity           Mult            ....    1
 Number of Electrons    NEL             ....   60
 Basis Dimension        Dim             ....  302

ORBITAL ENERGIES
----------------

  NO   OCC          E(Eh)            E(eV)
   0   2.0000     -20.538962      -558.8936
   1   2.0000     -15.565246      -423.5519
   2   2.0000     -11.280876      -306.9682
   3   2.0000     -11.267096      -306.5933
   4   2.0000     -11.267051      -306.5920
   5   2.0000     -11.263489      -306.4951
   6   2.0000     -11.240690      -305.8747
   7   2.0000     -11.226634      -305.4922
   8   2.0000      -1.375205       -37.4212
   9   2.0000      -1.272737       -34.6329
  10   2.0000      -1.066489       -29.0206
  11   2.0000      -0.970367       -26.4050
  12   2.0000      -0.920002       -25.0345
  13   2.0000      -0.849583       -23.1183
  14   2.0000      -0.819095       -22.2887
  15   2.0000      -0.731958       -19.9176
  16   2.0000      -0.693058       -18.8591
  17   2.0000      -0.653758       -17.7897
  18   2.0000      -0.631536       -17.1850
  19   2.0000      -0.620775       -16.8921
  20   2.0000      -0.565097       -15.3771
  21   2.0000      -0.558526       -15.1983
  22   2.0000      -0.552312       -15.0292
  23   2.0000      -0.525792       -14.3075
  24   2.0000      -0.516451       -14.0533
  25   2.0000      -0.470698       -12.8084
  26   2.0000      -0.445627       -12.1261
  27   2.0000      -0.414577       -11.2812
  28   2.0000      -0.398186       -10.8352
  29   2.0000      -0.361495        -9.8368
  30   0.0000       0.133259         3.6262
  31   0.0000       0.141304         3.8451
  32   0.0000       0.170852         4.6491
  33   0.0000       0.184463         5.0195
  34   0.0000       0.195286         5.3140

MULLIKEN ATOMIC CHARGES
-----------------------
   0 C :   -0.443598
   1 C :    0.177517
   2 C :   -0.029514
   3 O :   -0.331649
   4 C :    0.076477
   5 C :   -0.099912
   6 N :   -0.367202
   7 C :   -0.184573
   8 H :    0.134362
   9 H :    0.137899
  10 H :    0.142922
  11 H :    0.092048
  12 H :    0.104681
  13 H :    0.100023
  14 H :    0.138433
  15 H :    0.216248
  16 H :    0.135838
Sum of atomic charges:    0.0000000

LOEWDIN ATOMIC CHARGES
----------------------
   0 C :   -0.273982
   1 C :   -0.233030
   2 C :   -0.221062
   3 O :    0.142061
   4 C :   -0.214417
   5 C :   -0.208714
   6 N :    0.015555
   7 C :   -0.199743
   8 H :    0.129615
   9 H :    0.129837
  10 H :    0.130566
  11 H :    0.117476
  12 H :    0.123295
  13 H :    0.131524
  14 H :    0.126970
  15 H :    0.173901
  16 H :    0.130150

  Mayer bond orders larger than 0.1
B(  0-C ,  1-C ) :   0.8864 B(  0-C ,  8-H ) :   0.9329 B(  0-C ,  9-H ) :   0.9358
B(  0-C , 10-H ) :   0.9428 B(  1-C ,  2-C ) :   0.9714 B(  1-C ,  4-C ) :   0.9863
B(  1-C ,  7-C ) :   0.8896 B(  2-C ,  3-O ) :   0.9508 B(  2-C , 11-H ) :   0.9042
B(  2-C , 12-H ) :   0.8961 B(  3-O ,  4-C ) :   0.9768 B(  4-C ,  5-C ) :   0.8832
B(  4-C , 13-H ) :   0.9320 B(  5-C ,  6-N ) :   0.9074 B(  5-C ,  7-C ) :   0.9193
B(  5-C , 14-H ) :   0.9124 B(  6-N ,  7-C ) :   0.9579 B(  6-N , 15-H ) :   0.8655
B(  7-C , 16-H ) :   0.9136

MP2 TOTAL ENERGY:     -363.159961892 Eh
FINAL SINGLE POINT ENERGY      -363.159961892416

DIPOLE MOMENT
-------------
                                X             Y             Z
Electronic contribution:      0.03409      -4.59978       1.42631
Nuclear contribution   :      0.86099       5.38439      -1.88964
                        -----------------------------------------
Total Dipole Moment    :      0.89507       0.78461      -0.46333
                        -----------------------------------------
Magnitude (a.u.)       :      1.27728
Magnitude (Debye)      :      3.24659

                             ****ORCA TERMINATED NORMALLY****
TOTAL RUN TIME: 0 days 0 hours 13 minutes 45 seconds 837 msec
