                         Program Version 3.0.3 - RELEASE   -
|  1> ! RI-MP2 RIJK def2-TZVP def2-TZVP/C def2-TZVP/JK TIGHTSCF
|  2> % maxcore 2000
|  3> % mp2 density relaxed end
|  4> *xyz 0 1
|  5>  C       -0.2048131889     1.5686898153     0.0281300379
|  6>  C        0.0353973020     0.0590217871    -0.0358541862
|  7>  O        0.6886419304    -0.3384613540    -1.2439267236
|  8>  C        2.0728687748    -0.0410767356    -1.3435508321
|  9>  C        2.8729630812    -0.1512686706    -0.0596180465
| 10>  C        2.2445767865     0.0672424363     1.2540741433
| 11>  C        0.8112689513    -0.4803448332     1.1683030481
| 12>  C        1.4704007941    -1.8651817399     0.9368795551
| 13>  N        2.8583359919    -1.2764216014     0.9058452879
| 14>  H        0.7353846104     2.1218104497     0.1200078180
| 15>  H       -0.7169347118     1.9091391059    -0.8758645220
| 16>  H       -0.8273952943     1.8205443080     0.8930377146
| 17>  H       -0.9327804161    -0.4527506924    -0.0924281054
| 18>  H        2.4654697061    -0.7271983534    -2.1027802132
| 19>  H        2.2234081115     0.9832305180    -1.7248026051
| 20>  H        3.8879539294     0.2226236990    -0.1765950343
| 21>  H        2.6510323977     0.7061569270     2.0311067664
| 22>  H        0.2281799220    -0.3972471316     2.0868592142
| 23>  H        1.3998620545    -2.5219674253     1.8064552485
| 24>  H        1.1838464573    -2.4131794788     0.0365510644
| 25> *
| 26>
| 27>                          ****END OF INPUT****

CARTESIAN COORDINATES (ANGSTROEM)
---------------------------------
  C     -0.204813    1.568690    0.028130
  C      0.035397    0.059022   -0.035854
  O      0.688642   -0.338461   -1.243927
  C      2.072869   -0.041077   -1.343551
  C      2.872963   -0.151269   -0.059618
  C      2.244577    0.067242    1.254074
  C      0.811269   -0.480345    1.168303
  C      1.470401   -1.865182    0.936880
  N      2.858336   -1.276422    0.905845
  H      0.735385    2.121810    0.120008
  H     -0.716935    1.909139   -0.875865
  H     -0.827395    1.820544    0.893038
  H     -0.932780   -0.452751   -0.092428
  H      2.465470   -0.727198   -2.102780
  H      2.223408    0.983231   -1.724803
  H      3.887954    0.222624   -0.176595
  H      2.651032    0.706157    2.031107
  H      0.228180   -0.397247    2.086859
  H      1.399862   -2.521967    1.806455
  H      1.183846   -2.413179    0.036551

 Total Charge           Charge          ....    0
 Multiplicity           Mult            ....    1
 Number of Electrons    NEL             ....   68
 Basis Dimension        Dim             ....  345

ORBITAL ENERGIES
----------------

  NO   OCC          E(Eh)            E(eV)
   0   2.0000     -20.552572      -559.2639
   1   2.0000     -15.557713      -423.3469
   2   2.0000     -11.283033      -307.0269
   3   2.0000     -11.281210      -306.9773
   4   2.0000     -11.261652      -306.4451
   5   2.0000     -11.259595      -306.3892
   6   2.0000     -11.250216      -306.1339
   7   2.0000     -11.236532      -305.7616
   8   2.0000     -11.220381      -305.3221
   9   2.0000      -1.376679       -37.4613
  10   2.0000      -1.284597       -34.9557
  11   2.0000      -1.067434       -29.0464
  12   2.0000      -0.995717       -27.0948
  13   2.0000      -0.957192       -26.0465
  14   2.0000      -0.921207       -25.0673
  15   2.0000      -0.848329       -23.0842
  16   2.0000      -0.766131       -20.8475
  17   2.0000      -0.723357       -19.6836
  18   2.0000      -0.705362       -19.1939
  19   2.0000      -0.664698       -18.0874
  20   2.0000      -0.646773       -17.5996
  21   2.0000      -0.621421       -16.9097
  22   2.0000      -0.588134       -16.0039
  23   2.0000      -0.567950       -15.4547
  24   2.0000      -0.563954       -15.3460
  25   2.0000      -0.559219       -15.2171
  26   2.0000      -0.545168       -14.8348
  27   2.0000      -0.520254       -14.1568
  28   2.0000      -0.497326       -13.5329
  29   2.0000      -0.447057       -12.1650
  30   2.0000      -0.439820       -11.9681
  31   2.0000      -0.433051       -11.7839
  32   2.0000      -0.400026       -10.8853
  33   2.0000      -0.365287        -9.9400
  34   0.0000       0.130445         3.5496
  35   0.0000       0.155480         4.2308
  36   0.0000       0.161954         4.4070
  37   0.0000       0.173961         4.7337
  38   0.0000       0.189340         5.1522

MULLIKEN ATOMIC CHARGES
-----------------------
   0 C :   -0.435181
   1 C :    0.076273
   2 O :   -0.326808
   3 C :   -0.018581
   4 C :   -0.106596
   5 C :   -0.130067
   6 C :   -0.037413
   7 C :   -0.155749
   8 N :   -0.236091
   9 H :    0.137223
  10 H :    0.144720
  11 H :    0.129395
  12 H :    0.102112
  13 H :    0.125632
  14 H :    0.101631
  15 H :    0.122678
  16 H :    0.132353
  17 H :    0.124281
  18 H :    0.121887
  19 H :    0.128300
Sum of atomic charges:   -0.0000000

LOEWDIN ATOMIC CHARGES
----------------------
   0 C :   -0.290400
   1 C :   -0.322909
   2 O :    0.170652
   3 C :   -0.299353
   4 C :   -0.256588
   5 C :   -0.181502
   6 C :   -0.207699
   7 C :   -0.215259
   8 N :    0.113295
   9 H :    0.126237
  10 H :    0.127887
  11 H :    0.127961
  12 H :    0.147163
  13 H :    0.136181
  14 H :    0.130248
  15 H :    0.155381
  16 H :    0.131360
  17 H :    0.150378
  18 H :    0.129292
  19 H :    0.127676

  Mayer bond orders larger than 0.1
B(  0-C ,  1-C ) :   0.9049 B(  0-C ,  9-H ) :   0.9331 B(  0-C , 10-H ) :   0.9404
B(  0-C , 11-H ) :   0.9310 B(  1-C ,  2-O ) :   0.9051 B(  1-C ,  6-C ) :   0.9119
B(  1-C , 12-H ) :   0.9226 B(  2-O ,  3-C ) :   0.9355 B(  3-C ,  4-C ) :   0.9269
B(  3-C , 13-H ) :   0.9198 B(  3-C , 14-H ) :   0.9207 B(  4-C ,  5-C ) :   0.9529
B(  4-C ,  8-N ) :   0.9266 B(  4-C , 15-H ) :   0.9255 B(  5-C ,  6-C ) :   0.8753
B(  5-C ,  8-N ) :   0.8662 B(  5-C , 16-H ) :   0.9044 B(  6-C ,  7-C ) :   0.9464
B(  6-C , 17-H ) :   0.9174 B(  7-C ,  8-N ) :   0.9244 B(  7-C , 18-H ) :   0.9236
B(  7-C , 19-H ) :   0.9227

MP2 TOTAL ENERGY:     -402.415306684 Eh
FINAL SINGLE POINT ENERGY      -402.415306683795

DIPOLE MOMENT
-------------
                                X             Y             Z
Electronic contribution:      2.52938      -3.22056      -0.13824
Nuclear contribution   :     -2.90819       3.81823       0.36042
                        -----------------------------------------
Total Dipole Moment    :     -0.37882       0.59766       0.22218
                        -----------------------------------------
Magnitude (a.u.)       :      0.74167
Magnitude (Debye)      :      1.88517

                             ****ORCA TERMINATED NORMALLY****
TOTAL RUN TIME: 0 days 0 hours 22 minutes 48 seconds 735 msec
