                         Program Version 3.0.3 - RELEASE   -
|  1> ! RI-MP2 RIJK def2-TZVP def2-TZVP/C def2-TZVP/JK TIGHTSCF
|  2> % maxcore 2000
|  3> % mp2 density relaxed end
|  4> *xyz 0 1
|  5>  C        0.5394051857     1.3228591826    -0.5507484422
|  6>  C        0.0586515892     0.0110769876     0.0128254908
|  7>  O        1.0332398140    -1.0260661100     0.2589002749
|  8>  C        0.3385065476    -0.4691485164     1.3746276023
|  9>  C        1.1896655665     0.2962640495     2.3646926251
| 10>  C        2.3343898114    -0.4358255732     2.9916257976
| 11>  N        2.5870565762     0.6070062200     1.9928141399
| 12>  C        0.4669718959     1.2939432764     3.1122471164
| 13>  C       -0.1841447449     2.0955042563     3.7277694891
| 14>  H        1.3818080882     1.7320575992     0.0088596783
| 15>  H        0.8380872268     1.1974775557    -1.5967402816
| 16>  H       -0.2762101210     2.0529182334    -0.5214759791
| 17>  H       -0.8471713248    -0.3780081300    -0.4551440883
| 18>  H       -0.3878929073    -1.1376929036     1.8388709918
| 19>  H        2.6274977161    -0.1868728069     4.0064813139
| 20>  H        2.4714021865    -1.4750963398     2.7034479967
| 21>  H        2.7525965724     0.1511487888     1.0952107991
| 22>  H       -0.7416846583     2.8145237803     4.2753415253
| 23> *
| 24>
| 25>                          ****END OF INPUT****

CARTESIAN COORDINATES (ANGSTROEM)
---------------------------------
  C      0.539405    1.322859   -0.550748
  C      0.058652    0.011077    0.012825
  O      1.033240   -1.026066    0.258900
  C      0.338507   -0.469149    1.374628
  C      1.189666    0.296264    2.364693
  C      2.334390   -0.435826    2.991626
  N      2.587057    0.607006    1.992814
  C      0.466972    1.293943    3.112247
  C     -0.184145    2.095504    3.727769
  H      1.381808    1.732058    0.008860
  H      0.838087    1.197478   -1.596740
  H     -0.276210    2.052918   -0.521476
  H     -0.847171   -0.378008   -0.455144
  H     -0.387893   -1.137693    1.838871
  H      2.627498   -0.186873    4.006481
  H      2.471402   -1.475096    2.703448
  H      2.752597    0.151149    1.095211
  H     -0.741685    2.814524    4.275342

 Total Charge           Charge          ....    0
 Multiplicity           Mult            ....    1
 Number of Electrons    NEL             ....   66
 Basis Dimension        Dim             ....  333

ORBITAL ENERGIES
----------------

  NO   OCC          E(Eh)            E(eV)
   0   2.0000     -20.578842      -559.9788
   1   2.0000     -15.569906      -423.6787
   2   2.0000     -11.302078      -307.5452
   3   2.0000     -11.298509      -307.4481
   4   2.0000     -11.298070      -307.4361
   5   2.0000     -11.268593      -306.6340
   6   2.0000     -11.240794      -305.8775
   7   2.0000     -11.231501      -305.6247
   8   2.0000     -11.228442      -305.5414
   9   2.0000      -1.423339       -38.7310
  10   2.0000      -1.278750       -34.7965
  11   2.0000      -1.050472       -28.5848
  12   2.0000      -1.018763       -27.7219
  13   2.0000      -0.967599       -26.3297
  14   2.0000      -0.892536       -24.2872
  15   2.0000      -0.861600       -23.4453
  16   2.0000      -0.817530       -22.2461
  17   2.0000      -0.723546       -19.6887
  18   2.0000      -0.713385       -19.4122
  19   2.0000      -0.693533       -18.8720
  20   2.0000      -0.671631       -18.2760
  21   2.0000      -0.600135       -16.3305
  22   2.0000      -0.595217       -16.1967
  23   2.0000      -0.569192       -15.4885
  24   2.0000      -0.540069       -14.6960
  25   2.0000      -0.532800       -14.4982
  26   2.0000      -0.521884       -14.2012
  27   2.0000      -0.497101       -13.5268
  28   2.0000      -0.465817       -12.6755
  29   2.0000      -0.446212       -12.1421
  30   2.0000      -0.419766       -11.4224
  31   2.0000      -0.397056       -10.8044
  32   2.0000      -0.370686       -10.0869
  33   0.0000       0.140941         3.8352
  34   0.0000       0.154000         4.1906
  35   0.0000       0.161191         4.3862
  36   0.0000       0.164368         4.4727
  37   0.0000       0.168354         4.5811

MULLIKEN ATOMIC CHARGES
-----------------------
   0 C :   -0.397877
   1 C :    0.057789
   2 O :   -0.351218
   3 C :    0.007005
   4 C :   -0.091211
   5 C :   -0.182042
   6 N :   -0.363666
   7 C :   -0.002103
   8 C :   -0.077019
   9 H :    0.163507
  10 H :    0.141079
  11 H :    0.136268
  12 H :    0.112931
  13 H :    0.138896
  14 H :    0.133056
  15 H :    0.138779
  16 H :    0.241153
  17 H :    0.194675
Sum of atomic charges:    0.0000000

LOEWDIN ATOMIC CHARGES
----------------------
   0 C :   -0.289581
   1 C :   -0.270859
   2 O :    0.157351
   3 C :   -0.230631
   4 C :   -0.291657
   5 C :   -0.215694
   6 N :    0.026993
   7 C :   -0.059114
   8 C :   -0.078387
   9 H :    0.135002
  10 H :    0.130952
  11 H :    0.135459
  12 H :    0.139448
  13 H :    0.147650
  14 H :    0.131921
  15 H :    0.129876
  16 H :    0.172949
  17 H :    0.128321

  Mayer bond orders larger than 0.1
B(  0-C ,  1-C ) :   0.8801 B(  0-C ,  9-H ) :   0.9361 B(  0-C , 10-H ) :   0.9298
B(  0-C , 11-H ) :   0.9235 B(  1-C ,  2-O ) :   0.8699 B(  1-C ,  3-C ) :   0.9707
B(  1-C , 12-H ) :   0.9261 B(  2-O ,  3-C ) :   0.8703 B(  3-C ,  4-C ) :   0.9605
B(  3-C , 13-H ) :   0.8990 B(  4-C ,  5-C ) :   0.8984 B(  4-C ,  6-N ) :   0.8433
B(  4-C ,  7-C ) :   1.2185 B(  4-C ,  8-C ) :  -0.1831 B(  5-C ,  6-N ) :   0.9489
B(  5-C , 14-H ) :   0.9179 B(  5-C , 15-H ) :   0.9068 B(  6-N , 16-H ) :   0.8559
B(  7-C ,  8-C ) :   2.5672 B(  8-C , 17-H ) :   0.8771

MP2 TOTAL ENERGY:     -401.167147738 Eh
FINAL SINGLE POINT ENERGY      -401.167147737989

DIPOLE MOMENT
-------------
                                X             Y             Z
Electronic contribution:      0.04632      -1.39504       3.03064
Nuclear contribution   :     -0.71904       1.28059      -3.08025
                        -----------------------------------------
Total Dipole Moment    :     -0.67272      -0.11445      -0.04961
                        -----------------------------------------
Magnitude (a.u.)       :      0.68419
Magnitude (Debye)      :      1.73908

                             ****ORCA TERMINATED NORMALLY****
TOTAL RUN TIME: 0 days 0 hours 17 minutes 54 seconds 403 msec
