                         Program Version 3.0.3 - RELEASE   -
|  1> ! RI-MP2 RIJK def2-TZVP def2-TZVP/C def2-TZVP/JK TIGHTSCF
|  2> % maxcore 2000
|  3> % mp2 density relaxed end
|  4> *xyz 0 1
|  5>  C        0.1238658856     1.4631462423     0.0420683558
|  6>  C       -0.0768751482    -0.0417625157    -0.0405066904
|  7>  C       -1.5593492777    -0.4322844003    -0.0783414535
|  8>  O        0.6244552043    -0.4727939833    -1.1785962275
|  9>  C        0.7840663677    -1.8814777250    -1.2795081846
| 10>  C        1.5498351626    -2.3903321537    -0.0602347585
| 11>  C        0.9386716158    -1.8722825386     1.2173722398
| 12>  N        0.9278014870    -2.5585535919     2.2809972892
| 13>  O        0.4943975637    -0.5801590257     1.1821658436
| 14>  H        1.1926766717     1.6852871036     0.0550826285
| 15>  H       -0.3289435312     1.9472722289    -0.8263621799
| 16>  H       -0.3350779092     1.8546368609     0.9522218669
| 17>  H       -2.0199178026    -0.0571703308    -0.9960429546
| 18>  H       -1.6955935093    -1.5154717646    -0.0336845436
| 19>  H       -2.0756403389     0.0007626102     0.7814474513
| 20>  H       -0.1867183355    -2.3867034742    -1.3752585532
| 21>  H        1.3415684130    -2.0557936790    -2.2026029716
| 22>  H        1.5898152473    -3.4798704926    -0.0186180667
| 23>  H        2.5778007367    -2.0118509854    -0.1137952376
| 24>  H        0.5038398870    -2.0164608750     3.0375872068
| 25> *
| 26>
| 27>                          ****END OF INPUT****

CARTESIAN COORDINATES (ANGSTROEM)
---------------------------------
  C      0.123866    1.463146    0.042068
  C     -0.076875   -0.041763   -0.040507
  C     -1.559349   -0.432284   -0.078341
  O      0.624455   -0.472794   -1.178596
  C      0.784066   -1.881478   -1.279508
  C      1.549835   -2.390332   -0.060235
  C      0.938672   -1.872283    1.217372
  N      0.927801   -2.558554    2.280997
  O      0.494398   -0.580159    1.182166
  H      1.192677    1.685287    0.055083
  H     -0.328944    1.947272   -0.826362
  H     -0.335078    1.854637    0.952222
  H     -2.019918   -0.057170   -0.996043
  H     -1.695594   -1.515472   -0.033685
  H     -2.075640    0.000763    0.781447
  H     -0.186718   -2.386703   -1.375259
  H      1.341568   -2.055794   -2.202603
  H      1.589815   -3.479870   -0.018618
  H      2.577801   -2.011851   -0.113795
  H      0.503840   -2.016461    3.037587

 Total Charge           Charge          ....    0
 Multiplicity           Mult            ....    1
 Number of Electrons    NEL             ....   70
 Basis Dimension        Dim             ....  345

ORBITAL ENERGIES
----------------

  NO   OCC          E(Eh)            E(eV)
   0   2.0000     -20.586279      -560.1811
   1   2.0000     -20.575636      -559.8915
   2   2.0000     -15.530791      -422.6143
   3   2.0000     -11.358786      -309.0883
   4   2.0000     -11.336107      -308.4712
   5   2.0000     -11.293785      -307.3195
   6   2.0000     -11.241818      -305.9054
   7   2.0000     -11.229753      -305.5771
   8   2.0000     -11.222783      -305.3874
   9   2.0000      -1.446868       -39.3713
  10   2.0000      -1.374647       -37.4060
  11   2.0000      -1.195847       -32.5406
  12   2.0000      -1.076958       -29.3055
  13   2.0000      -1.023560       -27.8525
  14   2.0000      -0.960327       -26.1318
  15   2.0000      -0.899003       -24.4631
  16   2.0000      -0.834729       -22.7141
  17   2.0000      -0.745642       -20.2899
  18   2.0000      -0.715614       -19.4728
  19   2.0000      -0.692319       -18.8389
  20   2.0000      -0.657531       -17.8923
  21   2.0000      -0.648316       -17.6416
  22   2.0000      -0.620035       -16.8720
  23   2.0000      -0.597595       -16.2614
  24   2.0000      -0.593676       -16.1547
  25   2.0000      -0.566298       -15.4098
  26   2.0000      -0.548229       -14.9181
  27   2.0000      -0.543392       -14.7865
  28   2.0000      -0.534208       -14.5365
  29   2.0000      -0.515578       -14.0296
  30   2.0000      -0.499331       -13.5875
  31   2.0000      -0.468171       -12.7396
  32   2.0000      -0.452819       -12.3218
  33   2.0000      -0.434273       -11.8172
  34   2.0000      -0.394616       -10.7380
  35   0.0000       0.128054         3.4845
  36   0.0000       0.151655         4.1267
  37   0.0000       0.163031         4.4363
  38   0.0000       0.177802         4.8382
  39   0.0000       0.182496         4.9660

MULLIKEN ATOMIC CHARGES
-----------------------
   0 C :   -0.350276
   1 C :    0.270603
   2 C :   -0.420927
   3 O :   -0.287651
   4 C :   -0.091813
   5 C :   -0.131905
   6 C :    0.074211
   7 N :   -0.359872
   8 O :   -0.260252
   9 H :    0.138106
  10 H :    0.132625
  11 H :    0.133236
  12 H :    0.144339
  13 H :    0.139230
  14 H :    0.142760
  15 H :    0.109673
  16 H :    0.137073
  17 H :    0.135094
  18 H :    0.128653
  19 H :    0.217094
Sum of atomic charges:   -0.0000000

LOEWDIN ATOMIC CHARGES
----------------------
   0 C :   -0.260649
   1 C :   -0.462243
   2 C :   -0.270124
   3 O :    0.211716
   4 C :   -0.302467
   5 C :   -0.228777
   6 C :   -0.416721
   7 N :   -0.054558
   8 O :    0.260322
   9 H :    0.132229
  10 H :    0.132100
  11 H :    0.131169
  12 H :    0.132539
  13 H :    0.127289
  14 H :    0.133627
  15 H :    0.123681
  16 H :    0.132985
  17 H :    0.154996
  18 H :    0.157253
  19 H :    0.165632

  Mayer bond orders larger than 0.1
B(  0-C ,  1-C ) :   0.9082 B(  0-C ,  9-H ) :   0.9366 B(  0-C , 10-H ) :   0.9341
B(  0-C , 11-H ) :   0.9339 B(  1-C ,  2-C ) :   0.9418 B(  1-C ,  3-O ) :   1.0017
B(  1-C ,  8-O ) :   0.8620 B(  2-C , 12-H ) :   0.9380 B(  2-C , 13-H ) :   0.9145
B(  2-C , 14-H ) :   0.9346 B(  3-O ,  4-C ) :   0.8992 B(  4-C ,  5-C ) :   0.9348
B(  4-C , 15-H ) :   0.9298 B(  4-C , 16-H ) :   0.9302 B(  5-C ,  6-C ) :   0.9215
B(  5-C , 17-H ) :   0.9083 B(  5-C , 18-H ) :   0.9063 B(  6-C ,  7-N ) :   2.0640
B(  6-C ,  8-O ) :   1.0778 B(  7-N , 19-H ) :   0.8570

MP2 TOTAL ENERGY:     -439.593224475 Eh
FINAL SINGLE POINT ENERGY      -439.593224475444

DIPOLE MOMENT
-------------
                                X             Y             Z
Electronic contribution:      3.17401      -1.89783       2.30998
Nuclear contribution   :     -3.66700       2.26895      -2.99617
                        -----------------------------------------
Total Dipole Moment    :     -0.49298       0.37112      -0.68619
                        -----------------------------------------
Magnitude (a.u.)       :      0.92284
Magnitude (Debye)      :      2.34566

                             ****ORCA TERMINATED NORMALLY****
TOTAL RUN TIME: 0 days 0 hours 18 minutes 39 seconds 523 msec
