                         Program Version 3.0.3 - RELEASE   -
|  1> ! RI-MP2 RIJK def2-TZVP def2-TZVP/C def2-TZVP/JK TIGHTSCF
|  2> % maxcore 2000
|  3> % mp2 density relaxed end
|  4> *xyz 0 1
|  5>  O       -0.0819868296     0.0152551596     0.2149447756
|  6>  C        0.0123606375     1.1888141510    -0.0467068827
|  7>  C        1.2889387618     1.9357233780    -0.0495201001
|  8>  C        1.2926677715     3.4230334303     0.2140006225
|  9>  C        1.6314816030     2.9266814008    -1.1603571485
| 10>  C        3.0951817682     2.7269590621    -1.4347011697
| 11>  O        3.7545743723     3.2265864269    -2.2968320246
| 12>  O        3.6129578528     1.8583254107    -0.5183705220
| 13>  C        2.5873411658     1.2045746174     0.2487838728
| 14>  H       -0.8793251543     1.8023340396    -0.3080138573
| 15>  H        0.3284969362     3.9078573780     0.3269384813
| 16>  H        2.0817804153     3.8195647020     0.8443856741
| 17>  H        0.9817774745     3.1417710594    -1.9980046912
| 18>  H        2.8751296841     1.2468558005     1.3026421348
| 19>  H        2.5163525109     0.1577271236    -0.0589116648
| 20> *
| 21>
| 22>                          ****END OF INPUT****

CARTESIAN COORDINATES (ANGSTROEM)
---------------------------------
  O     -0.081987    0.015255    0.214945
  C      0.012361    1.188814   -0.046707
  C      1.288939    1.935723   -0.049520
  C      1.292668    3.423033    0.214001
  C      1.631482    2.926681   -1.160357
  C      3.095182    2.726959   -1.434701
  O      3.754574    3.226586   -2.296832
  O      3.612958    1.858325   -0.518371
  C      2.587341    1.204575    0.248784
  H     -0.879325    1.802334   -0.308014
  H      0.328497    3.907857    0.326938
  H      2.081780    3.819565    0.844386
  H      0.981777    3.141771   -1.998005
  H      2.875130    1.246856    1.302642
  H      2.516353    0.157727   -0.058912

 Total Charge           Charge          ....    0
 Multiplicity           Mult            ....    1
 Number of Electrons    NEL             ....   66
 Basis Dimension        Dim             ....  315

ORBITAL ENERGIES
----------------

  NO   OCC          E(Eh)            E(eV)
   0   2.0000     -20.613740      -560.9284
   1   2.0000     -20.579654      -560.0008
   2   2.0000     -20.553972      -559.3020
   3   2.0000     -11.395622      -310.0906
   4   2.0000     -11.361193      -309.1538
   5   2.0000     -11.316999      -307.9512
   6   2.0000     -11.292253      -307.2778
   7   2.0000     -11.291220      -307.2497
   8   2.0000     -11.288354      -307.1717
   9   2.0000      -1.471655       -40.0458
  10   2.0000      -1.419714       -38.6324
  11   2.0000      -1.380963       -37.5779
  12   2.0000      -1.214600       -33.0510
  13   2.0000      -1.017515       -27.6880
  14   2.0000      -0.933992       -25.4152
  15   2.0000      -0.919966       -25.0336
  16   2.0000      -0.820015       -22.3137
  17   2.0000      -0.777119       -21.1465
  18   2.0000      -0.737835       -20.0775
  19   2.0000      -0.694486       -18.8979
  20   2.0000      -0.691864       -18.8266
  21   2.0000      -0.669389       -18.2150
  22   2.0000      -0.655910       -17.8482
  23   2.0000      -0.618014       -16.8170
  24   2.0000      -0.609436       -16.5836
  25   2.0000      -0.590558       -16.0699
  26   2.0000      -0.562394       -15.3035
  27   2.0000      -0.551731       -15.0134
  28   2.0000      -0.488279       -13.2867
  29   2.0000      -0.481323       -13.0975
  30   2.0000      -0.469090       -12.7646
  31   2.0000      -0.446546       -12.1511
  32   2.0000      -0.433690       -11.8013
  33   0.0000       0.101370         2.7584
  34   0.0000       0.122351         3.3293
  35   0.0000       0.147274         4.0075
  36   0.0000       0.149903         4.0791
  37   0.0000       0.166985         4.5439

MULLIKEN ATOMIC CHARGES
-----------------------
   0 O :   -0.265638
   1 C :    0.056165
   2 C :    0.075854
   3 C :   -0.292211
   4 C :   -0.138568
   5 C :    0.243957
   6 O :   -0.270477
   7 O :   -0.229563
   8 C :   -0.036963
   9 H :    0.085180
  10 H :    0.160552
  11 H :    0.164368
  12 H :    0.168996
  13 H :    0.130651
  14 H :    0.147697
Sum of atomic charges:   -0.0000000

LOEWDIN ATOMIC CHARGES
----------------------
   0 O :    0.141607
   1 C :   -0.262516
   2 C :   -0.221296
   3 C :   -0.147837
   4 C :   -0.129095
   5 C :   -0.448485
   6 O :    0.153862
   7 O :    0.259325
   8 C :   -0.207743
   9 H :    0.122404
  10 H :    0.147485
  11 H :    0.150389
  12 H :    0.162029
  13 H :    0.137318
  14 H :    0.142551

  Mayer bond orders larger than 0.1
B(  0-O ,  1-C ) :   1.9883 B(  1-C ,  2-C ) :   0.8767 B(  1-C ,  9-H ) :   0.9537
B(  2-C ,  3-C ) :   0.8480 B(  2-C ,  4-C ) :   0.7813 B(  2-C ,  8-C ) :   0.9398
B(  3-C ,  4-C ) :   0.8644 B(  3-C , 10-H ) :   0.9258 B(  3-C , 11-H ) :   0.9078
B(  4-C ,  5-C ) :   0.9332 B(  4-C , 12-H ) :   0.9081 B(  5-C ,  6-O ) :   2.0356
B(  5-C ,  7-O ) :   1.1164 B(  7-O ,  8-C ) :   0.8883 B(  8-C , 13-H ) :   0.9203
B(  8-C , 14-H ) :   0.9162

MP2 TOTAL ENERGY:     -457.063404095 Eh
FINAL SINGLE POINT ENERGY      -457.063404094689

DIPOLE MOMENT
-------------
                                X             Y             Z
Electronic contribution:      2.38096      -1.17144      -2.37054
Nuclear contribution   :     -3.43269       1.72835       3.13461
                        -----------------------------------------
Total Dipole Moment    :     -1.05172       0.55691       0.76407
                        -----------------------------------------
Magnitude (a.u.)       :      1.41424
Magnitude (Debye)      :      3.59470

                             ****ORCA TERMINATED NORMALLY****
TOTAL RUN TIME: 0 days 0 hours 14 minutes 57 seconds 152 msec
