                         Program Version 3.0.3 - RELEASE   -
|  1> ! RI-MP2 RIJK def2-TZVP def2-TZVP/C def2-TZVP/JK TIGHTSCF
|  2> % maxcore 2000
|  3> % mp2 density relaxed end
|  4> *xyz 0 1
|  5>  C       -1.0473676513    -0.2851407379     0.9592619637
|  6>  C        0.3806704066    -0.0815403622     0.4374586941
|  7>  C        0.6287842131    -0.5401297046    -0.9991972391
|  8>  C       -0.0970725409     0.2839376617    -2.1007089723
|  9>  C        1.3182165015     0.7039630480    -2.5355031641
| 10>  O        1.9260718088    -0.0573324566    -1.4704706411
| 11>  C        0.6046193970    -2.0368054330    -1.2548771579
| 12>  C        0.8825263888    -3.0696663168    -0.2509341070
| 13>  O       -0.4518981063    -2.8346511932    -0.7126917283
| 14>  H       -1.7759153825     0.2411663900     0.3328245302
| 15>  H       -1.3255123783    -1.3395529950     0.9701902136
| 16>  H       -1.1389176062     0.1146875772     1.9736874962
| 17>  H        0.6363488840     0.9839870321     0.4666728549
| 18>  H        1.1048268390    -0.5757844621     1.0957552604
| 19>  H       -0.6668348293    -0.3010041835    -2.8245962386
| 20>  H       -0.7250088832     1.0908857673    -1.7205095271
| 21>  H        1.6367329637     0.3494561471    -3.5235294590
| 22>  H        1.5491604295     1.7728927352    -2.4562716026
| 23>  H        0.8477724167    -2.2815392083    -2.2908640283
| 24>  H        1.3252544577    -4.0124923613    -0.5683660934
| 25>  H        1.0706762215    -2.7960665039     0.7843911756
| 26> *
| 27>
| 28>                          ****END OF INPUT****

CARTESIAN COORDINATES (ANGSTROEM)
---------------------------------
  C     -1.047368   -0.285141    0.959262
  C      0.380670   -0.081540    0.437459
  C      0.628784   -0.540130   -0.999197
  C     -0.097073    0.283938   -2.100709
  C      1.318217    0.703963   -2.535503
  O      1.926072   -0.057332   -1.470471
  C      0.604619   -2.036805   -1.254877
  C      0.882526   -3.069666   -0.250934
  O     -0.451898   -2.834651   -0.712692
  H     -1.775915    0.241166    0.332825
  H     -1.325512   -1.339553    0.970190
  H     -1.138918    0.114688    1.973687
  H      0.636349    0.983987    0.466673
  H      1.104827   -0.575784    1.095755
  H     -0.666835   -0.301004   -2.824596
  H     -0.725009    1.090886   -1.720510
  H      1.636733    0.349456   -3.523529
  H      1.549160    1.772893   -2.456272
  H      0.847772   -2.281539   -2.290864
  H      1.325254   -4.012492   -0.568366
  H      1.070676   -2.796067    0.784391

 Total Charge           Charge          ....    0
 Multiplicity           Mult            ....    1
 Number of Electrons    NEL             ....   70
 Basis Dimension        Dim             ....  351

ORBITAL ENERGIES
----------------

  NO   OCC          E(Eh)            E(eV)
   0   2.0000     -20.570526      -559.7525
   1   2.0000     -20.548610      -559.1561
   2   2.0000     -11.295625      -307.3696
   3   2.0000     -11.287832      -307.1575
   4   2.0000     -11.284117      -307.0564
   5   2.0000     -11.281053      -306.9731
   6   2.0000     -11.232519      -305.6524
   7   2.0000     -11.224251      -305.4274
   8   2.0000     -11.210860      -305.0630
   9   2.0000      -1.414116       -38.4801
  10   2.0000      -1.378158       -37.5016
  11   2.0000      -1.064338       -28.9621
  12   2.0000      -1.005753       -27.3679
  13   2.0000      -0.968203       -26.3461
  14   2.0000      -0.910935       -24.7878
  15   2.0000      -0.861857       -23.4523
  16   2.0000      -0.830510       -22.5993
  17   2.0000      -0.743773       -20.2391
  18   2.0000      -0.699837       -19.0435
  19   2.0000      -0.685848       -18.6629
  20   2.0000      -0.650823       -17.7098
  21   2.0000      -0.623287       -16.9605
  22   2.0000      -0.618289       -16.8245
  23   2.0000      -0.592345       -16.1185
  24   2.0000      -0.553913       -15.0727
  25   2.0000      -0.553383       -15.0583
  26   2.0000      -0.539132       -14.6705
  27   2.0000      -0.518152       -14.0996
  28   2.0000      -0.506885       -13.7931
  29   2.0000      -0.496378       -13.5071
  30   2.0000      -0.474735       -12.9182
  31   2.0000      -0.462563       -12.5870
  32   2.0000      -0.445524       -12.1233
  33   2.0000      -0.426364       -11.6020
  34   2.0000      -0.410562       -11.1720
  35   0.0000       0.136953         3.7267
  36   0.0000       0.154355         4.2002
  37   0.0000       0.164194         4.4680
  38   0.0000       0.171419         4.6645
  39   0.0000       0.188127         5.1192

MULLIKEN ATOMIC CHARGES
-----------------------
   0 C :   -0.412863
   1 C :   -0.249921
   2 C :    0.364211
   3 C :   -0.336744
   4 C :   -0.024590
   5 O :   -0.349912
   6 C :   -0.055720
   7 C :   -0.076955
   8 O :   -0.335249
   9 H :    0.118006
  10 H :    0.156953
  11 H :    0.132779
  12 H :    0.125690
  13 H :    0.110690
  14 H :    0.140053
  15 H :    0.127477
  16 H :    0.098082
  17 H :    0.099416
  18 H :    0.123836
  19 H :    0.122536
  20 H :    0.122225
Sum of atomic charges:   -0.0000000

LOEWDIN ATOMIC CHARGES
----------------------
   0 C :   -0.312607
   1 C :   -0.248976
   2 C :   -0.299273
   3 C :   -0.203611
   4 C :   -0.275034
   5 O :    0.155014
   6 C :   -0.254586
   7 C :   -0.256418
   8 O :    0.148371
   9 H :    0.120708
  10 H :    0.126232
  11 H :    0.121629
  12 H :    0.146332
  13 H :    0.141093
  14 H :    0.135603
  15 H :    0.134751
  16 H :    0.116363
  17 H :    0.116345
  18 H :    0.145271
  19 H :    0.121249
  20 H :    0.121545

  Mayer bond orders larger than 0.1
B(  0-C ,  1-C ) :   0.9171 B(  0-C ,  9-H ) :   0.9357 B(  0-C , 10-H ) :   0.9289
B(  0-C , 11-H ) :   0.9369 B(  1-C ,  2-C ) :   0.8708 B(  1-C , 12-H ) :   0.9390
B(  1-C , 13-H ) :   0.9334 B(  2-C ,  3-C ) :   0.8566 B(  2-C ,  5-O ) :   0.8680
B(  2-C ,  6-C ) :   0.9103 B(  3-C ,  4-C ) :   0.9936 B(  3-C , 14-H ) :   0.9279
B(  3-C , 15-H ) :   0.9275 B(  4-C ,  5-O ) :   0.9475 B(  4-C , 16-H ) :   0.9135
B(  4-C , 17-H ) :   0.9173 B(  6-C ,  7-C ) :   0.9856 B(  6-C ,  8-O ) :   0.9265
B(  6-C , 18-H ) :   0.9197 B(  7-C ,  8-O ) :   0.8794 B(  7-C , 19-H ) :   0.9189
B(  7-C , 20-H ) :   0.9158

MP2 TOTAL ENERGY:     -423.476851318 Eh
FINAL SINGLE POINT ENERGY      -423.476851318241

DIPOLE MOMENT
-------------
                                X             Y             Z
Electronic contribution:      2.69995      -3.32773      -2.69207
Nuclear contribution   :     -2.72368       3.61141       2.52828
                        -----------------------------------------
Total Dipole Moment    :     -0.02372       0.28368      -0.16380
                        -----------------------------------------
Magnitude (a.u.)       :      0.32843
Magnitude (Debye)      :      0.83480

                             ****ORCA TERMINATED NORMALLY****
TOTAL RUN TIME: 0 days 0 hours 19 minutes 27 seconds 690 msec
