                         Program Version 3.0.3 - RELEASE   -
|  1> ! RI-MP2 RIJK def2-TZVP def2-TZVP/C def2-TZVP/JK TIGHTSCF
|  2> % maxcore 2000
|  3> % mp2 density relaxed end
|  4> *xyz 0 1
|  5>  C       -0.0636706685     1.3890934106    -0.3748733964
|  6>  C       -0.0500787101    -0.0282807976    -0.0430821516
|  7>  C       -0.0409578551    -1.1995435127     0.2297342286
|  8>  C       -0.0224929906    -2.6252427879     0.5650206489
|  9>  C       -1.2938335377    -3.3079805850     0.3154965286
| 10>  C       -2.3342989503    -3.8743475293     0.1026232613
| 11>  C       -3.5800735522    -4.5565054263    -0.1181255266
| 12>  C       -4.4398123107    -4.2489224397    -1.2786004035
| 13>  O       -3.6657074053    -5.4402538419    -1.2499553830
| 14>  H        0.6685965974     1.6226322395    -1.1554861308
| 15>  H       -1.0484593261     1.6996897965    -0.7407245457
| 16>  H        0.1745950002     2.0052999976     0.4989997917
| 17>  H        0.7698185242    -3.1291856403    -0.0064554694
| 18>  H        0.2534381789    -2.7530645262     1.6212133624
| 19>  H       -4.0650087259    -4.9472341725     0.7759601168
| 20>  H       -5.5175251114    -4.3809959250    -1.1891337117
| 21>  H       -4.1121397869    -3.4912958499    -1.9877124396
| 22> *
| 23>
| 24>                          ****END OF INPUT****

CARTESIAN COORDINATES (ANGSTROEM)
---------------------------------
  C     -0.063671    1.389093   -0.374873
  C     -0.050079   -0.028281   -0.043082
  C     -0.040958   -1.199544    0.229734
  C     -0.022493   -2.625243    0.565021
  C     -1.293834   -3.307981    0.315497
  C     -2.334299   -3.874348    0.102623
  C     -3.580074   -4.556505   -0.118126
  C     -4.439812   -4.248922   -1.278600
  O     -3.665707   -5.440254   -1.249955
  H      0.668597    1.622632   -1.155486
  H     -1.048459    1.699690   -0.740725
  H      0.174595    2.005300    0.499000
  H      0.769819   -3.129186   -0.006455
  H      0.253438   -2.753065    1.621213
  H     -4.065009   -4.947234    0.775960
  H     -5.517525   -4.380996   -1.189134
  H     -4.112140   -3.491296   -1.987712

 Total Charge           Charge          ....    0
 Multiplicity           Mult            ....    1
 Number of Electrons    NEL             ....   64
 Basis Dimension        Dim             ....  327

ORBITAL ENERGIES
----------------

  NO   OCC          E(Eh)            E(eV)
   0   2.0000     -20.578222      -559.9619
   1   2.0000     -11.313025      -307.8431
   2   2.0000     -11.293396      -307.3089
   3   2.0000     -11.283545      -307.0409
   4   2.0000     -11.249231      -306.1071
   5   2.0000     -11.240770      -305.8769
   6   2.0000     -11.230342      -305.5932
   7   2.0000     -11.229616      -305.5734
   8   2.0000     -11.225034      -305.4487
   9   2.0000      -1.420472       -38.6530
  10   2.0000      -1.100924       -29.9577
  11   2.0000      -1.052476       -28.6393
  12   2.0000      -1.014025       -27.5930
  13   2.0000      -0.948022       -25.7970
  14   2.0000      -0.923321       -25.1248
  15   2.0000      -0.879098       -23.9215
  16   2.0000      -0.735626       -20.0174
  17   2.0000      -0.691106       -18.8059
  18   2.0000      -0.678733       -18.4693
  19   2.0000      -0.648270       -17.6403
  20   2.0000      -0.620918       -16.8960
  21   2.0000      -0.618307       -16.8250
  22   2.0000      -0.587866       -15.9966
  23   2.0000      -0.586716       -15.9653
  24   2.0000      -0.577331       -15.7100
  25   2.0000      -0.564055       -15.3487
  26   2.0000      -0.487491       -13.2653
  27   2.0000      -0.464343       -12.6354
  28   2.0000      -0.395136       -10.7522
  29   2.0000      -0.385828       -10.4989
  30   2.0000      -0.369223       -10.0471
  31   2.0000      -0.367179        -9.9914
  32   0.0000       0.131258         3.5717
  33   0.0000       0.148425         4.0388
  34   0.0000       0.154548         4.2055
  35   0.0000       0.160051         4.3552
  36   0.0000       0.177985         4.8432

MULLIKEN ATOMIC CHARGES
-----------------------
   0 C :   -0.479812
   1 C :    0.037547
   2 C :    0.008976
   3 C :   -0.436797
   4 C :    0.079849
   5 C :    0.045709
   6 C :   -0.144902
   7 C :   -0.029140
   8 O :   -0.310111
   9 H :    0.162181
  10 H :    0.162782
  11 H :    0.161760
  12 H :    0.177661
  13 H :    0.176692
  14 H :    0.142251
  15 H :    0.117902
  16 H :    0.127454
Sum of atomic charges:   -0.0000000

LOEWDIN ATOMIC CHARGES
----------------------
   0 C :   -0.293624
   1 C :   -0.100891
   2 C :   -0.074868
   3 C :   -0.233128
   4 C :   -0.038146
   5 C :   -0.056533
   6 C :   -0.277952
   7 C :   -0.250546
   8 O :    0.156787
   9 H :    0.141070
  10 H :    0.141662
  11 H :    0.140946
  12 H :    0.175343
  13 H :    0.173922
  14 H :    0.151435
  15 H :    0.119579
  16 H :    0.124943

  Mayer bond orders larger than 0.1
B(  0-C ,  1-C ) :   0.8738 B(  0-C ,  9-H ) :   0.9467 B(  0-C , 10-H ) :   0.9441
B(  0-C , 11-H ) :   0.9473 B(  1-C ,  2-C ) :   2.6772 B(  2-C ,  3-C ) :   1.0208
B(  3-C ,  4-C ) :   1.0051 B(  3-C , 12-H ) :   0.9306 B(  3-C , 13-H ) :   0.9378
B(  4-C ,  5-C ) :   2.6052 B(  4-C ,  6-C ) :  -0.1109 B(  5-C ,  6-C ) :   1.0525
B(  6-C ,  7-C ) :   0.9813 B(  6-C ,  8-O ) :   0.9616 B(  6-C , 14-H ) :   0.9345
B(  7-C ,  8-O ) :   0.9044 B(  7-C , 15-H ) :   0.9172 B(  7-C , 16-H ) :   0.9165

MP2 TOTAL ENERGY:     -383.905864624 Eh
FINAL SINGLE POINT ENERGY      -383.905864624467

DIPOLE MOMENT
-------------
                                X             Y             Z
Electronic contribution:     -1.29934      -6.68511       0.50617
Nuclear contribution   :      1.23808       7.53505      -0.22501
                        -----------------------------------------
Total Dipole Moment    :     -0.06126       0.84995       0.28116
                        -----------------------------------------
Magnitude (a.u.)       :      0.89734
Magnitude (Debye)      :      2.28085

                             ****ORCA TERMINATED NORMALLY****
TOTAL RUN TIME: 0 days 0 hours 13 minutes 1 seconds 452 msec
