                         Program Version 3.0.3 - RELEASE   -
|  1> ! RI-MP2 RIJK def2-TZVP def2-TZVP/C def2-TZVP/JK TIGHTSCF
|  2> % maxcore 2000
|  3> % mp2 density relaxed end
|  4> *xyz 0 1
|  5>  C       -0.1032551110     1.5760517426    -0.0358795028
|  6>  C        0.0227143636     0.0517592043    -0.0014717584
|  7>  C        0.7776785253    -0.5222872968    -1.1990882332
|  8>  N        2.1686079312    -0.0455508309    -1.2691568671
|  9>  C        1.8666432747    -1.3825790727    -0.6885294938
| 10>  C        1.7988529024    -1.3331283289     0.8186108215
| 11>  O        2.4756633241    -1.9630143400     1.6056404492
| 12>  N        0.7982922339    -0.4467778603     1.1362743041
| 13>  C        0.4515929439    -0.1522881842     2.5067598461
| 14>  H        0.8874381744     2.0294742645    -0.1138923885
| 15>  H       -0.6991905471     1.8807280988    -0.9022287569
| 16>  H       -0.6029451358     1.9568094911     0.8593947314
| 17>  H       -0.9854559386    -0.3921467376     0.0280287722
| 18>  H        0.2338917039    -0.7409039052    -2.1108343373
| 19>  H        2.5173884747    -0.1810558010    -2.2162586417
| 20>  H        2.2274076914    -2.2825085623    -1.1697433486
| 21>  H        1.1032757558    -0.7547928689     3.1420949424
| 22>  H        0.5969160088     0.9068779095     2.7479363212
| 23>  H       -0.5943976357    -0.4139346619     2.7138496802
| 24> *
| 25>
| 26>                          ****END OF INPUT****

CARTESIAN COORDINATES (ANGSTROEM)
---------------------------------
  C     -0.103255    1.576052   -0.035880
  C      0.022714    0.051759   -0.001472
  C      0.777679   -0.522287   -1.199088
  N      2.168608   -0.045551   -1.269157
  C      1.866643   -1.382579   -0.688529
  C      1.798853   -1.333128    0.818611
  O      2.475663   -1.963014    1.605640
  N      0.798292   -0.446778    1.136274
  C      0.451593   -0.152288    2.506760
  H      0.887438    2.029474   -0.113892
  H     -0.699191    1.880728   -0.902229
  H     -0.602945    1.956809    0.859395
  H     -0.985456   -0.392147    0.028029
  H      0.233892   -0.740904   -2.110834
  H      2.517388   -0.181056   -2.216259
  H      2.227408   -2.282509   -1.169743
  H      1.103276   -0.754793    3.142095
  H      0.596916    0.906878    2.747936
  H     -0.594398   -0.413935    2.713850

 Total Charge           Charge          ....    0
 Multiplicity           Mult            ....    1
 Number of Electrons    NEL             ....   68
 Basis Dimension        Dim             ....  339

ORBITAL ENERGIES
----------------

  NO   OCC          E(Eh)            E(eV)
   0   2.0000     -20.513697      -558.2061
   1   2.0000     -15.581543      -423.9954
   2   2.0000     -15.579230      -423.9324
   3   2.0000     -11.343239      -308.6652
   4   2.0000     -11.284113      -307.0563
   5   2.0000     -11.281022      -306.9722
   6   2.0000     -11.276489      -306.8489
   7   2.0000     -11.254617      -306.2537
   8   2.0000     -11.224464      -305.4332
   9   2.0000      -1.380544       -37.5665
  10   2.0000      -1.301254       -35.4089
  11   2.0000      -1.233277       -33.5592
  12   2.0000      -1.042204       -28.3598
  13   2.0000      -0.991797       -26.9882
  14   2.0000      -0.904347       -24.6085
  15   2.0000      -0.897664       -24.4267
  16   2.0000      -0.810824       -22.0636
  17   2.0000      -0.743762       -20.2388
  18   2.0000      -0.733301       -19.9541
  19   2.0000      -0.660735       -17.9795
  20   2.0000      -0.643191       -17.5021
  21   2.0000      -0.634775       -17.2731
  22   2.0000      -0.605999       -16.4901
  23   2.0000      -0.594565       -16.1789
  24   2.0000      -0.553309       -15.0563
  25   2.0000      -0.549823       -14.9615
  26   2.0000      -0.539954       -14.6929
  27   2.0000      -0.525374       -14.2962
  28   2.0000      -0.514802       -14.0085
  29   2.0000      -0.495899       -13.4941
  30   2.0000      -0.480946       -13.0872
  31   2.0000      -0.436548       -11.8791
  32   2.0000      -0.390108       -10.6154
  33   2.0000      -0.369413       -10.0522
  34   0.0000       0.124669         3.3924
  35   0.0000       0.134923         3.6714
  36   0.0000       0.152412         4.1473
  37   0.0000       0.167835         4.5670
  38   0.0000       0.192291         5.2325

MULLIKEN ATOMIC CHARGES
-----------------------
   0 C :   -0.444558
   1 C :    0.024117
   2 C :   -0.020746
   3 N :   -0.397915
   4 C :   -0.077774
   5 C :    0.206371
   6 O :   -0.365515
   7 N :   -0.073140
   8 C :   -0.348425
   9 H :    0.160557
  10 H :    0.128272
  11 H :    0.139547
  12 H :    0.094285
  13 H :    0.150301
  14 H :    0.220561
  15 H :    0.149283
  16 H :    0.180568
  17 H :    0.142580
  18 H :    0.131630
Sum of atomic charges:    0.0000000

LOEWDIN ATOMIC CHARGES
----------------------
   0 C :   -0.286233
   1 C :   -0.254212
   2 C :   -0.224725
   3 N :    0.017290
   4 C :   -0.196025
   5 C :   -0.414443
   6 O :    0.084793
   7 N :    0.201965
   8 C :   -0.290133
   9 H :    0.133441
  10 H :    0.128047
  11 H :    0.123393
  12 H :    0.148391
  13 H :    0.139162
  14 H :    0.172300
  15 H :    0.143765
  16 H :    0.137655
  17 H :    0.118014
  18 H :    0.117555

  Mayer bond orders larger than 0.1
B(  0-C ,  1-C ) :   0.8771 B(  0-C ,  9-H ) :   0.9387 B(  0-C , 10-H ) :   0.9317
B(  0-C , 11-H ) :   0.9375 B(  1-C ,  2-C ) :   0.9089 B(  1-C ,  7-N ) :   0.9441
B(  1-C , 12-H ) :   0.9219 B(  2-C ,  3-N ) :   0.9184 B(  2-C ,  4-C ) :   0.8937
B(  2-C , 13-H ) :   0.9148 B(  3-N ,  4-C ) :   0.8752 B(  3-N , 14-H ) :   0.8633
B(  4-C ,  5-C ) :   0.9359 B(  4-C , 15-H ) :   0.9286 B(  5-C ,  6-O ) :   1.9380
B(  5-C ,  7-N ) :   1.1721 B(  7-N ,  8-C ) :   0.8708 B(  8-C , 16-H ) :   0.9209
B(  8-C , 17-H ) :   0.9324 B(  8-C , 18-H ) :   0.9300

MP2 TOTAL ENERGY:     -418.520953930 Eh
FINAL SINGLE POINT ENERGY      -418.520953930072

DIPOLE MOMENT
-------------
                                X             Y             Z
Electronic contribution:      5.02515      -5.66149      -0.61066
Nuclear contribution   :     -6.26873       6.13638      -0.43769
                        -----------------------------------------
Total Dipole Moment    :     -1.24357       0.47489      -1.04836
                        -----------------------------------------
Magnitude (a.u.)       :      1.69442
Magnitude (Debye)      :      4.30687

                             ****ORCA TERMINATED NORMALLY****
TOTAL RUN TIME: 0 days 0 hours 25 minutes 13 seconds 569 msec
