                         Program Version 3.0.3 - RELEASE   -
|  1> ! RI-MP2 RIJK def2-TZVP def2-TZVP/C def2-TZVP/JK TIGHTSCF
|  2> % maxcore 2000
|  3> % mp2 density relaxed end
|  4> *xyz 0 1
|  5>  O       -0.1370502230     1.4084413958    -0.1192716630
|  6>  C       -0.0716852907     0.0031842297    -0.2697556982
|  7>  C       -1.3947546453    -0.5540347066     0.2698751538
|  8>  C       -1.4724035790    -2.0358582138     0.1673851286
|  9>  N       -1.5203922831    -2.9141730773     1.1270170882
| 10>  C       -1.5656825010    -4.0930702006     0.4240883548
| 11>  O       -1.6269385856    -5.2785717713     1.0276018082
| 12>  N       -1.5447635821    -3.9847165023    -0.8795679144
| 13>  O       -1.4815954907    -2.5853015986    -1.0510330165
| 14>  H        0.6783614704     1.7879750652    -0.4596296467
| 15>  H        0.0480557369    -0.2918518590    -1.3221619432
| 16>  H        0.7672153419    -0.4294823131     0.2968395936
| 17>  H       -1.5112675378    -0.2753506182     1.3187048332
| 18>  H       -2.2160484285    -0.1023005942    -0.2965424343
| 19>  H       -1.6352198926    -5.1120970556     1.9781959059
| 20> *
| 21>
| 22>                          ****END OF INPUT****

CARTESIAN COORDINATES (ANGSTROEM)
---------------------------------
  O     -0.137050    1.408441   -0.119272
  C     -0.071685    0.003184   -0.269756
  C     -1.394755   -0.554035    0.269875
  C     -1.472404   -2.035858    0.167385
  N     -1.520392   -2.914173    1.127017
  C     -1.565683   -4.093070    0.424088
  O     -1.626939   -5.278572    1.027602
  N     -1.544764   -3.984717   -0.879568
  O     -1.481595   -2.585302   -1.051033
  H      0.678361    1.787975   -0.459630
  H      0.048056   -0.291852   -1.322162
  H      0.767215   -0.429482    0.296840
  H     -1.511268   -0.275351    1.318705
  H     -2.216048   -0.102301   -0.296542
  H     -1.635220   -5.112097    1.978196

 Total Charge           Charge          ....    0
 Multiplicity           Mult            ....    1
 Number of Electrons    NEL             ....   68
 Basis Dimension        Dim             ....  315

ORBITAL ENERGIES
----------------

  NO   OCC          E(Eh)            E(eV)
   0   2.0000     -20.657569      -562.1210
   1   2.0000     -20.623300      -561.1885
   2   2.0000     -20.577572      -559.9442
   3   2.0000     -15.613782      -424.8726
   4   2.0000     -15.584038      -424.0632
   5   2.0000     -11.377006      -309.5841
   6   2.0000     -11.375835      -309.5522
   7   2.0000     -11.304985      -307.6243
   8   2.0000     -11.264563      -306.5243
   9   2.0000      -1.525173       -41.5021
  10   2.0000      -1.450882       -39.4805
  11   2.0000      -1.383525       -37.6476
  12   2.0000      -1.255887       -34.1744
  13   2.0000      -1.169561       -31.8254
  14   2.0000      -1.059912       -28.8417
  15   2.0000      -0.905574       -24.6419
  16   2.0000      -0.860767       -23.4226
  17   2.0000      -0.827016       -22.5042
  18   2.0000      -0.768432       -20.9101
  19   2.0000      -0.731569       -19.9070
  20   2.0000      -0.700030       -19.0488
  21   2.0000      -0.675128       -18.3712
  22   2.0000      -0.657149       -17.8819
  23   2.0000      -0.628340       -17.0980
  24   2.0000      -0.615273       -16.7424
  25   2.0000      -0.595014       -16.1912
  26   2.0000      -0.572288       -15.5727
  27   2.0000      -0.561739       -15.2857
  28   2.0000      -0.524279       -14.2664
  29   2.0000      -0.520672       -14.1682
  30   2.0000      -0.476731       -12.9725
  31   2.0000      -0.468681       -12.7535
  32   2.0000      -0.458589       -12.4789
  33   2.0000      -0.393378       -10.7044
  34   0.0000       0.118969         3.2373
  35   0.0000       0.126152         3.4328
  36   0.0000       0.136957         3.7268
  37   0.0000       0.154936         4.2160
  38   0.0000       0.181224         4.9314

MULLIKEN ATOMIC CHARGES
-----------------------
   0 O :   -0.460253
   1 C :   -0.089035
   2 C :   -0.150810
   3 C :    0.182269
   4 N :   -0.329519
   5 C :    0.306360
   6 O :   -0.401957
   7 N :   -0.168057
   8 O :   -0.093604
   9 H :    0.322565
  10 H :    0.121171
  11 H :    0.109022
  12 H :    0.151317
  13 H :    0.144997
  14 H :    0.355535
Sum of atomic charges:    0.0000000

LOEWDIN ATOMIC CHARGES
----------------------
   0 O :   -0.042507
   1 C :   -0.340969
   2 C :   -0.220718
   3 C :   -0.362845
   4 N :    0.108843
   5 C :   -0.518817
   6 O :    0.107099
   7 N :    0.029707
   8 O :    0.290604
   9 H :    0.177144
  10 H :    0.121102
  11 H :    0.120068
  12 H :    0.161323
  13 H :    0.160216
  14 H :    0.209748

  Mayer bond orders larger than 0.1
B(  0-O ,  1-C ) :   1.0123 B(  0-O ,  9-H ) :   0.8448 B(  1-C ,  2-C ) :   0.9115
B(  1-C , 10-H ) :   0.9310 B(  1-C , 11-H ) :   0.9265 B(  2-C ,  3-C ) :   0.8743
B(  2-C , 12-H ) :   0.9300 B(  2-C , 13-H ) :   0.9101 B(  3-C ,  4-N ) :   1.6295
B(  3-C ,  8-O ) :   1.1773 B(  4-N ,  5-C ) :   1.1894 B(  5-C ,  6-O ) :   1.1467
B(  5-C ,  7-N ) :   1.6114 B(  6-O , 14-H ) :   0.8113 B(  7-N ,  8-O ) :   0.8432

MP2 TOTAL ENERGY:     -490.320130312 Eh
FINAL SINGLE POINT ENERGY      -490.320130311740

DIPOLE MOMENT
-------------
                                X             Y             Z
Electronic contribution:     -2.38393      -7.38436      -0.42264
Nuclear contribution   :      2.98429       8.15169       0.99209
                        -----------------------------------------
Total Dipole Moment    :      0.60037       0.76733       0.56944
                        -----------------------------------------
Magnitude (a.u.)       :      1.12850
Magnitude (Debye)      :      2.86841

                             ****ORCA TERMINATED NORMALLY****
TOTAL RUN TIME: 0 days 0 hours 14 minutes 30 seconds 831 msec
