                         Program Version 3.0.3 - RELEASE   -
|  1> ! RI-MP2 RIJK def2-TZVP def2-TZVP/C def2-TZVP/JK TIGHTSCF
|  2> % maxcore 2000
|  3> % mp2 density relaxed end
|  4> *xyz 0 1
|  5>  C       -0.0313686528     1.5417711703     0.0229679605
|  6>  C       -0.1038602784     0.0129671195    -0.0754839672
|  7>  C       -1.5047678037    -0.5198103145    -0.0164311029
|  8>  N       -2.5669074415    -0.2388958776    -1.0465774139
|  9>  C       -3.2645487685    -1.1269991516    -0.0552409613
| 10>  C       -4.6933342815    -1.5583743138    -0.1890392407
| 11>  C       -1.9753386048    -1.9952762596     0.1447153833
| 12>  N       -1.9498886741    -1.9045765096     1.6414737354
| 13>  C       -2.4918073436    -0.5778651388     1.2016744415
| 14>  H        1.0058269125     1.8872080538    -0.0156697202
| 15>  H       -0.5697600623     2.0187712106    -0.8027622760
| 16>  H       -0.4677815564     1.8995013910     0.9615870161
| 17>  H        0.3568939352    -0.3215077518    -1.0131045203
| 18>  H        0.4617987606    -0.4478778737     0.7428090819
| 19>  H       -2.9050738627     0.7235014803    -0.9495495348
| 20>  H       -4.8589717692    -2.0495813468    -1.1529391753
| 21>  H       -4.9590443866    -2.2630312328     0.6071630265
| 22>  H       -5.3748607383    -0.7031798051    -0.1212740494
| 23>  H       -1.6484511156    -2.8707128785    -0.4181116926
| 24>  H       -2.6973984809    -2.4778908316     2.0425155008
| 25>  H       -2.7775314674     0.2173100003     1.8953968385
| 26> *
| 27>
| 28>                          ****END OF INPUT****

CARTESIAN COORDINATES (ANGSTROEM)
---------------------------------
  C     -0.031369    1.541771    0.022968
  C     -0.103860    0.012967   -0.075484
  C     -1.504768   -0.519810   -0.016431
  N     -2.566907   -0.238896   -1.046577
  C     -3.264549   -1.126999   -0.055241
  C     -4.693334   -1.558374   -0.189039
  C     -1.975339   -1.995276    0.144715
  N     -1.949889   -1.904577    1.641474
  C     -2.491807   -0.577865    1.201674
  H      1.005827    1.887208   -0.015670
  H     -0.569760    2.018771   -0.802762
  H     -0.467782    1.899501    0.961587
  H      0.356894   -0.321508   -1.013105
  H      0.461799   -0.447878    0.742809
  H     -2.905074    0.723501   -0.949550
  H     -4.858972   -2.049581   -1.152939
  H     -4.959044   -2.263031    0.607163
  H     -5.374861   -0.703180   -0.121274
  H     -1.648451   -2.870713   -0.418112
  H     -2.697398   -2.477891    2.042516
  H     -2.777531    0.217310    1.895397

 Total Charge           Charge          ....    0
 Multiplicity           Mult            ....    1
 Number of Electrons    NEL             ....   68
 Basis Dimension        Dim             ....  351

ORBITAL ENERGIES
----------------

  NO   OCC          E(Eh)            E(eV)
   0   2.0000     -15.548788      -423.1040
   1   2.0000     -15.544843      -422.9967
   2   2.0000     -11.274827      -306.8036
   3   2.0000     -11.271514      -306.7135
   4   2.0000     -11.266742      -306.5836
   5   2.0000     -11.265560      -306.5515
   6   2.0000     -11.226694      -305.4939
   7   2.0000     -11.222442      -305.3782
   8   2.0000     -11.216616      -305.2196
   9   2.0000      -1.322495       -35.9869
  10   2.0000      -1.173543       -31.9337
  11   2.0000      -1.046537       -28.4777
  12   2.0000      -0.997343       -27.1391
  13   2.0000      -0.948198       -25.8018
  14   2.0000      -0.883225       -24.0338
  15   2.0000      -0.875240       -23.8165
  16   2.0000      -0.768626       -20.9154
  17   2.0000      -0.706487       -19.2245
  18   2.0000      -0.677819       -18.4444
  19   2.0000      -0.633993       -17.2518
  20   2.0000      -0.628338       -17.0979
  21   2.0000      -0.606310       -16.4985
  22   2.0000      -0.590864       -16.0782
  23   2.0000      -0.564527       -15.3616
  24   2.0000      -0.546316       -14.8660
  25   2.0000      -0.529376       -14.4051
  26   2.0000      -0.520672       -14.1682
  27   2.0000      -0.501083       -13.6352
  28   2.0000      -0.478048       -13.0083
  29   2.0000      -0.458596       -12.4790
  30   2.0000      -0.443173       -12.0593
  31   2.0000      -0.407125       -11.0784
  32   2.0000      -0.384354       -10.4588
  33   2.0000      -0.365889        -9.9564
  34   0.0000       0.131950         3.5905
  35   0.0000       0.142291         3.8719
  36   0.0000       0.160235         4.3602
  37   0.0000       0.174666         4.7529
  38   0.0000       0.182541         4.9672

MULLIKEN ATOMIC CHARGES
-----------------------
   0 C :   -0.422632
   1 C :   -0.242275
   2 C :    0.052886
   3 N :   -0.330624
   4 C :    0.088778
   5 C :   -0.440652
   6 C :   -0.031995
   7 N :   -0.338514
   8 C :   -0.049609
   9 H :    0.138579
  10 H :    0.131615
  11 H :    0.128659
  12 H :    0.121821
  13 H :    0.139242
  14 H :    0.194771
  15 H :    0.151588
  16 H :    0.128541
  17 H :    0.135905
  18 H :    0.121995
  19 H :    0.196976
  20 H :    0.124945
Sum of atomic charges:   -0.0000000

LOEWDIN ATOMIC CHARGES
----------------------
   0 C :   -0.313027
   1 C :   -0.256652
   2 C :   -0.224209
   3 N :    0.030553
   4 C :   -0.255680
   5 C :   -0.280549
   6 C :   -0.150031
   7 N :   -0.008485
   8 C :   -0.167462
   9 H :    0.122870
  10 H :    0.121453
  11 H :    0.121368
  12 H :    0.146815
  13 H :    0.153158
  14 H :    0.157554
  15 H :    0.134696
  16 H :    0.131345
  17 H :    0.129949
  18 H :    0.127085
  19 H :    0.155976
  20 H :    0.123274

  Mayer bond orders larger than 0.1
B(  0-C ,  1-C ) :   0.9139 B(  0-C ,  9-H ) :   0.9404 B(  0-C , 10-H ) :   0.9403
B(  0-C , 11-H ) :   0.9386 B(  1-C ,  2-C ) :   0.8401 B(  1-C , 12-H ) :   0.9387
B(  1-C , 13-H ) :   0.9377 B(  2-C ,  3-N ) :   0.9124 B(  2-C ,  6-C ) :   0.8538
B(  2-C ,  8-C ) :   0.8259 B(  3-N ,  4-C ) :   0.8937 B(  3-N , 14-H ) :   0.8748
B(  4-C ,  5-C ) :   0.8328 B(  4-C ,  6-C ) :   0.8963 B(  4-C ,  8-C ) :   0.8538
B(  5-C , 15-H ) :   0.9510 B(  5-C , 16-H ) :   0.9400 B(  5-C , 17-H ) :   0.9408
B(  6-C ,  7-N ) :   0.9546 B(  6-C , 18-H ) :   0.8710 B(  7-N ,  8-C ) :   0.9369
B(  7-N , 19-H ) :   0.8780 B(  8-C , 20-H ) :   0.8971

MP2 TOTAL ENERGY:     -382.497272697 Eh
FINAL SINGLE POINT ENERGY      -382.497272697466

DIPOLE MOMENT
-------------
                                X             Y             Z
Electronic contribution:     -0.90658      -3.39403       0.59383
Nuclear contribution   :      0.35713       3.60108      -0.37512
                        -----------------------------------------
Total Dipole Moment    :     -0.54946       0.20705       0.21871
                        -----------------------------------------
Magnitude (a.u.)       :      0.62658
Magnitude (Debye)      :      1.59265

                             ****ORCA TERMINATED NORMALLY****
TOTAL RUN TIME: 0 days 0 hours 18 minutes 26 seconds 500 msec
