                         Program Version 3.0.3 - RELEASE   -
|  1> ! RI-MP2 RIJK def2-TZVP def2-TZVP/C def2-TZVP/JK TIGHTSCF
|  2> % maxcore 2000
|  3> % mp2 density relaxed end
|  4> *xyz 0 1
|  5>  C       -1.7037064254     1.5068835583    -1.5165161011
|  6>  C       -1.9487527020     0.0103842139    -1.3392599559
|  7>  O       -1.3372815670    -0.7381756417    -2.4014092323
|  8>  C       -1.5089791439    -0.4917377159     0.0450403726
|  9>  C       -1.5082394492    -2.0270673526     0.2227036993
| 10>  C       -1.0749210553    -2.4143561273     1.6396961237
| 11>  C       -2.8981018400    -2.6070962312    -0.0810509071
| 12>  N       -3.0782249623    -2.9878666297    -1.3825697993
| 13>  O       -3.7595153568    -2.7307278964     0.7698560762
| 14>  H       -2.0342262793     1.8337965954    -2.5059340057
| 15>  H       -2.2445948908     2.0841102148    -0.7599716281
| 16>  H       -0.6369792357     1.7425702303    -1.4143992873
| 17>  H       -3.0177634684    -0.1909223594    -1.4658843562
| 18>  H       -0.3851400833    -0.5941092651    -2.3578194741
| 19>  H       -0.4936923505    -0.1249141423     0.2538393463
| 20>  H       -2.1628150034    -0.0401334630     0.8011469186
| 21>  H       -0.8013315287    -2.4435720004    -0.5025115525
| 22>  H       -0.9596524714    -3.4980003026     1.7340554118
| 23>  H       -0.1192619381    -1.9456502993     1.8958818993
| 24>  H       -1.8307937004    -2.0990078822     2.3627968289
| 25>  H       -2.4549012198    -2.6229879270    -2.0894363974
| 26>  H       -4.0175351582    -3.2325187668    -1.6565069095
| 27> *
| 28>
| 29>                          ****END OF INPUT****

CARTESIAN COORDINATES (ANGSTROEM)
---------------------------------
  C     -1.703706    1.506884   -1.516516
  C     -1.948753    0.010384   -1.339260
  O     -1.337282   -0.738176   -2.401409
  C     -1.508979   -0.491738    0.045040
  C     -1.508239   -2.027067    0.222704
  C     -1.074921   -2.414356    1.639696
  C     -2.898102   -2.607096   -0.081051
  N     -3.078225   -2.987867   -1.382570
  O     -3.759515   -2.730728    0.769856
  H     -2.034226    1.833797   -2.505934
  H     -2.244595    2.084110   -0.759972
  H     -0.636979    1.742570   -1.414399
  H     -3.017763   -0.190922   -1.465884
  H     -0.385140   -0.594109   -2.357819
  H     -0.493692   -0.124914    0.253839
  H     -2.162815   -0.040133    0.801147
  H     -0.801332   -2.443572   -0.502512
  H     -0.959652   -3.498000    1.734055
  H     -0.119262   -1.945650    1.895882
  H     -1.830794   -2.099008    2.362797
  H     -2.454901   -2.622988   -2.089436
  H     -4.017535   -3.232519   -1.656507

 Total Charge           Charge          ....    0
 Multiplicity           Mult            ....    1
 Number of Electrons    NEL             ....   72
 Basis Dimension        Dim             ....  357

ORBITAL ENERGIES
----------------

  NO   OCC          E(Eh)            E(eV)
   0   2.0000     -20.572396      -559.8034
   1   2.0000     -20.510056      -558.1070
   2   2.0000     -15.567370      -423.6097
   3   2.0000     -11.339078      -308.5520
   4   2.0000     -11.293309      -307.3066
   5   2.0000     -11.242047      -305.9117
   6   2.0000     -11.237496      -305.7878
   7   2.0000     -11.228682      -305.5480
   8   2.0000     -11.214130      -305.1520
   9   2.0000      -1.377169       -37.4747
  10   2.0000      -1.372109       -37.3370
  11   2.0000      -1.198683       -32.6178
  12   2.0000      -1.091523       -29.7019
  13   2.0000      -1.029676       -28.0189
  14   2.0000      -0.938266       -25.5315
  15   2.0000      -0.870802       -23.6957
  16   2.0000      -0.831621       -22.6296
  17   2.0000      -0.760847       -20.7037
  18   2.0000      -0.703987       -19.1565
  19   2.0000      -0.684546       -18.6274
  20   2.0000      -0.672882       -18.3100
  21   2.0000      -0.645671       -17.5696
  22   2.0000      -0.621813       -16.9204
  23   2.0000      -0.606110       -16.4931
  24   2.0000      -0.596660       -16.2359
  25   2.0000      -0.560436       -15.2502
  26   2.0000      -0.554886       -15.0992
  27   2.0000      -0.538155       -14.6439
  28   2.0000      -0.529893       -14.4191
  29   2.0000      -0.520636       -14.1672
  30   2.0000      -0.501073       -13.6349
  31   2.0000      -0.489299       -13.3145
  32   2.0000      -0.477396       -12.9906
  33   2.0000      -0.445857       -12.1324
  34   2.0000      -0.413982       -11.2650
  35   2.0000      -0.403377       -10.9764
  36   0.0000       0.118012         3.2113
  37   0.0000       0.150851         4.1049
  38   0.0000       0.152309         4.1445
  39   0.0000       0.159363         4.3365
  40   0.0000       0.183968         5.0060

MULLIKEN ATOMIC CHARGES
-----------------------
   0 C :   -0.380475
   1 C :    0.093129
   2 O :   -0.502326
   3 C :   -0.339179
   4 C :    0.029783
   5 C :   -0.393884
   6 C :    0.218631
   7 N :   -0.474533
   8 O :   -0.351743
   9 H :    0.149078
  10 H :    0.134110
  11 H :    0.115870
  12 H :    0.108400
  13 H :    0.316279
  14 H :    0.118795
  15 H :    0.132418
  16 H :    0.081982
  17 H :    0.136808
  18 H :    0.123882
  19 H :    0.150016
  20 H :    0.283620
  21 H :    0.249339
Sum of atomic charges:    0.0000000

LOEWDIN ATOMIC CHARGES
----------------------
   0 C :   -0.301541
   1 C :   -0.368328
   2 O :   -0.036334
   3 C :   -0.231519
   4 C :   -0.252998
   5 C :   -0.284979
   6 C :   -0.459376
   7 N :   -0.018290
   8 O :    0.082519
   9 H :    0.127103
  10 H :    0.129771
  11 H :    0.121161
  12 H :    0.147252
  13 H :    0.175081
  14 H :    0.141766
  15 H :    0.152842
  16 H :    0.152386
  17 H :    0.127136
  18 H :    0.121322
  19 H :    0.132315
  20 H :    0.172938
  21 H :    0.169774

  Mayer bond orders larger than 0.1
B(  0-C ,  1-C ) :   0.9384 B(  0-C ,  9-H ) :   0.9433 B(  0-C , 10-H ) :   0.9343
B(  0-C , 11-H ) :   0.9238 B(  1-C ,  2-O ) :   0.8374 B(  1-C ,  3-C ) :   0.9484
B(  1-C , 12-H ) :   0.9210 B(  2-O , 13-H ) :   0.8409 B(  3-C ,  4-C ) :   0.9033
B(  3-C , 14-H ) :   0.9239 B(  3-C , 15-H ) :   0.9144 B(  4-C ,  5-C ) :   0.9114
B(  4-C ,  6-C ) :   0.8685 B(  4-C , 16-H ) :   0.9117 B(  5-C , 17-H ) :   0.9401
B(  5-C , 18-H ) :   0.9389 B(  5-C , 19-H ) :   0.9312 B(  6-C ,  7-N ) :   1.1671
B(  6-C ,  8-O ) :   1.9884 B(  7-N , 20-H ) :   0.8476 B(  7-N , 21-H ) :   0.8643

MP2 TOTAL ENERGY:     -440.820399547 Eh
FINAL SINGLE POINT ENERGY      -440.820399547336

DIPOLE MOMENT
-------------
                                X             Y             Z
Electronic contribution:     -4.57998      -5.57861      -1.33871
Nuclear contribution   :      5.58916       6.35823       0.54500
                        -----------------------------------------
Total Dipole Moment    :      1.00918       0.77961      -0.79371
                        -----------------------------------------
Magnitude (a.u.)       :      1.50207
Magnitude (Debye)      :      3.81796

                             ****ORCA TERMINATED NORMALLY****
TOTAL RUN TIME: 0 days 0 hours 20 minutes 26 seconds 699 msec
