                         Program Version 3.0.3 - RELEASE   -
|  1> ! RI-MP2 RIJK def2-TZVP def2-TZVP/C def2-TZVP/JK TIGHTSCF
|  2> % maxcore 2000
|  3> % mp2 density relaxed end
|  4> *xyz 0 1
|  5>  C       -0.0252789706     1.4805408136     0.0041477350
|  6>  C        0.0016593786    -0.0059047000    -0.0190917028
|  7>  N       -0.0194719305    -0.7230320838    -1.0967371669
|  8>  N        0.0192281409    -2.0358439216    -0.6460761339
|  9>  C        0.0123058709    -3.1393774547    -1.5008646075
| 10>  O       -0.0266925022    -3.0726504768    -2.6976699731
| 11>  C        0.0658822761    -2.1275688608     0.7582439663
| 12>  O        0.1064357450    -3.1101562933     1.4574714573
| 13>  N        0.0525177546    -0.7847155349     1.1204856377
| 14>  H        0.8678723527     1.8823089479     0.4946656131
| 15>  H       -0.0636485085     1.8495448371    -1.0211086629
| 16>  H       -0.9010182367     1.8493836664     0.5489414257
| 17>  H        0.0490186002    -4.0686026477    -0.9094185895
| 18>  H        0.0774075896    -0.4748796913     2.0771024113
| 19> *
| 20>
| 21>                          ****END OF INPUT****

CARTESIAN COORDINATES (ANGSTROEM)
---------------------------------
  C     -0.025279    1.480541    0.004148
  C      0.001659   -0.005905   -0.019092
  N     -0.019472   -0.723032   -1.096737
  N      0.019228   -2.035844   -0.646076
  C      0.012306   -3.139377   -1.500865
  O     -0.026693   -3.072650   -2.697670
  C      0.065882   -2.127569    0.758244
  O      0.106436   -3.110156    1.457471
  N      0.052518   -0.784716    1.120486
  H      0.867872    1.882309    0.494666
  H     -0.063649    1.849545   -1.021109
  H     -0.901018    1.849384    0.548941
  H      0.049019   -4.068603   -0.909419
  H      0.077408   -0.474880    2.077102

 Total Charge           Charge          ....    0
 Multiplicity           Mult            ....    1
 Number of Electrons    NEL             ....   66
 Basis Dimension        Dim             ....  309

ORBITAL ENERGIES
----------------

  NO   OCC          E(Eh)            E(eV)
   0   2.0000     -20.553527      -559.2899
   1   2.0000     -20.552334      -559.2574
   2   2.0000     -15.656983      -426.0482
   3   2.0000     -15.645250      -425.7289
   4   2.0000     -15.617079      -424.9623
   5   2.0000     -11.417950      -310.6982
   6   2.0000     -11.371160      -309.4250
   7   2.0000     -11.354988      -308.9849
   8   2.0000     -11.271973      -306.7260
   9   2.0000      -1.463144       -39.8142
  10   2.0000      -1.408620       -38.3305
  11   2.0000      -1.380514       -37.5657
  12   2.0000      -1.261018       -34.3141
  13   2.0000      -1.159985       -31.5648
  14   2.0000      -1.036459       -28.2035
  15   2.0000      -0.928735       -25.2722
  16   2.0000      -0.866935       -23.5905
  17   2.0000      -0.814387       -22.1606
  18   2.0000      -0.748218       -20.3601
  19   2.0000      -0.716737       -19.5034
  20   2.0000      -0.701079       -19.0773
  21   2.0000      -0.665460       -18.1081
  22   2.0000      -0.642702       -17.4888
  23   2.0000      -0.620450       -16.8833
  24   2.0000      -0.618892       -16.8409
  25   2.0000      -0.591361       -16.0918
  26   2.0000      -0.571637       -15.5550
  27   2.0000      -0.536245       -14.5920
  28   2.0000      -0.525628       -14.3031
  29   2.0000      -0.476734       -12.9726
  30   2.0000      -0.469019       -12.7626
  31   2.0000      -0.447169       -12.1681
  32   2.0000      -0.368381       -10.0242
  33   0.0000       0.105368         2.8672
  34   0.0000       0.113447         3.0871
  35   0.0000       0.146632         3.9901
  36   0.0000       0.162734         4.4282
  37   0.0000       0.172950         4.7062

MULLIKEN ATOMIC CHARGES
-----------------------
   0 C :   -0.436548
   1 C :    0.244266
   2 N :   -0.222018
   3 N :    0.026609
   4 C :    0.134636
   5 O :   -0.264601
   6 C :    0.295079
   7 O :   -0.338823
   8 N :   -0.329765
   9 H :    0.155356
  10 H :    0.176549
  11 H :    0.155405
  12 H :    0.136957
  13 H :    0.266897
Sum of atomic charges:   -0.0000000

LOEWDIN ATOMIC CHARGES
----------------------
   0 C :   -0.262226
   1 C :   -0.345119
   2 N :    0.100811
   3 N :    0.177769
   4 C :   -0.350588
   5 O :    0.135240
   6 C :   -0.480263
   7 O :    0.086156
   8 N :    0.178950
   9 H :    0.138805
  10 H :    0.149401
  11 H :    0.138829
  12 H :    0.131029
  13 H :    0.201204

  Mayer bond orders larger than 0.1
B(  0-C ,  1-C ) :   0.8855 B(  0-C ,  9-H ) :   0.9247 B(  0-C , 10-H ) :   0.9408
B(  0-C , 11-H ) :   0.9246 B(  1-C ,  2-N ) :   1.7017 B(  1-C ,  8-N ) :   1.0678
B(  2-N ,  3-N ) :   0.8532 B(  3-N ,  4-C ) :   0.9597 B(  3-N ,  6-C ) :   1.0421
B(  4-C ,  5-O ) :   2.0059 B(  4-C , 12-H ) :   0.9199 B(  6-C ,  7-O ) :   1.9798
B(  6-C ,  8-N ) :   1.0731 B(  8-N , 13-H ) :   0.8585

MP2 TOTAL ENERGY:     -469.317551209 Eh
FINAL SINGLE POINT ENERGY      -469.317551209055

DIPOLE MOMENT
-------------
                                X             Y             Z
Electronic contribution:      0.08369      -6.36728      -1.07264
Nuclear contribution   :     -0.07111       8.05766       2.45359
                        -----------------------------------------
Total Dipole Moment    :      0.01258       1.69038       1.38095
                        -----------------------------------------
Magnitude (a.u.)       :      2.18279
Magnitude (Debye)      :      5.54821

                             ****ORCA TERMINATED NORMALLY****
TOTAL RUN TIME: 0 days 0 hours 12 minutes 54 seconds 388 msec
