                         Program Version 3.0.3 - RELEASE   -
|  1> ! RI-MP2 RIJK def2-TZVP def2-TZVP/C def2-TZVP/JK TIGHTSCF
|  2> % maxcore 2000
|  3> % mp2 density relaxed end
|  4> *xyz 0 1
|  5>  O       -0.1450182734     1.3712033544     0.0565734234
|  6>  C        0.0222543169    -0.0245428612    -0.0316264283
|  7>  C        0.7866247074    -0.3980476455    -1.2495453142
|  8>  N        1.3779976027    -0.6880773101    -2.1985812140
|  9>  C        0.6953401489    -0.5736512128     1.1961037568
| 10>  C        0.4234465326    -1.6470395073     1.9729215156
| 11>  O        1.3435965254    -1.6752442880     2.9824378913
| 12>  C        2.1260125907    -0.5977318701     2.7579926471
| 13>  N        1.7974499908     0.0947170719     1.7185025141
| 14>  H        0.6900563894     1.7287890629     0.3888896965
| 15>  H       -0.9781705112    -0.4591417070    -0.1295632643
| 16>  H       -0.3118446128    -2.4325193756     1.9632841189
| 17>  H        2.9295259127    -0.4237390918     3.4558515672
| 18> *
| 19>
| 20>                          ****END OF INPUT****

CARTESIAN COORDINATES (ANGSTROEM)
---------------------------------
  O     -0.145018    1.371203    0.056573
  C      0.022254   -0.024543   -0.031626
  C      0.786625   -0.398048   -1.249545
  N      1.377998   -0.688077   -2.198581
  C      0.695340   -0.573651    1.196104
  C      0.423447   -1.647040    1.972922
  O      1.343597   -1.675244    2.982438
  C      2.126013   -0.597732    2.757993
  N      1.797450    0.094717    1.718503
  H      0.690056    1.728789    0.388890
  H     -0.978171   -0.459142   -0.129563
  H     -0.311845   -2.432519    1.963284
  H      2.929526   -0.423739    3.455852

 Total Charge           Charge          ....    0
 Multiplicity           Mult            ....    1
 Number of Electrons    NEL             ....   64
 Basis Dimension        Dim             ....  303

ORBITAL ENERGIES
----------------

  NO   OCC          E(Eh)            E(eV)
   0   2.0000     -20.668479      -562.4179
   1   2.0000     -20.593387      -560.3745
   2   2.0000     -15.597169      -424.4206
   3   2.0000     -15.579984      -423.9529
   4   2.0000     -11.365557      -309.2725
   5   2.0000     -11.361196      -309.1539
   6   2.0000     -11.325445      -308.1810
   7   2.0000     -11.300624      -307.5056
   8   2.0000     -11.278276      -306.8975
   9   2.0000      -1.518442       -41.3189
  10   2.0000      -1.408229       -38.3199
  11   2.0000      -1.267711       -34.4962
  12   2.0000      -1.223838       -33.3023
  13   2.0000      -1.090106       -29.6633
  14   2.0000      -1.005255       -27.3544
  15   2.0000      -0.862472       -23.4691
  16   2.0000      -0.855672       -23.2840
  17   2.0000      -0.785190       -21.3661
  18   2.0000      -0.762603       -20.7515
  19   2.0000      -0.689747       -18.7690
  20   2.0000      -0.681298       -18.5391
  21   2.0000      -0.664787       -18.0898
  22   2.0000      -0.647141       -17.6096
  23   2.0000      -0.605678       -16.4813
  24   2.0000      -0.578001       -15.7282
  25   2.0000      -0.567341       -15.4381
  26   2.0000      -0.512635       -13.9495
  27   2.0000      -0.496069       -13.4987
  28   2.0000      -0.485183       -13.2025
  29   2.0000      -0.473040       -12.8721
  30   2.0000      -0.468269       -12.7422
  31   2.0000      -0.374787       -10.1985
  32   0.0000       0.106087         2.8868
  33   0.0000       0.131714         3.5841
  34   0.0000       0.139697         3.8013
  35   0.0000       0.160080         4.3560
  36   0.0000       0.165840         4.5127

MULLIKEN ATOMIC CHARGES
-----------------------
   0 O :   -0.445035
   1 C :    0.233857
   2 C :   -0.176312
   3 N :   -0.060056
   4 C :    0.042804
   5 C :   -0.032850
   6 O :   -0.186940
   7 C :    0.119296
   8 N :   -0.334252
   9 H :    0.343082
  10 H :    0.144370
  11 H :    0.177242
  12 H :    0.174794
Sum of atomic charges:    0.0000000

LOEWDIN ATOMIC CHARGES
----------------------
   0 O :    0.024223
   1 C :   -0.309734
   2 C :   -0.157962
   3 N :    0.073682
   4 C :   -0.240424
   5 C :   -0.200327
   6 O :    0.346034
   7 C :   -0.305867
   8 N :    0.123130
   9 H :    0.190767
  10 H :    0.175267
  11 H :    0.142823
  12 H :    0.138386

  Mayer bond orders larger than 0.1
B(  0-O ,  1-C ) :   0.9730 B(  0-O ,  9-H ) :   0.8185 B(  1-C ,  2-C ) :   0.8862
B(  1-C ,  4-C ) :   0.9149 B(  1-C , 10-H ) :   0.9197 B(  2-C ,  3-N ) :   2.8468
B(  4-C ,  5-C ) :   1.5664 B(  4-C ,  8-N ) :   1.1265 B(  5-C ,  6-O ) :   1.0385
B(  5-C , 11-H ) :   0.9110 B(  6-O ,  7-C ) :   1.0892 B(  7-C ,  8-N ) :   1.6394
B(  7-C , 12-H ) :   0.9200

MP2 TOTAL ENERGY:     -452.037446213 Eh
FINAL SINGLE POINT ENERGY      -452.037446212850

DIPOLE MOMENT
-------------
                                X             Y             Z
Electronic contribution:      0.91497      -0.64437      -0.53979
Nuclear contribution   :     -1.28498       0.14523       2.20844
                        -----------------------------------------
Total Dipole Moment    :     -0.37002      -0.49914       1.66865
                        -----------------------------------------
Magnitude (a.u.)       :      1.78057
Magnitude (Debye)      :      4.52586

                             ****ORCA TERMINATED NORMALLY****
TOTAL RUN TIME: 0 days 0 hours 12 minutes 58 seconds 481 msec
