                         Program Version 3.0.3 - RELEASE   -
|  1> ! RI-MP2 RIJK def2-TZVP def2-TZVP/C def2-TZVP/JK TIGHTSCF
|  2> % maxcore 2000
|  3> % mp2 density relaxed end
|  4> *xyz 0 1
|  5>  O       -0.0874542659     1.4410597424     0.0585173359
|  6>  C        0.0660111360     0.0312847349     0.0129854773
|  7>  C        0.7289346644    -0.5094288526     1.2849053912
|  8>  O        0.8271314529    -1.9208725320     1.2337432466
|  9>  C       -0.4366219509    -2.5594968414     1.2442983089
| 10>  C       -1.3690769988    -2.0694200173     0.1333068323
| 11>  O       -2.1121217983    -2.8221613145    -0.4480826520
| 12>  C       -1.3329326979    -0.5710632637    -0.1323137395
| 13>  H        0.7832837050     1.8443549781    -0.0192030716
| 14>  H        0.6818473674    -0.2725255366    -0.8473385239
| 15>  H        1.7521686403    -0.1324387446     1.3824859961
| 16>  H        0.1543708556    -0.1761505487     2.1656880849
| 17>  H       -0.2670851187    -3.6303427366     1.1195089454
| 18>  H       -0.9490372931    -2.3985118740     2.2111215128
| 19>  H       -1.9711940643    -0.0953899915     0.6273812688
| 20>  H       -1.7759603438    -0.3624943619    -1.1083390733
| 21> *
| 22>
| 23>                          ****END OF INPUT****

CARTESIAN COORDINATES (ANGSTROEM)
---------------------------------
  O     -0.087454    1.441060    0.058517
  C      0.066011    0.031285    0.012985
  C      0.728935   -0.509429    1.284905
  O      0.827131   -1.920873    1.233743
  C     -0.436622   -2.559497    1.244298
  C     -1.369077   -2.069420    0.133307
  O     -2.112122   -2.822161   -0.448083
  C     -1.332933   -0.571063   -0.132314
  H      0.783284    1.844355   -0.019203
  H      0.681847   -0.272526   -0.847339
  H      1.752169   -0.132439    1.382486
  H      0.154371   -0.176151    2.165688
  H     -0.267085   -3.630343    1.119509
  H     -0.949037   -2.398512    2.211122
  H     -1.971194   -0.095390    0.627381
  H     -1.775960   -0.362494   -1.108339

 Total Charge           Charge          ....    0
 Multiplicity           Mult            ....    1
 Number of Electrons    NEL             ....   62
 Basis Dimension        Dim             ....  296

ORBITAL ENERGIES
----------------

  NO   OCC          E(Eh)            E(eV)
   0   2.0000     -20.581044      -560.0387
   1   2.0000     -20.578543      -559.9706
   2   2.0000     -20.555866      -559.3536
   3   2.0000     -11.338700      -308.5417
   4   2.0000     -11.303404      -307.5813
   5   2.0000     -11.297224      -307.4131
   6   2.0000     -11.293502      -307.3118
   7   2.0000     -11.245078      -305.9941
   8   2.0000      -1.409898       -38.3653
   9   2.0000      -1.393313       -37.9140
  10   2.0000      -1.382392       -37.6168
  11   2.0000      -1.074572       -29.2406
  12   2.0000      -1.024450       -27.8767
  13   2.0000      -0.916913       -24.9505
  14   2.0000      -0.852354       -23.1937
  15   2.0000      -0.766366       -20.8539
  16   2.0000      -0.713587       -19.4177
  17   2.0000      -0.698733       -19.0135
  18   2.0000      -0.677889       -18.4463
  19   2.0000      -0.666115       -18.1259
  20   2.0000      -0.626600       -17.0507
  21   2.0000      -0.614401       -16.7187
  22   2.0000      -0.594075       -16.1656
  23   2.0000      -0.575433       -15.6583
  24   2.0000      -0.556940       -15.1551
  25   2.0000      -0.540712       -14.7135
  26   2.0000      -0.511985       -13.9318
  27   2.0000      -0.488238       -13.2856
  28   2.0000      -0.475666       -12.9435
  29   2.0000      -0.447776       -12.1846
  30   2.0000      -0.404005       -10.9935
  31   0.0000       0.121034         3.2935
  32   0.0000       0.123481         3.3601
  33   0.0000       0.152752         4.1566
  34   0.0000       0.169140         4.6025
  35   0.0000       0.179465         4.8835

MULLIKEN ATOMIC CHARGES
-----------------------
   0 O :   -0.453749
   1 C :    0.040399
   2 C :   -0.090242
   3 O :   -0.306160
   4 C :   -0.066218
   5 C :    0.130618
   6 O :   -0.266127
   7 C :   -0.183160
   8 H :    0.319670
   9 H :    0.094028
  10 H :    0.126525
  11 H :    0.106913
  12 H :    0.149595
  13 H :    0.112323
  14 H :    0.138043
  15 H :    0.147541
Sum of atomic charges:   -0.0000000

LOEWDIN ATOMIC CHARGES
----------------------
   0 O :   -0.010718
   1 C :   -0.358055
   2 C :   -0.307213
   3 O :    0.162055
   4 C :   -0.282724
   5 C :   -0.323686
   6 O :    0.160102
   7 C :   -0.207395
   8 H :    0.177847
   9 H :    0.138438
  10 H :    0.130383
  11 H :    0.125899
  12 H :    0.142837
  13 H :    0.134734
  14 H :    0.164778
  15 H :    0.152718

  Mayer bond orders larger than 0.1
B(  0-O ,  1-C ) :   1.0081 B(  0-O ,  8-H ) :   0.8438 B(  1-C ,  2-C ) :   0.9031
B(  1-C ,  7-C ) :   0.8791 B(  1-C ,  9-H ) :   0.9424 B(  2-C ,  3-O ) :   0.9234
B(  2-C , 10-H ) :   0.9217 B(  2-C , 11-H ) :   0.9313 B(  3-O ,  4-C ) :   0.9203
B(  4-C ,  5-C ) :   0.8699 B(  4-C , 12-H ) :   0.9198 B(  4-C , 13-H ) :   0.9173
B(  5-C ,  6-O ) :   2.0088 B(  5-C ,  7-C ) :   0.9202 B(  7-C , 14-H ) :   0.9036
B(  7-C , 15-H ) :   0.9154

MP2 TOTAL ENERGY:     -420.228887154 Eh
FINAL SINGLE POINT ENERGY      -420.228887153745

DIPOLE MOMENT
-------------
                                X             Y             Z
Electronic contribution:     -1.09503      -2.52255      -1.55307
Nuclear contribution   :      1.84878       3.26212       1.97507
                        -----------------------------------------
Total Dipole Moment    :      0.75375       0.73956       0.42199
                        -----------------------------------------
Magnitude (a.u.)       :      1.13717
Magnitude (Debye)      :      2.89046

                             ****ORCA TERMINATED NORMALLY****
TOTAL RUN TIME: 0 days 0 hours 11 minutes 16 seconds 947 msec
