                         Program Version 3.0.3 - RELEASE   -
|  1> ! RI-MP2 RIJK def2-TZVP def2-TZVP/C def2-TZVP/JK TIGHTSCF
|  2> % maxcore 2000
|  3> % mp2 density relaxed end
|  4> *xyz 0 1
|  5>  O        0.1318624692     1.3891822227    -0.0296485556
|  6>  C        0.0656874930    -0.0191014044    -0.0248063307
|  7>  C       -1.3720953157    -0.5523593136     0.0610292101
|  8>  C       -1.4550186878    -2.0809144015    -0.1284825110
|  9>  C       -2.8688789596    -2.6061448411     0.1220494295
| 10>  N       -3.2734863379    -2.2453997062     1.4777580014
| 11>  C       -3.3887000006    -0.8007353560     1.6603570322
| 12>  C       -2.0619848068    -0.1166362080     1.3500982098
| 13>  O       -1.6211195990     0.7575137505     2.0680998677
| 14>  H       -0.2442706895     1.6614548863     0.8182470065
| 15>  H        0.5192161410    -0.3628575695    -0.9613495766
| 16>  H        0.6545142268    -0.4522876818     0.8003896023
| 17>  H       -1.9557373492    -0.0761732666    -0.7437527782
| 18>  H       -1.1280194481    -2.3387423063    -1.1415769937
| 19>  H       -0.7708294283    -2.5727029995     0.5730481304
| 20>  H       -3.5522621159    -2.2032958406    -0.6514168195
| 21>  H       -2.8861375857    -3.6969619790     0.0343413753
| 22>  H       -4.1500494085    -2.6919876146     1.7212562597
| 23>  H       -4.1454506964    -0.3322051776     0.9957328715
| 24>  H       -3.6607837510    -0.5671245532     2.6921044488
| 25> *
| 26>
| 27>                          ****END OF INPUT****

CARTESIAN COORDINATES (ANGSTROEM)
---------------------------------
  O      0.131862    1.389182   -0.029649
  C      0.065687   -0.019101   -0.024806
  C     -1.372095   -0.552359    0.061029
  C     -1.455019   -2.080914   -0.128483
  C     -2.868879   -2.606145    0.122049
  N     -3.273486   -2.245400    1.477758
  C     -3.388700   -0.800735    1.660357
  C     -2.061985   -0.116636    1.350098
  O     -1.621120    0.757514    2.068100
  H     -0.244271    1.661455    0.818247
  H      0.519216   -0.362858   -0.961350
  H      0.654514   -0.452288    0.800390
  H     -1.955737   -0.076173   -0.743753
  H     -1.128019   -2.338742   -1.141577
  H     -0.770829   -2.572703    0.573048
  H     -3.552262   -2.203296   -0.651417
  H     -2.886138   -3.696962    0.034341
  H     -4.150049   -2.691988    1.721256
  H     -4.145451   -0.332205    0.995733
  H     -3.660784   -0.567125    2.692104

 Total Charge           Charge          ....    0
 Multiplicity           Mult            ....    1
 Number of Electrons    NEL             ....   70
 Basis Dimension        Dim             ....  345

ORBITAL ENERGIES
----------------

  NO   OCC          E(Eh)            E(eV)
   0   2.0000     -20.558093      -559.4141
   1   2.0000     -20.539763      -558.9154
   2   2.0000     -15.565250      -423.5520
   3   2.0000     -11.339839      -308.5727
   4   2.0000     -11.275314      -306.8169
   5   2.0000     -11.272719      -306.7463
   6   2.0000     -11.268228      -306.6241
   7   2.0000     -11.247531      -306.0609
   8   2.0000     -11.241776      -305.9043
   9   2.0000      -1.402906       -38.1750
  10   2.0000      -1.348419       -36.6923
  11   2.0000      -1.235050       -33.6074
  12   2.0000      -1.087326       -29.5877
  13   2.0000      -1.015183       -27.6245
  14   2.0000      -0.941192       -25.6111
  15   2.0000      -0.858811       -23.3694
  16   2.0000      -0.838711       -22.8225
  17   2.0000      -0.741777       -20.1848
  18   2.0000      -0.702303       -19.1106
  19   2.0000      -0.697552       -18.9813
  20   2.0000      -0.647015       -17.6062
  21   2.0000      -0.637295       -17.3417
  22   2.0000      -0.633679       -17.2433
  23   2.0000      -0.617209       -16.7951
  24   2.0000      -0.593820       -16.1587
  25   2.0000      -0.577494       -15.7144
  26   2.0000      -0.572832       -15.5875
  27   2.0000      -0.531844       -14.4722
  28   2.0000      -0.520647       -14.1675
  29   2.0000      -0.508602       -13.8398
  30   2.0000      -0.493433       -13.4270
  31   2.0000      -0.482525       -13.1302
  32   2.0000      -0.433770       -11.8035
  33   2.0000      -0.418528       -11.3887
  34   2.0000      -0.385344       -10.4857
  35   0.0000       0.108341         2.9481
  36   0.0000       0.142218         3.8700
  37   0.0000       0.151245         4.1156
  38   0.0000       0.157761         4.2929
  39   0.0000       0.168987         4.5984

MULLIKEN ATOMIC CHARGES
-----------------------
   0 O :   -0.482291
   1 C :   -0.016301
   2 C :   -0.070154
   3 C :   -0.231793
   4 C :   -0.142292
   5 N :   -0.350725
   6 C :   -0.156779
   7 C :    0.175957
   8 O :   -0.326130
   9 H :    0.334534
  10 H :    0.112273
  11 H :    0.103177
  12 H :    0.108929
  13 H :    0.124412
  14 H :    0.115906
  15 H :    0.103193
  16 H :    0.129752
  17 H :    0.210883
  18 H :    0.117394
  19 H :    0.140055
Sum of atomic charges:    0.0000000

LOEWDIN ATOMIC CHARGES
----------------------
   0 O :   -0.044639
   1 C :   -0.328240
   2 C :   -0.239524
   3 C :   -0.234452
   4 C :   -0.308004
   5 N :   -0.021306
   6 C :   -0.269603
   7 C :   -0.284826
   8 O :    0.142741
   9 H :    0.174240
  10 H :    0.130444
  11 H :    0.122664
  12 H :    0.172730
  13 H :    0.142438
  14 H :    0.145939
  15 H :    0.119918
  16 H :    0.134157
  17 H :    0.170247
  18 H :    0.132594
  19 H :    0.142483

  Mayer bond orders larger than 0.1
B(  0-O ,  1-C ) :   0.9535 B(  0-O ,  9-H ) :   0.8190 B(  1-C ,  2-C ) :   0.9289
B(  1-C , 10-H ) :   0.9294 B(  1-C , 11-H ) :   0.9280 B(  2-C ,  3-C ) :   0.9182
B(  2-C ,  7-C ) :   0.8962 B(  2-C , 12-H ) :   0.8750 B(  3-C ,  4-C ) :   0.9397
B(  3-C , 13-H ) :   0.9273 B(  3-C , 14-H ) :   0.9129 B(  4-C ,  5-N ) :   0.9438
B(  4-C , 15-H ) :   0.9373 B(  4-C , 16-H ) :   0.9231 B(  5-N ,  6-C ) :   0.9445
B(  5-N , 17-H ) :   0.8806 B(  6-C ,  7-C ) :   0.9526 B(  6-C , 18-H ) :   0.9192
B(  6-C , 19-H ) :   0.9131 B(  7-C ,  8-O ) :   1.8974

MP2 TOTAL ENERGY:     -439.588636206 Eh
FINAL SINGLE POINT ENERGY      -439.588636206209

DIPOLE MOMENT
-------------
                                X             Y             Z
Electronic contribution:      0.98938       4.75537       3.25576
Nuclear contribution   :     -2.06206      -5.95383      -3.61658
                        -----------------------------------------
Total Dipole Moment    :     -1.07268      -1.19846      -0.36083
                        -----------------------------------------
Magnitude (a.u.)       :      1.64838
Magnitude (Debye)      :      4.18985

                             ****ORCA TERMINATED NORMALLY****
TOTAL RUN TIME: 0 days 0 hours 18 minutes 4 seconds 486 msec
