                         Program Version 3.0.3 - RELEASE   -
|  1> ! RI-MP2 RIJK def2-TZVP def2-TZVP/C def2-TZVP/JK TIGHTSCF
|  2> % maxcore 2000
|  3> % mp2 density relaxed end
|  4> *xyz 0 1
|  5>  C       -0.2238760982     1.5483818858     0.0015658901
|  6>  C        0.0310439885     0.0432693055    -0.0085660846
|  7>  C        0.9547143760    -0.4808594504    -1.1523708878
|  8>  C        2.0016026737    -1.3046522097    -0.3323263334
|  9>  O        1.1931968147    -1.8154245920     0.7333362910
| 10>  C        0.7902426118    -0.5341752169     1.2393081728
| 11>  C        2.1250137717     0.1862657258     1.3718123271
| 12>  C        2.8924810547    -0.2887922057     0.3866985343
| 13>  C        4.2582401373     0.1003730339    -0.0657065541
| 14>  H        0.7144103461     2.1109539766     0.0387593026
| 15>  H       -0.7639000694     1.8602748308    -0.8985223302
| 16>  H       -0.8293099044     1.8443344952     0.8662122285
| 17>  H       -0.9279841197    -0.4814966274    -0.0611633876
| 18>  H        0.4100236033    -1.1282750370    -1.8435670541
| 19>  H        1.4183974411     0.3233970155    -1.7310323105
| 20>  H        2.4987100605    -2.1154732102    -0.8658288025
| 21>  H        0.1860880805    -0.6472022307     2.1397022670
| 22>  H        2.3480338876     0.9859225472     2.0657305230
| 23>  H        4.6884912704     0.8785033706     0.5706373405
| 24>  H        4.9392648761    -0.7600710368    -0.0627057003
| 25>  H        4.2417944177     0.4790104099    -1.0963103117
| 26> *
| 27>
| 28>                          ****END OF INPUT****

CARTESIAN COORDINATES (ANGSTROEM)
---------------------------------
  C     -0.223876    1.548382    0.001566
  C      0.031044    0.043269   -0.008566
  C      0.954714   -0.480859   -1.152371
  C      2.001603   -1.304652   -0.332326
  O      1.193197   -1.815425    0.733336
  C      0.790243   -0.534175    1.239308
  C      2.125014    0.186266    1.371812
  C      2.892481   -0.288792    0.386699
  C      4.258240    0.100373   -0.065707
  H      0.714410    2.110954    0.038759
  H     -0.763900    1.860275   -0.898522
  H     -0.829310    1.844334    0.866212
  H     -0.927984   -0.481497   -0.061163
  H      0.410024   -1.128275   -1.843567
  H      1.418397    0.323397   -1.731032
  H      2.498710   -2.115473   -0.865829
  H      0.186088   -0.647202    2.139702
  H      2.348034    0.985923    2.065731
  H      4.688491    0.878503    0.570637
  H      4.939265   -0.760071   -0.062706
  H      4.241794    0.479010   -1.096310

 Total Charge           Charge          ....    0
 Multiplicity           Mult            ....    1
 Number of Electrons    NEL             ....   68
 Basis Dimension        Dim             ....  351

ORBITAL ENERGIES
----------------

  NO   OCC          E(Eh)            E(eV)
   0   2.0000     -20.544259      -559.0377
   1   2.0000     -11.278683      -306.9086
   2   2.0000     -11.276236      -306.8420
   3   2.0000     -11.232371      -305.6484
   4   2.0000     -11.229681      -305.5751
   5   2.0000     -11.227760      -305.5229
   6   2.0000     -11.221193      -305.3442
   7   2.0000     -11.215938      -305.2012
   8   2.0000     -11.214098      -305.1511
   9   2.0000      -1.385560       -37.7030
  10   2.0000      -1.100160       -29.9369
  11   2.0000      -1.052549       -28.6413
  12   2.0000      -0.995435       -27.0872
  13   2.0000      -0.957415       -26.0526
  14   2.0000      -0.907925       -24.7059
  15   2.0000      -0.797778       -21.7086
  16   2.0000      -0.766998       -20.8711
  17   2.0000      -0.725378       -19.7386
  18   2.0000      -0.692728       -18.8501
  19   2.0000      -0.643428       -17.5086
  20   2.0000      -0.617899       -16.8139
  21   2.0000      -0.583600       -15.8806
  22   2.0000      -0.575329       -15.6555
  23   2.0000      -0.565734       -15.3944
  24   2.0000      -0.551491       -15.0068
  25   2.0000      -0.542723       -14.7682
  26   2.0000      -0.532194       -14.4817
  27   2.0000      -0.512551       -13.9472
  28   2.0000      -0.491112       -13.3638
  29   2.0000      -0.479311       -13.0427
  30   2.0000      -0.461491       -12.5578
  31   2.0000      -0.438407       -11.9297
  32   2.0000      -0.413370       -11.2484
  33   2.0000      -0.338879        -9.2214
  34   0.0000       0.132118         3.5951
  35   0.0000       0.145554         3.9607
  36   0.0000       0.156077         4.2471
  37   0.0000       0.173826         4.7300
  38   0.0000       0.177037         4.8174

MULLIKEN ATOMIC CHARGES
-----------------------
   0 C :   -0.445117
   1 C :   -0.031295
   2 C :   -0.272463
   3 C :    0.088109
   4 O :   -0.307418
   5 C :    0.134408
   6 C :   -0.280669
   7 C :    0.008188
   8 C :   -0.446132
   9 H :    0.133213
  10 H :    0.134336
  11 H :    0.128727
  12 H :    0.097438
  13 H :    0.125164
  14 H :    0.110376
  15 H :    0.129962
  16 H :    0.134140
  17 H :    0.129481
  18 H :    0.141687
  19 H :    0.148333
  20 H :    0.139532
Sum of atomic charges:   -0.0000000

LOEWDIN ATOMIC CHARGES
----------------------
   0 C :   -0.299336
   1 C :   -0.241202
   2 C :   -0.202347
   3 C :   -0.247640
   4 O :    0.198917
   5 C :   -0.253845
   6 C :   -0.120465
   7 C :   -0.165620
   8 C :   -0.275170
   9 H :    0.124298
  10 H :    0.124423
  11 H :    0.123590
  12 H :    0.150596
  13 H :    0.134924
  14 H :    0.135998
  15 H :    0.138719
  16 H :    0.138780
  17 H :    0.136834
  18 H :    0.132236
  19 H :    0.133695
  20 H :    0.132616

  Mayer bond orders larger than 0.1
B(  0-C ,  1-C ) :   0.8922 B(  0-C ,  9-H ) :   0.9327 B(  0-C , 10-H ) :   0.9363
B(  0-C , 11-H ) :   0.9410 B(  1-C ,  2-C ) :   0.9552 B(  1-C ,  5-C ) :   0.9220
B(  1-C , 12-H ) :   0.9216 B(  2-C ,  3-C ) :   0.8991 B(  2-C , 13-H ) :   0.9182
B(  2-C , 14-H ) :   0.9123 B(  3-C ,  4-O ) :   0.9670 B(  3-C ,  7-C ) :   0.9440
B(  3-C , 15-H ) :   0.9055 B(  4-O ,  5-C ) :   0.9346 B(  5-C ,  6-C ) :   0.9243
B(  5-C , 16-H ) :   0.9069 B(  6-C ,  7-C ) :   1.7522 B(  6-C , 17-H ) :   0.9328
B(  7-C ,  8-C ) :   0.8791 B(  8-C , 18-H ) :   0.9465 B(  8-C , 19-H ) :   0.9406
B(  8-C , 20-H ) :   0.9228

MP2 TOTAL ENERGY:     -386.425293634 Eh
FINAL SINGLE POINT ENERGY      -386.425293633856

DIPOLE MOMENT
-------------
                                X             Y             Z
Electronic contribution:     -0.13859      -5.60350       3.04533
Nuclear contribution   :      0.31901       6.24215      -3.36817
                        -----------------------------------------
Total Dipole Moment    :      0.18042       0.63865      -0.32284
                        -----------------------------------------
Magnitude (a.u.)       :      0.73800
Magnitude (Debye)      :      1.87586

                             ****ORCA TERMINATED NORMALLY****
TOTAL RUN TIME: 0 days 0 hours 22 minutes 1 seconds 535 msec
