                         Program Version 3.0.3 - RELEASE   -
|  1> ! RI-MP2 RIJK def2-TZVP def2-TZVP/C def2-TZVP/JK TIGHTSCF
|  2> % maxcore 2000
|  3> % mp2 density relaxed end
|  4> *xyz 0 1
|  5>  C       -0.0251876174     1.3981966890    -0.1200996819
|  6>  N       -0.0419395779    -0.0536670196    -0.1896453185
|  7>  C       -1.1107589524    -0.6740978081     0.0545789757
|  8>  O       -2.3175304046    -0.0804737834     0.3529717462
|  9>  C       -3.2202996008    -1.0359768871     0.9348423540
| 10>  C       -2.6537975967    -2.4029353608     0.6081158007
| 11>  C       -2.3678415252    -2.6559548440    -0.8434034045
| 12>  C       -1.2578180772    -2.1593287916     0.0692158250
| 13>  C       -0.0401647691    -2.9982173767     0.3575499140
| 14>  H        0.9349863958     1.7233004449     0.2931644644
| 15>  H       -0.0970376889     1.8194802783    -1.1309088971
| 16>  H       -0.8382822122     1.8224296501     0.4809827747
| 17>  H       -3.2682093851    -0.8706731898     2.0186155310
| 18>  H       -4.2123696591    -0.8531690114     0.5090405890
| 19>  H       -2.8680770429    -3.2293773671     1.2748702486
| 20>  H       -2.2928362119    -3.6893091659    -1.1640016130
| 21>  H       -2.7818510225    -1.9796169232    -1.5850924606
| 22>  H        0.7331094888    -2.8067565715    -0.3915122276
| 23>  H        0.3845648192    -2.7563650736     1.3368176684
| 24>  H       -0.2856564296    -4.0642153085     0.3413819914
| 25> *
| 26>
| 27>                          ****END OF INPUT****

CARTESIAN COORDINATES (ANGSTROEM)
---------------------------------
  C     -0.025188    1.398197   -0.120100
  N     -0.041940   -0.053667   -0.189645
  C     -1.110759   -0.674098    0.054579
  O     -2.317530   -0.080474    0.352972
  C     -3.220300   -1.035977    0.934842
  C     -2.653798   -2.402935    0.608116
  C     -2.367842   -2.655955   -0.843403
  C     -1.257818   -2.159329    0.069216
  C     -0.040165   -2.998217    0.357550
  H      0.934986    1.723300    0.293164
  H     -0.097038    1.819480   -1.130909
  H     -0.838282    1.822430    0.480983
  H     -3.268209   -0.870673    2.018616
  H     -4.212370   -0.853169    0.509041
  H     -2.868077   -3.229377    1.274870
  H     -2.292836   -3.689309   -1.164002
  H     -2.781851   -1.979617   -1.585092
  H      0.733109   -2.806757   -0.391512
  H      0.384565   -2.756365    1.336818
  H     -0.285656   -4.064215    0.341382

 Total Charge           Charge          ....    0
 Multiplicity           Mult            ....    1
 Number of Electrons    NEL             ....   68
 Basis Dimension        Dim             ....  345

ORBITAL ENERGIES
----------------

  NO   OCC          E(Eh)            E(eV)
   0   2.0000     -20.584922      -560.1442
   1   2.0000     -15.528115      -422.5415
   2   2.0000     -11.322881      -308.1112
   3   2.0000     -11.295071      -307.3545
   4   2.0000     -11.252555      -306.1976
   5   2.0000     -11.247948      -306.0722
   6   2.0000     -11.240590      -305.8720
   7   2.0000     -11.230287      -305.5916
   8   2.0000     -11.220861      -305.3352
   9   2.0000      -1.420736       -38.6602
  10   2.0000      -1.205535       -32.8043
  11   2.0000      -1.171426       -31.8761
  12   2.0000      -1.001194       -27.2439
  13   2.0000      -0.951935       -25.9035
  14   2.0000      -0.929152       -25.2835
  15   2.0000      -0.848260       -23.0823
  16   2.0000      -0.801358       -21.8061
  17   2.0000      -0.732077       -19.9208
  18   2.0000      -0.688463       -18.7340
  19   2.0000      -0.661460       -17.9992
  20   2.0000      -0.641174       -17.4472
  21   2.0000      -0.616900       -16.7867
  22   2.0000      -0.586772       -15.9669
  23   2.0000      -0.581139       -15.8136
  24   2.0000      -0.566909       -15.4264
  25   2.0000      -0.558042       -15.1851
  26   2.0000      -0.547839       -14.9075
  27   2.0000      -0.520394       -14.1606
  28   2.0000      -0.514176       -13.9914
  29   2.0000      -0.489279       -13.3140
  30   2.0000      -0.427010       -11.6195
  31   2.0000      -0.422825       -11.5056
  32   2.0000      -0.396195       -10.7810
  33   2.0000      -0.363027        -9.8785
  34   0.0000       0.138814         3.7773
  35   0.0000       0.159994         4.3536
  36   0.0000       0.163218         4.4414
  37   0.0000       0.167368         4.5543
  38   0.0000       0.180089         4.9005

MULLIKEN ATOMIC CHARGES
-----------------------
   0 C :   -0.278541
   1 N :   -0.251077
   2 C :    0.108689
   3 O :   -0.287197
   4 C :   -0.027100
   5 C :   -0.154472
   6 C :   -0.289570
   7 C :    0.121709
   8 C :   -0.391933
   9 H :    0.133707
  10 H :    0.132653
  11 H :    0.124556
  12 H :    0.110119
  13 H :    0.117928
  14 H :    0.140760
  15 H :    0.139610
  16 H :    0.141427
  17 H :    0.152943
  18 H :    0.131739
  19 H :    0.124047
Sum of atomic charges:   -0.0000000

LOEWDIN ATOMIC CHARGES
----------------------
   0 C :   -0.334123
   1 N :    0.079685
   2 C :   -0.333396
   3 O :    0.232641
   4 C :   -0.249881
   5 C :   -0.185972
   6 C :   -0.168850
   7 C :   -0.209586
   8 C :   -0.256263
   9 H :    0.114504
  10 H :    0.118454
  11 H :    0.109220
  12 H :    0.128479
  13 H :    0.129783
  14 H :    0.149066
  15 H :    0.139880
  16 H :    0.141011
  17 H :    0.137444
  18 H :    0.130908
  19 H :    0.126995

  Mayer bond orders larger than 0.1
B(  0-C ,  1-N ) :   0.8662 B(  0-C ,  9-H ) :   0.9402 B(  0-C , 10-H ) :   0.9321
B(  0-C , 11-H ) :   0.9292 B(  1-N ,  2-C ) :   1.9694 B(  2-C ,  3-O ) :   1.0586
B(  2-C ,  7-C ) :   0.9329 B(  3-O ,  4-C ) :   0.9021 B(  4-C ,  5-C ) :   0.9694
B(  4-C , 12-H ) :   0.9243 B(  4-C , 13-H ) :   0.9208 B(  5-C ,  6-C ) :   0.8913
B(  5-C ,  7-C ) :   0.8486 B(  5-C , 14-H ) :   0.9152 B(  6-C ,  7-C ) :   0.8479
B(  6-C , 15-H ) :   0.9309 B(  6-C , 16-H ) :   0.9135 B(  7-C ,  8-C ) :   0.9137
B(  8-C , 17-H ) :   0.9340 B(  8-C , 18-H ) :   0.9347 B(  8-C , 19-H ) :   0.9316

MP2 TOTAL ENERGY:     -402.462133078 Eh
FINAL SINGLE POINT ENERGY      -402.462133078291

DIPOLE MOMENT
-------------
                                X             Y             Z
Electronic contribution:     -1.92704       1.53014      -0.05782
Nuclear contribution   :      1.19526      -2.11134       0.40015
                        -----------------------------------------
Total Dipole Moment    :     -0.73178      -0.58120       0.34233
                        -----------------------------------------
Magnitude (a.u.)       :      0.99523
Magnitude (Debye)      :      2.52966

                             ****ORCA TERMINATED NORMALLY****
TOTAL RUN TIME: 0 days 0 hours 18 minutes 44 seconds 756 msec
