                         Program Version 3.0.3 - RELEASE   -
|  1> ! RI-MP2 RIJK def2-TZVP def2-TZVP/C def2-TZVP/JK TIGHTSCF
|  2> % maxcore 2000
|  3> % mp2 density relaxed end
|  4> *xyz 0 1
|  5>  C        0.0124004485     1.4828768137    -0.0480760925
|  6>  C        0.0052121758     0.0271976929    -0.0158385719
|  7>  C       -0.0025749151    -1.1768823559     0.0145168604
|  8>  C       -0.0201728049    -2.6290618455     0.0440683551
|  9>  C        0.4678920596    -3.2758964562     1.3963527900
| 10>  C       -0.8232669240    -4.0528379846     1.7216747177
| 11>  C       -1.2017339209    -4.7312893726     0.3865105026
| 12>  C       -1.4551797934    -3.2428763682     0.0677739930
| 13>  O       -1.8563132787    -3.0521289559     1.4544695606
| 14>  H        1.0349177589     1.8769433922    -0.0604402137
| 15>  H       -0.4988050878     1.8653403989    -0.9387488947
| 16>  H       -0.4931566617     1.9027221954     0.8286831926
| 17>  H        0.5456144581    -3.0226013840    -0.8080163566
| 18>  H        1.3425375439    -3.9188815380     1.2700556996
| 19>  H        0.6837435999    -2.5196198939     2.1516197140
| 20>  H       -0.9143521007    -4.5386954460     2.6928560210
| 21>  H       -0.4410275520    -5.2818605713    -0.1738843372
| 22>  H       -2.1323717880    -5.2936720761     0.4625907714
| 23>  H       -2.1757468776    -2.8837808348    -0.6656525713
| 24> *
| 25>
| 26>                          ****END OF INPUT****

CARTESIAN COORDINATES (ANGSTROEM)
---------------------------------
  C      0.012400    1.482877   -0.048076
  C      0.005212    0.027198   -0.015839
  C     -0.002575   -1.176882    0.014517
  C     -0.020173   -2.629062    0.044068
  C      0.467892   -3.275896    1.396353
  C     -0.823267   -4.052838    1.721675
  C     -1.201734   -4.731289    0.386511
  C     -1.455180   -3.242876    0.067774
  O     -1.856313   -3.052129    1.454470
  H      1.034918    1.876943   -0.060440
  H     -0.498805    1.865340   -0.938749
  H     -0.493157    1.902722    0.828683
  H      0.545614   -3.022601   -0.808016
  H      1.342538   -3.918882    1.270056
  H      0.683744   -2.519620    2.151620
  H     -0.914352   -4.538695    2.692856
  H     -0.441028   -5.281861   -0.173884
  H     -2.132372   -5.293672    0.462591
  H     -2.175747   -2.883781   -0.665653

 Total Charge           Charge          ....    0
 Multiplicity           Mult            ....    1
 Number of Electrons    NEL             ....   66
 Basis Dimension        Dim             ....  339

ORBITAL ENERGIES
----------------

  NO   OCC          E(Eh)            E(eV)
   0   2.0000     -20.547242      -559.1189
   1   2.0000     -11.290927      -307.2417
   2   2.0000     -11.288763      -307.1829
   3   2.0000     -11.254600      -306.2532
   4   2.0000     -11.241068      -305.8850
   5   2.0000     -11.232658      -305.6562
   6   2.0000     -11.231266      -305.6183
   7   2.0000     -11.216279      -305.2105
   8   2.0000     -11.210440      -305.0516
   9   2.0000      -1.390453       -37.8362
  10   2.0000      -1.097034       -29.8518
  11   2.0000      -1.045751       -28.4563
  12   2.0000      -0.992272       -27.0011
  13   2.0000      -0.965679       -26.2775
  14   2.0000      -0.925807       -25.1925
  15   2.0000      -0.804312       -21.8865
  16   2.0000      -0.763478       -20.7753
  17   2.0000      -0.713639       -19.4191
  18   2.0000      -0.665048       -18.0969
  19   2.0000      -0.651269       -17.7219
  20   2.0000      -0.621013       -16.8986
  21   2.0000      -0.590446       -16.0668
  22   2.0000      -0.580594       -15.7988
  23   2.0000      -0.580026       -15.7833
  24   2.0000      -0.542224       -14.7547
  25   2.0000      -0.515809       -14.0359
  26   2.0000      -0.513298       -13.9675
  27   2.0000      -0.505836       -13.7645
  28   2.0000      -0.475928       -12.9507
  29   2.0000      -0.458073       -12.4648
  30   2.0000      -0.424497       -11.5511
  31   2.0000      -0.360656        -9.8140
  32   2.0000      -0.354265        -9.6400
  33   0.0000       0.137590         3.7440
  34   0.0000       0.146513         3.9868
  35   0.0000       0.163736         4.4555
  36   0.0000       0.172385         4.6908
  37   0.0000       0.184671         5.0252

MULLIKEN ATOMIC CHARGES
-----------------------
   0 C :   -0.489811
   1 C :    0.059854
   2 C :   -0.088045
   3 C :   -0.123396
   4 C :   -0.211212
   5 C :   -0.014381
   6 C :   -0.182149
   7 C :    0.007089
   8 O :   -0.316168
   9 H :    0.160014
  10 H :    0.159943
  11 H :    0.164569
  12 H :    0.123377
  13 H :    0.115844
  14 H :    0.133531
  15 H :    0.126472
  16 H :    0.116182
  17 H :    0.125769
  18 H :    0.132519
Sum of atomic charges:   -0.0000000

LOEWDIN ATOMIC CHARGES
----------------------
   0 C :   -0.296987
   1 C :   -0.100931
   2 C :   -0.068330
   3 C :   -0.208754
   4 C :   -0.191481
   5 C :   -0.258222
   6 C :   -0.204870
   7 C :   -0.230036
   8 O :    0.164435
   9 H :    0.139712
  10 H :    0.139772
  11 H :    0.140941
  12 H :    0.164523
  13 H :    0.134583
  14 H :    0.143113
  15 H :    0.130152
  16 H :    0.128157
  17 H :    0.139838
  18 H :    0.134384

  Mayer bond orders larger than 0.1
B(  0-C ,  1-C ) :   0.8366 B(  0-C ,  9-H ) :   0.9513 B(  0-C , 10-H ) :   0.9499
B(  0-C , 11-H ) :   0.9475 B(  1-C ,  2-C ) :   2.6609 B(  1-C ,  3-C ) :  -0.1317
B(  2-C ,  3-C ) :   1.1452 B(  3-C ,  4-C ) :   0.9097 B(  3-C ,  7-C ) :   0.8882
B(  3-C , 12-H ) :   0.9106 B(  4-C ,  5-C ) :   0.9489 B(  4-C , 13-H ) :   0.9150
B(  4-C , 14-H ) :   0.9217 B(  5-C ,  6-C ) :   0.9464 B(  5-C ,  8-O ) :   0.9243
B(  5-C , 15-H ) :   0.9140 B(  6-C ,  7-C ) :   0.9341 B(  6-C , 16-H ) :   0.9285
B(  6-C , 17-H ) :   0.9239 B(  7-C ,  8-O ) :   0.9487 B(  7-C , 18-H ) :   0.9160

MP2 TOTAL ENERGY:     -385.161956052 Eh
FINAL SINGLE POINT ENERGY      -385.161956052293

DIPOLE MOMENT
-------------
                                X             Y             Z
Electronic contribution:     -1.97843      -1.53054       0.66646
Nuclear contribution   :      2.42067       1.19486      -0.96775
                        -----------------------------------------
Total Dipole Moment    :      0.44224      -0.33568      -0.30129
                        -----------------------------------------
Magnitude (a.u.)       :      0.63169
Magnitude (Debye)      :      1.60563

                             ****ORCA TERMINATED NORMALLY****
TOTAL RUN TIME: 0 days 0 hours 19 minutes 26 seconds 710 msec
