                         Program Version 3.0.3 - RELEASE   -
|  1> ! RI-MP2 RIJK def2-TZVP def2-TZVP/C def2-TZVP/JK TIGHTSCF
|  2> % maxcore 2000
|  3> % mp2 density relaxed end
|  4> *xyz 0 1
|  5>  C        0.0404777187     1.3992525941     0.0980520087
|  6>  O       -0.0155973647    -0.0141602928     0.0135057157
|  7>  C        0.6825134789    -0.5421932029    -1.0679818876
|  8>  O        2.0642046108    -0.2767722477    -0.8942702210
|  9>  C        2.8677993904    -1.0109835364    -1.7995557135
| 10>  C        2.7732695395    -2.5121191582    -1.5200305766
| 11>  C        1.3330002855    -2.9356999212    -1.3404899082
| 12>  C        1.0447504447    -4.4096876789    -1.3808471943
| 13>  C        0.3881231768    -2.0164574651    -1.1429509374
| 14>  H        1.0576093267     1.7526722948     0.2983792330
| 15>  H       -0.3197066220     1.8671891623    -0.8310949599
| 16>  H       -0.6151109981     1.6921199514     0.9210057173
| 17>  H        0.3511598354    -0.0337321273    -2.0008970406
| 18>  H        2.5589487249    -0.8055321970    -2.8383519128
| 19>  H        3.8899050905    -0.6424635452    -1.6761486086
| 20>  H        3.2343316812    -3.0739055445    -2.3434837013
| 21>  H        3.3457065453    -2.7662160291    -0.6171026126
| 22>  H        1.6241584108    -4.9420168693    -0.6153614359
| 23>  H       -0.0146713879    -4.6201420357    -1.2133658529
| 24>  H        1.3347080185    -4.8432713499    -2.3466508177
| 25>  H       -0.6559884458    -2.2888214414    -1.0202496238
| 26> *
| 27>
| 28>                          ****END OF INPUT****

CARTESIAN COORDINATES (ANGSTROEM)
---------------------------------
  C      0.040478    1.399253    0.098052
  O     -0.015597   -0.014160    0.013506
  C      0.682513   -0.542193   -1.067982
  O      2.064205   -0.276772   -0.894270
  C      2.867799   -1.010984   -1.799556
  C      2.773270   -2.512119   -1.520031
  C      1.333000   -2.935700   -1.340490
  C      1.044750   -4.409688   -1.380847
  C      0.388123   -2.016457   -1.142951
  H      1.057609    1.752672    0.298379
  H     -0.319707    1.867189   -0.831095
  H     -0.615111    1.692120    0.921006
  H      0.351160   -0.033732   -2.000897
  H      2.558949   -0.805532   -2.838352
  H      3.889905   -0.642464   -1.676149
  H      3.234332   -3.073906   -2.343484
  H      3.345707   -2.766216   -0.617103
  H      1.624158   -4.942017   -0.615361
  H     -0.014671   -4.620142   -1.213366
  H      1.334708   -4.843271   -2.346651
  H     -0.655988   -2.288821   -1.020250

 Total Charge           Charge          ....    0
 Multiplicity           Mult            ....    1
 Number of Electrons    NEL             ....   70
 Basis Dimension        Dim             ....  351

ORBITAL ENERGIES
----------------

  NO   OCC          E(Eh)            E(eV)
   0   2.0000     -20.555260      -559.3371
   1   2.0000     -20.553149      -559.2796
   2   2.0000     -11.330401      -308.3159
   3   2.0000     -11.277987      -306.8896
   4   2.0000     -11.263784      -306.5031
   5   2.0000     -11.239993      -305.8558
   6   2.0000     -11.229562      -305.5719
   7   2.0000     -11.224075      -305.4226
   8   2.0000     -11.215992      -305.2027
   9   2.0000      -1.414498       -38.4905
  10   2.0000      -1.344916       -36.5970
  11   2.0000      -1.103956       -30.0402
  12   2.0000      -1.022585       -27.8260
  13   2.0000      -0.970425       -26.4066
  14   2.0000      -0.918658       -24.9980
  15   2.0000      -0.866128       -23.5685
  16   2.0000      -0.831670       -22.6309
  17   2.0000      -0.721142       -19.6233
  18   2.0000      -0.687715       -18.7137
  19   2.0000      -0.680803       -18.5256
  20   2.0000      -0.659122       -17.9356
  21   2.0000      -0.630027       -17.1439
  22   2.0000      -0.600209       -16.3325
  23   2.0000      -0.587597       -15.9893
  24   2.0000      -0.577508       -15.7148
  25   2.0000      -0.566140       -15.4054
  26   2.0000      -0.552103       -15.0235
  27   2.0000      -0.534893       -14.5552
  28   2.0000      -0.523007       -14.2317
  29   2.0000      -0.503379       -13.6976
  30   2.0000      -0.488342       -13.2885
  31   2.0000      -0.462660       -12.5896
  32   2.0000      -0.435183       -11.8419
  33   2.0000      -0.412105       -11.2139
  34   2.0000      -0.348178        -9.4744
  35   0.0000       0.136557         3.7159
  36   0.0000       0.151605         4.1254
  37   0.0000       0.159977         4.3532
  38   0.0000       0.167939         4.5698
  39   0.0000       0.181221         4.9313

MULLIKEN ATOMIC CHARGES
-----------------------
   0 C :   -0.217920
   1 O :   -0.284683
   2 C :    0.205352
   3 O :   -0.292967
   4 C :   -0.082062
   5 C :   -0.175164
   6 C :    0.025554
   7 C :   -0.410065
   8 C :   -0.200803
   9 H :    0.139764
  10 H :    0.103599
  11 H :    0.137728
  12 H :    0.057747
  13 H :    0.096571
  14 H :    0.128428
  15 H :    0.116169
  16 H :    0.118557
  17 H :    0.138004
  18 H :    0.135953
  19 H :    0.135313
  20 H :    0.124924
Sum of atomic charges:   -0.0000000

LOEWDIN ATOMIC CHARGES
----------------------
   0 C :   -0.347221
   1 O :    0.173664
   2 C :   -0.410466
   3 O :    0.178395
   4 C :   -0.306415
   5 C :   -0.229236
   6 C :   -0.189137
   7 C :   -0.269023
   8 C :   -0.131637
   9 H :    0.107426
  10 H :    0.101569
  11 H :    0.112647
  12 H :    0.123031
  13 H :    0.123001
  14 H :    0.129438
  15 H :    0.145663
  16 H :    0.147975
  17 H :    0.132020
  18 H :    0.129583
  19 H :    0.129336
  20 H :    0.149387

  Mayer bond orders larger than 0.1
B(  0-C ,  1-O ) :   0.8969 B(  0-C ,  9-H ) :   0.9396 B(  0-C , 10-H ) :   0.9329
B(  0-C , 11-H ) :   0.9376 B(  1-O ,  2-C ) :   1.0341 B(  2-C ,  3-O ) :   0.9516
B(  2-C ,  8-C ) :   0.9408 B(  2-C , 12-H ) :   0.9479 B(  3-O ,  4-C ) :   0.9219
B(  4-C ,  5-C ) :   0.9456 B(  4-C , 13-H ) :   0.9398 B(  4-C , 14-H ) :   0.9313
B(  5-C ,  6-C ) :   0.9295 B(  5-C , 15-H ) :   0.9231 B(  5-C , 16-H ) :   0.8955
B(  6-C ,  7-C ) :   0.8919 B(  6-C ,  8-C ) :   1.7603 B(  7-C , 17-H ) :   0.9270
B(  7-C , 18-H ) :   0.9457 B(  7-C , 19-H ) :   0.9322 B(  8-C , 20-H ) :   0.9232

MP2 TOTAL ENERGY:     -423.519763016 Eh
FINAL SINGLE POINT ENERGY      -423.519763015997

DIPOLE MOMENT
-------------
                                X             Y             Z
Electronic contribution:     -0.67969       2.55760       1.67981
Nuclear contribution   :      0.89937      -2.75890      -2.27943
                        -----------------------------------------
Total Dipole Moment    :      0.21968      -0.20130      -0.59963
                        -----------------------------------------
Magnitude (a.u.)       :      0.66958
Magnitude (Debye)      :      1.70193

                             ****ORCA TERMINATED NORMALLY****
TOTAL RUN TIME: 0 days 0 hours 18 minutes 10 seconds 31 msec
