                         Program Version 3.0.3 - RELEASE   -
|  1> ! RI-MP2 RIJK def2-TZVP def2-TZVP/C def2-TZVP/JK TIGHTSCF
|  2> % maxcore 2000
|  3> % mp2 density relaxed end
|  4> *xyz 0 1
|  5>  O       -0.0674766373    -0.1227147817    -0.2193062650
|  6>  C       -0.1082777860     1.0804895233    -0.2010589117
|  7>  C        1.1192628828     1.9589383373    -0.0351013522
|  8>  C        1.3914633734     2.8354890880    -1.2674608689
|  9>  C        0.4196397685     4.0079742718    -1.4104435417
| 10>  O       -0.5341932561     4.1698697912    -0.6965253070
| 11>  C        2.8193352695     3.3917212562    -1.3058744931
| 12>  O        3.2259585682     4.0935358417    -2.1922791518
| 13>  H       -1.0639981883     1.6323599832    -0.3115255489
| 14>  H        0.9574963554     2.6113895920     0.8320317214
| 15>  H        1.9741205869     1.3060042751     0.1638781243
| 16>  H        1.2926680990     2.2560439165    -2.1987106342
| 17>  H        0.6775176539     4.7095923775    -2.2278362298
| 18>  H        3.4560836303     3.1106899679    -0.4385878813
| 19> *
| 20>
| 21>                          ****END OF INPUT****

CARTESIAN COORDINATES (ANGSTROEM)
---------------------------------
  O     -0.067477   -0.122715   -0.219306
  C     -0.108278    1.080490   -0.201059
  C      1.119263    1.958938   -0.035101
  C      1.391463    2.835489   -1.267461
  C      0.419640    4.007974   -1.410444
  O     -0.534193    4.169870   -0.696525
  C      2.819335    3.391721   -1.305874
  O      3.225959    4.093536   -2.192279
  H     -1.063998    1.632360   -0.311526
  H      0.957496    2.611390    0.832032
  H      1.974121    1.306004    0.163878
  H      1.292668    2.256044   -2.198711
  H      0.677518    4.709592   -2.227836
  H      3.456084    3.110690   -0.438588

 Total Charge           Charge          ....    0
 Multiplicity           Mult            ....    1
 Number of Electrons    NEL             ....   60
 Basis Dimension        Dim             ....  284

ORBITAL ENERGIES
----------------

  NO   OCC          E(Eh)            E(eV)
   0   2.0000     -20.593399      -560.3749
   1   2.0000     -20.589748      -560.2755
   2   2.0000     -20.570966      -559.7644
   3   2.0000     -11.370797      -309.4151
   4   2.0000     -11.364868      -309.2538
   5   2.0000     -11.344633      -308.7032
   6   2.0000     -11.293568      -307.3136
   7   2.0000     -11.269761      -306.6658
   8   2.0000      -1.436135       -39.0792
   9   2.0000      -1.429315       -38.8936
  10   2.0000      -1.409324       -38.3496
  11   2.0000      -1.126689       -30.6588
  12   2.0000      -0.990502       -26.9529
  13   2.0000      -0.881636       -23.9905
  14   2.0000      -0.813486       -22.1361
  15   2.0000      -0.795210       -21.6388
  16   2.0000      -0.729929       -19.8624
  17   2.0000      -0.698690       -19.0123
  18   2.0000      -0.690152       -18.7800
  19   2.0000      -0.668632       -18.1944
  20   2.0000      -0.661555       -18.0018
  21   2.0000      -0.625673       -17.0254
  22   2.0000      -0.596323       -16.2268
  23   2.0000      -0.574405       -15.6304
  24   2.0000      -0.553513       -15.0619
  25   2.0000      -0.545602       -14.8466
  26   2.0000      -0.518083       -14.0978
  27   2.0000      -0.471058       -12.8181
  28   2.0000      -0.446335       -12.1454
  29   2.0000      -0.428563       -11.6618
  30   0.0000       0.079970         2.1761
  31   0.0000       0.108702         2.9579
  32   0.0000       0.123788         3.3684
  33   0.0000       0.145398         3.9565
  34   0.0000       0.149174         4.0592

MULLIKEN ATOMIC CHARGES
-----------------------
   0 O :   -0.259657
   1 C :    0.060724
   2 C :   -0.199563
   3 C :   -0.032221
   4 C :    0.069364
   5 O :   -0.262781
   6 C :    0.072980
   7 O :   -0.247508
   8 H :    0.115213
   9 H :    0.146560
  10 H :    0.137206
  11 H :    0.153699
  12 H :    0.131096
  13 H :    0.114887
Sum of atomic charges:    0.0000000

LOEWDIN ATOMIC CHARGES
----------------------
   0 O :    0.136886
   1 C :   -0.289757
   2 C :   -0.237031
   3 C :   -0.254324
   4 C :   -0.261188
   5 O :    0.149623
   6 C :   -0.262214
   7 O :    0.153853
   8 H :    0.119218
   9 H :    0.159378
  10 H :    0.150659
  11 H :    0.187144
  12 H :    0.127610
  13 H :    0.120142

  Mayer bond orders larger than 0.1
B(  0-O ,  1-C ) :   1.9945 B(  1-C ,  2-C ) :   0.8656 B(  1-C ,  8-H ) :   0.9374
B(  2-C ,  3-C ) :   0.8807 B(  2-C ,  9-H ) :   0.8986 B(  2-C , 10-H ) :   0.9192
B(  3-C ,  4-C ) :   0.8596 B(  3-C ,  6-C ) :   0.8101 B(  3-C , 11-H ) :   0.8746
B(  4-C ,  5-O ) :   1.9621 B(  4-C , 12-H ) :   0.9340 B(  6-C ,  7-O ) :   1.9843
B(  6-C , 13-H ) :   0.9437

MP2 TOTAL ENERGY:     -419.019772969 Eh
FINAL SINGLE POINT ENERGY      -419.019772969494

DIPOLE MOMENT
-------------
                                X             Y             Z
Electronic contribution:     -0.62115       0.68407      -1.12124
Nuclear contribution   :      1.05930      -0.40683       1.23413
                        -----------------------------------------
Total Dipole Moment    :      0.43815       0.27724       0.11289
                        -----------------------------------------
Magnitude (a.u.)       :      0.53064
Magnitude (Debye)      :      1.34878

                             ****ORCA TERMINATED NORMALLY****
TOTAL RUN TIME: 0 days 0 hours 9 minutes 9 seconds 658 msec
