                         Program Version 3.0.3 - RELEASE   -
|  1> ! RI-MP2 RIJK def2-TZVP def2-TZVP/C def2-TZVP/JK TIGHTSCF
|  2> % maxcore 2000
|  3> % mp2 density relaxed end
|  4> *xyz 0 1
|  5>  O       -0.0828117064     0.0247014299    -0.1603814039
|  6>  C       -0.0807305452     1.2069671616     0.0011787071
|  7>  C       -1.1344736311     2.2836834765     0.3101482412
|  8>  N       -0.0096644787     3.2444699213     0.4793382163
|  9>  C        1.0009500498     2.2954148082    -0.0188280881
| 10>  C        2.3784088594     2.1265750833     0.6515315385
| 11>  O        3.0629654327     2.2489047210    -0.6126601111
| 12>  C        1.8370919455     2.5202540787    -1.3070049730
| 13>  H       -1.8050419927     2.4691310312    -0.5398466563
| 14>  H       -1.7394977625     2.1288973601     1.2095823461
| 15>  H       -0.0918823386     4.0983511148    -0.0604855803
| 16>  H        2.6234172453     2.9390660031     1.3465540506
| 17>  H        2.5612171548     1.1563099225     1.1272944966
| 18>  H        1.6584235998     1.8190008377    -2.1309191583
| 19>  H        1.7868658780     3.5516309900    -1.6863444152
| 20> *
| 21>
| 22>                          ****END OF INPUT****

CARTESIAN COORDINATES (ANGSTROEM)
---------------------------------
  O     -0.082812    0.024701   -0.160381
  C     -0.080731    1.206967    0.001179
  C     -1.134474    2.283683    0.310148
  N     -0.009664    3.244470    0.479338
  C      1.000950    2.295415   -0.018828
  C      2.378409    2.126575    0.651532
  O      3.062965    2.248905   -0.612660
  C      1.837092    2.520254   -1.307005
  H     -1.805042    2.469131   -0.539847
  H     -1.739498    2.128897    1.209582
  H     -0.091882    4.098351   -0.060486
  H      2.623417    2.939066    1.346554
  H      2.561217    1.156310    1.127294
  H      1.658424    1.819001   -2.130919
  H      1.786866    3.551631   -1.686344

 Total Charge           Charge          ....    0
 Multiplicity           Mult            ....    1
 Number of Electrons    NEL             ....   60
 Basis Dimension        Dim             ....  290

ORBITAL ENERGIES
----------------

  NO   OCC          E(Eh)            E(eV)
   0   2.0000     -20.571823      -559.7878
   1   2.0000     -20.561750      -559.5137
   2   2.0000     -15.574020      -423.7906
   3   2.0000     -11.346943      -308.7660
   4   2.0000     -11.299126      -307.4649
   5   2.0000     -11.290483      -307.2297
   6   2.0000     -11.288133      -307.1657
   7   2.0000     -11.282289      -307.0067
   8   2.0000      -1.416176       -38.5361
   9   2.0000      -1.393826       -37.9279
  10   2.0000      -1.260212       -34.2921
  11   2.0000      -1.005976       -27.3740
  12   2.0000      -0.959553       -26.1108
  13   2.0000      -0.951597       -25.8943
  14   2.0000      -0.843523       -22.9534
  15   2.0000      -0.726173       -19.7602
  16   2.0000      -0.708795       -19.2873
  17   2.0000      -0.697382       -18.9767
  18   2.0000      -0.669134       -18.2081
  19   2.0000      -0.633236       -17.2312
  20   2.0000      -0.610898       -16.6234
  21   2.0000      -0.601147       -16.3580
  22   2.0000      -0.583840       -15.8871
  23   2.0000      -0.564660       -15.3652
  24   2.0000      -0.533223       -14.5097
  25   2.0000      -0.502656       -13.6780
  26   2.0000      -0.496240       -13.5034
  27   2.0000      -0.440675       -11.9914
  28   2.0000      -0.403834       -10.9889
  29   2.0000      -0.399781       -10.8786
  30   0.0000       0.112314         3.0562
  31   0.0000       0.126427         3.4402
  32   0.0000       0.152854         4.1594
  33   0.0000       0.166937         4.5426
  34   0.0000       0.181411         4.9365

MULLIKEN ATOMIC CHARGES
-----------------------
   0 O :   -0.237924
   1 C :    0.114977
   2 C :   -0.138330
   3 N :   -0.322131
   4 C :    0.035221
   5 C :   -0.006902
   6 O :   -0.323551
   7 C :   -0.031754
   8 H :    0.133581
   9 H :    0.134474
  10 H :    0.214964
  11 H :    0.103723
  12 H :    0.114490
  13 H :    0.116765
  14 H :    0.092398
Sum of atomic charges:    0.0000000

LOEWDIN ATOMIC CHARGES
----------------------
   0 O :    0.181446
   1 C :   -0.284850
   2 C :   -0.235848
   3 N :    0.022489
   4 C :   -0.267205
   5 C :   -0.223020
   6 O :    0.119058
   7 C :   -0.234910
   8 H :    0.132953
   9 H :    0.133293
  10 H :    0.161309
  11 H :    0.124790
  12 H :    0.125644
  13 H :    0.125062
  14 H :    0.119789

  Mayer bond orders larger than 0.1
B(  0-O ,  1-C ) :   2.0579 B(  1-C ,  2-C ) :   0.9140 B(  1-C ,  4-C ) :   0.8278
B(  2-C ,  3-N ) :   0.9605 B(  2-C ,  8-H ) :   0.9056 B(  2-C ,  9-H ) :   0.9012
B(  3-N ,  4-C ) :   1.0250 B(  3-N , 10-H ) :   0.8722 B(  4-C ,  5-C ) :   0.9320
B(  4-C ,  7-C ) :   0.9471 B(  5-C ,  6-O ) :   0.9561 B(  5-C , 11-H ) :   0.8988
B(  5-C , 12-H ) :   0.9114 B(  6-O ,  7-C ) :   0.9750 B(  7-C , 13-H ) :   0.9076
B(  7-C , 14-H ) :   0.8956

MP2 TOTAL ENERGY:     -399.103622445 Eh
FINAL SINGLE POINT ENERGY      -399.103622445070

DIPOLE MOMENT
-------------
                                X             Y             Z
Electronic contribution:      0.40205      -2.98761      -0.09487
Nuclear contribution   :     -1.14512       3.93272      -0.06991
                        -----------------------------------------
Total Dipole Moment    :     -0.74307       0.94512      -0.16478
                        -----------------------------------------
Magnitude (a.u.)       :      1.21348
Magnitude (Debye)      :      3.08443

                             ****ORCA TERMINATED NORMALLY****
TOTAL RUN TIME: 0 days 0 hours 10 minutes 46 seconds 171 msec
