                         Program Version 3.0.3 - RELEASE   -
|  1> ! RI-MP2 RIJK def2-TZVP def2-TZVP/C def2-TZVP/JK TIGHTSCF
|  2> % maxcore 2000
|  3> % mp2 density relaxed end
|  4> *xyz 0 1
|  5>  O        0.2873647761     1.3397923302     0.2816107672
|  6>  C        0.1497143982    -0.0003394705     0.1097194574
|  7>  C        0.9417346694    -1.0173448681    -0.7044247813
|  8>  C        0.8947338707    -1.0950609691     0.8311348974
|  9>  C       -0.3417225205    -2.0329688456     0.7350879990
| 10>  C       -0.3002142662    -1.9494102258    -0.7716631599
| 11>  C       -1.1309019353    -0.9238710934     0.0195816103
| 12>  C       -2.5192390165    -0.6660438041    -0.0128799437
| 13>  N       -3.6526216446    -0.4252494539    -0.0462779895
| 14>  H        0.0776343390     1.7886009970    -0.5468372183
| 15>  H        1.7933405819    -0.8852238996    -1.3564853223
| 16>  H        1.6993569383    -1.0187696869     1.5478409339
| 17>  H       -0.7395531528    -2.7971681537     1.3889577329
| 18>  H       -0.6667066976    -2.6337168365    -1.5247925131
| 19> *
| 20>
| 21>                          ****END OF INPUT****

CARTESIAN COORDINATES (ANGSTROEM)
---------------------------------
  O      0.287365    1.339792    0.281611
  C      0.149714   -0.000339    0.109719
  C      0.941735   -1.017345   -0.704425
  C      0.894734   -1.095061    0.831135
  C     -0.341723   -2.032969    0.735088
  C     -0.300214   -1.949410   -0.771663
  C     -1.130902   -0.923871    0.019582
  C     -2.519239   -0.666044   -0.012880
  N     -3.652622   -0.425249   -0.046278
  H      0.077634    1.788601   -0.546837
  H      1.793341   -0.885224   -1.356485
  H      1.699357   -1.018770    1.547841
  H     -0.739553   -2.797168    1.388958
  H     -0.666707   -2.633717   -1.524793

 Total Charge           Charge          ....    0
 Multiplicity           Mult            ....    1
 Number of Electrons    NEL             ....   62
 Basis Dimension        Dim             ....  309

ORBITAL ENERGIES
----------------

  NO   OCC          E(Eh)            E(eV)
   0   2.0000     -20.599458      -560.5398
   1   2.0000     -15.569346      -423.6634
   2   2.0000     -11.328063      -308.2523
   3   2.0000     -11.288109      -307.1651
   4   2.0000     -11.278091      -306.8925
   5   2.0000     -11.277422      -306.8743
   6   2.0000     -11.276280      -306.8432
   7   2.0000     -11.263282      -306.4895
   8   2.0000     -11.261576      -306.4431
   9   2.0000      -1.415250       -38.5109
  10   2.0000      -1.297557       -35.3083
  11   2.0000      -1.213535       -33.0220
  12   2.0000      -1.046839       -28.4859
  13   2.0000      -0.937355       -25.5067
  14   2.0000      -0.913473       -24.8569
  15   2.0000      -0.818139       -22.2627
  16   2.0000      -0.779057       -21.1992
  17   2.0000      -0.749198       -20.3867
  18   2.0000      -0.670702       -18.2507
  19   2.0000      -0.656539       -17.8653
  20   2.0000      -0.638766       -17.3817
  21   2.0000      -0.619773       -16.8649
  22   2.0000      -0.578502       -15.7418
  23   2.0000      -0.557253       -15.1636
  24   2.0000      -0.544892       -14.8273
  25   2.0000      -0.507058       -13.7978
  26   2.0000      -0.493872       -13.4389
  27   2.0000      -0.431249       -11.7349
  28   2.0000      -0.417955       -11.3731
  29   2.0000      -0.389493       -10.5986
  30   2.0000      -0.363523        -9.8920
  31   0.0000       0.124352         3.3838
  32   0.0000       0.139650         3.8001
  33   0.0000       0.151427         4.1205
  34   0.0000       0.159951         4.3525
  35   0.0000       0.162302         4.4165

MULLIKEN ATOMIC CHARGES
-----------------------
   0 O :   -0.422637
   1 C :    0.219462
   2 C :   -0.192131
   3 C :   -0.171578
   4 C :   -0.093282
   5 C :   -0.101877
   6 C :    0.060935
   7 C :   -0.255148
   8 N :   -0.040357
   9 H :    0.341532
  10 H :    0.163881
  11 H :    0.164874
  12 H :    0.162595
  13 H :    0.163732
Sum of atomic charges:   -0.0000000

LOEWDIN ATOMIC CHARGES
----------------------
   0 O :    0.069055
   1 C :   -0.262387
   2 C :   -0.108141
   3 C :   -0.094887
   4 C :   -0.072971
   5 C :   -0.077224
   6 C :   -0.119259
   7 C :   -0.168737
   8 N :    0.069080
   9 H :    0.196974
  10 H :    0.139492
  11 H :    0.142908
  12 H :    0.143281
  13 H :    0.142818

  Mayer bond orders larger than 0.1
B(  0-O ,  1-C ) :   1.1144 B(  0-O ,  9-H ) :   0.8228 B(  1-C ,  2-C ) :   0.8589
B(  1-C ,  3-C ) :   0.9446 B(  1-C ,  6-C ) :   0.8342 B(  2-C ,  3-C ) :   0.8413
B(  2-C ,  5-C ) :   0.8595 B(  2-C , 10-H ) :   0.9104 B(  3-C ,  4-C ) :   0.9011
B(  3-C , 11-H ) :   0.9127 B(  4-C ,  5-C ) :   0.8739 B(  4-C ,  6-C ) :   0.8519
B(  4-C , 12-H ) :   0.9123 B(  5-C ,  6-C ) :   0.8265 B(  5-C , 13-H ) :   0.8996
B(  6-C ,  7-C ) :   0.9057 B(  7-C ,  8-N ) :   2.8768

MP2 TOTAL ENERGY:     -398.746110153 Eh
FINAL SINGLE POINT ENERGY      -398.746110152600

DIPOLE MOMENT
-------------
                                X             Y             Z
Electronic contribution:     -3.28617       1.46892       0.20280
Nuclear contribution   :      4.86508      -1.92642      -0.68811
                        -----------------------------------------
Total Dipole Moment    :      1.57891      -0.45751      -0.48531
                        -----------------------------------------
Magnitude (a.u.)       :      1.71400
Magnitude (Debye)      :      4.35664

                             ****ORCA TERMINATED NORMALLY****
TOTAL RUN TIME: 0 days 0 hours 16 minutes 39 seconds 607 msec
