                         Program Version 3.0.3 - RELEASE   -
|  1> ! RI-MP2 RIJK def2-TZVP def2-TZVP/C def2-TZVP/JK TIGHTSCF
|  2> % maxcore 2000
|  3> % mp2 density relaxed end
|  4> *xyz 0 1
|  5>  O       -0.4154571529     1.4101120205    -0.1078171002
|  6>  N       -0.0875556455     0.0447539069    -0.0926180666
|  7>  C       -1.1262633978    -0.6571633199     0.0758615827
|  8>  C       -1.3377168141    -2.1213765293     0.0564501877
|  9>  C       -2.2596810513    -2.5151486125     1.1512925729
| 10>  N       -2.8614141064    -1.9165986622    -0.0519123064
| 11>  C       -2.6228397514    -0.4030841958     0.0521837325
| 12>  C       -3.3224087433     0.2776689389     1.2113755152
| 13>  O       -2.9224757958     0.2511383001     2.3482593098
| 14>  H        0.4429850642     1.8280752971    -0.2362301677
| 15>  H       -0.8037301782    -2.8375599499    -0.5564625311
| 16>  H       -2.4828813872    -3.5747225530     1.2309947979
| 17>  H       -2.2611723714    -1.9645620414     2.0861328770
| 18>  H       -2.9316932722     0.0561986471    -0.8917307641
| 19>  H       -4.2726482266     0.7907465133     0.9501771304
| 20> *
| 21>
| 22>                          ****END OF INPUT****

CARTESIAN COORDINATES (ANGSTROEM)
---------------------------------
  O     -0.415457    1.410112   -0.107817
  N     -0.087556    0.044754   -0.092618
  C     -1.126263   -0.657163    0.075862
  C     -1.337717   -2.121377    0.056450
  C     -2.259681   -2.515149    1.151293
  N     -2.861414   -1.916599   -0.051912
  C     -2.622840   -0.403084    0.052184
  C     -3.322409    0.277669    1.211376
  O     -2.922476    0.251138    2.348259
  H      0.442985    1.828075   -0.236230
  H     -0.803730   -2.837560   -0.556463
  H     -2.482881   -3.574723    1.230995
  H     -2.261172   -1.964562    2.086133
  H     -2.931693    0.056199   -0.891731
  H     -4.272648    0.790747    0.950177

 Total Charge           Charge          ....    0
 Multiplicity           Mult            ....    1
 Number of Electrons    NEL             ....   66
 Basis Dimension        Dim             ....  315

ORBITAL ENERGIES
----------------

  NO   OCC          E(Eh)            E(eV)
   0   2.0000     -20.605096      -560.6932
   1   2.0000     -20.576077      -559.9035
   2   2.0000     -15.630285      -425.3217
   3   2.0000     -15.598919      -424.4682
   4   2.0000     -11.349830      -308.8446
   5   2.0000     -11.299877      -307.4853
   6   2.0000     -11.298700      -307.4533
   7   2.0000     -11.291715      -307.2632
   8   2.0000     -11.278915      -306.9149
   9   2.0000      -1.432731       -38.9866
  10   2.0000      -1.414456       -38.4893
  11   2.0000      -1.319819       -35.9141
  12   2.0000      -1.163318       -31.6555
  13   2.0000      -1.035005       -28.1639
  14   2.0000      -0.924821       -25.1656
  15   2.0000      -0.886543       -24.1241
  16   2.0000      -0.818828       -22.2814
  17   2.0000      -0.742679       -20.2093
  18   2.0000      -0.715962       -19.4823
  19   2.0000      -0.707972       -19.2649
  20   2.0000      -0.690533       -18.7903
  21   2.0000      -0.656887       -17.8748
  22   2.0000      -0.645571       -17.5669
  23   2.0000      -0.600447       -16.3390
  24   2.0000      -0.590554       -16.0698
  25   2.0000      -0.548945       -14.9376
  26   2.0000      -0.538747       -14.6600
  27   2.0000      -0.507780       -13.8174
  28   2.0000      -0.495481       -13.4827
  29   2.0000      -0.466476       -12.6935
  30   2.0000      -0.433056       -11.7841
  31   2.0000      -0.420868       -11.4524
  32   2.0000      -0.375690       -10.2230
  33   0.0000       0.100563         2.7365
  34   0.0000       0.127237         3.4623
  35   0.0000       0.144509         3.9323
  36   0.0000       0.162804         4.4301
  37   0.0000       0.172173         4.6851

MULLIKEN ATOMIC CHARGES
-----------------------
   0 O :   -0.361150
   1 N :   -0.071084
   2 C :    0.008643
   3 C :   -0.098397
   4 C :   -0.168571
   5 N :   -0.229105
   6 C :    0.046993
   7 C :    0.089077
   8 O :   -0.265326
   9 H :    0.342500
  10 H :    0.151589
  11 H :    0.141716
  12 H :    0.172106
  13 H :    0.135249
  14 H :    0.105760
Sum of atomic charges:    0.0000000

LOEWDIN ATOMIC CHARGES
----------------------
   0 O :   -0.066657
   1 N :    0.035483
   2 C :   -0.263296
   3 C :   -0.159002
   4 C :   -0.231958
   5 N :    0.134772
   6 C :   -0.208963
   7 C :   -0.265061
   8 O :    0.151253
   9 H :    0.173535
  10 H :    0.143188
  11 H :    0.138945
  12 H :    0.136877
  13 H :    0.164133
  14 H :    0.116752

  Mayer bond orders larger than 0.1
B(  0-O ,  1-N ) :   0.8090 B(  0-O ,  9-H ) :   0.8409 B(  1-N ,  2-C ) :   1.8577
B(  2-C ,  3-C ) :   1.0181 B(  2-C ,  6-C ) :   0.9627 B(  3-C ,  4-C ) :   0.9168
B(  3-C ,  5-N ) :   0.9079 B(  3-C , 10-H ) :   0.8955 B(  4-C ,  5-N ) :   0.8768
B(  4-C , 11-H ) :   0.9268 B(  4-C , 12-H ) :   0.8941 B(  5-N ,  6-C ) :   0.9161
B(  6-C ,  7-C ) :   0.8587 B(  6-C , 13-H ) :   0.8854 B(  7-C ,  8-O ) :   1.9494
B(  7-C , 14-H ) :   0.9428

MP2 TOTAL ENERGY:     -453.102730941 Eh
FINAL SINGLE POINT ENERGY      -453.102730940965

DIPOLE MOMENT
-------------
                                X             Y             Z
Electronic contribution:      1.12110       2.14072       0.08924
Nuclear contribution   :     -1.03728      -2.16668      -0.55733
                        -----------------------------------------
Total Dipole Moment    :      0.08382      -0.02596      -0.46809
                        -----------------------------------------
Magnitude (a.u.)       :      0.47624
Magnitude (Debye)      :      1.21051

                             ****ORCA TERMINATED NORMALLY****
TOTAL RUN TIME: 0 days 0 hours 14 minutes 36 seconds 973 msec
