                         Program Version 3.0.3 - RELEASE   -
|  1> ! RI-MP2 RIJK def2-TZVP def2-TZVP/C def2-TZVP/JK TIGHTSCF
|  2> % maxcore 2000
|  3> % mp2 density relaxed end
|  4> *xyz 0 1
|  5>  C        0.0531248774     1.5450978973     0.0546628399
|  6>  C       -0.0762053371     0.0224977312    -0.0694522575
|  7>  C        0.7280993906    -0.5522511681    -1.2064807767
|  8>  C        2.2763893529    -0.4679098178    -1.3492606699
|  9>  C        1.9890915197    -1.5267594082    -2.4576684113
| 10>  C        0.8724330879    -2.0687112309    -1.5130707262
| 11>  C        1.1400530666    -0.6836555802    -3.4158597531
| 12>  O        0.2695322049    -0.0224957373    -2.4736656594
| 13>  H        1.0880789168     1.8393296377     0.2590780603
| 14>  H       -0.2572188243     2.0328747555    -0.8725762908
| 15>  H       -0.5687126909     1.9250600993     0.8705951190
| 16>  H        0.2441828896    -0.4632069999     0.8598830157
| 17>  H       -1.1275450706    -0.2510857465    -0.2224805110
| 18>  H        2.7025290038     0.4932761513    -1.6477538348
| 19>  H        2.8112429531    -0.8845407721    -0.4936942771
| 20>  H        2.7633162310    -2.1613331413    -2.8870091038
| 21>  H        1.2685489509    -2.6430890648    -0.6735381807
| 22>  H        0.0099104806    -2.5703672253    -1.9599615691
| 23>  H        1.7212104577     0.0565802559    -3.9793930370
| 24>  H        0.5494616293    -1.2827381059    -4.1196804065
| 25> *
| 26>
| 27>                          ****END OF INPUT****

CARTESIAN COORDINATES (ANGSTROEM)
---------------------------------
  C      0.053125    1.545098    0.054663
  C     -0.076205    0.022498   -0.069452
  C      0.728099   -0.552251   -1.206481
  C      2.276389   -0.467910   -1.349261
  C      1.989092   -1.526759   -2.457668
  C      0.872433   -2.068711   -1.513071
  C      1.140053   -0.683656   -3.415860
  O      0.269532   -0.022496   -2.473666
  H      1.088079    1.839330    0.259078
  H     -0.257219    2.032875   -0.872576
  H     -0.568713    1.925060    0.870595
  H      0.244183   -0.463207    0.859883
  H     -1.127545   -0.251086   -0.222481
  H      2.702529    0.493276   -1.647754
  H      2.811243   -0.884541   -0.493694
  H      2.763316   -2.161333   -2.887009
  H      1.268549   -2.643089   -0.673538
  H      0.009910   -2.570367   -1.959962
  H      1.721210    0.056580   -3.979393
  H      0.549462   -1.282738   -4.119680

 Total Charge           Charge          ....    0
 Multiplicity           Mult            ....    1
 Number of Electrons    NEL             ....   62
 Basis Dimension        Dim             ....  320

ORBITAL ENERGIES
----------------

  NO   OCC          E(Eh)            E(eV)
   0   2.0000     -20.542014      -558.9766
   1   2.0000     -11.283189      -307.0312
   2   2.0000     -11.268497      -306.6314
   3   2.0000     -11.237546      -305.7892
   4   2.0000     -11.222873      -305.3899
   5   2.0000     -11.222597      -305.3824
   6   2.0000     -11.218398      -305.2681
   7   2.0000     -11.207012      -304.9583
   8   2.0000      -1.374618       -37.4053
   9   2.0000      -1.119299       -30.4577
  10   2.0000      -1.045785       -28.4573
  11   2.0000      -0.953756       -25.9530
  12   2.0000      -0.906267       -24.6608
  13   2.0000      -0.854139       -23.2423
  14   2.0000      -0.773886       -21.0585
  15   2.0000      -0.747383       -20.3373
  16   2.0000      -0.676822       -18.4173
  17   2.0000      -0.644208       -17.5298
  18   2.0000      -0.639813       -17.4102
  19   2.0000      -0.604698       -16.4547
  20   2.0000      -0.565193       -15.3797
  21   2.0000      -0.546236       -14.8638
  22   2.0000      -0.523142       -14.2354
  23   2.0000      -0.518372       -14.1056
  24   2.0000      -0.511989       -13.9319
  25   2.0000      -0.490688       -13.3523
  26   2.0000      -0.480127       -13.0649
  27   2.0000      -0.471030       -12.8174
  28   2.0000      -0.447537       -12.1781
  29   2.0000      -0.427076       -11.6213
  30   2.0000      -0.389191       -10.5904
  31   0.0000       0.138088         3.7576
  32   0.0000       0.155350         4.2273
  33   0.0000       0.165010         4.4902
  34   0.0000       0.177694         4.8353
  35   0.0000       0.193334         5.2609

MULLIKEN ATOMIC CHARGES
-----------------------
   0 C :   -0.408707
   1 C :   -0.212656
   2 C :    0.172264
   3 C :   -0.271582
   4 C :   -0.098653
   5 C :   -0.226586
   6 C :   -0.066266
   7 O :   -0.333123
   8 H :    0.120856
   9 H :    0.147732
  10 H :    0.131826
  11 H :    0.106998
  12 H :    0.114991
  13 H :    0.121016
  14 H :    0.123009
  15 H :    0.132144
  16 H :    0.121486
  17 H :    0.116336
  18 H :    0.103575
  19 H :    0.105340
Sum of atomic charges:    0.0000000

LOEWDIN ATOMIC CHARGES
----------------------
   0 C :   -0.311170
   1 C :   -0.255512
   2 C :   -0.317596
   3 C :   -0.183439
   4 C :   -0.221393
   5 C :   -0.181827
   6 C :   -0.267434
   7 O :    0.167519
   8 H :    0.120422
   9 H :    0.127331
  10 H :    0.119929
  11 H :    0.142696
  12 H :    0.146115
  13 H :    0.130319
  14 H :    0.138807
  15 H :    0.133455
  16 H :    0.138482
  17 H :    0.130185
  18 H :    0.121385
  19 H :    0.121727

  Mayer bond orders larger than 0.1
B(  0-C ,  1-C ) :   0.9313 B(  0-C ,  8-H ) :   0.9365 B(  0-C ,  9-H ) :   0.9372
B(  0-C , 10-H ) :   0.9402 B(  1-C ,  2-C ) :   0.8952 B(  1-C , 11-H ) :   0.9351
B(  1-C , 12-H ) :   0.9326 B(  2-C ,  3-C ) :   0.9051 B(  2-C ,  5-C ) :   0.8927
B(  2-C ,  7-O ) :   0.9283 B(  3-C ,  4-C ) :   0.9139 B(  3-C , 13-H ) :   0.9228
B(  3-C , 14-H ) :   0.9246 B(  4-C ,  5-C ) :   0.9203 B(  4-C ,  6-C ) :   0.9371
B(  4-C , 15-H ) :   0.9112 B(  5-C , 16-H ) :   0.9249 B(  5-C , 17-H ) :   0.9221
B(  6-C ,  7-O ) :   0.9379 B(  6-C , 18-H ) :   0.9254 B(  6-C , 19-H ) :   0.9264

MP2 TOTAL ENERGY:     -348.391152771 Eh
FINAL SINGLE POINT ENERGY      -348.391152770796

DIPOLE MOMENT
-------------
                                X             Y             Z
Electronic contribution:     -0.08261      -1.67318      -3.34907
Nuclear contribution   :      0.51890       1.26868       3.51815
                        -----------------------------------------
Total Dipole Moment    :      0.43629      -0.40450       0.16908
                        -----------------------------------------
Magnitude (a.u.)       :      0.61851
Magnitude (Debye)      :      1.57214

                             ****ORCA TERMINATED NORMALLY****
TOTAL RUN TIME: 0 days 0 hours 14 minutes 38 seconds 412 msec
