                         Program Version 3.0.3 - RELEASE   -
|  1> ! RI-MP2 RIJK def2-TZVP def2-TZVP/C def2-TZVP/JK TIGHTSCF
|  2> % maxcore 2000
|  3> % mp2 density relaxed end
|  4> *xyz 0 1
|  5>  N        0.1106968116     1.3990264754     0.1012593895
|  6>  C        0.0224210670     0.0027352920     0.0167163886
|  7>  C       -1.0676934726    -0.8170008860     0.0297784070
|  8>  N       -0.6104000911    -2.1377318281    -0.0101871381
|  9>  C       -1.4106411192    -3.2593518176    -0.0093374229
| 10>  O       -1.0010074927    -4.3945336573    -0.0576337270
| 11>  C        0.7833016328    -2.1385352104    -0.0457953569
| 12>  C        1.1995536334    -0.8385774991    -0.0247270361
| 13>  N        2.4905445376    -0.3014086486    -0.1032457083
| 14>  H        0.7743098447     1.7730995369    -0.5687095267
| 15>  H       -0.7809449229     1.8621484291    -0.0178559407
| 16>  H       -2.1230182078    -0.6009033507     0.0602094919
| 17>  H       -2.4824435312    -2.9922023548     0.0420473581
| 18>  H        1.3167382768    -3.0723903023    -0.0789032492
| 19>  H        3.2173384751    -0.9960753834     0.0103094593
| 20>  H        2.6298236086     0.4450659650     0.5692397314
| 21> *
| 22>
| 23>                          ****END OF INPUT****

CARTESIAN COORDINATES (ANGSTROEM)
---------------------------------
  N      0.110697    1.399026    0.101259
  C      0.022421    0.002735    0.016716
  C     -1.067693   -0.817001    0.029778
  N     -0.610400   -2.137732   -0.010187
  C     -1.410641   -3.259352   -0.009337
  O     -1.001007   -4.394534   -0.057634
  C      0.783302   -2.138535   -0.045795
  C      1.199554   -0.838577   -0.024727
  N      2.490545   -0.301409   -0.103246
  H      0.774310    1.773100   -0.568710
  H     -0.780945    1.862148   -0.017856
  H     -2.123018   -0.600903    0.060209
  H     -2.482444   -2.992202    0.042047
  H      1.316738   -3.072390   -0.078903
  H      3.217338   -0.996075    0.010309
  H      2.629824    0.445066    0.569240

 Total Charge           Charge          ....    0
 Multiplicity           Mult            ....    1
 Number of Electrons    NEL             ....   66
 Basis Dimension        Dim             ....  321

ORBITAL ENERGIES
----------------

  NO   OCC          E(Eh)            E(eV)
   0   2.0000     -20.540514      -558.9358
   1   2.0000     -15.618642      -425.0049
   2   2.0000     -15.571963      -423.7347
   3   2.0000     -15.569367      -423.6640
   4   2.0000     -11.362879      -309.1997
   5   2.0000     -11.271877      -306.7234
   6   2.0000     -11.269478      -306.6581
   7   2.0000     -11.261101      -306.4301
   8   2.0000     -11.253953      -306.2356
   9   2.0000      -1.401347       -38.1326
  10   2.0000      -1.306547       -35.5530
  11   2.0000      -1.228027       -33.4163
  12   2.0000      -1.196944       -32.5705
  13   2.0000      -1.051132       -28.6027
  14   2.0000      -0.984453       -26.7883
  15   2.0000      -0.869891       -23.6709
  16   2.0000      -0.794220       -21.6118
  17   2.0000      -0.771903       -21.0045
  18   2.0000      -0.725012       -19.7286
  19   2.0000      -0.690006       -18.7760
  20   2.0000      -0.667716       -18.1695
  21   2.0000      -0.657739       -17.8980
  22   2.0000      -0.636886       -17.3305
  23   2.0000      -0.625710       -17.0264
  24   2.0000      -0.604991       -16.4626
  25   2.0000      -0.583017       -15.8647
  26   2.0000      -0.537329       -14.6215
  27   2.0000      -0.534227       -14.5371
  28   2.0000      -0.478747       -13.0274
  29   2.0000      -0.472599       -12.8601
  30   2.0000      -0.446582       -12.1521
  31   2.0000      -0.313178        -8.5220
  32   2.0000      -0.302966        -8.2441
  33   0.0000       0.117152         3.1879
  34   0.0000       0.124020         3.3748
  35   0.0000       0.143963         3.9174
  36   0.0000       0.156435         4.2568
  37   0.0000       0.179350         4.8804

MULLIKEN ATOMIC CHARGES
-----------------------
   0 N :   -0.557281
   1 C :    0.108873
   2 C :   -0.201108
   3 N :    0.020075
   4 C :    0.157251
   5 O :   -0.316010
   6 C :   -0.252759
   7 C :    0.183384
   8 N :   -0.558379
   9 H :    0.262899
  10 H :    0.243157
  11 H :    0.150799
  12 H :    0.092876
  13 H :    0.157069
  14 H :    0.246748
  15 H :    0.262405
Sum of atomic charges:    0.0000000

LOEWDIN ATOMIC CHARGES
----------------------
   0 N :   -0.091791
   1 C :   -0.254094
   2 C :   -0.197782
   3 N :    0.246039
   4 C :   -0.361830
   5 O :    0.097282
   6 C :   -0.180965
   7 C :   -0.248384
   8 N :   -0.088974
   9 H :    0.172225
  10 H :    0.168058
  11 H :    0.136651
  12 H :    0.118303
  13 H :    0.143458
  14 H :    0.169614
  15 H :    0.172191

  Mayer bond orders larger than 0.1
B(  0-N ,  1-C ) :   0.9788 B(  0-N ,  9-H ) :   0.8664 B(  0-N , 10-H ) :   0.8837
B(  1-C ,  2-C ) :   1.5608 B(  1-C ,  7-C ) :   1.1783 B(  2-C ,  3-N ) :   1.0562
B(  2-C , 11-H ) :   0.8969 B(  3-N ,  4-C ) :   1.0114 B(  3-N ,  6-C ) :   1.0437
B(  4-C ,  5-O ) :   1.9317 B(  4-C , 12-H ) :   0.9284 B(  6-C ,  7-C ) :   1.4827
B(  6-C , 13-H ) :   0.9458 B(  7-C ,  8-N ) :   0.9858 B(  8-N , 14-H ) :   0.8832
B(  8-N , 15-H ) :   0.8663

MP2 TOTAL ENERGY:     -433.388662560 Eh
FINAL SINGLE POINT ENERGY      -433.388662560444

DIPOLE MOMENT
-------------
                                X             Y             Z
Electronic contribution:     -1.85447      -4.30453      -0.05596
Nuclear contribution   :      1.92821       5.70139       0.09229
                        -----------------------------------------
Total Dipole Moment    :      0.07374       1.39686       0.03633
                        -----------------------------------------
Magnitude (a.u.)       :      1.39928
Magnitude (Debye)      :      3.55669

                             ****ORCA TERMINATED NORMALLY****
TOTAL RUN TIME: 0 days 0 hours 15 minutes 5 seconds 252 msec
