                         Program Version 3.0.3 - RELEASE   -
|  1> ! RI-MP2 RIJK def2-TZVP def2-TZVP/C def2-TZVP/JK TIGHTSCF
|  2> % maxcore 2000
|  3> % mp2 density relaxed end
|  4> *xyz 0 1
|  5>  O       -0.0456600376    -0.0054760446    -0.3571410798
|  6>  C        0.0306785847     1.1339973203     0.0224238758
|  7>  C        1.2786642042     1.9380196774     0.0330146867
|  8>  C        1.1533809719     3.4390592562    -0.1540231464
|  9>  C        1.4956915328     2.9013116785     1.1890412667
| 10>  C        0.8261612441     3.0208996470     2.5538684725
| 11>  O        2.1514006867     3.1903757082     3.1583270552
| 12>  C        2.7872102189     3.0781869049     1.9415700294
| 13>  O        3.9499184866     3.1253016365     1.7059457316
| 14>  H       -0.8668235665     1.6824695380     0.3971989533
| 15>  H        2.1605639803     1.4398266048    -0.3543637040
| 16>  H        1.9366864735     3.9377513025    -0.7131055328
| 17>  H        0.1543304760     3.8413367448    -0.2929550932
| 18>  H        0.2100339230     3.9076862603     2.7166506203
| 19>  H        0.3368897513     2.1273217953     2.9464803547
| 20> *
| 21>
| 22>                          ****END OF INPUT****

CARTESIAN COORDINATES (ANGSTROEM)
---------------------------------
  O     -0.045660   -0.005476   -0.357141
  C      0.030679    1.133997    0.022424
  C      1.278664    1.938020    0.033015
  C      1.153381    3.439059   -0.154023
  C      1.495692    2.901312    1.189041
  C      0.826161    3.020900    2.553868
  O      2.151401    3.190376    3.158327
  C      2.787210    3.078187    1.941570
  O      3.949918    3.125302    1.705946
  H     -0.866824    1.682470    0.397199
  H      2.160564    1.439827   -0.354364
  H      1.936686    3.937751   -0.713106
  H      0.154330    3.841337   -0.292955
  H      0.210034    3.907686    2.716651
  H      0.336890    2.127322    2.946480

 Total Charge           Charge          ....    0
 Multiplicity           Mult            ....    1
 Number of Electrons    NEL             ....   66
 Basis Dimension        Dim             ....  315

ORBITAL ENERGIES
----------------

  NO   OCC          E(Eh)            E(eV)
   0   2.0000     -20.617696      -561.0360
   1   2.0000     -20.576120      -559.9047
   2   2.0000     -20.567399      -559.6674
   3   2.0000     -11.400077      -310.2119
   4   2.0000     -11.357363      -309.0496
   5   2.0000     -11.330298      -308.3131
   6   2.0000     -11.299892      -307.4857
   7   2.0000     -11.287320      -307.1436
   8   2.0000     -11.286127      -307.1111
   9   2.0000      -1.478817       -40.2407
  10   2.0000      -1.415966       -38.5304
  11   2.0000      -1.395647       -37.9775
  12   2.0000      -1.208062       -32.8730
  13   2.0000      -1.005755       -27.3680
  14   2.0000      -0.945853       -25.7380
  15   2.0000      -0.914686       -24.8899
  16   2.0000      -0.822520       -22.3819
  17   2.0000      -0.754702       -20.5365
  18   2.0000      -0.726381       -19.7658
  19   2.0000      -0.710562       -19.3354
  20   2.0000      -0.705358       -19.1938
  21   2.0000      -0.668885       -18.2013
  22   2.0000      -0.662801       -18.0357
  23   2.0000      -0.607193       -16.5226
  24   2.0000      -0.594154       -16.1677
  25   2.0000      -0.580487       -15.7959
  26   2.0000      -0.573372       -15.6023
  27   2.0000      -0.555091       -15.1048
  28   2.0000      -0.502969       -13.6865
  29   2.0000      -0.485414       -13.2088
  30   2.0000      -0.464518       -12.6402
  31   2.0000      -0.445045       -12.1103
  32   2.0000      -0.440235       -11.9794
  33   0.0000       0.100240         2.7277
  34   0.0000       0.121615         3.3093
  35   0.0000       0.140181         3.8145
  36   0.0000       0.148332         4.0363
  37   0.0000       0.159407         4.3377

MULLIKEN ATOMIC CHARGES
-----------------------
   0 O :   -0.249522
   1 C :    0.032245
   2 C :   -0.013957
   3 C :   -0.290956
   4 C :   -0.098947
   5 C :   -0.001751
   6 O :   -0.232873
   7 C :    0.276167
   8 O :   -0.258981
   9 H :    0.082334
  10 H :    0.165789
  11 H :    0.170177
  12 H :    0.157614
  13 H :    0.128485
  14 H :    0.134176
Sum of atomic charges:   -0.0000000

LOEWDIN ATOMIC CHARGES
----------------------
   0 O :    0.144709
   1 C :   -0.286694
   2 C :   -0.157788
   3 C :   -0.149360
   4 C :   -0.183985
   5 C :   -0.190195
   6 O :    0.238908
   7 C :   -0.425480
   8 O :    0.165943
   9 H :    0.116683
  10 H :    0.167510
  11 H :    0.152669
  12 H :    0.147108
  13 H :    0.129614
  14 H :    0.130358

  Mayer bond orders larger than 0.1
B(  0-O ,  1-C ) :   1.9976 B(  1-C ,  2-C ) :   0.8599 B(  1-C ,  9-H ) :   0.9507
B(  2-C ,  3-C ) :   0.8868 B(  2-C ,  4-C ) :   0.7434 B(  2-C , 10-H ) :   0.9037
B(  3-C ,  4-C ) :   0.8280 B(  3-C , 11-H ) :   0.9149 B(  3-C , 12-H ) :   0.9220
B(  4-C ,  5-C ) :   0.9325 B(  4-C ,  7-C ) :   0.9185 B(  5-C ,  6-O ) :   0.8970
B(  5-C , 13-H ) :   0.9173 B(  5-C , 14-H ) :   0.9147 B(  6-O ,  7-C ) :   1.0921
B(  7-C ,  8-O ) :   2.0498

MP2 TOTAL ENERGY:     -457.034534989 Eh
FINAL SINGLE POINT ENERGY      -457.034534988999

DIPOLE MOMENT
-------------
                                X             Y             Z
Electronic contribution:      3.60127      -1.39744       1.77054
Nuclear contribution   :     -4.85010       2.29126      -1.99948
                        -----------------------------------------
Total Dipole Moment    :     -1.24883       0.89382      -0.22894
                        -----------------------------------------
Magnitude (a.u.)       :      1.55271
Magnitude (Debye)      :      3.94668

                             ****ORCA TERMINATED NORMALLY****
TOTAL RUN TIME: 0 days 0 hours 13 minutes 48 seconds 854 msec
