                         Program Version 3.0.3 - RELEASE   -
|  1> ! RI-MP2 RIJK def2-TZVP def2-TZVP/C def2-TZVP/JK TIGHTSCF
|  2> % maxcore 2000
|  3> % mp2 density relaxed end
|  4> *xyz 0 1
|  5>  C        0.0579589842     1.5451878611     0.0194166977
|  6>  C       -0.0102489283     0.0521960224     0.0131936231
|  7>  C       -1.0798402947    -0.7787890814     0.0357920590
|  8>  N       -2.4137856942    -0.5739339325     0.0990410094
|  9>  C       -0.6065439663    -2.2145285540     0.0111859431
| 10>  O       -1.3162638617    -3.1944745959    -0.0064376269
| 11>  N        0.7641680347    -2.1425824099    -0.0001228868
| 12>  C        1.2010030203    -0.7921559114    -0.0137770967
| 13>  O        2.3617013386    -0.4588420104    -0.0440673287
| 14>  H        1.1033604580     1.8588408073    -0.0319439163
| 15>  H       -0.4691024941     1.9863093758    -0.8358236870
| 16>  H       -0.3798591044     1.9735356099     0.9293156157
| 17>  H       -2.8076772333     0.3305746102    -0.0928167925
| 18>  H       -2.9983918028    -1.3838280129    -0.0431116633
| 19>  H        1.3848224440    -2.9341432184    -0.0409073898
| 20> *
| 21>
| 22>                          ****END OF INPUT****

CARTESIAN COORDINATES (ANGSTROEM)
---------------------------------
  C      0.057959    1.545188    0.019417
  C     -0.010249    0.052196    0.013194
  C     -1.079840   -0.778789    0.035792
  N     -2.413786   -0.573934    0.099041
  C     -0.606544   -2.214529    0.011186
  O     -1.316264   -3.194475   -0.006438
  N      0.764168   -2.142582   -0.000123
  C      1.201003   -0.792156   -0.013777
  O      2.361701   -0.458842   -0.044067
  H      1.103360    1.858841   -0.031944
  H     -0.469102    1.986309   -0.835824
  H     -0.379859    1.973536    0.929316
  H     -2.807677    0.330575   -0.092817
  H     -2.998392   -1.383828   -0.043112
  H      1.384822   -2.934143   -0.040907

 Total Charge           Charge          ....    0
 Multiplicity           Mult            ....    1
 Number of Electrons    NEL             ....   66
 Basis Dimension        Dim             ....  315

ORBITAL ENERGIES
----------------

  NO   OCC          E(Eh)            E(eV)
   0   2.0000     -20.563430      -559.5594
   1   2.0000     -20.547205      -559.1179
   2   2.0000     -15.609615      -424.7592
   3   2.0000     -15.602826      -424.5745
   4   2.0000     -11.385779      -309.8228
   5   2.0000     -11.372431      -309.4596
   6   2.0000     -11.319610      -308.0222
   7   2.0000     -11.249589      -306.1169
   8   2.0000     -11.239143      -305.8326
   9   2.0000      -1.426832       -38.8261
  10   2.0000      -1.402380       -38.1607
  11   2.0000      -1.281485       -34.8710
  12   2.0000      -1.251715       -34.0609
  13   2.0000      -1.090925       -29.6856
  14   2.0000      -0.978746       -26.6330
  15   2.0000      -0.900159       -24.4946
  16   2.0000      -0.827820       -22.5261
  17   2.0000      -0.802737       -21.8436
  18   2.0000      -0.735028       -20.0011
  19   2.0000      -0.703463       -19.1422
  20   2.0000      -0.683670       -18.6036
  21   2.0000      -0.650176       -17.6922
  22   2.0000      -0.637165       -17.3381
  23   2.0000      -0.634611       -17.2686
  24   2.0000      -0.583181       -15.8692
  25   2.0000      -0.579098       -15.7581
  26   2.0000      -0.552520       -15.0348
  27   2.0000      -0.549855       -14.9623
  28   2.0000      -0.520312       -14.1584
  29   2.0000      -0.475647       -12.9430
  30   2.0000      -0.439581       -11.9616
  31   2.0000      -0.435166       -11.8415
  32   2.0000      -0.340806        -9.2738
  33   0.0000       0.065807         1.7907
  34   0.0000       0.112869         3.0713
  35   0.0000       0.149510         4.0684
  36   0.0000       0.161461         4.3936
  37   0.0000       0.182903         4.9770

MULLIKEN ATOMIC CHARGES
-----------------------
   0 C :   -0.476725
   1 C :   -0.088797
   2 C :    0.168295
   3 N :   -0.489453
   4 C :    0.253364
   5 O :   -0.319408
   6 N :   -0.280181
   7 C :    0.261311
   8 O :   -0.299929
   9 H :    0.178789
  10 H :    0.141331
  11 H :    0.149961
  12 H :    0.264840
  13 H :    0.283476
  14 H :    0.253124
Sum of atomic charges:   -0.0000000

LOEWDIN ATOMIC CHARGES
----------------------
   0 C :   -0.272260
   1 C :   -0.164045
   2 C :   -0.205222
   3 N :    0.006117
   4 C :   -0.377914
   5 O :    0.118284
   6 N :    0.167734
   7 C :   -0.368335
   8 O :    0.129458
   9 H :    0.144609
  10 H :    0.130766
  11 H :    0.132947
  12 H :    0.176561
  13 H :    0.186753
  14 H :    0.194547

  Mayer bond orders larger than 0.1
B(  0-C ,  1-C ) :   0.8639 B(  0-C ,  9-H ) :   0.9421 B(  0-C , 10-H ) :   0.9336
B(  0-C , 11-H ) :   0.9374 B(  1-C ,  2-C ) :   1.4847 B(  1-C ,  7-C ) :   1.0143
B(  2-C ,  3-N ) :   1.1523 B(  2-C ,  4-C ) :   0.9246 B(  3-N , 12-H ) :   0.8667
B(  3-N , 13-H ) :   0.8499 B(  4-C ,  5-O ) :   1.9769 B(  4-C ,  6-N ) :   1.1350
B(  6-N ,  7-C ) :   0.9912 B(  6-N , 14-H ) :   0.8524 B(  7-C ,  8-O ) :   2.0198

MP2 TOTAL ENERGY:     -453.298712754 Eh
FINAL SINGLE POINT ENERGY      -453.298712754022

DIPOLE MOMENT
-------------
                                X             Y             Z
Electronic contribution:      2.08255      -6.45286       0.00119
Nuclear contribution   :     -3.19088       7.08585      -0.16464
                        -----------------------------------------
Total Dipole Moment    :     -1.10833       0.63299      -0.16344
                        -----------------------------------------
Magnitude (a.u.)       :      1.28677
Magnitude (Debye)      :      3.27071

                             ****ORCA TERMINATED NORMALLY****
TOTAL RUN TIME: 0 days 0 hours 14 minutes 28 seconds 762 msec
