                         Program Version 3.0.3 - RELEASE   -
|  1> ! RI-MP2 RIJK def2-TZVP def2-TZVP/C def2-TZVP/JK TIGHTSCF
|  2> % maxcore 2000
|  3> % mp2 density relaxed end
|  4> *xyz 0 1
|  5>  C       -0.4962290137     1.3016125468     0.0224156467
|  6>  N        0.9454543426     0.9901282546    -0.0193333106
|  7>  C       -0.0229504220    -0.0994456737     0.0383991981
|  8>  C       -0.0867311769    -1.1580704367     1.1482412318
|  9>  C       -0.4854201597    -2.2150586377     0.0746536319
| 10>  O       -1.8591523206    -2.5545177780    -0.0038165611
| 11>  C       -2.4909660704    -1.5499496889    -0.7698977769
| 12>  O       -1.5462578190    -1.0875802813    -1.7140038028
| 13>  C       -0.2978484513    -1.1519664917    -1.0543787349
| 14>  H       -0.8339445312     1.7676804281     0.9444457925
| 15>  H       -0.9862453619     1.6574795269    -0.8802527999
| 16>  H        1.2967222486     1.0961912830    -0.9692406753
| 17>  H        0.8830125573    -1.3564173942     1.6123125555
| 18>  H       -0.8335374795    -1.0007508663     1.9301737305
| 19>  H        0.0963195623    -3.1367729597     0.0502523851
| 20>  H       -3.3428549578    -1.9840185817    -1.2996453592
| 21>  H       -2.8249922682    -0.7207817829    -0.1233687912
| 22>  H        0.4849613914    -1.2942844166    -1.8029616901
| 23> *
| 24>
| 25>                          ****END OF INPUT****

CARTESIAN COORDINATES (ANGSTROEM)
---------------------------------
  C     -0.496229    1.301613    0.022416
  N      0.945454    0.990128   -0.019333
  C     -0.022950   -0.099446    0.038399
  C     -0.086731   -1.158070    1.148241
  C     -0.485420   -2.215059    0.074654
  O     -1.859152   -2.554518   -0.003817
  C     -2.490966   -1.549950   -0.769898
  O     -1.546258   -1.087580   -1.714004
  C     -0.297848   -1.151966   -1.054379
  H     -0.833945    1.767680    0.944446
  H     -0.986245    1.657480   -0.880253
  H      1.296722    1.096191   -0.969241
  H      0.883013   -1.356417    1.612313
  H     -0.833537   -1.000751    1.930174
  H      0.096320   -3.136773    0.050252
  H     -3.342855   -1.984019   -1.299645
  H     -2.824992   -0.720782   -0.123369
  H      0.484961   -1.294284   -1.802962

 Total Charge           Charge          ....    0
 Multiplicity           Mult            ....    1
 Number of Electrons    NEL             ....   68
 Basis Dimension        Dim             ....  333

ORBITAL ENERGIES
----------------

  NO   OCC          E(Eh)            E(eV)
   0   2.0000     -20.574033      -559.8479
   1   2.0000     -20.569858      -559.7343
   2   2.0000     -15.565007      -423.5454
   3   2.0000     -11.333246      -308.3933
   4   2.0000     -11.292486      -307.2842
   5   2.0000     -11.289922      -307.2144
   6   2.0000     -11.269655      -306.6629
   7   2.0000     -11.260416      -306.4115
   8   2.0000     -11.230723      -305.6035
   9   2.0000      -1.446981       -39.3743
  10   2.0000      -1.342626       -36.5347
  11   2.0000      -1.270475       -34.5714
  12   2.0000      -1.105019       -30.0691
  13   2.0000      -0.950910       -25.8756
  14   2.0000      -0.895305       -24.3625
  15   2.0000      -0.882835       -24.0232
  16   2.0000      -0.828570       -22.5465
  17   2.0000      -0.757880       -20.6230
  18   2.0000      -0.728837       -19.8327
  19   2.0000      -0.707996       -19.2655
  20   2.0000      -0.681780       -18.5522
  21   2.0000      -0.635408       -17.2903
  22   2.0000      -0.614020       -16.7083
  23   2.0000      -0.602318       -16.3899
  24   2.0000      -0.585790       -15.9402
  25   2.0000      -0.548716       -14.9313
  26   2.0000      -0.543716       -14.7953
  27   2.0000      -0.510597       -13.8941
  28   2.0000      -0.506866       -13.7925
  29   2.0000      -0.475829       -12.9480
  30   2.0000      -0.449751       -12.2383
  31   2.0000      -0.426062       -11.5937
  32   2.0000      -0.419124       -11.4050
  33   2.0000      -0.391811       -10.6617
  34   0.0000       0.139796         3.8040
  35   0.0000       0.151835         4.1316
  36   0.0000       0.155842         4.2407
  37   0.0000       0.177537         4.8310
  38   0.0000       0.185998         5.0613

MULLIKEN ATOMIC CHARGES
-----------------------
   0 C :   -0.190266
   1 N :   -0.356820
   2 C :   -0.069333
   3 C :   -0.193690
   4 C :    0.027004
   5 O :   -0.316209
   6 C :    0.086306
   7 O :   -0.316345
   8 C :    0.126803
   9 H :    0.124098
  10 H :    0.141363
  11 H :    0.221633
  12 H :    0.123245
  13 H :    0.127763
  14 H :    0.120843
  15 H :    0.129762
  16 H :    0.088839
  17 H :    0.125005
Sum of atomic charges:    0.0000000

LOEWDIN ATOMIC CHARGES
----------------------
   0 C :   -0.241263
   1 N :    0.007719
   2 C :   -0.286103
   3 C :   -0.179016
   4 C :   -0.257762
   5 O :    0.175925
   6 C :   -0.362882
   7 O :    0.180479
   8 C :   -0.244306
   9 H :    0.127780
  10 H :    0.127197
  11 H :    0.168273
  12 H :    0.142003
  13 H :    0.138984
  14 H :    0.135027
  15 H :    0.120666
  16 H :    0.106911
  17 H :    0.140369

  Mayer bond orders larger than 0.1
B(  0-C ,  1-N ) :   0.9557 B(  0-C ,  2-C ) :   0.8850 B(  0-C ,  9-H ) :   0.9174
B(  0-C , 10-H ) :   0.9181 B(  1-N ,  2-C ) :   0.9329 B(  1-N , 11-H ) :   0.8695
B(  2-C ,  3-C ) :   0.9007 B(  2-C ,  8-C ) :   0.8588 B(  3-C ,  4-C ) :   0.9385
B(  3-C , 12-H ) :   0.9067 B(  3-C , 13-H ) :   0.9126 B(  4-C ,  5-O ) :   0.9318
B(  4-C ,  8-C ) :   0.9308 B(  4-C , 14-H ) :   0.9335 B(  5-O ,  6-C ) :   0.9720
B(  6-C ,  7-O ) :   0.9617 B(  6-C , 15-H ) :   0.9235 B(  6-C , 16-H ) :   0.9230
B(  7-O ,  8-C ) :   0.9524 B(  8-C , 17-H ) :   0.9184

MP2 TOTAL ENERGY:     -438.319526058 Eh
FINAL SINGLE POINT ENERGY      -438.319526058464

DIPOLE MOMENT
-------------
                                X             Y             Z
Electronic contribution:     -0.56902      -2.34832      -1.95709
Nuclear contribution   :      0.53437       2.48543       1.78946
                        -----------------------------------------
Total Dipole Moment    :     -0.03465       0.13711      -0.16762
                        -----------------------------------------
Magnitude (a.u.)       :      0.21931
Magnitude (Debye)      :      0.55744

                             ****ORCA TERMINATED NORMALLY****
TOTAL RUN TIME: 0 days 0 hours 16 minutes 6 seconds 419 msec
