                         Program Version 3.0.3 - RELEASE   -
|  1> ! RI-MP2 RIJK def2-TZVP def2-TZVP/C def2-TZVP/JK TIGHTSCF
|  2> % maxcore 2000
|  3> % mp2 density relaxed end
|  4> *xyz 0 1
|  5>  C       -0.0485619491     1.0626544543     0.5409768114
|  6>  O       -0.1976071509     0.0449452440    -0.4392701364
|  7>  C       -1.3807358209    -0.6511212036    -0.3290934067
|  8>  C       -1.3836172765    -2.0778582740    -0.7680087950
|  9>  C       -0.1374797376    -2.7266999158    -1.3272553145
| 10>  C       -1.4405381592    -1.7778218546     0.7352710520
| 11>  O       -0.2997878814    -1.9965024882     1.4915789412
| 12>  C       -2.6921112053    -1.9818877516     1.4736232985
| 13>  O       -2.6966454615    -2.3081962217     2.6436228749
| 14>  H        0.8969901554     1.5658360915     0.3292902871
| 15>  H       -0.8657437340     1.7962078108     0.4793833183
| 16>  H       -0.0186137940     0.6350540049     1.5490129433
| 17>  H       -2.2843414346    -0.0541386503    -0.4730597068
| 18>  H       -2.3202935163    -2.4220900975    -1.2005611637
| 19>  H        0.7553021013    -2.3416242099    -0.8358784470
| 20>  H       -0.1722667408    -3.8105859306    -1.1837355472
| 21>  H       -0.0564286928    -2.5257588277    -2.4000835563
| 22>  H       -0.6398858323    -2.2547893944     2.3642640340
| 23>  H       -3.6316534296    -1.8136062155     0.9086448528
| 24> *
| 25>
| 26>                          ****END OF INPUT****

CARTESIAN COORDINATES (ANGSTROEM)
---------------------------------
  C     -0.048562    1.062654    0.540977
  O     -0.197607    0.044945   -0.439270
  C     -1.380736   -0.651121   -0.329093
  C     -1.383617   -2.077858   -0.768009
  C     -0.137480   -2.726700   -1.327255
  C     -1.440538   -1.777822    0.735271
  O     -0.299788   -1.996502    1.491579
  C     -2.692111   -1.981888    1.473623
  O     -2.696645   -2.308196    2.643623
  H      0.896990    1.565836    0.329290
  H     -0.865744    1.796208    0.479383
  H     -0.018614    0.635054    1.549013
  H     -2.284341   -0.054139   -0.473060
  H     -2.320294   -2.422090   -1.200561
  H      0.755302   -2.341624   -0.835878
  H     -0.172267   -3.810586   -1.183736
  H     -0.056429   -2.525759   -2.400084
  H     -0.639886   -2.254789    2.364264
  H     -3.631653   -1.813606    0.908645

 Total Charge           Charge          ....    0
 Multiplicity           Mult            ....    1
 Number of Electrons    NEL             ....   70
 Basis Dimension        Dim             ....  339

ORBITAL ENERGIES
----------------

  NO   OCC          E(Eh)            E(eV)
   0   2.0000     -20.573171      -559.8244
   1   2.0000     -20.568624      -559.7007
   2   2.0000     -20.568383      -559.6942
   3   2.0000     -11.346430      -308.7521
   4   2.0000     -11.303881      -307.5942
   5   2.0000     -11.301769      -307.5368
   6   2.0000     -11.276042      -306.8367
   7   2.0000     -11.255549      -306.2791
   8   2.0000     -11.221417      -305.3503
   9   2.0000      -1.420779       -38.6614
  10   2.0000      -1.399757       -38.0893
  11   2.0000      -1.370213       -37.2854
  12   2.0000      -1.150295       -31.3011
  13   2.0000      -0.983044       -26.7500
  14   2.0000      -0.952645       -25.9228
  15   2.0000      -0.891200       -24.2508
  16   2.0000      -0.800879       -21.7930
  17   2.0000      -0.789183       -21.4748
  18   2.0000      -0.742922       -20.2159
  19   2.0000      -0.683097       -18.5880
  20   2.0000      -0.678184       -18.4543
  21   2.0000      -0.650924       -17.7125
  22   2.0000      -0.645064       -17.5531
  23   2.0000      -0.618593       -16.8328
  24   2.0000      -0.588306       -16.0086
  25   2.0000      -0.566678       -15.4201
  26   2.0000      -0.563239       -15.3265
  27   2.0000      -0.555017       -15.1028
  28   2.0000      -0.528306       -14.3759
  29   2.0000      -0.523849       -14.2547
  30   2.0000      -0.504754       -13.7351
  31   2.0000      -0.471542       -12.8313
  32   2.0000      -0.463054       -12.6003
  33   2.0000      -0.418893       -11.3987
  34   2.0000      -0.371151       -10.0995
  35   0.0000       0.113326         3.0838
  36   0.0000       0.131736         3.5847
  37   0.0000       0.152010         4.1364
  38   0.0000       0.159879         4.3505
  39   0.0000       0.188266         5.1230

MULLIKEN ATOMIC CHARGES
-----------------------
   0 C :   -0.217302
   1 O :   -0.303535
   2 C :    0.010002
   3 C :   -0.090173
   4 C :   -0.422914
   5 C :    0.208947
   6 O :   -0.467755
   7 C :    0.084013
   8 O :   -0.319803
   9 H :    0.141584
  10 H :    0.111227
  11 H :    0.138154
  12 H :    0.118411
  13 H :    0.135385
  14 H :    0.168552
  15 H :    0.136934
  16 H :    0.136766
  17 H :    0.337962
  18 H :    0.093543
Sum of atomic charges:   -0.0000000

LOEWDIN ATOMIC CHARGES
----------------------
   0 C :   -0.332062
   1 O :    0.191034
   2 C :   -0.268450
   3 C :   -0.186236
   4 C :   -0.278384
   5 C :   -0.336747
   6 O :    0.047847
   7 C :   -0.277181
   8 O :    0.107506
   9 H :    0.115071
  10 H :    0.103215
  11 H :    0.109296
  12 H :    0.136632
  13 H :    0.154253
  14 H :    0.137962
  15 H :    0.129151
  16 H :    0.130032
  17 H :    0.192961
  18 H :    0.124100

  Mayer bond orders larger than 0.1
B(  0-C ,  1-O ) :   0.8815 B(  0-C ,  9-H ) :   0.9400 B(  0-C , 10-H ) :   0.9332
B(  0-C , 11-H ) :   0.9338 B(  1-O ,  2-C ) :   1.0082 B(  2-C ,  3-C ) :   0.8369
B(  2-C ,  5-C ) :   0.7811 B(  2-C , 12-H ) :   0.9286 B(  3-C ,  4-C ) :   0.9098
B(  3-C ,  5-C ) :   0.8043 B(  3-C , 13-H ) :   0.9084 B(  4-C , 14-H ) :   0.9283
B(  4-C , 15-H ) :   0.9376 B(  4-C , 16-H ) :   0.9349 B(  5-C ,  6-O ) :   1.1334
B(  5-C ,  7-C ) :   0.9305 B(  6-O , 17-H ) :   0.7959 B(  7-C ,  8-O ) :   1.8692
B(  7-C , 18-H ) :   0.9360

MP2 TOTAL ENERGY:     -459.405739679 Eh
FINAL SINGLE POINT ENERGY      -459.405739678703

DIPOLE MOMENT
-------------
                                X             Y             Z
Electronic contribution:     -2.99899      -1.85197       4.34004
Nuclear contribution   :      2.60300       2.25366      -4.91167
                        -----------------------------------------
Total Dipole Moment    :     -0.39599       0.40169      -0.57163
                        -----------------------------------------
Magnitude (a.u.)       :      0.80307
Magnitude (Debye)      :      2.04124

                             ****ORCA TERMINATED NORMALLY****
TOTAL RUN TIME: 0 days 0 hours 16 minutes 32 seconds 974 msec
