                         Program Version 3.0.3 - RELEASE   -
|  1> ! RI-MP2 RIJK def2-TZVP def2-TZVP/C def2-TZVP/JK TIGHTSCF
|  2> % maxcore 2000
|  3> % mp2 density relaxed end
|  4> *xyz 0 1
|  5>  O       -0.1242740162     0.0088608596     0.1867059400
|  6>  C       -0.0691435675     1.2005094955     0.0504559629
|  7>  C       -1.2736579649     2.1654012626    -0.0691533310
|  8>  C       -0.6674571038     3.4998929322     0.3019469290
|  9>  C        0.6636001587     3.4377011464     0.3129633085
| 10>  C        1.8005132349     4.2511874165     0.8520208187
| 11>  O        2.8299096610     3.2917617790     1.1418988581
| 12>  C        2.3146614453     1.9583186092     1.0402795305
| 13>  C        1.1960578194     2.0663858723    -0.0049440362
| 14>  H       -1.6609357228     2.1252404958    -1.0976226060
| 15>  H       -2.0952221565     1.8483697462     0.5826617504
| 16>  H       -1.2663886967     4.3560881114     0.5904575080
| 17>  H        2.2048165711     4.9712218738     0.1285622957
| 18>  H        1.5209029558     4.8051783706     1.7588031078
| 19>  H        3.1429493253     1.3076688872     0.7528578242
| 20>  H        1.9138692083     1.6135702144     2.0051558904
| 21>  H        1.6220791885     1.9987968773    -1.0164310109
| 22> *
| 23>
| 24>                          ****END OF INPUT****

CARTESIAN COORDINATES (ANGSTROEM)
---------------------------------
  O     -0.124274    0.008861    0.186706
  C     -0.069144    1.200509    0.050456
  C     -1.273658    2.165401   -0.069153
  C     -0.667457    3.499893    0.301947
  C      0.663600    3.437701    0.312963
  C      1.800513    4.251187    0.852021
  O      2.829910    3.291762    1.141899
  C      2.314661    1.958319    1.040280
  C      1.196058    2.066386   -0.004944
  H     -1.660936    2.125240   -1.097623
  H     -2.095222    1.848370    0.582662
  H     -1.266389    4.356088    0.590458
  H      2.204817    4.971222    0.128562
  H      1.520903    4.805178    1.758803
  H      3.142949    1.307669    0.752858
  H      1.913869    1.613570    2.005156
  H      1.622079    1.998797   -1.016431

 Total Charge           Charge          ....    0
 Multiplicity           Mult            ....    1
 Number of Electrons    NEL             ....   66
 Basis Dimension        Dim             ....  327

ORBITAL ENERGIES
----------------

  NO   OCC          E(Eh)            E(eV)
   0   2.0000     -20.563269      -559.5550
   1   2.0000     -20.556991      -559.3842
   2   2.0000     -11.341509      -308.6182
   3   2.0000     -11.293160      -307.3025
   4   2.0000     -11.288867      -307.1857
   5   2.0000     -11.252122      -306.1858
   6   2.0000     -11.251752      -306.1757
   7   2.0000     -11.250045      -306.1293
   8   2.0000     -11.248762      -306.0944
   9   2.0000      -1.401718       -38.1427
  10   2.0000      -1.382823       -37.6285
  11   2.0000      -1.157618       -31.5004
  12   2.0000      -1.026229       -27.9251
  13   2.0000      -1.007473       -27.4147
  14   2.0000      -0.917603       -24.9692
  15   2.0000      -0.854924       -23.2637
  16   2.0000      -0.763486       -20.7755
  17   2.0000      -0.748328       -20.3631
  18   2.0000      -0.689462       -18.7612
  19   2.0000      -0.682747       -18.5785
  20   2.0000      -0.642037       -17.4707
  21   2.0000      -0.615951       -16.7609
  22   2.0000      -0.606597       -16.5064
  23   2.0000      -0.601215       -16.3599
  24   2.0000      -0.578501       -15.7418
  25   2.0000      -0.568868       -15.4797
  26   2.0000      -0.547728       -14.9044
  27   2.0000      -0.528608       -14.3841
  28   2.0000      -0.506926       -13.7942
  29   2.0000      -0.472018       -12.8443
  30   2.0000      -0.430977       -11.7275
  31   2.0000      -0.408141       -11.1061
  32   2.0000      -0.364597        -9.9212
  33   0.0000       0.120415         3.2767
  34   0.0000       0.130044         3.5387
  35   0.0000       0.144487         3.9317
  36   0.0000       0.158690         4.3182
  37   0.0000       0.168313         4.5800

MULLIKEN ATOMIC CHARGES
-----------------------
   0 O :   -0.250655
   1 C :    0.081670
   2 C :   -0.145882
   3 C :   -0.207143
   4 C :   -0.098886
   5 C :   -0.018192
   6 O :   -0.313852
   7 C :   -0.049620
   8 C :   -0.004293
   9 H :    0.140579
  10 H :    0.140959
  11 H :    0.142715
  12 H :    0.119335
  13 H :    0.110064
  14 H :    0.122179
  15 H :    0.103548
  16 H :    0.127474
Sum of atomic charges:    0.0000000

LOEWDIN ATOMIC CHARGES
----------------------
   0 O :    0.165788
   1 C :   -0.269060
   2 C :   -0.205999
   3 C :   -0.126427
   4 C :   -0.150751
   5 C :   -0.254230
   6 O :    0.137800
   7 C :   -0.260005
   8 C :   -0.176146
   9 H :    0.155256
  10 H :    0.149545
  11 H :    0.140464
  12 H :    0.133386
  13 H :    0.131330
  14 H :    0.129901
  15 H :    0.126243
  16 H :    0.172907

  Mayer bond orders larger than 0.1
B(  0-O ,  1-C ) :   2.0822 B(  1-C ,  2-C ) :   0.9233 B(  1-C ,  8-C ) :   0.8495
B(  2-C ,  3-C ) :   0.9159 B(  2-C ,  8-C ) :  -0.1191 B(  2-C ,  9-H ) :   0.8859
B(  2-C , 10-H ) :   0.9094 B(  3-C ,  4-C ) :   1.6832 B(  3-C , 11-H ) :   0.9118
B(  4-C ,  5-C ) :   0.9559 B(  4-C ,  8-C ) :   0.8978 B(  5-C ,  6-O ) :   0.9535
B(  5-C , 12-H ) :   0.9027 B(  5-C , 13-H ) :   0.9288 B(  6-O ,  7-C ) :   0.9257
B(  7-C ,  8-C ) :   0.9161 B(  7-C , 14-H ) :   0.9202 B(  7-C , 15-H ) :   0.9241
B(  8-C , 16-H ) :   0.8765

MP2 TOTAL ENERGY:     -421.132101435 Eh
FINAL SINGLE POINT ENERGY      -421.132101435355

DIPOLE MOMENT
-------------
                                X             Y             Z
Electronic contribution:      0.26466      -2.63678      -0.41229
Nuclear contribution   :     -0.75776       3.49212       0.16757
                        -----------------------------------------
Total Dipole Moment    :     -0.49310       0.85534      -0.24472
                        -----------------------------------------
Magnitude (a.u.)       :      1.01717
Magnitude (Debye)      :      2.58544

                             ****ORCA TERMINATED NORMALLY****
TOTAL RUN TIME: 0 days 0 hours 16 minutes 13 seconds 849 msec
