                         Program Version 3.0.3 - RELEASE   -
|  1> ! RI-MP2 RIJK def2-TZVP def2-TZVP/C def2-TZVP/JK TIGHTSCF
|  2> % maxcore 2000
|  3> % mp2 density relaxed end
|  4> *xyz 0 1
|  5>  O       -0.3525014679     0.1977025501     0.4864797650
|  6>  C       -0.0822271910     1.2903427252     0.0683799603
|  7>  C        1.2852463498     1.8918921854     0.0311894201
|  8>  C        1.4418971093     3.3614353697     0.3514643654
|  9>  N        1.5249434211     2.9212824967    -1.0165847112
| 10>  C        2.9173037548     2.7330854359    -1.5134583580
| 11>  C        3.6612021275     1.7879356220    -0.5549137975
| 12>  C        2.5507376500     1.1003262887     0.2614334067
| 13>  O        2.6704316649     0.1135550448     0.9332425093
| 14>  H       -0.8546408493     1.9758584160    -0.3492126465
| 15>  H        0.5499430243     3.9274005267     0.6081653512
| 16>  H        2.3414386268     3.6568864928     0.8881413248
| 17>  H        2.8364502240     2.2922957832    -2.5104477789
| 18>  H        3.3882531168     3.7137375433    -1.6183636141
| 19>  H        4.2540060063     1.0298238727    -1.0700584069
| 20>  H        4.3381162628     2.3035000269     0.1347164204
| 21> *
| 22>
| 23>                          ****END OF INPUT****

CARTESIAN COORDINATES (ANGSTROEM)
---------------------------------
  O     -0.352501    0.197703    0.486480
  C     -0.082227    1.290343    0.068380
  C      1.285246    1.891892    0.031189
  C      1.441897    3.361435    0.351464
  N      1.524943    2.921282   -1.016585
  C      2.917304    2.733085   -1.513458
  C      3.661202    1.787936   -0.554914
  C      2.550738    1.100326    0.261433
  O      2.670432    0.113555    0.933243
  H     -0.854641    1.975858   -0.349213
  H      0.549943    3.927401    0.608165
  H      2.341439    3.656886    0.888141
  H      2.836450    2.292296   -2.510448
  H      3.388253    3.713738   -1.618364
  H      4.254006    1.029824   -1.070058
  H      4.338116    2.303500    0.134716

 Total Charge           Charge          ....    0
 Multiplicity           Mult            ....    1
 Number of Electrons    NEL             ....   66
 Basis Dimension        Dim             ....  321

ORBITAL ENERGIES
----------------

  NO   OCC          E(Eh)            E(eV)
   0   2.0000     -20.563670      -559.5659
   1   2.0000     -20.560231      -559.4723
   2   2.0000     -15.605666      -424.6518
   3   2.0000     -11.349872      -308.8457
   4   2.0000     -11.343315      -308.6673
   5   2.0000     -11.303149      -307.5743
   6   2.0000     -11.297779      -307.4282
   7   2.0000     -11.286486      -307.1209
   8   2.0000     -11.257054      -306.3200
   9   2.0000      -1.411201       -38.4007
  10   2.0000      -1.400109       -38.0989
  11   2.0000      -1.326605       -36.0987
  12   2.0000      -1.078047       -29.3351
  13   2.0000      -1.009142       -27.4602
  14   2.0000      -0.925802       -25.1924
  15   2.0000      -0.869969       -23.6731
  16   2.0000      -0.832609       -22.6565
  17   2.0000      -0.739732       -20.1291
  18   2.0000      -0.702035       -19.1033
  19   2.0000      -0.682597       -18.5744
  20   2.0000      -0.668953       -18.2031
  21   2.0000      -0.642914       -17.4946
  22   2.0000      -0.619542       -16.8586
  23   2.0000      -0.611967       -16.6525
  24   2.0000      -0.592634       -16.1264
  25   2.0000      -0.574704       -15.6385
  26   2.0000      -0.560086       -15.2407
  27   2.0000      -0.523301       -14.2397
  28   2.0000      -0.506610       -13.7856
  29   2.0000      -0.476603       -12.9690
  30   2.0000      -0.445085       -12.1114
  31   2.0000      -0.421211       -11.4617
  32   2.0000      -0.400605       -10.9010
  33   0.0000       0.110522         3.0075
  34   0.0000       0.116566         3.1719
  35   0.0000       0.133738         3.6392
  36   0.0000       0.156152         4.2491
  37   0.0000       0.162474         4.4211

MULLIKEN ATOMIC CHARGES
-----------------------
   0 O :   -0.227064
   1 C :   -0.015885
   2 C :    0.209932
   3 C :   -0.188433
   4 N :   -0.222205
   5 C :   -0.166051
   6 C :   -0.246586
   7 C :    0.116674
   8 O :   -0.232169
   9 H :    0.095244
  10 H :    0.151194
  11 H :    0.143626
  12 H :    0.141096
  13 H :    0.135869
  14 H :    0.155212
  15 H :    0.149547
Sum of atomic charges:   -0.0000000

LOEWDIN ATOMIC CHARGES
----------------------
   0 O :    0.162072
   1 C :   -0.262279
   2 C :   -0.231212
   3 C :   -0.202600
   4 N :    0.141198
   5 C :   -0.254754
   6 C :   -0.227170
   7 C :   -0.287893
   8 O :    0.186327
   9 H :    0.123282
  10 H :    0.137450
  11 H :    0.137606
  12 H :    0.138356
  13 H :    0.134355
  14 H :    0.153976
  15 H :    0.151287

  Mayer bond orders larger than 0.1
B(  0-O ,  1-C ) :   2.0583 B(  1-C ,  2-C ) :   0.8026 B(  1-C ,  9-H ) :   0.9679
B(  2-C ,  3-C ) :   0.8517 B(  2-C ,  4-N ) :   0.7949 B(  2-C ,  6-C ) :  -0.1092
B(  2-C ,  7-C ) :   0.8628 B(  3-C ,  4-N ) :   0.9159 B(  3-C , 10-H ) :   0.9145
B(  3-C , 11-H ) :   0.9021 B(  4-N ,  5-C ) :   0.8858 B(  5-C ,  6-C ) :   0.9282
B(  5-C , 12-H ) :   0.9318 B(  5-C , 13-H ) :   0.9386 B(  6-C ,  7-C ) :   0.9087
B(  6-C , 14-H ) :   0.9086 B(  6-C , 15-H ) :   0.9130 B(  7-C ,  8-O ) :   2.0583

MP2 TOTAL ENERGY:     -437.160174006 Eh
FINAL SINGLE POINT ENERGY      -437.160174006484

DIPOLE MOMENT
-------------
                                X             Y             Z
Electronic contribution:     -3.60323      -4.95068       2.49432
Nuclear contribution   :      4.41210       6.61503      -3.03901
                        -----------------------------------------
Total Dipole Moment    :      0.80887       1.66435      -0.54469
                        -----------------------------------------
Magnitude (a.u.)       :      1.92899
Magnitude (Debye)      :      4.90311

                             ****ORCA TERMINATED NORMALLY****
TOTAL RUN TIME: 0 days 0 hours 17 minutes 52 seconds 62 msec
