                         Program Version 3.0.3 - RELEASE   -
|  1> ! RI-MP2 RIJK def2-TZVP def2-TZVP/C def2-TZVP/JK TIGHTSCF
|  2> % maxcore 2000
|  3> % mp2 density relaxed end
|  4> *xyz 0 1
|  5>  C       -0.0567023062     1.1655521055    -0.0157127440
|  6>  C       -0.3596161537    -0.1989955809     0.5691152410
|  7>  O        0.3347903992    -0.7267028371     1.4118058194
|  8>  C       -1.5504674435    -0.8486610565     0.0532067492
|  9>  C       -2.5439549171    -1.3833249949    -0.3814844478
| 10>  C       -3.7352243099    -2.0835814458    -0.8684056591
| 11>  N       -4.0221913598    -3.4043531290    -0.3034793836
| 12>  C       -2.9058525622    -4.2845017422     0.0292338565
| 13>  C       -3.7187691859    -3.6483591131     1.1036400869
| 14>  H        0.8531727058     1.5623250793     0.4367928559
| 15>  H        0.0649891029     1.0910430349    -1.1017467236
| 16>  H       -0.8948317548     1.8471000787     0.1656769052
| 17>  H       -4.6129336276    -1.4490946273    -0.6904876622
| 18>  H       -3.6547736937    -2.1989113850    -1.9568928289
| 19>  H       -3.0489744731    -5.3288065608    -0.2319465872
| 20>  H       -1.8943845421    -3.9064367713    -0.1008113978
| 21>  H       -3.2356968943    -2.8567993034     1.6719565587
| 22>  H       -4.4687559642    -4.2177836912     1.6445148614
| 23> *
| 24>
| 25>                          ****END OF INPUT****

CARTESIAN COORDINATES (ANGSTROEM)
---------------------------------
  C     -0.056702    1.165552   -0.015713
  C     -0.359616   -0.198996    0.569115
  O      0.334790   -0.726703    1.411806
  C     -1.550467   -0.848661    0.053207
  C     -2.543955   -1.383325   -0.381484
  C     -3.735224   -2.083581   -0.868406
  N     -4.022191   -3.404353   -0.303479
  C     -2.905853   -4.284502    0.029234
  C     -3.718769   -3.648359    1.103640
  H      0.853173    1.562325    0.436793
  H      0.064989    1.091043   -1.101747
  H     -0.894832    1.847100    0.165677
  H     -4.612934   -1.449095   -0.690488
  H     -3.654774   -2.198911   -1.956893
  H     -3.048974   -5.328807   -0.231947
  H     -1.894385   -3.906437   -0.100811
  H     -3.235697   -2.856799    1.671957
  H     -4.468756   -4.217784    1.644515

 Total Charge           Charge          ....    0
 Multiplicity           Mult            ....    1
 Number of Electrons    NEL             ....   66
 Basis Dimension        Dim             ....  333

ORBITAL ENERGIES
----------------

  NO   OCC          E(Eh)            E(eV)
   0   2.0000     -20.558435      -559.4234
   1   2.0000     -15.572730      -423.7555
   2   2.0000     -11.360318      -309.1300
   3   2.0000     -11.294473      -307.3382
   4   2.0000     -11.263565      -306.4972
   5   2.0000     -11.257715      -306.3380
   6   2.0000     -11.256996      -306.3184
   7   2.0000     -11.244824      -305.9872
   8   2.0000     -11.244573      -305.9804
   9   2.0000      -1.400291       -38.1038
  10   2.0000      -1.282699       -34.9040
  11   2.0000      -1.087479       -29.5918
  12   2.0000      -1.036654       -28.2088
  13   2.0000      -0.994205       -27.0537
  14   2.0000      -0.870903       -23.6985
  15   2.0000      -0.847145       -23.0520
  16   2.0000      -0.826747       -22.4969
  17   2.0000      -0.698223       -18.9996
  18   2.0000      -0.692289       -18.8381
  19   2.0000      -0.678142       -18.4532
  20   2.0000      -0.636898       -17.3309
  21   2.0000      -0.631545       -17.1852
  22   2.0000      -0.611624       -16.6431
  23   2.0000      -0.608902       -16.5691
  24   2.0000      -0.570407       -15.5216
  25   2.0000      -0.532317       -14.4851
  26   2.0000      -0.519484       -14.1359
  27   2.0000      -0.479140       -13.0381
  28   2.0000      -0.472656       -12.8616
  29   2.0000      -0.445379       -12.1194
  30   2.0000      -0.412351       -11.2206
  31   2.0000      -0.400254       -10.8915
  32   2.0000      -0.391430       -10.6514
  33   0.0000       0.092405         2.5145
  34   0.0000       0.132357         3.6016
  35   0.0000       0.151865         4.1325
  36   0.0000       0.160861         4.3773
  37   0.0000       0.177531         4.8309

MULLIKEN ATOMIC CHARGES
-----------------------
   0 C :   -0.388417
   1 C :    0.120748
   2 O :   -0.271756
   3 C :    0.009817
   4 C :   -0.019013
   5 C :   -0.179613
   6 N :   -0.213818
   7 C :   -0.189539
   8 C :   -0.189560
   9 H :    0.153961
  10 H :    0.147076
  11 H :    0.147101
  12 H :    0.157555
  13 H :    0.157563
  14 H :    0.131974
  15 H :    0.146934
  16 H :    0.147008
  17 H :    0.131978
Sum of atomic charges:    0.0000000

LOEWDIN ATOMIC CHARGES
----------------------
   0 C :   -0.264178
   1 C :   -0.355325
   2 O :    0.165871
   3 C :   -0.035394
   4 C :   -0.046005
   5 C :   -0.278593
   6 N :    0.096637
   7 C :   -0.261656
   8 C :   -0.261640
   9 H :    0.134442
  10 H :    0.140396
  11 H :    0.140434
  12 H :    0.158048
  13 H :    0.158032
  14 H :    0.124564
  15 H :    0.129892
  16 H :    0.129910
  17 H :    0.124567

  Mayer bond orders larger than 0.1
B(  0-C ,  1-C ) :   1.0109 B(  0-C ,  3-C ) :  -0.1398 B(  0-C ,  9-H ) :   0.9368
B(  0-C , 10-H ) :   0.9092 B(  0-C , 11-H ) :   0.9091 B(  1-C ,  2-O ) :   2.0231
B(  1-C ,  3-C ) :   0.8851 B(  3-C ,  4-C ) :   2.7610 B(  4-C ,  5-C ) :   0.8284
B(  5-C ,  6-N ) :   0.9540 B(  5-C , 12-H ) :   0.9471 B(  5-C , 13-H ) :   0.9472
B(  6-N ,  7-C ) :   0.8892 B(  6-N ,  8-C ) :   0.8892 B(  7-C ,  8-C ) :   0.9338
B(  7-C , 14-H ) :   0.9271 B(  7-C , 15-H ) :   0.9209 B(  8-C , 16-H ) :   0.9208
B(  8-C , 17-H ) :   0.9271

MP2 TOTAL ENERGY:     -401.191665784 Eh
FINAL SINGLE POINT ENERGY      -401.191665783562

DIPOLE MOMENT
-------------
                                X             Y             Z
Electronic contribution:      1.99641       0.57584       1.18491
Nuclear contribution   :     -2.39155      -0.07147      -1.78671
                        -----------------------------------------
Total Dipole Moment    :     -0.39515       0.50437      -0.60180
                        -----------------------------------------
Magnitude (a.u.)       :      0.87903
Magnitude (Debye)      :      2.23431

                             ****ORCA TERMINATED NORMALLY****
TOTAL RUN TIME: 0 days 0 hours 16 minutes 10 seconds 635 msec
