                         Program Version 3.0.3 - RELEASE   -
|  1> ! RI-MP2 RIJK def2-TZVP def2-TZVP/C def2-TZVP/JK TIGHTSCF
|  2> % maxcore 2000
|  3> % mp2 density relaxed end
|  4> *xyz 0 1
|  5>  C        0.1055761514     1.3051659180     0.1660862774
|  6>  O       -0.2511404450    -0.0141361354    -0.1787858795
|  7>  C        0.5145465133    -0.5416584821    -1.2334360923
|  8>  C        1.9156553520    -1.0923474188    -0.8054104983
|  9>  C        1.4157584597    -2.5255687459    -1.1029243715
| 10>  C        1.8009096384    -3.7509659849    -0.3278984594
| 11>  C        0.0651660596    -1.9823742647    -1.5220146408
| 12>  N        0.9287963856    -2.6620456810    -2.4616155678
| 13>  C        1.5262438467    -2.0124853678    -3.6186085984
| 14>  H        1.1419833394     1.3736266903     0.5298603135
| 15>  H       -0.0034158397     1.9902089735    -0.6895168299
| 16>  H       -0.5680476652     1.6257813049     0.9644438123
| 17>  H        0.5075152576     0.1536848758    -2.0875567472
| 18>  H        2.8029333104    -0.7488024047    -1.3469135963
| 19>  H        2.0647744477    -0.9320855967     0.2651843740
| 20>  H        1.6937912964    -3.5851372613     0.7493575443
| 21>  H        1.1722083237    -4.5962746282    -0.6193516306
| 22>  H        2.8453204079    -4.0258516430    -0.5204750890
| 23>  H       -0.9396715302    -2.3543577366    -1.3475919348
| 24>  H        1.9266220405    -1.0036316310    -3.4440747065
| 25>  H        2.3446430560    -2.6389763496    -3.9871660604
| 26>  H        0.7728633340    -1.9445742308    -4.4096830890
| 27> *
| 28>
| 29>                          ****END OF INPUT****

CARTESIAN COORDINATES (ANGSTROEM)
---------------------------------
  C      0.105576    1.305166    0.166086
  O     -0.251140   -0.014136   -0.178786
  C      0.514547   -0.541658   -1.233436
  C      1.915655   -1.092347   -0.805410
  C      1.415758   -2.525569   -1.102924
  C      1.800910   -3.750966   -0.327898
  C      0.065166   -1.982374   -1.522015
  N      0.928796   -2.662046   -2.461616
  C      1.526244   -2.012485   -3.618609
  H      1.141983    1.373627    0.529860
  H     -0.003416    1.990209   -0.689517
  H     -0.568048    1.625781    0.964444
  H      0.507515    0.153685   -2.087557
  H      2.802933   -0.748802   -1.346914
  H      2.064774   -0.932086    0.265184
  H      1.693791   -3.585137    0.749358
  H      1.172208   -4.596275   -0.619352
  H      2.845320   -4.025852   -0.520475
  H     -0.939672   -2.354358   -1.347592
  H      1.926622   -1.003632   -3.444075
  H      2.344643   -2.638976   -3.987166
  H      0.772863   -1.944574   -4.409683

 Total Charge           Charge          ....    0
 Multiplicity           Mult            ....    1
 Number of Electrons    NEL             ....   70
 Basis Dimension        Dim             ....  357

ORBITAL ENERGIES
----------------

  NO   OCC          E(Eh)            E(eV)
   0   2.0000     -20.558179      -559.4165
   1   2.0000     -15.554203      -423.2514
   2   2.0000     -11.282759      -307.0195
   3   2.0000     -11.272687      -306.7454
   4   2.0000     -11.261434      -306.4392
   5   2.0000     -11.248304      -306.0819
   6   2.0000     -11.243182      -305.9425
   7   2.0000     -11.224923      -305.4457
   8   2.0000     -11.214366      -305.1584
   9   2.0000      -1.381596       -37.5951
  10   2.0000      -1.286026       -34.9945
  11   2.0000      -1.057605       -28.7789
  12   2.0000      -0.993306       -27.0292
  13   2.0000      -0.953143       -25.9363
  14   2.0000      -0.932215       -25.3669
  15   2.0000      -0.850992       -23.1567
  16   2.0000      -0.778728       -21.1903
  17   2.0000      -0.730175       -19.8691
  18   2.0000      -0.680167       -18.5083
  19   2.0000      -0.670194       -18.2369
  20   2.0000      -0.647913       -17.6306
  21   2.0000      -0.613112       -16.6836
  22   2.0000      -0.602477       -16.3942
  23   2.0000      -0.589096       -16.0301
  24   2.0000      -0.581233       -15.8161
  25   2.0000      -0.557908       -15.1814
  26   2.0000      -0.545228       -14.8364
  27   2.0000      -0.537319       -14.6212
  28   2.0000      -0.510582       -13.8936
  29   2.0000      -0.486714       -13.2442
  30   2.0000      -0.455716       -12.4007
  31   2.0000      -0.439787       -11.9672
  32   2.0000      -0.422647       -11.5008
  33   2.0000      -0.388407       -10.5691
  34   2.0000      -0.367298        -9.9947
  35   0.0000       0.137850         3.7511
  36   0.0000       0.151067         4.1108
  37   0.0000       0.160649         4.3715
  38   0.0000       0.185569         5.0496
  39   0.0000       0.198732         5.4078

MULLIKEN ATOMIC CHARGES
-----------------------
   0 C :   -0.225021
   1 O :   -0.303251
   2 C :    0.032430
   3 C :   -0.266299
   4 C :    0.135082
   5 C :   -0.413694
   6 C :   -0.050421
   7 N :   -0.221222
   8 C :   -0.303339
   9 H :    0.113172
  10 H :    0.113739
  11 H :    0.142918
  12 H :    0.077746
  13 H :    0.126281
  14 H :    0.120328
  15 H :    0.128382
  16 H :    0.143602
  17 H :    0.126935
  18 H :    0.133474
  19 H :    0.108418
  20 H :    0.139662
  21 H :    0.141078
Sum of atomic charges:   -0.0000000

LOEWDIN ATOMIC CHARGES
----------------------
   0 C :   -0.356102
   1 O :    0.164281
   2 C :   -0.294685
   3 C :   -0.193422
   4 C :   -0.264984
   5 C :   -0.274261
   6 C :   -0.182596
   7 N :    0.141958
   8 C :   -0.323376
   9 H :    0.101559
  10 H :    0.102207
  11 H :    0.114016
  12 H :    0.123593
  13 H :    0.125146
  14 H :    0.144611
  15 H :    0.127935
  16 H :    0.134151
  17 H :    0.128293
  18 H :    0.135988
  19 H :    0.106198
  20 H :    0.119221
  21 H :    0.120271

  Mayer bond orders larger than 0.1
B(  0-C ,  1-O ) :   0.9089 B(  0-C ,  9-H ) :   0.9336 B(  0-C , 10-H ) :   0.9366
B(  0-C , 11-H ) :   0.9407 B(  1-O ,  2-C ) :   1.0048 B(  2-C ,  3-C ) :   0.9457
B(  2-C ,  6-C ) :   0.8531 B(  2-C , 12-H ) :   0.9500 B(  3-C ,  4-C ) :   0.9241
B(  3-C , 13-H ) :   0.9121 B(  3-C , 14-H ) :   0.9085 B(  4-C ,  5-C ) :   0.8628
B(  4-C ,  6-C ) :   0.8198 B(  4-C ,  7-N ) :   0.8941 B(  5-C , 15-H ) :   0.9413
B(  5-C , 16-H ) :   0.9449 B(  5-C , 17-H ) :   0.9345 B(  6-C ,  7-N ) :   0.9301
B(  6-C , 18-H ) :   0.9161 B(  7-N ,  8-C ) :   0.8811 B(  8-C , 19-H ) :   0.9188
B(  8-C , 20-H ) :   0.9396 B(  8-C , 21-H ) :   0.9385

MP2 TOTAL ENERGY:     -403.596905363 Eh
FINAL SINGLE POINT ENERGY      -403.596905363370

DIPOLE MOMENT
-------------
                                X             Y             Z
Electronic contribution:     -3.44052      -1.19341       0.09722
Nuclear contribution   :      3.92630       1.77850      -0.10179
                        -----------------------------------------
Total Dipole Moment    :      0.48578       0.58509      -0.00458
                        -----------------------------------------
Magnitude (a.u.)       :      0.76048
Magnitude (Debye)      :      1.93299

                             ****ORCA TERMINATED NORMALLY****
TOTAL RUN TIME: 0 days 0 hours 30 minutes 19 seconds 183 msec
