                         Program Version 3.0.3 - RELEASE   -
|  1> ! RI-MP2 RIJK def2-TZVP def2-TZVP/C def2-TZVP/JK TIGHTSCF
|  2> % maxcore 2000
|  3> % mp2 density relaxed end
|  4> *xyz 0 1
|  5>  C        0.0957982431     1.5583365001     0.2009544308
|  6>  O       -0.2880020585     0.2084734047     0.3262823160
|  7>  C        0.6168830282    -0.5848053486     1.0599006364
|  8>  C       -0.0244852502    -1.9510830582     1.3545102844
|  9>  C        1.1583714839    -2.8691993230     1.6972208909
| 10>  C        1.3910428881    -4.0912579528     0.7884395181
| 11>  O        2.3725829932    -3.3794808341     0.0047023460
| 12>  C        2.3737826313    -2.2685772953     0.9359057555
| 13>  C        1.9410675633    -0.9272008021     0.3285686600
| 14>  H        1.0193308926     1.6786620846    -0.3842925995
| 15>  H       -0.7143407393     2.0783189285    -0.3163206188
| 16>  H        0.2479462715     2.0303003065     1.1848909223
| 17>  H        0.8557178942    -0.0775247389     2.0118275944
| 18>  H       -0.7774079716    -1.8918496512     2.1437711116
| 19>  H       -0.5303919737    -2.2838519782     0.4410389406
| 20>  H        1.2730067383    -3.0391989553     2.7687115769
| 21>  H        1.8326143339    -4.9597820429     1.2949237267
| 22>  H        0.5395697734    -4.4255304558     0.1829513850
| 23>  H        3.3252438570    -2.2179601698     1.4777920134
| 24>  H        1.7337265679    -1.0705684739    -0.7366968879
| 25>  H        2.6996505232    -0.1471323344     0.4299905970
| 26> *
| 27>
| 28>                          ****END OF INPUT****

CARTESIAN COORDINATES (ANGSTROEM)
---------------------------------
  C      0.095798    1.558337    0.200954
  O     -0.288002    0.208473    0.326282
  C      0.616883   -0.584805    1.059901
  C     -0.024485   -1.951083    1.354510
  C      1.158371   -2.869199    1.697221
  C      1.391043   -4.091258    0.788440
  O      2.372583   -3.379481    0.004702
  C      2.373783   -2.268577    0.935906
  C      1.941068   -0.927201    0.328569
  H      1.019331    1.678662   -0.384293
  H     -0.714341    2.078319   -0.316321
  H      0.247946    2.030300    1.184891
  H      0.855718   -0.077525    2.011828
  H     -0.777408   -1.891850    2.143771
  H     -0.530392   -2.283852    0.441039
  H      1.273007   -3.039199    2.768712
  H      1.832614   -4.959782    1.294924
  H      0.539570   -4.425530    0.182951
  H      3.325244   -2.217960    1.477792
  H      1.733727   -1.070568   -0.736697
  H      2.699651   -0.147132    0.429991

 Total Charge           Charge          ....    0
 Multiplicity           Mult            ....    1
 Number of Electrons    NEL             ....   70
 Basis Dimension        Dim             ....  351

ORBITAL ENERGIES
----------------

  NO   OCC          E(Eh)            E(eV)
   0   2.0000     -20.555438      -559.3419
   1   2.0000     -20.543460      -559.0160
   2   2.0000     -11.281254      -306.9785
   3   2.0000     -11.279779      -306.9384
   4   2.0000     -11.275395      -306.8191
   5   2.0000     -11.271357      -306.7092
   6   2.0000     -11.231633      -305.6283
   7   2.0000     -11.221393      -305.3496
   8   2.0000     -11.218378      -305.2676
   9   2.0000      -1.378601       -37.5136
  10   2.0000      -1.372966       -37.3603
  11   2.0000      -1.105097       -30.0712
  12   2.0000      -1.000887       -27.2355
  13   2.0000      -0.964224       -26.2379
  14   2.0000      -0.903784       -24.5932
  15   2.0000      -0.885190       -24.0872
  16   2.0000      -0.790961       -21.5231
  17   2.0000      -0.735994       -20.0274
  18   2.0000      -0.700258       -19.0550
  19   2.0000      -0.674690       -18.3592
  20   2.0000      -0.651037       -17.7156
  21   2.0000      -0.627435       -17.0734
  22   2.0000      -0.626670       -17.0525
  23   2.0000      -0.597148       -16.2492
  24   2.0000      -0.585659       -15.9366
  25   2.0000      -0.566150       -15.4057
  26   2.0000      -0.530795       -14.4437
  27   2.0000      -0.507756       -13.8167
  28   2.0000      -0.499317       -13.5871
  29   2.0000      -0.491783       -13.3821
  30   2.0000      -0.461645       -12.5620
  31   2.0000      -0.446363       -12.1461
  32   2.0000      -0.438365       -11.9285
  33   2.0000      -0.427283       -11.6270
  34   2.0000      -0.400576       -10.9002
  35   0.0000       0.133499         3.6327
  36   0.0000       0.154296         4.1986
  37   0.0000       0.168349         4.5810
  38   0.0000       0.176242         4.7958
  39   0.0000       0.181205         4.9308

MULLIKEN ATOMIC CHARGES
-----------------------
   0 C :   -0.225761
   1 O :   -0.292239
   2 C :    0.051934
   3 C :   -0.203062
   4 C :   -0.119724
   5 C :   -0.038226
   6 O :   -0.336236
   7 C :    0.100478
   8 C :   -0.265335
   9 H :    0.117588
  10 H :    0.142196
  11 H :    0.109778
  12 H :    0.065149
  13 H :    0.126827
  14 H :    0.113361
  15 H :    0.121759
  16 H :    0.093511
  17 H :    0.097608
  18 H :    0.090296
  19 H :    0.119713
  20 H :    0.130387
Sum of atomic charges:    0.0000000

LOEWDIN ATOMIC CHARGES
----------------------
   0 C :   -0.356804
   1 O :    0.158308
   2 C :   -0.319491
   3 C :   -0.210677
   4 C :   -0.206066
   5 C :   -0.256999
   6 O :    0.127344
   7 C :   -0.240780
   8 C :   -0.222506
   9 H :    0.102299
  10 H :    0.113941
  11 H :    0.101503
  12 H :    0.133964
  13 H :    0.136644
  14 H :    0.148695
  15 H :    0.141167
  16 H :    0.116754
  17 H :    0.116842
  18 H :    0.129990
  19 H :    0.152488
  20 H :    0.133385

  Mayer bond orders larger than 0.1
B(  0-C ,  1-O ) :   0.9156 B(  0-C ,  9-H ) :   0.9359 B(  0-C , 10-H ) :   0.9413
B(  0-C , 11-H ) :   0.9334 B(  1-O ,  2-C ) :   1.0227 B(  2-C ,  3-C ) :   0.9062
B(  2-C ,  8-C ) :   0.9233 B(  2-C , 12-H ) :   0.9442 B(  3-C ,  4-C ) :   0.9216
B(  3-C , 13-H ) :   0.9292 B(  3-C , 14-H ) :   0.9112 B(  4-C ,  5-C ) :   0.9786
B(  4-C ,  7-C ) :   0.9268 B(  4-C , 15-H ) :   0.9217 B(  5-C ,  6-O ) :   0.9514
B(  5-C , 16-H ) :   0.9194 B(  5-C , 17-H ) :   0.9048 B(  6-O ,  7-C ) :   0.9901
B(  7-C ,  8-C ) :   0.9202 B(  7-C , 18-H ) :   0.9268 B(  8-C , 19-H ) :   0.8935
B(  8-C , 20-H ) :   0.9200

MP2 TOTAL ENERGY:     -423.500275127 Eh
FINAL SINGLE POINT ENERGY      -423.500275127437

DIPOLE MOMENT
-------------
                                X             Y             Z
Electronic contribution:      1.11600      -3.61974      -0.97426
Nuclear contribution   :     -1.12304       4.02944       1.72280
                        -----------------------------------------
Total Dipole Moment    :     -0.00704       0.40969       0.74854
                        -----------------------------------------
Magnitude (a.u.)       :      0.85335
Magnitude (Debye)      :      2.16905

                             ****ORCA TERMINATED NORMALLY****
TOTAL RUN TIME: 0 days 0 hours 28 minutes 1 seconds 669 msec
