                         Program Version 3.0.3 - RELEASE   -
|  1> ! RI-MP2 RIJK def2-TZVP def2-TZVP/C def2-TZVP/JK TIGHTSCF
|  2> % maxcore 2000
|  3> % mp2 density relaxed end
|  4> *xyz 0 1
|  5>  O       -0.0516239182     1.5608665280     0.1442987535
|  6>  C        0.0441630601     0.1654091998    -0.0269160392
|  7>  C       -1.3287368092    -0.5204560851     0.0038077949
|  8>  O       -1.9692103465    -0.1273551233     1.2291491816
|  9>  C       -2.0647569665    -1.0285141580     2.2313449200
| 10>  N       -2.5014039700    -0.6673582151     3.3566781799
| 11>  C       -2.2187903858    -0.1439250614    -1.1658510416
| 12>  C       -3.6973151731    -0.1853080115    -1.0552514608
| 13>  N       -2.9880562737     1.1005775545    -1.1784735469
| 14>  H       -0.4933075282     1.7075962164     0.9888236667
| 15>  H        0.5159015606    -0.0069666238    -1.0000698746
| 16>  H        0.6861077615    -0.2958752437     0.7414279307
| 17>  H       -1.1775538988    -1.6102370051    -0.0015623023
| 18>  H       -1.7424133462    -2.0374320408     1.9404754876
| 19>  H       -2.5313851692    -1.4610290454     3.9929089565
| 20>  H       -1.7607585665    -0.3886551269    -2.1232665803
| 21>  H       -4.2956809946    -0.4648985296    -1.9176005999
| 22>  H       -4.1266942146    -0.4455824497    -0.0924831480
| 23>  H       -2.9268046112     1.5405155607    -0.2639958078
| 24> *
| 25>
| 26>                          ****END OF INPUT****

CARTESIAN COORDINATES (ANGSTROEM)
---------------------------------
  O     -0.051624    1.560867    0.144299
  C      0.044163    0.165409   -0.026916
  C     -1.328737   -0.520456    0.003808
  O     -1.969210   -0.127355    1.229149
  C     -2.064757   -1.028514    2.231345
  N     -2.501404   -0.667358    3.356678
  C     -2.218790   -0.143925   -1.165851
  C     -3.697315   -0.185308   -1.055251
  N     -2.988056    1.100578   -1.178474
  H     -0.493308    1.707596    0.988824
  H      0.515902   -0.006967   -1.000070
  H      0.686108   -0.295875    0.741428
  H     -1.177554   -1.610237   -0.001562
  H     -1.742413   -2.037432    1.940475
  H     -2.531385   -1.461029    3.992909
  H     -1.760759   -0.388655   -2.123267
  H     -4.295681   -0.464899   -1.917601
  H     -4.126694   -0.445582   -0.092483
  H     -2.926805    1.540516   -0.263996

 Total Charge           Charge          ....    0
 Multiplicity           Mult            ....    1
 Number of Electrons    NEL             ....   70
 Basis Dimension        Dim             ....  339

ORBITAL ENERGIES
----------------

  NO   OCC          E(Eh)            E(eV)
   0   2.0000     -20.609233      -560.8057
   1   2.0000     -20.562640      -559.5379
   2   2.0000     -15.556568      -423.3157
   3   2.0000     -15.554785      -423.2672
   4   2.0000     -11.354726      -308.9778
   5   2.0000     -11.316422      -307.9355
   6   2.0000     -11.292062      -307.2726
   7   2.0000     -11.268510      -306.6318
   8   2.0000     -11.255574      -306.2797
   9   2.0000      -1.446898       -39.3721
  10   2.0000      -1.369723       -37.2721
  11   2.0000      -1.264385       -34.4057
  12   2.0000      -1.213359       -33.0172
  13   2.0000      -1.044022       -28.4093
  14   2.0000      -0.911937       -24.8151
  15   2.0000      -0.883651       -24.0454
  16   2.0000      -0.848930       -23.1006
  17   2.0000      -0.812510       -22.1095
  18   2.0000      -0.730690       -19.8831
  19   2.0000      -0.726232       -19.7618
  20   2.0000      -0.690271       -18.7832
  21   2.0000      -0.664532       -18.0828
  22   2.0000      -0.654760       -17.8169
  23   2.0000      -0.623995       -16.9798
  24   2.0000      -0.610263       -16.6061
  25   2.0000      -0.589539       -16.0422
  26   2.0000      -0.549447       -14.9512
  27   2.0000      -0.528175       -14.3724
  28   2.0000      -0.512455       -13.9446
  29   2.0000      -0.495167       -13.4742
  30   2.0000      -0.472973       -12.8703
  31   2.0000      -0.453610       -12.3434
  32   2.0000      -0.451871       -12.2960
  33   2.0000      -0.413221       -11.2443
  34   2.0000      -0.390390       -10.6231
  35   0.0000       0.125342         3.4107
  36   0.0000       0.140923         3.8347
  37   0.0000       0.143002         3.8913
  38   0.0000       0.156615         4.2617
  39   0.0000       0.169632         4.6159

MULLIKEN ATOMIC CHARGES
-----------------------
   0 O :   -0.466717
   1 C :    0.004981
   2 C :   -0.026971
   3 O :   -0.262907
   4 C :    0.061518
   5 N :   -0.338140
   6 C :   -0.015447
   7 C :   -0.183668
   8 N :   -0.355776
   9 H :    0.331303
  10 H :    0.115541
  11 H :    0.107815
  12 H :    0.094371
  13 H :    0.086748
  14 H :    0.230371
  15 H :    0.126417
  16 H :    0.123074
  17 H :    0.139433
  18 H :    0.228053
Sum of atomic charges:   -0.0000000

LOEWDIN ATOMIC CHARGES
----------------------
   0 O :   -0.027424
   1 C :   -0.330247
   2 C :   -0.307493
   3 O :    0.254505
   4 C :   -0.402559
   5 N :   -0.076388
   6 C :   -0.269704
   7 C :   -0.263348
   8 N :   -0.002630
   9 H :    0.179019
  10 H :    0.136189
  11 H :    0.120188
  12 H :    0.147025
  13 H :    0.108473
  14 H :    0.170626
  15 H :    0.148255
  16 H :    0.123922
  17 H :    0.124738
  18 H :    0.166853

  Mayer bond orders larger than 0.1
B(  0-O ,  1-C ) :   0.9416 B(  0-O ,  9-H ) :   0.8302 B(  1-C ,  2-C ) :   0.9424
B(  1-C , 10-H ) :   0.9246 B(  1-C , 11-H ) :   0.9192 B(  2-C ,  3-O ) :   0.8366
B(  2-C ,  6-C ) :   0.9477 B(  2-C , 12-H ) :   0.9249 B(  3-O ,  4-C ) :   1.0355
B(  4-C ,  5-N ) :   1.9740 B(  4-C , 13-H ) :   0.9230 B(  5-N , 14-H ) :   0.8484
B(  6-C ,  7-C ) :   0.9448 B(  6-C ,  8-N ) :   0.9518 B(  6-C , 15-H ) :   0.9043
B(  7-C ,  8-N ) :   0.9162 B(  7-C , 16-H ) :   0.9217 B(  7-C , 17-H ) :   0.9126
B(  8-N , 18-H ) :   0.8737

MP2 TOTAL ENERGY:     -455.567646146 Eh
FINAL SINGLE POINT ENERGY      -455.567646145783

DIPOLE MOMENT
-------------
                                X             Y             Z
Electronic contribution:     -0.10900       1.77130       2.04435
Nuclear contribution   :      0.45823      -3.58257      -1.79684
                        -----------------------------------------
Total Dipole Moment    :      0.34922      -1.81127       0.24751
                        -----------------------------------------
Magnitude (a.u.)       :      1.86116
Magnitude (Debye)      :      4.73070

                             ****ORCA TERMINATED NORMALLY****
TOTAL RUN TIME: 0 days 0 hours 16 minutes 6 seconds 778 msec
