                         Program Version 3.0.3 - RELEASE   -
|  1> ! RI-MP2 RIJK def2-TZVP def2-TZVP/C def2-TZVP/JK TIGHTSCF
|  2> % maxcore 2000
|  3> % mp2 density relaxed end
|  4> *xyz 0 1
|  5>  C       -0.0656988669     1.6719033941    -0.0083105165
|  6>  C        0.0320270670     0.1437709727    -0.0542961559
|  7>  C       -1.3550699759    -0.5372093233     0.0450515310
|  8>  C       -2.0391123451    -0.2771949860     1.3051136841
|  9>  C       -2.5831466853    -0.0527980305     2.3537797785
| 10>  C        0.7296779670    -0.3186789797    -1.3275082092
| 11>  C        2.2573953534    -0.1108591647    -1.4439945637
| 12>  C        2.3080761683    -1.6419075780    -1.6129539979
| 13>  O        0.8878385544    -1.7585223227    -1.3866334816
| 14>  H        0.9250754658     2.1365688241    -0.0387654614
| 15>  H       -0.6417350220     2.0548845746    -0.8592722761
| 16>  H       -0.5656855025     1.9972443882     0.9074372239
| 17>  H        0.6312277343    -0.2040930250     0.7970460874
| 18>  H       -1.9841443463    -0.1977455771    -0.7898365652
| 19>  H       -1.2189472517    -1.6163669799    -0.0871704790
| 20>  H       -3.0757606738     0.1349277808     3.2752919523
| 21>  H        0.1695087010     0.0394772091    -2.2057303867
| 22>  H        2.6021981663     0.4808669234    -2.2927368194
| 23>  H        2.7257042717     0.2629566450    -0.5307768484
| 24>  H        2.5892798218    -1.9889449501    -2.6153280601
| 25>  H        2.8890238786    -2.2001576251    -0.8698784862
| 26> *
| 27>
| 28>                          ****END OF INPUT****

CARTESIAN COORDINATES (ANGSTROEM)
---------------------------------
  C     -0.065699    1.671903   -0.008311
  C      0.032027    0.143771   -0.054296
  C     -1.355070   -0.537209    0.045052
  C     -2.039112   -0.277195    1.305114
  C     -2.583147   -0.052798    2.353780
  C      0.729678   -0.318679   -1.327508
  C      2.257395   -0.110859   -1.443995
  C      2.308076   -1.641908   -1.612954
  O      0.887839   -1.758522   -1.386633
  H      0.925075    2.136569   -0.038765
  H     -0.641735    2.054885   -0.859272
  H     -0.565686    1.997244    0.907437
  H      0.631228   -0.204093    0.797046
  H     -1.984144   -0.197746   -0.789837
  H     -1.218947   -1.616367   -0.087170
  H     -3.075761    0.134928    3.275292
  H      0.169509    0.039477   -2.205730
  H      2.602198    0.480867   -2.292737
  H      2.725704    0.262957   -0.530777
  H      2.589280   -1.988945   -2.615328
  H      2.889024   -2.200158   -0.869878

 Total Charge           Charge          ....    0
 Multiplicity           Mult            ....    1
 Number of Electrons    NEL             ....   68
 Basis Dimension        Dim             ....  351

ORBITAL ENERGIES
----------------

  NO   OCC          E(Eh)            E(eV)
   0   2.0000     -20.547754      -559.1328
   1   2.0000     -11.284850      -307.0764
   2   2.0000     -11.280784      -306.9657
   3   2.0000     -11.244497      -305.9783
   4   2.0000     -11.236933      -305.7725
   5   2.0000     -11.233135      -305.6691
   6   2.0000     -11.229018      -305.5571
   7   2.0000     -11.218290      -305.2652
   8   2.0000     -11.214284      -305.1562
   9   2.0000      -1.379082       -37.5267
  10   2.0000      -1.104051       -30.0428
  11   2.0000      -1.032082       -28.0844
  12   2.0000      -1.005502       -27.3611
  13   2.0000      -0.941188       -25.6110
  14   2.0000      -0.928593       -25.2683
  15   2.0000      -0.821031       -22.3414
  16   2.0000      -0.761607       -20.7244
  17   2.0000      -0.715108       -19.4591
  18   2.0000      -0.681029       -18.5317
  19   2.0000      -0.668633       -18.1944
  20   2.0000      -0.628265       -17.0960
  21   2.0000      -0.622372       -16.9356
  22   2.0000      -0.605140       -16.4667
  23   2.0000      -0.568628       -15.4732
  24   2.0000      -0.559813       -15.2333
  25   2.0000      -0.539129       -14.6704
  26   2.0000      -0.523966       -14.2578
  27   2.0000      -0.502602       -13.6765
  28   2.0000      -0.487571       -13.2675
  29   2.0000      -0.461411       -12.5556
  30   2.0000      -0.456937       -12.4339
  31   2.0000      -0.412224       -11.2172
  32   2.0000      -0.379755       -10.3336
  33   2.0000      -0.378041       -10.2870
  34   0.0000       0.136686         3.7194
  35   0.0000       0.149658         4.0724
  36   0.0000       0.161297         4.3891
  37   0.0000       0.166959         4.5432
  38   0.0000       0.172902         4.7049

MULLIKEN ATOMIC CHARGES
-----------------------
   0 C :   -0.421890
   1 C :   -0.048163
   2 C :   -0.384600
   3 C :   -0.006935
   4 C :   -0.143652
   5 C :    0.131024
   6 C :   -0.303571
   7 C :   -0.004588
   8 O :   -0.343314
   9 H :    0.132071
  10 H :    0.122680
  11 H :    0.158237
  12 H :    0.088474
  13 H :    0.133437
  14 H :    0.170442
  15 H :    0.187009
  16 H :    0.080465
  17 H :    0.131891
  18 H :    0.124128
  19 H :    0.095776
  20 H :    0.101078
Sum of atomic charges:   -0.0000000

LOEWDIN ATOMIC CHARGES
----------------------
   0 C :   -0.282541
   1 C :   -0.258673
   2 C :   -0.223399
   3 C :   -0.110590
   4 C :   -0.113382
   5 C :   -0.263562
   6 C :   -0.228317
   7 C :   -0.273312
   8 O :    0.129391
   9 H :    0.124285
  10 H :    0.125425
  11 H :    0.132749
  12 H :    0.159031
  13 H :    0.158398
  14 H :    0.166008
  15 H :    0.125174
  16 H :    0.137326
  17 H :    0.129779
  18 H :    0.134019
  19 H :    0.116287
  20 H :    0.115901

  Mayer bond orders larger than 0.1
B(  0-C ,  1-C ) :   0.9172 B(  0-C ,  9-H ) :   0.9363 B(  0-C , 10-H ) :   0.9278
B(  0-C , 11-H ) :   0.9351 B(  1-C ,  2-C ) :   0.9160 B(  1-C ,  5-C ) :   0.9475
B(  1-C , 12-H ) :   0.9073 B(  2-C ,  3-C ) :   1.1064 B(  2-C ,  4-C ) :  -0.1119
B(  2-C , 13-H ) :   0.9220 B(  2-C , 14-H ) :   0.9167 B(  3-C ,  4-C ) :   2.6120
B(  4-C , 15-H ) :   0.8978 B(  5-C ,  6-C ) :   0.8963 B(  5-C ,  8-O ) :   0.9182
B(  5-C , 16-H ) :   0.9015 B(  6-C ,  7-C ) :   0.9865 B(  6-C , 17-H ) :   0.9278
B(  6-C , 18-H ) :   0.9236 B(  7-C ,  8-O ) :   0.9425 B(  7-C , 19-H ) :   0.9185
B(  7-C , 20-H ) :   0.9172

MP2 TOTAL ENERGY:     -386.357513523 Eh
FINAL SINGLE POINT ENERGY      -386.357513523474

DIPOLE MOMENT
-------------
                                X             Y             Z
Electronic contribution:     -3.13321      -3.99502       1.46138
Nuclear contribution   :      3.77630       4.51404      -1.69202
                        -----------------------------------------
Total Dipole Moment    :      0.64309       0.51901      -0.23064
                        -----------------------------------------
Magnitude (a.u.)       :      0.85798
Magnitude (Debye)      :      2.18081

                             ****ORCA TERMINATED NORMALLY****
TOTAL RUN TIME: 0 days 0 hours 21 minutes 15 seconds 350 msec
