                         Program Version 3.0.3 - RELEASE   -
|  1> ! RI-MP2 RIJK def2-TZVP def2-TZVP/C def2-TZVP/JK TIGHTSCF
|  2> % maxcore 2000
|  3> % mp2 density relaxed end
|  4> *xyz 0 1
|  5>  O        0.0024957938    -0.0348153442     0.0028855672
|  6>  C       -0.0135125170     1.1460053332     0.0093742933
|  7>  O       -1.1162131588     1.9645379792     0.0279551639
|  8>  N       -0.6608489117     3.2764220761     0.0292293772
|  9>  N        0.5758330091     3.2932732442     0.0130647618
| 10>  O        1.0665936346     1.9942817915    -0.0000183935
| 11> *
| 12>
| 13>                          ****END OF INPUT****

CARTESIAN COORDINATES (ANGSTROEM)
---------------------------------
  O      0.002496   -0.034815    0.002886
  C     -0.013513    1.146005    0.009374
  O     -1.116213    1.964538    0.027955
  N     -0.660849    3.276422    0.029229
  N      0.575833    3.293273    0.013065
  O      1.066594    1.994282   -0.000018

 Total Charge           Charge          ....    0
 Multiplicity           Mult            ....    1
 Number of Electrons    NEL             ....   44
 Basis Dimension        Dim             ....  186

ORBITAL ENERGIES
----------------

  NO   OCC          E(Eh)            E(eV)
   0   2.0000     -20.720282      -563.8275
   1   2.0000     -20.720246      -563.8265
   2   2.0000     -20.604523      -560.6776
   3   2.0000     -15.769531      -429.1108
   4   2.0000     -15.768087      -429.0715
   5   2.0000     -11.492179      -312.7181
   6   2.0000      -1.661519       -45.2122
   7   2.0000      -1.488388       -40.5011
   8   2.0000      -1.474951       -40.1355
   9   2.0000      -1.340994       -36.4903
  10   2.0000      -0.991562       -26.9818
  11   2.0000      -0.947693       -25.7880
  12   2.0000      -0.794787       -21.6272
  13   2.0000      -0.794514       -21.6198
  14   2.0000      -0.714011       -19.4292
  15   2.0000      -0.681430       -18.5427
  16   2.0000      -0.642177       -17.4745
  17   2.0000      -0.628220       -17.0947
  18   2.0000      -0.614804       -16.7297
  19   2.0000      -0.601022       -16.3546
  20   2.0000      -0.512791       -13.9537
  21   2.0000      -0.493246       -13.4219
  22   0.0000       0.074745         2.0339
  23   0.0000       0.146988         3.9997
  24   0.0000       0.159426         4.3382
  25   0.0000       0.223519         6.0823
  26   0.0000       0.269159         7.3242

MULLIKEN ATOMIC CHARGES
-----------------------
   0 O :   -0.238242
   1 C :    0.358936
   2 O :   -0.113855
   3 N :    0.053508
   4 N :    0.053508
   5 O :   -0.113855
Sum of atomic charges:   -0.0000000

LOEWDIN ATOMIC CHARGES
----------------------
   0 O :    0.176396
   1 C :   -0.599006
   2 O :    0.223597
   3 N :   -0.012292
   4 N :   -0.012293
   5 O :    0.223598

  Mayer bond orders larger than 0.1
B(  0-O ,  1-C ) :   2.0551 B(  1-C ,  2-O ) :   1.0503 B(  1-C ,  5-O ) :   1.0503
B(  2-O ,  3-N ) :   0.8642 B(  3-N ,  4-N ) :   1.5695 B(  4-N ,  5-O ) :   0.8642

MP2 TOTAL ENERGY:     -372.617515193 Eh
FINAL SINGLE POINT ENERGY      -372.617515193075

DIPOLE MOMENT
-------------
                                X             Y             Z
Electronic contribution:     -0.00575       0.42445       0.00233
Nuclear contribution   :      0.00016      -0.01185      -0.00007
                        -----------------------------------------
Total Dipole Moment    :     -0.00559       0.41260       0.00226
                        -----------------------------------------
Magnitude (a.u.)       :      0.41264
Magnitude (Debye)      :      1.04886

                             ****ORCA TERMINATED NORMALLY****
TOTAL RUN TIME: 0 days 0 hours 2 minutes 33 seconds 390 msec
