                         Program Version 3.0.3 - RELEASE   -
|  1> ! RI-MP2 RIJK def2-TZVP def2-TZVP/C def2-TZVP/JK TIGHTSCF
|  2> % maxcore 2000
|  3> % mp2 density relaxed end
|  4> *xyz 0 1
|  5>  O       -0.3515792495     1.5071940231     0.6944574873
|  6>  C       -0.0011284902     0.1692241034     0.3850831558
|  7>  C       -1.0364463351    -0.6133471523    -0.4105403380
|  8>  C       -2.4431793957    -0.1446838676    -0.5521425415
|  9>  N       -1.5487047412    -0.1798524555    -1.7079815656
| 10>  C       -1.0903677803     1.0849616149    -2.2842786952
| 11>  C       -1.7090916874     1.3141472694    -3.6539396742
| 12>  C       -1.8725293458     0.2043302704    -4.6195693608
| 13>  N       -3.0544899946     0.8190446548    -3.9784168982
| 14>  H       -1.0584550169     1.4833956474     1.3470554818
| 15>  H        0.9314441854     0.2333809930    -0.1879659879
| 16>  H        0.2274008830    -0.4051095652     1.2960881304
| 17>  H       -0.8591399548    -1.6886404262    -0.3622322510
| 18>  H       -3.2669775788    -0.8542461875    -0.5552269043
| 19>  H       -2.6864312846     0.8352366611    -0.1450234398
| 20>  H       -1.2978034592     1.9412313941    -1.6287720426
| 21>  H        0.0004336008     1.0392650229    -2.4006239073
| 22>  H       -1.5090724371     2.3091468090    -4.0483627245
| 23>  H       -1.7794236434     0.3885316359    -5.6862115095
| 24>  H       -1.5788793605    -0.7866681934    -4.2869466937
| 25>  H       -3.3528304841     0.1969853082    -3.2295859212
| 26> *
| 27>
| 28>                          ****END OF INPUT****

CARTESIAN COORDINATES (ANGSTROEM)
---------------------------------
  O     -0.351579    1.507194    0.694457
  C     -0.001128    0.169224    0.385083
  C     -1.036446   -0.613347   -0.410540
  C     -2.443179   -0.144684   -0.552143
  N     -1.548705   -0.179852   -1.707982
  C     -1.090368    1.084962   -2.284279
  C     -1.709092    1.314147   -3.653940
  C     -1.872529    0.204330   -4.619569
  N     -3.054490    0.819045   -3.978417
  H     -1.058455    1.483396    1.347055
  H      0.931444    0.233381   -0.187966
  H      0.227401   -0.405110    1.296088
  H     -0.859140   -1.688640   -0.362232
  H     -3.266978   -0.854246   -0.555227
  H     -2.686431    0.835237   -0.145023
  H     -1.297803    1.941231   -1.628772
  H      0.000434    1.039265   -2.400624
  H     -1.509072    2.309147   -4.048363
  H     -1.779424    0.388532   -5.686212
  H     -1.578879   -0.786668   -4.286947
  H     -3.352830    0.196985   -3.229586

 Total Charge           Charge          ....    0
 Multiplicity           Mult            ....    1
 Number of Electrons    NEL             ....   70
 Basis Dimension        Dim             ....  351

ORBITAL ENERGIES
----------------

  NO   OCC          E(Eh)            E(eV)
   0   2.0000     -20.570343      -559.7475
   1   2.0000     -15.564527      -423.5323
   2   2.0000     -15.540710      -422.8842
   3   2.0000     -11.292751      -307.2914
   4   2.0000     -11.269881      -306.6691
   5   2.0000     -11.263108      -306.4848
   6   2.0000     -11.253407      -306.2208
   7   2.0000     -11.247219      -306.0524
   8   2.0000     -11.235845      -305.7429
   9   2.0000      -1.376980       -37.4695
  10   2.0000      -1.281957       -34.8838
  11   2.0000      -1.241102       -33.7721
  12   2.0000      -1.022463       -27.8226
  13   2.0000      -0.969120       -26.3711
  14   2.0000      -0.879316       -23.9274
  15   2.0000      -0.853626       -23.2284
  16   2.0000      -0.812173       -22.1004
  17   2.0000      -0.767667       -20.8893
  18   2.0000      -0.710989       -19.3470
  19   2.0000      -0.698346       -19.0030
  20   2.0000      -0.653148       -17.7731
  21   2.0000      -0.649029       -17.6610
  22   2.0000      -0.617272       -16.7968
  23   2.0000      -0.603565       -16.4238
  24   2.0000      -0.598460       -16.2849
  25   2.0000      -0.563043       -15.3212
  26   2.0000      -0.523807       -14.2535
  27   2.0000      -0.511165       -13.9095
  28   2.0000      -0.496253       -13.5037
  29   2.0000      -0.464783       -12.6474
  30   2.0000      -0.461369       -12.5545
  31   2.0000      -0.450249       -12.2519
  32   2.0000      -0.441997       -12.0273
  33   2.0000      -0.380031       -10.3412
  34   2.0000      -0.369702       -10.0601
  35   0.0000       0.127978         3.4825
  36   0.0000       0.150157         4.0860
  37   0.0000       0.158993         4.3264
  38   0.0000       0.164394         4.4734
  39   0.0000       0.186216         5.0672

MULLIKEN ATOMIC CHARGES
-----------------------
   0 O :   -0.472361
   1 C :   -0.035963
   2 C :   -0.096035
   3 C :   -0.225179
   4 N :   -0.235963
   5 C :   -0.132989
   6 C :   -0.014026
   7 C :   -0.179342
   8 N :   -0.381476
   9 H :    0.318595
  10 H :    0.119617
  11 H :    0.123118
  12 H :    0.119849
  13 H :    0.137730
  14 H :    0.126022
  15 H :    0.129501
  16 H :    0.108489
  17 H :    0.117143
  18 H :    0.118955
  19 H :    0.132018
  20 H :    0.222298
Sum of atomic charges:    0.0000000

LOEWDIN ATOMIC CHARGES
----------------------
   0 O :   -0.037270
   1 C :   -0.337196
   2 C :   -0.272874
   3 C :   -0.253490
   4 N :    0.110567
   5 C :   -0.275890
   6 C :   -0.288057
   7 C :   -0.272826
   8 N :   -0.022536
   9 H :    0.172339
  10 H :    0.135028
  11 H :    0.126076
  12 H :    0.145718
  13 H :    0.123815
  14 H :    0.123142
  15 H :    0.133613
  16 H :    0.140621
  17 H :    0.141125
  18 H :    0.120286
  19 H :    0.122903
  20 H :    0.164905

  Mayer bond orders larger than 0.1
B(  0-O ,  1-C ) :   0.9356 B(  0-O ,  9-H ) :   0.8424 B(  1-C ,  2-C ) :   0.9271
B(  1-C , 10-H ) :   0.9260 B(  1-C , 11-H ) :   0.9310 B(  2-C ,  3-C ) :   0.9414
B(  2-C ,  4-N ) :   0.9228 B(  2-C , 12-H ) :   0.9096 B(  3-C ,  4-N ) :   0.8537
B(  3-C , 13-H ) :   0.9227 B(  3-C , 14-H ) :   0.9218 B(  4-N ,  5-C ) :   0.8811
B(  5-C ,  6-C ) :   0.9287 B(  5-C , 15-H ) :   0.9201 B(  5-C , 16-H ) :   0.9167
B(  6-C ,  7-C ) :   0.9442 B(  6-C ,  8-N ) :   0.9533 B(  6-C , 17-H ) :   0.9200
B(  7-C ,  8-N ) :   0.9058 B(  7-C , 18-H ) :   0.9243 B(  7-C , 19-H ) :   0.9147
B(  8-N , 20-H ) :   0.8825

MP2 TOTAL ENERGY:     -419.628969120 Eh
FINAL SINGLE POINT ENERGY      -419.628969119864

DIPOLE MOMENT
-------------
                                X             Y             Z
Electronic contribution:     -0.57897       0.51082       0.27076
Nuclear contribution   :      0.97539      -1.02950       0.89381
                        -----------------------------------------
Total Dipole Moment    :      0.39642      -0.51867       1.16457
                        -----------------------------------------
Magnitude (a.u.)       :      1.33507
Magnitude (Debye)      :      3.39347

                             ****ORCA TERMINATED NORMALLY****
TOTAL RUN TIME: 0 days 0 hours 26 minutes 47 seconds 472 msec
