                         Program Version 3.0.3 - RELEASE   -
|  1> ! RI-MP2 RIJK def2-TZVP def2-TZVP/C def2-TZVP/JK TIGHTSCF
|  2> % maxcore 2000
|  3> % mp2 density relaxed end
|  4> *xyz 0 1
|  5>  C        0.1753197224     1.2851511031     0.1582453159
|  6>  O       -0.3099528553     0.0214924001    -0.2509648313
|  7>  C        0.4514896967    -0.5581007127    -1.2640938125
|  8>  C        1.7876306666    -1.3151867884    -0.8704103220
|  9>  C        0.8456310750    -2.3832905726    -0.2040658792
| 10>  C        0.1078449430    -2.0494323162    -1.5547055326
| 11>  C        1.5222983362    -2.1113827434    -2.1503941241
| 12>  O        2.1049826353    -2.5732811357    -3.0821088149
| 13>  H        1.1729151992     1.2117488692     0.6141565100
| 14>  H        0.2292126844     1.9878149041    -0.6866930101
| 15>  H       -0.5270015496     1.6740090127     0.8984812602
| 16>  H        0.5227746014     0.1127406912    -2.1307141140
| 17>  H        2.7193092912    -0.9038527011    -0.4896270910
| 18>  H        1.2412545167    -3.3925946681    -0.0875668857
| 19>  H        0.3246365551    -2.0299502796     0.6825170983
| 20>  H       -0.8301472083    -2.4519729026    -1.9284873172
| 21> *
| 22>
| 23>                          ****END OF INPUT****

CARTESIAN COORDINATES (ANGSTROEM)
---------------------------------
  C      0.175320    1.285151    0.158245
  O     -0.309953    0.021492   -0.250965
  C      0.451490   -0.558101   -1.264094
  C      1.787631   -1.315187   -0.870410
  C      0.845631   -2.383291   -0.204066
  C      0.107845   -2.049432   -1.554706
  C      1.522298   -2.111383   -2.150394
  O      2.104983   -2.573281   -3.082109
  H      1.172915    1.211749    0.614157
  H      0.229213    1.987815   -0.686693
  H     -0.527002    1.674009    0.898481
  H      0.522775    0.112741   -2.130714
  H      2.719309   -0.903853   -0.489627
  H      1.241255   -3.392595   -0.087567
  H      0.324637   -2.029950    0.682517
  H     -0.830147   -2.451973   -1.928487

 Total Charge           Charge          ....    0
 Multiplicity           Mult            ....    1
 Number of Electrons    NEL             ....   60
 Basis Dimension        Dim             ....  296

ORBITAL ENERGIES
----------------

  NO   OCC          E(Eh)            E(eV)
   0   2.0000     -20.575801      -559.8960
   1   2.0000     -20.552355      -559.2580
   2   2.0000     -11.342585      -308.6474
   3   2.0000     -11.314989      -307.8965
   4   2.0000     -11.286136      -307.1114
   5   2.0000     -11.262647      -306.4722
   6   2.0000     -11.262090      -306.4570
   7   2.0000     -11.256436      -306.3032
   8   2.0000      -1.405403       -38.2430
   9   2.0000      -1.397087       -38.0167
  10   2.0000      -1.220716       -33.2174
  11   2.0000      -0.965570       -26.2745
  12   2.0000      -0.911686       -24.8082
  13   2.0000      -0.894909       -24.3517
  14   2.0000      -0.829887       -22.5824
  15   2.0000      -0.726544       -19.7703
  16   2.0000      -0.705185       -19.1891
  17   2.0000      -0.678751       -18.4698
  18   2.0000      -0.656375       -17.8609
  19   2.0000      -0.649403       -17.6712
  20   2.0000      -0.609358       -16.5815
  21   2.0000      -0.603049       -16.4098
  22   2.0000      -0.560673       -15.2567
  23   2.0000      -0.523845       -14.2546
  24   2.0000      -0.506803       -13.7908
  25   2.0000      -0.495671       -13.4879
  26   2.0000      -0.480149       -13.0655
  27   2.0000      -0.465976       -12.6798
  28   2.0000      -0.432035       -11.7563
  29   2.0000      -0.390677       -10.6309
  30   0.0000       0.135588         3.6895
  31   0.0000       0.147747         4.0204
  32   0.0000       0.164830         4.4853
  33   0.0000       0.172969         4.7067
  34   0.0000       0.186495         5.0748

MULLIKEN ATOMIC CHARGES
-----------------------
   0 C :   -0.211525
   1 O :   -0.315111
   2 C :    0.033627
   3 C :   -0.113222
   4 C :   -0.253283
   5 C :   -0.079192
   6 C :    0.104454
   7 O :   -0.254445
   8 H :    0.117952
   9 H :    0.118151
  10 H :    0.146228
  11 H :    0.109586
  12 H :    0.156582
  13 H :    0.134046
  14 H :    0.149791
  15 H :    0.156362
Sum of atomic charges:    0.0000000

LOEWDIN ATOMIC CHARGES
----------------------
   0 C :   -0.343991
   1 O :    0.169979
   2 C :   -0.266716
   3 C :   -0.134401
   4 C :   -0.175365
   5 C :   -0.122851
   6 C :   -0.288918
   7 O :    0.163049
   8 H :    0.104245
   9 H :    0.105564
  10 H :    0.115873
  11 H :    0.136535
  12 H :    0.130066
  13 H :    0.132943
  14 H :    0.140522
  15 H :    0.133466

  Mayer bond orders larger than 0.1
B(  0-C ,  1-O ) :   0.8940 B(  0-C ,  8-H ) :   0.9326 B(  0-C ,  9-H ) :   0.9348
B(  0-C , 10-H ) :   0.9400 B(  1-O ,  2-C ) :   0.9781 B(  2-C ,  3-C ) :   0.8909
B(  2-C ,  5-C ) :   0.8825 B(  2-C , 11-H ) :   0.9409 B(  3-C ,  4-C ) :   0.8953
B(  3-C ,  6-C ) :   0.8285 B(  3-C , 12-H ) :   0.8775 B(  4-C ,  5-C ) :   0.9013
B(  4-C , 13-H ) :   0.9286 B(  4-C , 14-H ) :   0.9138 B(  5-C ,  6-C ) :   0.8402
B(  5-C , 15-H ) :   0.8785 B(  6-C ,  7-O ) :   2.0599

MP2 TOTAL ENERGY:     -383.050887097 Eh
FINAL SINGLE POINT ENERGY      -383.050887097040

DIPOLE MOMENT
-------------
                                X             Y             Z
Electronic contribution:      1.39097      -4.40341      -4.69646
Nuclear contribution   :     -1.62622       5.16172       5.56187
                        -----------------------------------------
Total Dipole Moment    :     -0.23525       0.75830       0.86541
                        -----------------------------------------
Magnitude (a.u.)       :      1.17444
Magnitude (Debye)      :      2.98518

                             ****ORCA TERMINATED NORMALLY****
TOTAL RUN TIME: 0 days 0 hours 11 minutes 23 seconds 186 msec
