                         Program Version 3.0.3 - RELEASE   -
|  1> ! RI-MP2 RIJK def2-TZVP def2-TZVP/C def2-TZVP/JK TIGHTSCF
|  2> % maxcore 2000
|  3> % mp2 density relaxed end
|  4> *xyz 0 1
|  5>  N       -0.0986352549     1.2960952654     0.0882701947
|  6>  C       -0.0073347957     0.0275133417     0.0317420576
|  7>  N        1.0859931300    -0.8010284805    -0.1011334267
|  8>  C        0.8271640959    -2.2300682329     0.0281393459
|  9>  C       -0.6950320354    -2.3044973444     0.0110976778
| 10>  C       -1.4629979852    -3.3322778513    -0.7511079415
| 11>  N       -1.4512055699    -3.3560140341     0.7113535797
| 12>  C       -1.2183335568    -0.8926769262     0.0931077886
| 13>  O       -2.3696985482    -0.5622168834     0.1634071361
| 14>  H        0.8195215220     1.7449068619     0.0444070285
| 15>  H        2.0235326824    -0.4390020138    -0.0385186572
| 16>  H        1.2865686886    -2.7915488369    -0.7940767326
| 17>  H        1.2276819901    -2.6281250292     0.9726881571
| 18>  H       -2.4123217710    -3.0375463167    -1.1890971854
| 19>  H       -0.8955773092    -4.0774020424    -1.3033207538
| 20>  H       -0.8000479825    -4.0661445071     1.0423626614
| 21> *
| 22>
| 23>                          ****END OF INPUT****

CARTESIAN COORDINATES (ANGSTROEM)
---------------------------------
  N     -0.098635    1.296095    0.088270
  C     -0.007335    0.027513    0.031742
  N      1.085993   -0.801028   -0.101133
  C      0.827164   -2.230068    0.028139
  C     -0.695032   -2.304497    0.011098
  C     -1.462998   -3.332278   -0.751108
  N     -1.451206   -3.356014    0.711354
  C     -1.218334   -0.892677    0.093108
  O     -2.369699   -0.562217    0.163407
  H      0.819522    1.744907    0.044407
  H      2.023533   -0.439002   -0.038519
  H      1.286569   -2.791549   -0.794077
  H      1.227682   -2.628125    0.972688
  H     -2.412322   -3.037546   -1.189097
  H     -0.895577   -4.077402   -1.303321
  H     -0.800048   -4.066145    1.042363

 Total Charge           Charge          ....    0
 Multiplicity           Mult            ....    1
 Number of Electrons    NEL             ....   66
 Basis Dimension        Dim             ....  321

ORBITAL ENERGIES
----------------

  NO   OCC          E(Eh)            E(eV)
   0   2.0000     -20.560866      -559.4896
   1   2.0000     -15.601520      -424.5389
   2   2.0000     -15.588716      -424.1905
   3   2.0000     -15.540207      -422.8705
   4   2.0000     -11.340463      -308.5897
   5   2.0000     -11.327524      -308.2376
   6   2.0000     -11.301964      -307.5421
   7   2.0000     -11.293772      -307.3191
   8   2.0000     -11.284023      -307.0539
   9   2.0000      -1.404529       -38.2192
  10   2.0000      -1.307547       -35.5802
  11   2.0000      -1.281971       -34.8842
  12   2.0000      -1.176894       -32.0249
  13   2.0000      -1.010106       -27.4864
  14   2.0000      -0.961092       -26.1526
  15   2.0000      -0.907720       -24.7003
  16   2.0000      -0.823203       -22.4005
  17   2.0000      -0.750477       -20.4215
  18   2.0000      -0.722488       -19.6599
  19   2.0000      -0.693245       -18.8642
  20   2.0000      -0.669451       -18.2167
  21   2.0000      -0.657772       -17.8989
  22   2.0000      -0.648368       -17.6430
  23   2.0000      -0.615319       -16.7437
  24   2.0000      -0.572948       -15.5907
  25   2.0000      -0.561631       -15.2828
  26   2.0000      -0.523085       -14.2339
  27   2.0000      -0.509578       -13.8663
  28   2.0000      -0.479677       -13.0527
  29   2.0000      -0.457139       -12.4394
  30   2.0000      -0.426212       -11.5978
  31   2.0000      -0.397839       -10.8257
  32   2.0000      -0.369798       -10.0627
  33   0.0000       0.082078         2.2335
  34   0.0000       0.113227         3.0811
  35   0.0000       0.125069         3.4033
  36   0.0000       0.158999         4.3266
  37   0.0000       0.165174         4.4946

MULLIKEN ATOMIC CHARGES
-----------------------
   0 N :   -0.320543
   1 C :   -0.040581
   2 N :   -0.318182
   3 C :   -0.068890
   4 C :    0.111956
   5 C :   -0.203016
   6 N :   -0.374320
   7 C :    0.263783
   8 O :   -0.242711
   9 H :    0.199314
  10 H :    0.234047
  11 H :    0.127696
  12 H :    0.123232
  13 H :    0.150079
  14 H :    0.135777
  15 H :    0.222359
Sum of atomic charges:    0.0000000

LOEWDIN ATOMIC CHARGES
----------------------
   0 N :   -0.052008
   1 C :   -0.364855
   2 N :    0.105123
   3 C :   -0.230089
   4 C :   -0.264750
   5 C :   -0.221385
   6 N :    0.033351
   7 C :   -0.250037
   8 O :    0.208164
   9 H :    0.157773
  10 H :    0.178967
  11 H :    0.133987
  12 H :    0.132383
  13 H :    0.137637
  14 H :    0.124749
  15 H :    0.170989

  Mayer bond orders larger than 0.1
B(  0-N ,  1-C ) :   2.1134 B(  0-N ,  9-H ) :   0.8565 B(  1-C ,  2-N ) :   1.1206
B(  1-C ,  7-C ) :   0.8764 B(  2-N ,  3-C ) :   0.8855 B(  2-N , 10-H ) :   0.8704
B(  3-C ,  4-C ) :   0.9295 B(  3-C , 11-H ) :   0.9245 B(  3-C , 12-H ) :   0.9170
B(  4-C ,  5-C ) :   0.8813 B(  4-C ,  6-N ) :   0.8517 B(  4-C ,  7-C ) :   0.9132
B(  5-C ,  6-N ) :   0.9781 B(  5-C , 13-H ) :   0.9101 B(  5-C , 14-H ) :   0.9218
B(  6-N , 15-H ) :   0.8629 B(  7-C ,  8-O ) :   2.0492

MP2 TOTAL ENERGY:     -433.331016045 Eh
FINAL SINGLE POINT ENERGY      -433.331016044749

DIPOLE MOMENT
-------------
                                X             Y             Z
Electronic contribution:     -2.72437       3.88817       0.96426
Nuclear contribution   :      5.02923      -5.44218      -1.39577
                        -----------------------------------------
Total Dipole Moment    :      2.30486      -1.55401      -0.43150
                        -----------------------------------------
Magnitude (a.u.)       :      2.81310
Magnitude (Debye)      :      7.15033

                             ****ORCA TERMINATED NORMALLY****
TOTAL RUN TIME: 0 days 0 hours 15 minutes 57 seconds 662 msec
