                         Program Version 3.0.3 - RELEASE   -
|  1> ! RI-MP2 RIJK def2-TZVP def2-TZVP/C def2-TZVP/JK TIGHTSCF
|  2> % maxcore 2000
|  3> % mp2 density relaxed end
|  4> *xyz 0 1
|  5>  O        0.0048785164     0.1001803665    -0.7595445198
|  6>  C        0.0443225552     1.1537177290    -0.2185823131
|  7>  O       -0.9731384416     1.8219196314     0.4316992616
|  8>  C       -0.1392582442     3.0098868215     0.7068550726
|  9>  C       -0.0663371841     3.3509326526     2.1082611238
| 10>  C        0.0221620980     3.6520959750     3.2678179447
| 11>  C        1.0462611851     2.2574373976     0.0716018878
| 12>  C        2.4622167301     2.1897672136     0.4259388093
| 13>  O        2.0033041592     2.7785405107    -0.8014665980
| 14>  H       -0.4885607185     3.8473654422     0.0966650416
| 15>  H        0.0877322107     3.9170025808     4.2948889586
| 16>  H        2.8474974071     2.8886120880     1.1651118055
| 17>  H        2.9916386167     1.2459348011     0.3191294453
| 18> *
| 19>
| 20>                          ****END OF INPUT****

CARTESIAN COORDINATES (ANGSTROEM)
---------------------------------
  O      0.004879    0.100180   -0.759545
  C      0.044323    1.153718   -0.218582
  O     -0.973138    1.821920    0.431699
  C     -0.139258    3.009887    0.706855
  C     -0.066337    3.350933    2.108261
  C      0.022162    3.652096    3.267818
  C      1.046261    2.257437    0.071602
  C      2.462217    2.189767    0.425939
  O      2.003304    2.778541   -0.801467
  H     -0.488561    3.847365    0.096665
  H      0.087732    3.917003    4.294889
  H      2.847497    2.888612    1.165112
  H      2.991639    1.245935    0.319129

 Total Charge           Charge          ....    0
 Multiplicity           Mult            ....    1
 Number of Electrons    NEL             ....   64
 Basis Dimension        Dim             ....  303

ORBITAL ENERGIES
----------------

  NO   OCC          E(Eh)            E(eV)
   0   2.0000     -20.624869      -561.2312
   1   2.0000     -20.619276      -561.0790
   2   2.0000     -20.573829      -559.8423
   3   2.0000     -11.402947      -310.2900
   4   2.0000     -11.356527      -309.0268
   5   2.0000     -11.345476      -308.7261
   6   2.0000     -11.326828      -308.2187
   7   2.0000     -11.266715      -306.5829
   8   2.0000     -11.262726      -306.4743
   9   2.0000      -1.490127       -40.5484
  10   2.0000      -1.458938       -39.6997
  11   2.0000      -1.401112       -38.1262
  12   2.0000      -1.094476       -29.7822
  13   2.0000      -1.025627       -27.9087
  14   2.0000      -0.961697       -26.1691
  15   2.0000      -0.935705       -25.4618
  16   2.0000      -0.778109       -21.1734
  17   2.0000      -0.764438       -20.8014
  18   2.0000      -0.749463       -20.3939
  19   2.0000      -0.723118       -19.6770
  20   2.0000      -0.717025       -19.5112
  21   2.0000      -0.675753       -18.3882
  22   2.0000      -0.634131       -17.2556
  23   2.0000      -0.608013       -16.5449
  24   2.0000      -0.592274       -16.1166
  25   2.0000      -0.563966       -15.3463
  26   2.0000      -0.515576       -14.0295
  27   2.0000      -0.501690       -13.6517
  28   2.0000      -0.482384       -13.1263
  29   2.0000      -0.462599       -12.5880
  30   2.0000      -0.429310       -11.6821
  31   2.0000      -0.416269       -11.3273
  32   0.0000       0.123938         3.3725
  33   0.0000       0.126913         3.4535
  34   0.0000       0.139305         3.7907
  35   0.0000       0.147647         4.0177
  36   0.0000       0.156587         4.2610

MULLIKEN ATOMIC CHARGES
-----------------------
   0 O :   -0.238750
   1 C :    0.275438
   2 O :   -0.226485
   3 C :    0.013980
   4 C :   -0.065496
   5 C :   -0.085599
   6 C :    0.031384
   7 C :   -0.051787
   8 O :   -0.299482
   9 H :    0.150180
  10 H :    0.205512
  11 H :    0.142823
  12 H :    0.148281
Sum of atomic charges:   -0.0000000

LOEWDIN ATOMIC CHARGES
----------------------
   0 O :    0.180574
   1 C :   -0.417344
   2 O :    0.265595
   3 C :   -0.193695
   4 C :   -0.083882
   5 C :   -0.054116
   6 C :   -0.273985
   7 C :   -0.198728
   8 O :    0.210972
   9 H :    0.165899
  10 H :    0.133017
  11 H :    0.132287
  12 H :    0.133407

  Mayer bond orders larger than 0.1
B(  0-O ,  1-C ) :   2.0647 B(  1-C ,  2-O ) :   1.0810 B(  1-C ,  6-C ) :   0.8896
B(  2-O ,  3-C ) :   0.9353 B(  3-C ,  4-C ) :   1.1464 B(  3-C ,  6-C ) :   0.9036
B(  3-C ,  9-H ) :   0.9214 B(  4-C ,  5-C ) :   2.5799 B(  5-C , 10-H ) :   0.8878
B(  6-C ,  7-C ) :   0.9421 B(  6-C ,  8-O ) :   0.9308 B(  7-C ,  8-O ) :   0.8872
B(  7-C , 11-H ) :   0.9112 B(  7-C , 12-H ) :   0.9101

MP2 TOTAL ENERGY:     -455.765501461 Eh
FINAL SINGLE POINT ENERGY      -455.765501460982

DIPOLE MOMENT
-------------
                                X             Y             Z
Electronic contribution:     -2.48577      -1.84034      -2.41678
Nuclear contribution   :      3.20468       2.82635       3.52936
                        -----------------------------------------
Total Dipole Moment    :      0.71891       0.98602       1.11258
                        -----------------------------------------
Magnitude (a.u.)       :      1.65133
Magnitude (Debye)      :      4.19734

                             ****ORCA TERMINATED NORMALLY****
TOTAL RUN TIME: 0 days 0 hours 13 minutes 25 seconds 995 msec
