                         Program Version 3.0.3 - RELEASE   -
|  1> ! RI-MP2 RIJK def2-TZVP def2-TZVP/C def2-TZVP/JK TIGHTSCF
|  2> % maxcore 2000
|  3> % mp2 density relaxed end
|  4> *xyz 0 1
|  5>  C       -0.8353124015     1.7776966206     0.5250845014
|  6>  C       -0.4191954496     0.3419534316     0.2022014135
|  7>  O        0.5549866846    -0.1201844720     1.1339286538
|  8>  C       -1.6540270569    -0.5865548919     0.0685494449
|  9>  O       -2.4896694661    -0.0436869998    -0.9575846894
| 10>  C       -1.3870874325    -2.1101538347    -0.1528614177
| 11>  C       -0.8472711632    -2.7708272430     1.1313537639
| 12>  C       -2.7306955737    -2.7833719543    -0.5020333862
| 13>  C       -0.3874322365    -2.3383918232    -1.3024974192
| 14>  H        0.0441473118     2.4265384181     0.5536858106
| 15>  H       -1.5437863915     2.1560188574    -0.2136276063
| 16>  H       -1.3249716970     1.8207017447     1.5070878945
| 17>  H        0.1058926613     0.3339934624    -0.7621763559
| 18>  H        0.1894164460    -0.0108610106     2.0188585977
| 19>  H       -2.2571477759    -0.4900522678     0.9830866578
| 20>  H       -2.0127414603    -0.1156746126    -1.7920849608
| 21>  H       -1.5210540814    -2.5894572338     1.9775748427
| 22>  H       -0.7855990838    -3.8561491806     0.9938340326
| 23>  H        0.1429038340    -2.3986036998     1.3926336141
| 24>  H       -3.1610952851    -2.3819103869    -1.4213011930
| 25>  H       -2.5888064600    -3.8622467819    -0.6257838405
| 26>  H       -3.4647808136    -2.6320607300     0.2973124599
| 27>  H        0.6066077709    -1.9552412577    -1.0556407548
| 28>  H       -0.2885096983    -3.4085745292    -1.5120166468
| 29>  H       -0.7162866320    -1.8648817150    -2.2365523666
| 30> *
| 31>
| 32>                          ****END OF INPUT****

CARTESIAN COORDINATES (ANGSTROEM)
---------------------------------
  C     -0.835312    1.777697    0.525085
  C     -0.419195    0.341953    0.202201
  O      0.554987   -0.120184    1.133929
  C     -1.654027   -0.586555    0.068549
  O     -2.489669   -0.043687   -0.957585
  C     -1.387087   -2.110154   -0.152861
  C     -0.847271   -2.770827    1.131354
  C     -2.730696   -2.783372   -0.502033
  C     -0.387432   -2.338392   -1.302497
  H      0.044147    2.426538    0.553686
  H     -1.543786    2.156019   -0.213628
  H     -1.324972    1.820702    1.507088
  H      0.105893    0.333993   -0.762176
  H      0.189416   -0.010861    2.018859
  H     -2.257148   -0.490052    0.983087
  H     -2.012741   -0.115675   -1.792085
  H     -1.521054   -2.589457    1.977575
  H     -0.785599   -3.856149    0.993834
  H      0.142904   -2.398604    1.392634
  H     -3.161095   -2.381910   -1.421301
  H     -2.588806   -3.862247   -0.625784
  H     -3.464781   -2.632061    0.297312
  H      0.606608   -1.955241   -1.055641
  H     -0.288510   -3.408575   -1.512017
  H     -0.716287   -1.864882   -2.236552

 Total Charge           Charge          ....    0
 Multiplicity           Mult            ....    1
 Number of Electrons    NEL             ....   74
 Basis Dimension        Dim             ....  375

ORBITAL ENERGIES
----------------

  NO   OCC          E(Eh)            E(eV)
   0   2.0000     -20.558205      -559.4172
   1   2.0000     -20.556030      -559.3580
   2   2.0000     -11.282503      -307.0125
   3   2.0000     -11.279193      -306.9225
   4   2.0000     -11.236680      -305.7656
   5   2.0000     -11.214844      -305.1714
   6   2.0000     -11.214793      -305.1700
   7   2.0000     -11.206365      -304.9407
   8   2.0000     -11.205554      -304.9186
   9   2.0000      -1.371125       -37.3102
  10   2.0000      -1.357334       -36.9349
  11   2.0000      -1.096269       -29.8310
  12   2.0000      -1.024002       -27.8645
  13   2.0000      -0.933697       -25.4072
  14   2.0000      -0.925040       -25.1716
  15   2.0000      -0.918014       -24.9804
  16   2.0000      -0.828391       -22.5417
  17   2.0000      -0.752281       -20.4706
  18   2.0000      -0.688791       -18.7430
  19   2.0000      -0.657014       -17.8783
  20   2.0000      -0.651398       -17.7254
  21   2.0000      -0.626273       -17.0418
  22   2.0000      -0.604522       -16.4499
  23   2.0000      -0.592315       -16.1177
  24   2.0000      -0.572476       -15.5779
  25   2.0000      -0.556682       -15.1481
  26   2.0000      -0.543373       -14.7859
  27   2.0000      -0.535376       -14.5683
  28   2.0000      -0.529603       -14.4112
  29   2.0000      -0.517923       -14.0934
  30   2.0000      -0.513530       -13.9739
  31   2.0000      -0.503943       -13.7130
  32   2.0000      -0.479124       -13.0376
  33   2.0000      -0.469785       -12.7835
  34   2.0000      -0.458948       -12.4886
  35   2.0000      -0.442004       -12.0275
  36   2.0000      -0.405906       -11.0453
  37   0.0000       0.127314         3.4644
  38   0.0000       0.137964         3.7542
  39   0.0000       0.158379         4.3097
  40   0.0000       0.177165         4.8209
  41   0.0000       0.185126         5.0375

MULLIKEN ATOMIC CHARGES
-----------------------
   0 C :   -0.378410
   1 C :    0.062948
   2 O :   -0.475510
   3 C :   -0.000201
   4 O :   -0.463557
   5 C :    0.149259
   6 C :   -0.481192
   7 C :   -0.354795
   8 C :   -0.462848
   9 H :    0.145956
  10 H :    0.143203
  11 H :    0.110794
  12 H :    0.091657
  13 H :    0.316738
  14 H :    0.088115
  15 H :    0.312407
  16 H :    0.124724
  17 H :    0.126621
  18 H :    0.163226
  19 H :    0.125253
  20 H :    0.126485
  21 H :    0.123088
  22 H :    0.160330
  23 H :    0.137995
  24 H :    0.107713
Sum of atomic charges:    0.0000000

LOEWDIN ATOMIC CHARGES
----------------------
   0 C :   -0.304068
   1 C :   -0.363435
   2 O :   -0.014749
   3 C :   -0.288909
   4 O :   -0.005535
   5 C :   -0.333088
   6 C :   -0.279311
   7 C :   -0.272440
   8 C :   -0.275461
   9 H :    0.124936
  10 H :    0.129880
  11 H :    0.120883
  12 H :    0.143815
  13 H :    0.174811
  14 H :    0.148160
  15 H :    0.172057
  16 H :    0.122567
  17 H :    0.125351
  18 H :    0.126058
  19 H :    0.122835
  20 H :    0.123171
  21 H :    0.126082
  22 H :    0.130090
  23 H :    0.129101
  24 H :    0.117198

  Mayer bond orders larger than 0.1
B(  0-C ,  1-C ) :   0.9507 B(  0-C ,  9-H ) :   0.9438 B(  0-C , 10-H ) :   0.9301
B(  0-C , 11-H ) :   0.9188 B(  1-C ,  2-O ) :   0.9101 B(  1-C ,  3-C ) :   0.9394
B(  1-C , 12-H ) :   0.9090 B(  2-O , 13-H ) :   0.8391 B(  3-C ,  4-O ) :   0.8882
B(  3-C ,  5-C ) :   0.8844 B(  3-C , 14-H ) :   0.9048 B(  4-O , 15-H ) :   0.8386
B(  5-C ,  6-C ) :   0.8744 B(  5-C ,  7-C ) :   0.9414 B(  5-C ,  8-C ) :   0.8704
B(  6-C , 16-H ) :   0.9374 B(  6-C , 17-H ) :   0.9313 B(  6-C , 18-H ) :   0.9337
B(  7-C , 19-H ) :   0.9248 B(  7-C , 20-H ) :   0.9361 B(  7-C , 21-H ) :   0.9319
B(  8-C , 22-H ) :   0.9384 B(  8-C , 23-H ) :   0.9336 B(  8-C , 24-H ) :   0.9325

MP2 TOTAL ENERGY:     -425.938436881 Eh
FINAL SINGLE POINT ENERGY      -425.938436880976

DIPOLE MOMENT
-------------
                                X             Y             Z
Electronic contribution:      0.55907       3.65485       0.23403
Nuclear contribution   :     -0.51596      -3.63592      -0.19072
                        -----------------------------------------
Total Dipole Moment    :      0.04311       0.01894       0.04331
                        -----------------------------------------
Magnitude (a.u.)       :      0.06397
Magnitude (Debye)      :      0.16261

                             ****ORCA TERMINATED NORMALLY****
TOTAL RUN TIME: 0 days 0 hours 24 minutes 15 seconds 877 msec
