                         Program Version 3.0.3 - RELEASE   -
|  1> ! RI-MP2 RIJK def2-TZVP def2-TZVP/C def2-TZVP/JK TIGHTSCF
|  2> % maxcore 2000
|  3> % mp2 density relaxed end
|  4> *xyz 0 1
|  5>  C       -0.1835834945     1.5934136670    -0.0523932476
|  6>  C       -0.2475563096     0.0894485546    -0.2228303924
|  7>  C       -0.2010941919    -0.8193010156     0.9813726645
|  8>  C       -1.4777923053    -0.6772507328     0.1871859349
|  9>  C        1.2420627377     2.1261900921     0.0603852967
| 10>  C        2.1800377321     2.0748808764    -1.2095047493
| 11>  C        2.3107427227     3.5996642227    -1.1144862234
| 12>  O        0.9881786762     4.1429376652    -1.2147235939
| 13>  C        1.4271068526     3.6555230295     0.0599169451
| 14>  H       -0.6760909117     2.0914616467    -0.8958413199
| 15>  H       -0.7450696550     1.8758864391     0.8491385387
| 16>  H        0.2622332525    -0.2816325920    -1.1089643122
| 17>  H        0.3484362191    -1.7516935079     0.9121659932
| 18>  H       -0.1644730886    -0.3566312592     1.9628521260
| 19>  H       -2.2935678079    -0.1200377010     0.6366174770
| 20>  H       -1.7983670649    -1.5118406404    -0.4266228690
| 21>  H        1.7534697535     1.6765087702     0.9179021486
| 22>  H        3.1138417437     1.5396291960    -1.0232196921
| 23>  H        1.7305853215     1.7138327418    -2.1384481997
| 24>  H        3.1310396344     4.2412159263    -1.4149210751
| 25>  H        1.3886953133     4.3509857113     0.8913091298
| 26> *
| 27>
| 28>                          ****END OF INPUT****

CARTESIAN COORDINATES (ANGSTROEM)
---------------------------------
  C     -0.183583    1.593414   -0.052393
  C     -0.247556    0.089449   -0.222830
  C     -0.201094   -0.819301    0.981373
  C     -1.477792   -0.677251    0.187186
  C      1.242063    2.126190    0.060385
  C      2.180038    2.074881   -1.209505
  C      2.310743    3.599664   -1.114486
  O      0.988179    4.142938   -1.214724
  C      1.427107    3.655523    0.059917
  H     -0.676091    2.091462   -0.895841
  H     -0.745070    1.875886    0.849139
  H      0.262233   -0.281633   -1.108964
  H      0.348436   -1.751694    0.912166
  H     -0.164473   -0.356631    1.962852
  H     -2.293568   -0.120038    0.636617
  H     -1.798367   -1.511841   -0.426623
  H      1.753470    1.676509    0.917902
  H      3.113842    1.539629   -1.023220
  H      1.730585    1.713833   -2.138448
  H      3.131040    4.241216   -1.414921
  H      1.388695    4.350986    0.891309

 Total Charge           Charge          ....    0
 Multiplicity           Mult            ....    1
 Number of Electrons    NEL             ....   68
 Basis Dimension        Dim             ....  351

ORBITAL ENERGIES
----------------

  NO   OCC          E(Eh)            E(eV)
   0   2.0000     -20.563026      -559.5484
   1   2.0000     -11.282886      -307.0229
   2   2.0000     -11.280721      -306.9640
   3   2.0000     -11.236714      -305.7665
   4   2.0000     -11.230846      -305.6068
   5   2.0000     -11.227977      -305.5288
   6   2.0000     -11.221674      -305.3573
   7   2.0000     -11.220863      -305.3352
   8   2.0000     -11.219002      -305.2846
   9   2.0000      -1.413475       -38.4626
  10   2.0000      -1.143545       -31.1174
  11   2.0000      -1.088148       -29.6100
  12   2.0000      -0.979569       -26.6554
  13   2.0000      -0.894966       -24.3533
  14   2.0000      -0.846070       -23.0227
  15   2.0000      -0.819349       -22.2956
  16   2.0000      -0.779333       -21.2067
  17   2.0000      -0.741835       -20.1864
  18   2.0000      -0.714953       -19.4549
  19   2.0000      -0.667169       -18.1546
  20   2.0000      -0.632673       -17.2159
  21   2.0000      -0.605861       -16.4863
  22   2.0000      -0.600070       -16.3287
  23   2.0000      -0.569641       -15.5007
  24   2.0000      -0.548534       -14.9264
  25   2.0000      -0.516133       -14.0447
  26   2.0000      -0.510713       -13.8972
  27   2.0000      -0.492369       -13.3980
  28   2.0000      -0.485501       -13.2112
  29   2.0000      -0.463059       -12.6005
  30   2.0000      -0.430442       -11.7129
  31   2.0000      -0.419038       -11.4026
  32   2.0000      -0.408005       -11.1024
  33   2.0000      -0.386185       -10.5086
  34   0.0000       0.145591         3.9617
  35   0.0000       0.151902         4.1335
  36   0.0000       0.162172         4.4129
  37   0.0000       0.173587         4.7235
  38   0.0000       0.179843         4.8938

MULLIKEN ATOMIC CHARGES
-----------------------
   0 C :   -0.323610
   1 C :   -0.059483
   2 C :   -0.281041
   3 C :   -0.259733
   4 C :    0.012578
   5 C :   -0.229184
   6 C :   -0.028182
   7 O :   -0.333068
   8 C :    0.002601
   9 H :    0.143491
  10 H :    0.113257
  11 H :    0.117864
  12 H :    0.127550
  13 H :    0.122813
  14 H :    0.126732
  15 H :    0.128555
  16 H :    0.107776
  17 H :    0.120818
  18 H :    0.115886
  19 H :    0.135366
  20 H :    0.139014
Sum of atomic charges:   -0.0000000

LOEWDIN ATOMIC CHARGES
----------------------
   0 C :   -0.232647
   1 C :   -0.231113
   2 C :   -0.234824
   3 C :   -0.231232
   4 C :   -0.205339
   5 C :   -0.198571
   6 C :   -0.247429
   7 O :    0.168929
   8 C :   -0.228905
   9 H :    0.149140
  10 H :    0.145266
  11 H :    0.147190
  12 H :    0.128933
  13 H :    0.130918
  14 H :    0.131933
  15 H :    0.129793
  16 H :    0.153015
  17 H :    0.135108
  18 H :    0.133261
  19 H :    0.127825
  20 H :    0.128748

  Mayer bond orders larger than 0.1
B(  0-C ,  1-C ) :   0.9126 B(  0-C ,  4-C ) :   0.8944 B(  0-C ,  9-H ) :   0.9341
B(  0-C , 10-H ) :   0.9261 B(  1-C ,  2-C ) :   0.8851 B(  1-C ,  3-C ) :   0.8881
B(  1-C , 11-H ) :   0.9276 B(  2-C ,  3-C ) :   0.9052 B(  2-C , 12-H ) :   0.9294
B(  2-C , 13-H ) :   0.9282 B(  3-C , 14-H ) :   0.9298 B(  3-C , 15-H ) :   0.9321
B(  4-C ,  5-C ) :   0.9616 B(  4-C ,  8-C ) :   0.8784 B(  4-C , 16-H ) :   0.9124
B(  5-C ,  6-C ) :   0.9260 B(  5-C , 17-H ) :   0.9131 B(  5-C , 18-H ) :   0.9069
B(  6-C ,  7-O ) :   0.9269 B(  6-C ,  8-C ) :   0.9069 B(  6-C , 19-H ) :   0.9307
B(  7-O ,  8-C ) :   0.8984 B(  8-C , 20-H ) :   0.9236

MP2 TOTAL ENERGY:     -386.352619610 Eh
FINAL SINGLE POINT ENERGY      -386.352619609854

DIPOLE MOMENT
-------------
                                X             Y             Z
Electronic contribution:      2.30926       6.88052      -2.08649
Nuclear contribution   :     -1.80357      -7.24702       2.46538
                        -----------------------------------------
Total Dipole Moment    :      0.50568      -0.36650       0.37890
                        -----------------------------------------
Magnitude (a.u.)       :      0.73048
Magnitude (Debye)      :      1.85673

                             ****ORCA TERMINATED NORMALLY****
TOTAL RUN TIME: 0 days 0 hours 16 minutes 42 seconds 125 msec
