                         Program Version 3.0.3 - RELEASE   -
|  1> ! RI-MP2 RIJK def2-TZVP def2-TZVP/C def2-TZVP/JK TIGHTSCF
|  2> % maxcore 2000
|  3> % mp2 density relaxed end
|  4> *xyz 0 1
|  5>  C       -0.0628838152     1.6107026395     0.0470278118
|  6>  C       -0.0346610399     0.0810324673     0.0502340475
|  7>  O        0.6310386636    -0.4117826857     1.2146751219
|  8>  C       -1.4363412551    -0.5902503738     0.0298632426
|  9>  C       -1.2510242968    -2.1248175888    -0.0299767528
| 10>  C       -2.2407920554    -0.2205003774     1.2888864140
| 11>  C       -2.1152004228    -0.1892097870    -1.2957152211
| 12>  N       -3.4468611070     0.0966324561    -1.2461019325
| 13>  O       -1.4982961427    -0.1625380826    -2.3473277620
| 14>  H        0.9610063955     2.0023566068     0.0299109913
| 15>  H       -0.5714860276     1.9924937157    -0.8421003437
| 16>  H       -0.5538609891     2.0046918582     0.9415038397
| 17>  H        0.4836687930    -0.2569980498    -0.8555685718
| 18>  H        1.5138759573    -0.0308771778     1.2297897298
| 19>  H       -0.6997409954    -2.4676590402     0.8475302044
| 20>  H       -2.2211993567    -2.6316231865    -0.0575461807
| 21>  H       -0.6941706393    -2.4053946633    -0.9277515067
| 22>  H       -2.5395778677     0.8319744615     1.3026032638
| 23>  H       -3.1428183778    -0.8358632162     1.3819284483
| 24>  H       -1.6275121096    -0.4061221425     2.1733516310
| 25>  H       -3.9827562209     0.0693579912    -0.3985714148
| 26>  H       -3.9136780404     0.2980330454    -2.1151080100
| 27> *
| 28>
| 29>                          ****END OF INPUT****

CARTESIAN COORDINATES (ANGSTROEM)
---------------------------------
  C     -0.062884    1.610703    0.047028
  C     -0.034661    0.081032    0.050234
  O      0.631039   -0.411783    1.214675
  C     -1.436341   -0.590250    0.029863
  C     -1.251024   -2.124818   -0.029977
  C     -2.240792   -0.220500    1.288886
  C     -2.115200   -0.189210   -1.295715
  N     -3.446861    0.096632   -1.246102
  O     -1.498296   -0.162538   -2.347328
  H      0.961006    2.002357    0.029911
  H     -0.571486    1.992494   -0.842100
  H     -0.553861    2.004692    0.941504
  H      0.483669   -0.256998   -0.855569
  H      1.513876   -0.030877    1.229790
  H     -0.699741   -2.467659    0.847530
  H     -2.221199   -2.631623   -0.057546
  H     -0.694171   -2.405395   -0.927752
  H     -2.539578    0.831974    1.302603
  H     -3.142818   -0.835863    1.381928
  H     -1.627512   -0.406122    2.173352
  H     -3.982756    0.069358   -0.398571
  H     -3.913678    0.298033   -2.115108

 Total Charge           Charge          ....    0
 Multiplicity           Mult            ....    1
 Number of Electrons    NEL             ....   72
 Basis Dimension        Dim             ....  357

ORBITAL ENERGIES
----------------

  NO   OCC          E(Eh)            E(eV)
   0   2.0000     -20.554118      -559.3060
   1   2.0000     -20.511263      -558.1398
   2   2.0000     -15.581610      -423.9972
   3   2.0000     -11.346332      -308.7494
   4   2.0000     -11.279771      -306.9382
   5   2.0000     -11.249920      -306.1259
   6   2.0000     -11.222776      -305.3873
   7   2.0000     -11.215640      -305.1931
   8   2.0000     -11.213772      -305.1422
   9   2.0000      -1.378616       -37.5141
  10   2.0000      -1.361020       -37.0352
  11   2.0000      -1.209388       -32.9091
  12   2.0000      -1.095482       -29.8096
  13   2.0000      -0.996225       -27.1087
  14   2.0000      -0.939025       -25.5522
  15   2.0000      -0.874949       -23.8086
  16   2.0000      -0.839388       -22.8409
  17   2.0000      -0.757730       -20.6189
  18   2.0000      -0.716410       -19.4945
  19   2.0000      -0.695625       -18.9289
  20   2.0000      -0.642949       -17.4955
  21   2.0000      -0.629796       -17.1376
  22   2.0000      -0.623788       -16.9741
  23   2.0000      -0.595232       -16.1971
  24   2.0000      -0.578163       -15.7326
  25   2.0000      -0.565467       -15.3871
  26   2.0000      -0.549317       -14.9477
  27   2.0000      -0.538109       -14.6427
  28   2.0000      -0.529536       -14.4094
  29   2.0000      -0.523749       -14.2519
  30   2.0000      -0.508872       -13.8471
  31   2.0000      -0.481905       -13.1133
  32   2.0000      -0.453599       -12.3431
  33   2.0000      -0.438680       -11.9371
  34   2.0000      -0.413381       -11.2487
  35   2.0000      -0.408103       -11.1051
  36   0.0000       0.122271         3.3272
  37   0.0000       0.143231         3.8975
  38   0.0000       0.168401         4.5824
  39   0.0000       0.169532         4.6132
  40   0.0000       0.183912         5.0045

MULLIKEN ATOMIC CHARGES
-----------------------
   0 C :   -0.465860
   1 C :    0.093369
   2 O :   -0.478328
   3 C :    0.174179
   4 C :   -0.423159
   5 C :   -0.539597
   6 C :    0.217538
   7 N :   -0.466090
   8 O :   -0.358297
   9 H :    0.125540
  10 H :    0.150411
  11 H :    0.138085
  12 H :    0.111063
  13 H :    0.313572
  14 H :    0.156173
  15 H :    0.126764
  16 H :    0.147443
  17 H :    0.150755
  18 H :    0.136482
  19 H :    0.170083
  20 H :    0.264541
  21 H :    0.255334
Sum of atomic charges:   -0.0000000

LOEWDIN ATOMIC CHARGES
----------------------
   0 C :   -0.298732
   1 C :   -0.326094
   2 O :   -0.019732
   3 C :   -0.274243
   4 C :   -0.256307
   5 C :   -0.277731
   6 C :   -0.439474
   7 N :   -0.005164
   8 O :    0.081111
   9 H :    0.121604
  10 H :    0.133773
  11 H :    0.123369
  12 H :    0.146010
  13 H :    0.174025
  14 H :    0.132336
  15 H :    0.124317
  16 H :    0.133113
  17 H :    0.123493
  18 H :    0.121891
  19 H :    0.138638
  20 H :    0.170478
  21 H :    0.173318

  Mayer bond orders larger than 0.1
B(  0-C ,  1-C ) :   0.9133 B(  0-C ,  9-H ) :   0.9348 B(  0-C , 10-H ) :   0.9288
B(  0-C , 11-H ) :   0.9398 B(  1-C ,  2-O ) :   0.9578 B(  1-C ,  3-C ) :   0.8662
B(  1-C , 12-H ) :   0.9191 B(  2-O , 13-H ) :   0.8461 B(  3-C ,  4-C ) :   0.8889
B(  3-C ,  5-C ) :   0.8578 B(  3-C ,  6-C ) :   0.8664 B(  4-C , 14-H ) :   0.9299
B(  4-C , 15-H ) :   0.9310 B(  4-C , 16-H ) :   0.9334 B(  5-C , 17-H ) :   0.9402
B(  5-C , 18-H ) :   0.9374 B(  5-C , 19-H ) :   0.9227 B(  6-C ,  7-N ) :   1.1685
B(  6-C ,  8-O ) :   1.9702 B(  7-N , 20-H ) :   0.8641 B(  7-N , 21-H ) :   0.8579

MP2 TOTAL ENERGY:     -440.818790794 Eh
FINAL SINGLE POINT ENERGY      -440.818790794099

DIPOLE MOMENT
-------------
                                X             Y             Z
Electronic contribution:     -0.03497      -0.38626      -4.83404
Nuclear contribution   :     -0.57983       0.77796       5.48018
                        -----------------------------------------
Total Dipole Moment    :     -0.61481       0.39170       0.64614
                        -----------------------------------------
Magnitude (a.u.)       :      0.97412
Magnitude (Debye)      :      2.47602

                             ****ORCA TERMINATED NORMALLY****
TOTAL RUN TIME: 0 days 0 hours 22 minutes 48 seconds 487 msec
