                         Program Version 3.0.3 - RELEASE   -
|  1> ! RI-MP2 RIJK def2-TZVP def2-TZVP/C def2-TZVP/JK TIGHTSCF
|  2> % maxcore 2000
|  3> % mp2 density relaxed end
|  4> *xyz 0 1
|  5>  C        0.1657519362     1.3840918933     0.0408035191
|  6>  O        0.0734507632    -0.0172224632     0.1404408073
|  7>  C       -1.2167339473    -0.5068235806    -0.1523452778
|  8>  C       -1.1935944752    -2.0171096025     0.0045016911
|  9>  C       -1.0459833418    -2.4661618015     1.4920663005
| 10>  C       -2.5477547056    -2.7889703262     1.4757774651
| 11>  O       -3.3849471490    -2.9261871618     2.3207755945
| 12>  C       -2.6037397074    -2.7099274461    -0.0604852795
| 13>  C       -3.8163560640    -2.0742040937    -0.7282945243
| 14>  H        1.1937668214     1.6624702373     0.2847583334
| 15>  H       -0.0666247174     1.7380449899    -0.9761487271
| 16>  H       -0.5159928119     1.8900568911     0.7427387999
| 17>  H       -1.9586549102    -0.0559519834     0.5316271275
| 18>  H       -1.5135553203    -0.2260829817    -1.1772256944
| 19>  H       -0.4497135745    -2.4339108651    -0.6770147734
| 20>  H       -0.4390511237    -3.3682304350     1.6180303096
| 21>  H       -0.7081060253    -1.7151232168     2.2095318038
| 22>  H       -2.4659883806    -3.7307957780    -0.4417018624
| 23>  H       -3.9863791156    -1.0523771094    -0.3772481440
| 24>  H       -3.7076258037    -2.0474673553    -1.8170246896
| 25>  H       -4.7137180273    -2.6537064713    -0.4921122692
| 26> *
| 27>
| 28>                          ****END OF INPUT****

CARTESIAN COORDINATES (ANGSTROEM)
---------------------------------
  C      0.165752    1.384092    0.040804
  O      0.073451   -0.017222    0.140441
  C     -1.216734   -0.506824   -0.152345
  C     -1.193594   -2.017110    0.004502
  C     -1.045983   -2.466162    1.492066
  C     -2.547755   -2.788970    1.475777
  O     -3.384947   -2.926187    2.320776
  C     -2.603740   -2.709927   -0.060485
  C     -3.816356   -2.074204   -0.728295
  H      1.193767    1.662470    0.284758
  H     -0.066625    1.738045   -0.976149
  H     -0.515993    1.890057    0.742739
  H     -1.958655   -0.055952    0.531627
  H     -1.513555   -0.226083   -1.177226
  H     -0.449714   -2.433911   -0.677015
  H     -0.439051   -3.368230    1.618030
  H     -0.708106   -1.715123    2.209532
  H     -2.465988   -3.730796   -0.441702
  H     -3.986379   -1.052377   -0.377248
  H     -3.707626   -2.047467   -1.817025
  H     -4.713718   -2.653706   -0.492112

 Total Charge           Charge          ....    0
 Multiplicity           Mult            ....    1
 Number of Electrons    NEL             ....   70
 Basis Dimension        Dim             ....  351

ORBITAL ENERGIES
----------------

  NO   OCC          E(Eh)            E(eV)
   0   2.0000     -20.563539      -559.5624
   1   2.0000     -20.548677      -559.1579
   2   2.0000     -11.326599      -308.2124
   3   2.0000     -11.284971      -307.0797
   4   2.0000     -11.276996      -306.8627
   5   2.0000     -11.246306      -306.0275
   6   2.0000     -11.243959      -305.9637
   7   2.0000     -11.235157      -305.7242
   8   2.0000     -11.228347      -305.5389
   9   2.0000      -1.391308       -37.8594
  10   2.0000      -1.384979       -37.6872
  11   2.0000      -1.148277       -31.2462
  12   2.0000      -1.008212       -27.4348
  13   2.0000      -0.985702       -26.8223
  14   2.0000      -0.900939       -24.5158
  15   2.0000      -0.869378       -23.6570
  16   2.0000      -0.812561       -22.1109
  17   2.0000      -0.713785       -19.4231
  18   2.0000      -0.688738       -18.7415
  19   2.0000      -0.669467       -18.2171
  20   2.0000      -0.652781       -17.7631
  21   2.0000      -0.643565       -17.5123
  22   2.0000      -0.623653       -16.9705
  23   2.0000      -0.606683       -16.5087
  24   2.0000      -0.581381       -15.8202
  25   2.0000      -0.565579       -15.3902
  26   2.0000      -0.551862       -15.0169
  27   2.0000      -0.529333       -14.4039
  28   2.0000      -0.522580       -14.2201
  29   2.0000      -0.496265       -13.5040
  30   2.0000      -0.483799       -13.1648
  31   2.0000      -0.465530       -12.6677
  32   2.0000      -0.458956       -12.4888
  33   2.0000      -0.431073       -11.7301
  34   2.0000      -0.391098       -10.6423
  35   0.0000       0.115047         3.1306
  36   0.0000       0.138273         3.7626
  37   0.0000       0.155445         4.2299
  38   0.0000       0.163943         4.4611
  39   0.0000       0.176936         4.8147

MULLIKEN ATOMIC CHARGES
-----------------------
   0 C :   -0.217184
   1 O :   -0.302795
   2 C :   -0.154105
   3 C :    0.019910
   4 C :   -0.211227
   5 C :    0.052125
   6 O :   -0.253733
   7 C :   -0.044182
   8 C :   -0.404956
   9 H :    0.141176
  10 H :    0.112125
  11 H :    0.113242
  12 H :    0.108172
  13 H :    0.104417
  14 H :    0.114288
  15 H :    0.138409
  16 H :    0.142605
  17 H :    0.123478
  18 H :    0.127389
  19 H :    0.139583
  20 H :    0.151259
Sum of atomic charges:    0.0000000

LOEWDIN ATOMIC CHARGES
----------------------
   0 C :   -0.360537
   1 O :    0.141043
   2 C :   -0.313466
   3 C :   -0.203968
   4 C :   -0.185433
   5 C :   -0.299717
   6 O :    0.159986
   7 C :   -0.206002
   8 C :   -0.291443
   9 H :    0.114178
  10 H :    0.101820
  11 H :    0.101963
  12 H :    0.125226
  13 H :    0.123974
  14 H :    0.146069
  15 H :    0.148985
  16 H :    0.144099
  17 H :    0.167338
  18 H :    0.126002
  19 H :    0.126027
  20 H :    0.133854

  Mayer bond orders larger than 0.1
B(  0-C ,  1-O ) :   0.9174 B(  0-C ,  9-H ) :   0.9390 B(  0-C , 10-H ) :   0.9372
B(  0-C , 11-H ) :   0.9362 B(  1-O ,  2-C ) :   0.9567 B(  2-C ,  3-C ) :   0.9310
B(  2-C , 12-H ) :   0.9193 B(  2-C , 13-H ) :   0.9233 B(  3-C ,  4-C ) :   0.9071
B(  3-C ,  7-C ) :   0.8764 B(  3-C , 14-H ) :   0.9163 B(  4-C ,  5-C ) :   0.9101
B(  4-C ,  7-C ) :  -0.1273 B(  4-C , 15-H ) :   0.9033 B(  4-C , 16-H ) :   0.8965
B(  5-C ,  6-O ) :   2.0458 B(  5-C ,  7-C ) :   0.8561 B(  7-C ,  8-C ) :   0.8957
B(  7-C , 17-H ) :   0.9003 B(  8-C , 18-H ) :   0.9324 B(  8-C , 19-H ) :   0.9415
B(  8-C , 20-H ) :   0.9319

MP2 TOTAL ENERGY:     -423.512327494 Eh
FINAL SINGLE POINT ENERGY      -423.512327493784

DIPOLE MOMENT
-------------
                                X             Y             Z
Electronic contribution:     -0.77218      -5.29143       5.16174
Nuclear contribution   :      1.16319       5.74175      -6.10886
                        -----------------------------------------
Total Dipole Moment    :      0.39101       0.45032      -0.94712
                        -----------------------------------------
Magnitude (a.u.)       :      1.11925
Magnitude (Debye)      :      2.84490

                             ****ORCA TERMINATED NORMALLY****
TOTAL RUN TIME: 0 days 0 hours 17 minutes 39 seconds 288 msec
