                         Program Version 3.0.3 - RELEASE   -
|  1> ! RI-MP2 RIJK def2-TZVP def2-TZVP/C def2-TZVP/JK TIGHTSCF
|  2> % maxcore 2000
|  3> % mp2 density relaxed end
|  4> *xyz 0 1
|  5>  C       -0.1350224819     1.5339841669     0.0734665655
|  6>  C       -0.0156529804     0.0047390997    -0.0196142061
|  7>  C        0.5844447585    -0.3915762901    -1.3775003438
|  8>  C        0.8261877440    -0.5426139350     1.1391203420
|  9>  C        0.2822356675    -0.3154657836     2.5793467268
| 10>  N       -0.1493552715    -1.7286288165     2.6321248305
| 11>  C        0.7072910323    -2.0756099025     1.4827586079
| 12>  C        0.0888249082    -3.0045757605     0.5330315579
| 13>  N       -0.3878061569    -3.7553707473    -0.2057492701
| 14>  H        0.8528144210     2.0074831270     0.0194998443
| 15>  H       -0.7318278394     1.9217018988    -0.7578918951
| 16>  H       -0.6122791645     1.8593936825     1.0022471508
| 17>  H       -1.0229771482    -0.4256914483     0.0584844784
| 18>  H        1.5838879778     0.0443886992    -1.4982030931
| 19>  H        0.6680012372    -1.4742688830    -1.4943263426
| 20>  H       -0.0390707149    -0.0187973966    -2.1961478424
| 21>  H        1.8658784310    -0.2312726889     1.0056073609
| 22>  H        1.0751283399    -0.0490341089     3.2910451138
| 23>  H       -0.5415567714     0.3955268874     2.6940364917
| 24>  H        0.0457094267    -2.2355057027     3.4877822507
| 25>  H        1.6911663252    -2.4867433676     1.7508156021
| 26> *
| 27>
| 28>                          ****END OF INPUT****

CARTESIAN COORDINATES (ANGSTROEM)
---------------------------------
  C     -0.135022    1.533984    0.073467
  C     -0.015653    0.004739   -0.019614
  C      0.584445   -0.391576   -1.377500
  C      0.826188   -0.542614    1.139120
  C      0.282236   -0.315466    2.579347
  N     -0.149355   -1.728629    2.632125
  C      0.707291   -2.075610    1.482759
  C      0.088825   -3.004576    0.533032
  N     -0.387806   -3.755371   -0.205749
  H      0.852814    2.007483    0.019500
  H     -0.731828    1.921702   -0.757892
  H     -0.612279    1.859394    1.002247
  H     -1.022977   -0.425691    0.058484
  H      1.583888    0.044389   -1.498203
  H      0.668001   -1.474269   -1.494326
  H     -0.039071   -0.018797   -2.196148
  H      1.865878   -0.231273    1.005607
  H      1.075128   -0.049034    3.291045
  H     -0.541557    0.395527    2.694036
  H      0.045709   -2.235506    3.487782
  H      1.691166   -2.486743    1.750816

 Total Charge           Charge          ....    0
 Multiplicity           Mult            ....    1
 Number of Electrons    NEL             ....   68
 Basis Dimension        Dim             ....  351

ORBITAL ENERGIES
----------------

  NO   OCC          E(Eh)            E(eV)
   0   2.0000     -15.568311      -423.6353
   1   2.0000     -15.566306      -423.5807
   2   2.0000     -11.310634      -307.7780
   3   2.0000     -11.270041      -306.6734
   4   2.0000     -11.266864      -306.5870
   5   2.0000     -11.257540      -306.3332
   6   2.0000     -11.239566      -305.8441
   7   2.0000     -11.221694      -305.3578
   8   2.0000     -11.214986      -305.1753
   9   2.0000      -1.266437       -34.4615
  10   2.0000      -1.209513       -32.9125
  11   2.0000      -1.091738       -29.7077
  12   2.0000      -0.988695       -26.9038
  13   2.0000      -0.969812       -26.3899
  14   2.0000      -0.932839       -25.3838
  15   2.0000      -0.835948       -22.7473
  16   2.0000      -0.782019       -21.2798
  17   2.0000      -0.731957       -19.9176
  18   2.0000      -0.692605       -18.8467
  19   2.0000      -0.622814       -16.9476
  20   2.0000      -0.613010       -16.6808
  21   2.0000      -0.600452       -16.3391
  22   2.0000      -0.578977       -15.7548
  23   2.0000      -0.564576       -15.3629
  24   2.0000      -0.542753       -14.7691
  25   2.0000      -0.541104       -14.7242
  26   2.0000      -0.528641       -14.3850
  27   2.0000      -0.512508       -13.9461
  28   2.0000      -0.488029       -13.2799
  29   2.0000      -0.478488       -13.0203
  30   2.0000      -0.463376       -12.6091
  31   2.0000      -0.454286       -12.3617
  32   2.0000      -0.434989       -11.8366
  33   2.0000      -0.401588       -10.9278
  34   0.0000       0.117581         3.1995
  35   0.0000       0.131566         3.5801
  36   0.0000       0.150491         4.0951
  37   0.0000       0.158706         4.3186
  38   0.0000       0.172068         4.6822

MULLIKEN ATOMIC CHARGES
-----------------------
   0 C :   -0.396103
   1 C :   -0.093045
   2 C :   -0.412344
   3 C :   -0.029755
   4 C :   -0.138385
   5 N :   -0.333750
   6 C :    0.054027
   7 C :   -0.195167
   8 N :   -0.051864
   9 H :    0.122754
  10 H :    0.139373
  11 H :    0.127746
  12 H :    0.115004
  13 H :    0.117853
  14 H :    0.158782
  15 H :    0.135321
  16 H :    0.113124
  17 H :    0.115650
  18 H :    0.108574
  19 H :    0.211926
  20 H :    0.130280
Sum of atomic charges:    0.0000000

LOEWDIN ATOMIC CHARGES
----------------------
   0 C :   -0.288621
   1 C :   -0.286416
   2 C :   -0.287235
   3 C :   -0.173603
   4 C :   -0.245104
   5 N :    0.015212
   6 C :   -0.245966
   7 C :   -0.174446
   8 N :    0.064242
   9 H :    0.124247
  10 H :    0.126891
  11 H :    0.120444
  12 H :    0.161341
  13 H :    0.122583
  14 H :    0.129256
  15 H :    0.126642
  16 H :    0.148776
  17 H :    0.120070
  18 H :    0.123141
  19 H :    0.160100
  20 H :    0.158446

  Mayer bond orders larger than 0.1
B(  0-C ,  1-C ) :   0.9059 B(  0-C ,  9-H ) :   0.9321 B(  0-C , 10-H ) :   0.9404
B(  0-C , 11-H ) :   0.9396 B(  1-C ,  2-C ) :   0.9182 B(  1-C ,  3-C ) :   0.9238
B(  1-C , 12-H ) :   0.9279 B(  2-C , 13-H ) :   0.9278 B(  2-C , 14-H ) :   0.9343
B(  2-C , 15-H ) :   0.9389 B(  3-C ,  4-C ) :   0.8938 B(  3-C ,  6-C ) :   0.9197
B(  3-C , 16-H ) :   0.9109 B(  4-C ,  5-N ) :   0.9563 B(  4-C , 17-H ) :   0.9232
B(  4-C , 18-H ) :   0.9158 B(  5-N ,  6-C ) :   1.0596 B(  5-N , 19-H ) :   0.8782
B(  6-C ,  7-C ) :   0.8823 B(  6-C , 20-H ) :   0.9142 B(  7-C ,  8-N ) :   2.8660

MP2 TOTAL ENERGY:     -382.589800428 Eh
FINAL SINGLE POINT ENERGY      -382.589800427703

DIPOLE MOMENT
-------------
                                X             Y             Z
Electronic contribution:     -1.26600     -10.40867       2.61509
Nuclear contribution   :      2.22496      11.57549      -1.64360
                        -----------------------------------------
Total Dipole Moment    :      0.95896       1.16683       0.97150
                        -----------------------------------------
Magnitude (a.u.)       :      1.79580
Magnitude (Debye)      :      4.56456

                             ****ORCA TERMINATED NORMALLY****
TOTAL RUN TIME: 0 days 0 hours 23 minutes 32 seconds 211 msec
