                         Program Version 3.0.3 - RELEASE   -
|  1> ! RI-MP2 RIJK def2-TZVP def2-TZVP/C def2-TZVP/JK TIGHTSCF
|  2> % maxcore 2000
|  3> % mp2 density relaxed end
|  4> *xyz 0 1
|  5>  C       -0.0005518370     1.5405477722    -0.0888490570
|  6>  O        1.3335611707     1.9159435690     0.2556693856
|  7>  C        2.0390141714     0.7665510515     0.7332699934
|  8>  C        3.3902749940     0.6144397730     0.0826332182
|  9>  C        3.8192995813    -0.5546201019    -0.3932982032
| 10>  C        3.0200261120    -1.8359881695    -0.3823381977
| 11>  C        1.7592071487    -1.7675517424     0.5171929425
| 12>  C        1.1544370251    -0.4088574592     0.4056382471
| 13>  C       -0.0075070398     0.0347144727    -0.0596398923
| 14>  H       -0.7198325927     1.9792611697     0.6239400987
| 15>  H       -0.2424051247     1.9470543704    -1.0817335985
| 16>  H        2.1769194211     0.8676492282     1.8270979288
| 17>  H        4.0118548741     1.5042394978     0.0331410224
| 18>  H        4.8065814615    -0.6150678997    -0.8467597980
| 19>  H        2.7198938909    -2.0685271480    -1.4140995663
| 20>  H        3.6574664304    -2.6709462809    -0.0662714162
| 21>  H        1.0486091708    -2.5539639344     0.2470133906
| 22>  H        2.0629812009    -1.9474957887     1.5574813338
| 23>  H       -0.8446919287    -0.5628750998    -0.3994217219
| 24> *
| 25>
| 26>                          ****END OF INPUT****

CARTESIAN COORDINATES (ANGSTROEM)
---------------------------------
  C     -0.000552    1.540548   -0.088849
  O      1.333561    1.915944    0.255669
  C      2.039014    0.766551    0.733270
  C      3.390275    0.614440    0.082633
  C      3.819300   -0.554620   -0.393298
  C      3.020026   -1.835988   -0.382338
  C      1.759207   -1.767552    0.517193
  C      1.154437   -0.408857    0.405638
  C     -0.007507    0.034714   -0.059640
  H     -0.719833    1.979261    0.623940
  H     -0.242405    1.947054   -1.081734
  H      2.176919    0.867649    1.827098
  H      4.011855    1.504239    0.033141
  H      4.806581   -0.615068   -0.846760
  H      2.719894   -2.068527   -1.414100
  H      3.657466   -2.670946   -0.066271
  H      1.048609   -2.553964    0.247013
  H      2.062981   -1.947496    1.557481
  H     -0.844692   -0.562875   -0.399422

 Total Charge           Charge          ....    0
 Multiplicity           Mult            ....    1
 Number of Electrons    NEL             ....   66
 Basis Dimension        Dim             ....  339

ORBITAL ENERGIES
----------------

  NO   OCC          E(Eh)            E(eV)
   0   2.0000     -20.546528      -559.0994
   1   2.0000     -11.280280      -306.9520
   2   2.0000     -11.274459      -306.7936
   3   2.0000     -11.236797      -305.7688
   4   2.0000     -11.235354      -305.7295
   5   2.0000     -11.232389      -305.6488
   6   2.0000     -11.231098      -305.6137
   7   2.0000     -11.223699      -305.4124
   8   2.0000     -11.223480      -305.4064
   9   2.0000      -1.371555       -37.3219
  10   2.0000      -1.127450       -30.6795
  11   2.0000      -1.060095       -28.8466
  12   2.0000      -1.005528       -27.3618
  13   2.0000      -0.977910       -26.6103
  14   2.0000      -0.861163       -23.4334
  15   2.0000      -0.826303       -22.4848
  16   2.0000      -0.768228       -20.9046
  17   2.0000      -0.704951       -19.1827
  18   2.0000      -0.670957       -18.2577
  19   2.0000      -0.655904       -17.8481
  20   2.0000      -0.631470       -17.1832
  21   2.0000      -0.617640       -16.8068
  22   2.0000      -0.586517       -15.9599
  23   2.0000      -0.566131       -15.4052
  24   2.0000      -0.549827       -14.9616
  25   2.0000      -0.539858       -14.6903
  26   2.0000      -0.520105       -14.1528
  27   2.0000      -0.497863       -13.5476
  28   2.0000      -0.484219       -13.1763
  29   2.0000      -0.451778       -12.2935
  30   2.0000      -0.429200       -11.6791
  31   2.0000      -0.354710        -9.6521
  32   2.0000      -0.340239        -9.2584
  33   0.0000       0.130881         3.5614
  34   0.0000       0.152627         4.1532
  35   0.0000       0.162245         4.4149
  36   0.0000       0.166487         4.5303
  37   0.0000       0.173527         4.7219

MULLIKEN ATOMIC CHARGES
-----------------------
   0 C :    0.018014
   1 O :   -0.343870
   2 C :    0.221390
   3 C :   -0.241828
   4 C :   -0.166809
   5 C :   -0.142691
   6 C :   -0.258293
   7 C :   -0.032088
   8 C :   -0.233848
   9 H :    0.098490
  10 H :    0.109265
  11 H :    0.089145
  12 H :    0.126647
  13 H :    0.123379
  14 H :    0.121740
  15 H :    0.124452
  16 H :    0.129375
  17 H :    0.126182
  18 H :    0.131348
Sum of atomic charges:    0.0000000

LOEWDIN ATOMIC CHARGES
----------------------
   0 C :   -0.282867
   1 O :    0.168592
   2 C :   -0.252449
   3 C :   -0.141746
   4 C :   -0.161997
   5 C :   -0.238862
   6 C :   -0.211175
   7 C :   -0.148800
   8 C :   -0.141030
   9 H :    0.122986
  10 H :    0.126296
  11 H :    0.147913
  12 H :    0.145924
  13 H :    0.143409
  14 H :    0.147544
  15 H :    0.141915
  16 H :    0.143903
  17 H :    0.150253
  18 H :    0.140192

  Mayer bond orders larger than 0.1
B(  0-C ,  1-O ) :   0.9422 B(  0-C ,  8-C ) :   0.9831 B(  0-C ,  9-H ) :   0.9141
B(  0-C , 10-H ) :   0.9162 B(  1-O ,  2-C ) :   0.9072 B(  2-C ,  3-C ) :   0.9270
B(  2-C ,  7-C ) :   0.9355 B(  2-C , 11-H ) :   0.8992 B(  3-C ,  4-C ) :   1.7935
B(  3-C , 12-H ) :   0.9297 B(  4-C ,  5-C ) :   0.9298 B(  4-C , 13-H ) :   0.9232
B(  5-C ,  6-C ) :   0.9332 B(  5-C , 14-H ) :   0.9059 B(  5-C , 15-H ) :   0.9293
B(  6-C ,  7-C ) :   0.9083 B(  6-C , 16-H ) :   0.9346 B(  6-C , 17-H ) :   0.9243
B(  7-C ,  8-C ) :   1.7550 B(  8-C , 18-H ) :   0.9115

MP2 TOTAL ENERGY:     -385.219035810 Eh
FINAL SINGLE POINT ENERGY      -385.219035810115

DIPOLE MOMENT
-------------
                                X             Y             Z
Electronic contribution:     -0.57879       3.60304       0.60903
Nuclear contribution   :      0.43484      -4.38773      -0.64996
                        -----------------------------------------
Total Dipole Moment    :     -0.14395      -0.78470      -0.04093
                        -----------------------------------------
Magnitude (a.u.)       :      0.79884
Magnitude (Debye)      :      2.03049

                             ****ORCA TERMINATED NORMALLY****
TOTAL RUN TIME: 0 days 0 hours 19 minutes 13 seconds 492 msec
