                         Program Version 3.0.3 - RELEASE   -
|  1> ! RI-MP2 RIJK def2-TZVP def2-TZVP/C def2-TZVP/JK TIGHTSCF
|  2> % maxcore 2000
|  3> % mp2 density relaxed end
|  4> *xyz 0 1
|  5>  C       -0.0333153803     1.4796959533     0.0706021532
|  6>  O        1.4066801631     1.5753296523     0.2142733890
|  7>  C        1.5956910361     0.1912192552    -0.1291203453
|  8>  C        1.6705554928    -0.7678011521     1.0748411027
|  9>  N        0.1850573076    -0.7836467553     1.1793022359
| 10>  C       -0.5135990039    -2.0700662958     1.0466061354
| 11>  C       -1.1249319784    -2.0202761068    -0.3361007254
| 12>  C       -0.8015999664    -0.8946867090    -0.9765291403
| 13>  C        0.0509951891    -0.0446435296    -0.1134001157
| 14>  H       -0.5706888536     1.8181749042     0.9622189555
| 15>  H       -0.3785570483     2.0306164057    -0.8149843928
| 16>  H        2.2790309113     0.0511766951    -0.9699604401
| 17>  H        2.0940397773    -1.7449718105     0.7981500405
| 18>  H        2.1839070257    -0.3872345680     1.9632457803
| 19>  H        0.1881077175    -2.9130976371     1.1523023362
| 20>  H       -1.2791105184    -2.2078944820     1.8246466927
| 21>  H       -1.7531619889    -2.8126569981    -0.7271456644
| 22>  H       -1.1154874923    -0.6138116113    -1.9743407473
| 23> *
| 24>
| 25>                          ****END OF INPUT****

CARTESIAN COORDINATES (ANGSTROEM)
---------------------------------
  C     -0.033315    1.479696    0.070602
  O      1.406680    1.575330    0.214273
  C      1.595691    0.191219   -0.129120
  C      1.670555   -0.767801    1.074841
  N      0.185057   -0.783647    1.179302
  C     -0.513599   -2.070066    1.046606
  C     -1.124932   -2.020276   -0.336101
  C     -0.801600   -0.894687   -0.976529
  C      0.050995   -0.044644   -0.113400
  H     -0.570689    1.818175    0.962219
  H     -0.378557    2.030616   -0.814984
  H      2.279031    0.051177   -0.969960
  H      2.094040   -1.744972    0.798150
  H      2.183907   -0.387235    1.963246
  H      0.188108   -2.913098    1.152302
  H     -1.279111   -2.207894    1.824647
  H     -1.753162   -2.812657   -0.727146
  H     -1.115487   -0.613812   -1.974341

 Total Charge           Charge          ....    0
 Multiplicity           Mult            ....    1
 Number of Electrons    NEL             ....   66
 Basis Dimension        Dim             ....  333

ORBITAL ENERGIES
----------------

  NO   OCC          E(Eh)            E(eV)
   0   2.0000     -20.547783      -559.1336
   1   2.0000     -15.546235      -423.0346
   2   2.0000     -11.281812      -306.9937
   3   2.0000     -11.274930      -306.8064
   4   2.0000     -11.267327      -306.5995
   5   2.0000     -11.259831      -306.3956
   6   2.0000     -11.253943      -306.2354
   7   2.0000     -11.243184      -305.9426
   8   2.0000     -11.236441      -305.7591
   9   2.0000      -1.383378       -37.6436
  10   2.0000      -1.251022       -34.0420
  11   2.0000      -1.077141       -29.3105
  12   2.0000      -1.011754       -27.5312
  13   2.0000      -0.963514       -26.2186
  14   2.0000      -0.870502       -23.6876
  15   2.0000      -0.861961       -23.4552
  16   2.0000      -0.777116       -21.1464
  17   2.0000      -0.710674       -19.3384
  18   2.0000      -0.698260       -19.0006
  19   2.0000      -0.662734       -18.0339
  20   2.0000      -0.644073       -17.5261
  21   2.0000      -0.618343       -16.8260
  22   2.0000      -0.592890       -16.1334
  23   2.0000      -0.588643       -16.0178
  24   2.0000      -0.549154       -14.9432
  25   2.0000      -0.538835       -14.6625
  26   2.0000      -0.511210       -13.9107
  27   2.0000      -0.499396       -13.5892
  28   2.0000      -0.470726       -12.8091
  29   2.0000      -0.450902       -12.2697
  30   2.0000      -0.410949       -11.1825
  31   2.0000      -0.379958       -10.3392
  32   2.0000      -0.338343        -9.2068
  33   0.0000       0.134227         3.6525
  34   0.0000       0.149007         4.0547
  35   0.0000       0.161298         4.3891
  36   0.0000       0.169570         4.6142
  37   0.0000       0.188149         5.1198

MULLIKEN ATOMIC CHARGES
-----------------------
   0 C :   -0.005611
   1 O :   -0.332042
   2 C :    0.023332
   3 C :   -0.141795
   4 N :   -0.163092
   5 C :   -0.129826
   6 C :   -0.148454
   7 C :   -0.247199
   8 C :    0.133435
   9 H :    0.099513
  10 H :    0.088243
  11 H :    0.108347
  12 H :    0.097011
  13 H :    0.114409
  14 H :    0.111126
  15 H :    0.123425
  16 H :    0.133241
  17 H :    0.135937
Sum of atomic charges:    0.0000000

LOEWDIN ATOMIC CHARGES
----------------------
   0 C :   -0.220448
   1 O :    0.135547
   2 C :   -0.220399
   3 C :   -0.229147
   4 N :    0.139693
   5 C :   -0.262662
   6 C :   -0.140943
   7 C :   -0.131854
   8 C :   -0.234494
   9 H :    0.122427
  10 H :    0.118994
  11 H :    0.125620
  12 H :    0.124898
  13 H :    0.126730
  14 H :    0.131748
  15 H :    0.131704
  16 H :    0.138728
  17 H :    0.143857

  Mayer bond orders larger than 0.1
B(  0-C ,  1-O ) :   0.9508 B(  0-C ,  8-C ) :   0.9728 B(  0-C ,  9-H ) :   0.8978
B(  0-C , 10-H ) :   0.9073 B(  1-O ,  2-C ) :   0.9703 B(  2-C ,  3-C ) :   0.9333
B(  2-C ,  8-C ) :   0.9366 B(  2-C , 11-H ) :   0.9186 B(  3-C ,  4-N ) :   0.9360
B(  3-C , 12-H ) :   0.9081 B(  3-C , 13-H ) :   0.8996 B(  4-N ,  5-C ) :   0.9345
B(  4-N ,  8-C ) :   0.9422 B(  5-C ,  6-C ) :   0.9661 B(  5-C , 14-H ) :   0.9241
B(  5-C , 15-H ) :   0.9127 B(  6-C ,  7-C ) :   1.7750 B(  6-C , 16-H ) :   0.9207
B(  7-C ,  8-C ) :   0.9469 B(  7-C , 17-H ) :   0.9154

MP2 TOTAL ENERGY:     -401.202536313 Eh
FINAL SINGLE POINT ENERGY      -401.202536312827

DIPOLE MOMENT
-------------
                                X             Y             Z
Electronic contribution:      0.63725       2.60755      -0.54843
Nuclear contribution   :     -0.96752      -3.44336       0.03695
                        -----------------------------------------
Total Dipole Moment    :     -0.33028      -0.83581      -0.51148
                        -----------------------------------------
Magnitude (a.u.)       :      1.03405
Magnitude (Debye)      :      2.62836

                             ****ORCA TERMINATED NORMALLY****
TOTAL RUN TIME: 0 days 0 hours 19 minutes 0 seconds 520 msec
