                         Program Version 3.0.3 - RELEASE   -
|  1> ! RI-MP2 RIJK def2-TZVP def2-TZVP/C def2-TZVP/JK TIGHTSCF
|  2> % maxcore 2000
|  3> % mp2 density relaxed end
|  4> *xyz 0 1
|  5>  O       -0.9385826178     1.0456563046    -0.4177271426
|  6>  C        0.1595014923     0.8710250167     0.0424020562
|  7>  C        1.2534512355     1.9197728937     0.0633521677
|  8>  C        1.4656676776     2.5018158730     1.4574949967
|  9>  C        2.4388846053     1.6208953429     2.2077338131
| 10>  C        2.9165010379     2.9150865337     1.5807495507
| 11>  C        3.6145625427     2.1006016926     0.4575821527
| 12>  C        3.1461076870     0.8297126291     1.0708964039
| 13>  N        2.5621738204     1.3046021385    -0.2015709399
| 14>  H        0.4461244563    -0.0928876158     0.5203137192
| 15>  H        1.0318369579     2.6860554465    -0.6840882474
| 16>  H        0.6942725866     3.0467908905     1.9865981093
| 17>  H        2.3554017582     1.3394463278     3.2468828794
| 18>  H        3.2599915205     3.8288280709     2.0427785810
| 19>  H        4.5125518494     2.3575569059    -0.0880848850
| 20>  H        3.5877085502    -0.1562826707     1.1251393750
| 21> *
| 22>
| 23>                          ****END OF INPUT****

CARTESIAN COORDINATES (ANGSTROEM)
---------------------------------
  O     -0.938583    1.045656   -0.417727
  C      0.159501    0.871025    0.042402
  C      1.253451    1.919773    0.063352
  C      1.465668    2.501816    1.457495
  C      2.438885    1.620895    2.207734
  C      2.916501    2.915087    1.580750
  C      3.614563    2.100602    0.457582
  C      3.146108    0.829713    1.070896
  N      2.562174    1.304602   -0.201571
  H      0.446124   -0.092888    0.520314
  H      1.031837    2.686055   -0.684088
  H      0.694273    3.046791    1.986598
  H      2.355402    1.339446    3.246883
  H      3.259992    3.828828    2.042779
  H      4.512552    2.357557   -0.088085
  H      3.587709   -0.156283    1.125139

 Total Charge           Charge          ....    0
 Multiplicity           Mult            ....    1
 Number of Electrons    NEL             ....   64
 Basis Dimension        Dim             ....  321

ORBITAL ENERGIES
----------------

  NO   OCC          E(Eh)            E(eV)
   0   2.0000     -20.557271      -559.3918
   1   2.0000     -15.579953      -423.9521
   2   2.0000     -11.329783      -308.2991
   3   2.0000     -11.277556      -306.8779
   4   2.0000     -11.276806      -306.8575
   5   2.0000     -11.273313      -306.7624
   6   2.0000     -11.257533      -306.3331
   7   2.0000     -11.255541      -306.2789
   8   2.0000     -11.254887      -306.2611
   9   2.0000      -1.396405       -37.9981
  10   2.0000      -1.337219       -36.3876
  11   2.0000      -1.135984       -30.9117
  12   2.0000      -1.058410       -28.8008
  13   2.0000      -0.904974       -24.6256
  14   2.0000      -0.864110       -23.5136
  15   2.0000      -0.806954       -21.9583
  16   2.0000      -0.782539       -21.2940
  17   2.0000      -0.750317       -20.4172
  18   2.0000      -0.740636       -20.1537
  19   2.0000      -0.672947       -18.3118
  20   2.0000      -0.646523       -17.5928
  21   2.0000      -0.628399       -17.0996
  22   2.0000      -0.607596       -16.5335
  23   2.0000      -0.573966       -15.6184
  24   2.0000      -0.525916       -14.3109
  25   2.0000      -0.524630       -14.2759
  26   2.0000      -0.487801       -13.2737
  27   2.0000      -0.465492       -12.6667
  28   2.0000      -0.440836       -11.9958
  29   2.0000      -0.434571       -11.8253
  30   2.0000      -0.407002       -11.0751
  31   2.0000      -0.365985        -9.9590
  32   0.0000       0.133017         3.6196
  33   0.0000       0.146312         3.9814
  34   0.0000       0.147878         4.0240
  35   0.0000       0.171566         4.6685
  36   0.0000       0.179943         4.8965

MULLIKEN ATOMIC CHARGES
-----------------------
   0 O :   -0.254552
   1 C :    0.034459
   2 C :    0.181467
   3 C :   -0.231098
   4 C :   -0.146380
   5 C :   -0.104020
   6 C :   -0.099835
   7 C :   -0.112047
   8 N :   -0.223210
   9 H :    0.085262
  10 H :    0.121628
  11 H :    0.145329
  12 H :    0.154323
  13 H :    0.155637
  14 H :    0.147247
  15 H :    0.145790
Sum of atomic charges:    0.0000000

LOEWDIN ATOMIC CHARGES
----------------------
   0 O :    0.139312
   1 C :   -0.258463
   2 C :   -0.250807
   3 C :   -0.156620
   4 C :   -0.141859
   5 C :   -0.137414
   6 C :   -0.172316
   7 C :   -0.177249
   8 N :    0.168375
   9 H :    0.116662
  10 H :    0.159545
  11 H :    0.156176
  12 H :    0.140937
  13 H :    0.141407
  14 H :    0.136442
  15 H :    0.135871

  Mayer bond orders larger than 0.1
B(  0-O ,  1-C ) :   2.0063 B(  1-C ,  2-C ) :   0.8032 B(  1-C ,  9-H ) :   0.9562
B(  2-C ,  3-C ) :   0.8833 B(  2-C ,  8-N ) :   0.9035 B(  2-C , 10-H ) :   0.9019
B(  3-C ,  4-C ) :   0.8857 B(  3-C ,  5-C ) :   0.8280 B(  3-C , 11-H ) :   0.9255
B(  4-C ,  5-C ) :   0.8553 B(  4-C ,  7-C ) :   0.8626 B(  4-C , 12-H ) :   0.9202
B(  5-C ,  6-C ) :   0.8791 B(  5-C , 13-H ) :   0.9152 B(  6-C ,  7-C ) :   0.9110
B(  6-C ,  8-N ) :   0.9062 B(  6-C , 14-H ) :   0.9252 B(  7-C ,  8-N ) :   0.8974
B(  7-C , 15-H ) :   0.9312

MP2 TOTAL ENERGY:     -399.997535056 Eh
FINAL SINGLE POINT ENERGY      -399.997535055841

DIPOLE MOMENT
-------------
                                X             Y             Z
Electronic contribution:     -2.11851      -0.90510      -2.19370
Nuclear contribution   :      3.10607       1.27771       3.21481
                        -----------------------------------------
Total Dipole Moment    :      0.98757       0.37261       1.02110
                        -----------------------------------------
Magnitude (a.u.)       :      1.46860
Magnitude (Debye)      :      3.73288

                             ****ORCA TERMINATED NORMALLY****
TOTAL RUN TIME: 0 days 0 hours 18 minutes 2 seconds 327 msec
