                         Program Version 3.0.3 - RELEASE   -
|  1> ! RI-MP2 RIJK def2-TZVP def2-TZVP/C def2-TZVP/JK TIGHTSCF
|  2> % maxcore 2000
|  3> % mp2 density relaxed end
|  4> *xyz 0 1
|  5>  N        0.2378087548    -1.1785408958     0.1741540680
|  6>  C        0.0808291072    -0.0361573738     0.1045412079
|  7>  C       -0.1343276374     1.4228645690     0.0339950641
|  8>  C       -0.7711855067     1.9742846846     1.3251062379
|  9>  C        0.4692775067     2.2876072621     2.1710685025
| 10>  C        1.4593631464     2.7815417725     1.0975839027
| 11>  O        1.1255425462     2.0856741437    -0.1068830640
| 12>  C        1.3493796454     4.2367664644     0.8733683014
| 13>  N        1.2530590713     5.3769197731     0.7143003436
| 14>  H       -0.7354303991     1.6392072645    -0.8542274887
| 15>  H       -1.3224578206     2.8885756610     1.0895375386
| 16>  H       -1.4524323742     1.2644650935     1.7948054058
| 17>  H        0.2904926439     3.0278237766     2.9512526036
| 18>  H        0.8655589129     1.3787871389     2.6318638023
| 19>  H        2.4986825630     2.5500192558     1.3490639044
| 20> *
| 21>
| 22>                          ****END OF INPUT****

CARTESIAN COORDINATES (ANGSTROEM)
---------------------------------
  N      0.237809   -1.178541    0.174154
  C      0.080829   -0.036157    0.104541
  C     -0.134328    1.422865    0.033995
  C     -0.771186    1.974285    1.325106
  C      0.469278    2.287607    2.171069
  C      1.459363    2.781542    1.097584
  O      1.125543    2.085674   -0.106883
  C      1.349380    4.236766    0.873368
  N      1.253059    5.376920    0.714300
  H     -0.735430    1.639207   -0.854227
  H     -1.322458    2.888576    1.089538
  H     -1.452432    1.264465    1.794805
  H      0.290493    3.027824    2.951253
  H      0.865559    1.378787    2.631864
  H      2.498683    2.550019    1.349064

 Total Charge           Charge          ....    0
 Multiplicity           Mult            ....    1
 Number of Electrons    NEL             ....   64
 Basis Dimension        Dim             ....  315

ORBITAL ENERGIES
----------------

  NO   OCC          E(Eh)            E(eV)
   0   2.0000     -20.614837      -560.9582
   1   2.0000     -15.591126      -424.2561
   2   2.0000     -15.591121      -424.2560
   3   2.0000     -11.362070      -309.1776
   4   2.0000     -11.362049      -309.1771
   5   2.0000     -11.288173      -307.1668
   6   2.0000     -11.288166      -307.1666
   7   2.0000     -11.280438      -306.9563
   8   2.0000     -11.279832      -306.9398
   9   2.0000      -1.441390       -39.2222
  10   2.0000      -1.237973       -33.6870
  11   2.0000      -1.234248       -33.5856
  12   2.0000      -1.119761       -30.4702
  13   2.0000      -1.084910       -29.5219
  14   2.0000      -0.925798       -25.1922
  15   2.0000      -0.882406       -24.0115
  16   2.0000      -0.783899       -21.3310
  17   2.0000      -0.744173       -20.2500
  18   2.0000      -0.710562       -19.3354
  19   2.0000      -0.675988       -18.3946
  20   2.0000      -0.652125       -17.7452
  21   2.0000      -0.582849       -15.8601
  22   2.0000      -0.581658       -15.8277
  23   2.0000      -0.570800       -15.5323
  24   2.0000      -0.564862       -15.3707
  25   2.0000      -0.549386       -14.9496
  26   2.0000      -0.541576       -14.7370
  27   2.0000      -0.503953       -13.7133
  28   2.0000      -0.488794       -13.3008
  29   2.0000      -0.479342       -13.0436
  30   2.0000      -0.474123       -12.9015
  31   2.0000      -0.473740       -12.8911
  32   0.0000       0.105463         2.8698
  33   0.0000       0.129240         3.5168
  34   0.0000       0.135642         3.6910
  35   0.0000       0.146528         3.9872
  36   0.0000       0.156487         4.2582

MULLIKEN ATOMIC CHARGES
-----------------------
   0 N :   -0.046500
   1 C :   -0.214054
   2 C :    0.216956
   3 C :   -0.281926
   4 C :   -0.281912
   5 C :    0.216947
   6 O :   -0.299455
   7 C :   -0.214002
   8 N :   -0.046519
   9 H :    0.154156
  10 H :    0.159205
  11 H :    0.161881
  12 H :    0.161882
  13 H :    0.159197
  14 H :    0.154145
Sum of atomic charges:   -0.0000000

LOEWDIN ATOMIC CHARGES
----------------------
   0 N :    0.076570
   1 C :   -0.163062
   2 C :   -0.283332
   3 C :   -0.211474
   4 C :   -0.211457
   5 C :   -0.283350
   6 O :    0.219796
   7 C :   -0.163056
   8 N :    0.076562
   9 H :    0.167830
  10 H :    0.151500
  11 H :    0.152074
  12 H :    0.152079
  13 H :    0.151499
  14 H :    0.167821

  Mayer bond orders larger than 0.1
B(  0-N ,  1-C ) :   2.8440 B(  1-C ,  2-C ) :   0.9260 B(  2-C ,  3-C ) :   0.8970
B(  2-C ,  6-O ) :   0.9151 B(  2-C ,  9-H ) :   0.9034 B(  3-C ,  4-C ) :   0.9344
B(  3-C , 10-H ) :   0.9253 B(  3-C , 11-H ) :   0.9207 B(  4-C ,  5-C ) :   0.8971
B(  4-C , 12-H ) :   0.9207 B(  4-C , 13-H ) :   0.9253 B(  5-C ,  6-O ) :   0.9150
B(  5-C ,  7-C ) :   0.9261 B(  5-C , 14-H ) :   0.9033 B(  7-C ,  8-N ) :   2.8439

MP2 TOTAL ENERGY:     -416.127375508 Eh
FINAL SINGLE POINT ENERGY      -416.127375507530

DIPOLE MOMENT
-------------
                                X             Y             Z
Electronic contribution:      2.42404      -0.08598      -3.52377
Nuclear contribution   :     -3.01155       0.10696       4.37861
                        -----------------------------------------
Total Dipole Moment    :     -0.58751       0.02098       0.85484
                        -----------------------------------------
Magnitude (a.u.)       :      1.03748
Magnitude (Debye)      :      2.63706

                             ****ORCA TERMINATED NORMALLY****
TOTAL RUN TIME: 0 days 0 hours 14 minutes 17 seconds 300 msec
