                         Program Version 3.0.3 - RELEASE   -
|  1> ! RI-MP2 RIJK def2-TZVP def2-TZVP/C def2-TZVP/JK TIGHTSCF
|  2> % maxcore 2000
|  3> % mp2 density relaxed end
|  4> *xyz 0 1
|  5>  C        0.0256617125     1.3885966543     0.0718891897
|  6>  N        0.1814448903    -0.0552234145     0.0464129221
|  7>  C        0.6392176196    -0.6010266434    -0.9793324764
|  8>  O        1.0445354752    -0.0419959887    -2.1576677988
|  9>  C        1.4582109615    -1.0890309781    -2.9942468219
| 10>  C        1.3114810559    -2.2244021974    -2.3188895010
| 11>  O        1.5595317122    -3.4982605310    -2.6252484191
| 12>  O        0.8097129119    -1.9702812744    -1.0660343646
| 13>  H        0.7666994751     1.8273280467     0.7509083278
| 14>  H        0.1312685241     1.8693186031    -0.9081259853
| 15>  H       -0.9620356376     1.6329966381     0.4759825922
| 16>  H        1.8098560160    -0.8430922717    -3.9771598054
| 17>  H        1.2726829132    -4.0489448628    -1.8866808793
| 18> *
| 19>
| 20>                          ****END OF INPUT****

CARTESIAN COORDINATES (ANGSTROEM)
---------------------------------
  C      0.025662    1.388597    0.071889
  N      0.181445   -0.055223    0.046413
  C      0.639218   -0.601027   -0.979332
  O      1.044535   -0.041996   -2.157668
  C      1.458211   -1.089031   -2.994247
  C      1.311481   -2.224402   -2.318890
  O      1.559532   -3.498261   -2.625248
  O      0.809713   -1.970281   -1.066034
  H      0.766699    1.827328    0.750908
  H      0.131269    1.869319   -0.908126
  H     -0.962036    1.632997    0.475983
  H      1.809856   -0.843092   -3.977160
  H      1.272683   -4.048945   -1.886681

 Total Charge           Charge          ....    0
 Multiplicity           Mult            ....    1
 Number of Electrons    NEL             ....   60
 Basis Dimension        Dim             ....  278

ORBITAL ENERGIES
----------------

  NO   OCC          E(Eh)            E(eV)
   0   2.0000     -20.642926      -561.7226
   1   2.0000     -20.632702      -561.4444
   2   2.0000     -20.628031      -561.3172
   3   2.0000     -15.542264      -422.9265
   4   2.0000     -11.403500      -310.3050
   5   2.0000     -11.382548      -309.7349
   6   2.0000     -11.293794      -307.3198
   7   2.0000     -11.246525      -306.0335
   8   2.0000      -1.537492       -41.8373
   9   2.0000      -1.456294       -39.6278
  10   2.0000      -1.397061       -38.0160
  11   2.0000      -1.233279       -33.5592
  12   2.0000      -1.043282       -28.3892
  13   2.0000      -0.948884       -25.8204
  14   2.0000      -0.867420       -23.6037
  15   2.0000      -0.845370       -23.0037
  16   2.0000      -0.792532       -21.5659
  17   2.0000      -0.718287       -19.5456
  18   2.0000      -0.698872       -19.0173
  19   2.0000      -0.653856       -17.7923
  20   2.0000      -0.639943       -17.4137
  21   2.0000      -0.623750       -16.9731
  22   2.0000      -0.604108       -16.4386
  23   2.0000      -0.583839       -15.8871
  24   2.0000      -0.576772       -15.6948
  25   2.0000      -0.568950       -15.4819
  26   2.0000      -0.559269       -15.2185
  27   2.0000      -0.425801       -11.5866
  28   2.0000      -0.425327       -11.5737
  29   2.0000      -0.327163        -8.9026
  30   0.0000       0.129422         3.5217
  31   0.0000       0.156458         4.2574
  32   0.0000       0.174706         4.7540
  33   0.0000       0.185670         5.0523
  34   0.0000       0.193541         5.2665

MULLIKEN ATOMIC CHARGES
-----------------------
   0 C :   -0.261601
   1 N :   -0.249949
   2 C :    0.326225
   3 O :   -0.247885
   4 C :   -0.105364
   5 C :    0.277892
   6 O :   -0.417561
   7 O :   -0.244425
   8 H :    0.134656
   9 H :    0.125278
  10 H :    0.137884
  11 H :    0.166885
  12 H :    0.357965
Sum of atomic charges:   -0.0000000

LOEWDIN ATOMIC CHARGES
----------------------
   0 C :   -0.327569
   1 N :    0.061178
   2 C :   -0.449717
   3 O :    0.279183
   4 C :   -0.247272
   5 C :   -0.423120
   6 O :    0.102448
   7 O :    0.306867
   8 H :    0.118874
   9 H :    0.109162
  10 H :    0.118130
  11 H :    0.139803
  12 H :    0.212032

  Mayer bond orders larger than 0.1
B(  0-C ,  1-N ) :   0.8552 B(  0-C ,  8-H ) :   0.9329 B(  0-C ,  9-H ) :   0.9299
B(  0-C , 10-H ) :   0.9384 B(  1-N ,  2-C ) :   1.9547 B(  2-C ,  3-O ) :   1.0558
B(  2-C ,  7-O ) :   1.0012 B(  3-O ,  4-C ) :   0.9135 B(  4-C ,  5-C ) :   1.7049
B(  4-C , 11-H ) :   0.9262 B(  5-C ,  6-O ) :   1.1247 B(  5-C ,  7-O ) :   0.9982
B(  6-O , 12-H ) :   0.8105

MP2 TOTAL ENERGY:     -435.048700702 Eh
FINAL SINGLE POINT ENERGY      -435.048700701646

DIPOLE MOMENT
-------------
                                X             Y             Z
Electronic contribution:      1.48920      -5.51154      -2.36387
Nuclear contribution   :     -1.29579       5.22380       1.84735
                        -----------------------------------------
Total Dipole Moment    :      0.19342      -0.28774      -0.51653
                        -----------------------------------------
Magnitude (a.u.)       :      0.62209
Magnitude (Debye)      :      1.58124

                             ****ORCA TERMINATED NORMALLY****
TOTAL RUN TIME: 0 days 0 hours 8 minutes 29 seconds 611 msec
