                         Program Version 3.0.3 - RELEASE   -
|  1> ! RI-MP2 RIJK def2-TZVP def2-TZVP/C def2-TZVP/JK TIGHTSCF
|  2> % maxcore 2000
|  3> % mp2 density relaxed end
|  4> *xyz 0 1
|  5>  C       -0.0841580580     1.4680111990    -0.1361798832
|  6>  N        0.0064583288     0.0243561747    -0.0143565057
|  7>  C        0.5800975008    -0.5702955058     0.9688462478
|  8>  C        0.6214417345    -2.0229467789     1.0047367035
|  9>  C        1.2139095022    -2.6898572539     2.0198569513
| 10>  N        1.7944797943    -2.0138947912     3.0473794626
| 11>  N        1.8171639166    -0.6622685103     3.1196433697
| 12>  C        1.2577269650     0.0055852570     2.1620243946
| 13>  O        1.2996600001     1.3512716177     2.2673500459
| 14>  H        0.8975961741     1.9554282728    -0.1854450811
| 15>  H       -0.6202021219     1.6976707863    -1.0621784580
| 16>  H       -0.6302850573     1.9337735279     0.6936716535
| 17>  H        0.1582881855    -2.5554868665     0.1851970631
| 18>  H        1.2655557611    -3.7702072141     2.0831647730
| 19>  H        2.2427704353    -2.4783210015     3.8166622702
| 20>  H        1.7698240687     1.5483449268     3.0903275529
| 21> *
| 22>
| 23>                          ****END OF INPUT****

CARTESIAN COORDINATES (ANGSTROEM)
---------------------------------
  C     -0.084158    1.468011   -0.136180
  N      0.006458    0.024356   -0.014357
  C      0.580098   -0.570296    0.968846
  C      0.621442   -2.022947    1.004737
  C      1.213910   -2.689857    2.019857
  N      1.794480   -2.013895    3.047379
  N      1.817164   -0.662269    3.119643
  C      1.257727    0.005585    2.162024
  O      1.299660    1.351272    2.267350
  H      0.897596    1.955428   -0.185445
  H     -0.620202    1.697671   -1.062178
  H     -0.630285    1.933774    0.693672
  H      0.158288   -2.555487    0.185197
  H      1.265556   -3.770207    2.083165
  H      2.242770   -2.478321    3.816662
  H      1.769824    1.548345    3.090328

 Total Charge           Charge          ....    0
 Multiplicity           Mult            ....    1
 Number of Electrons    NEL             ....   66
 Basis Dimension        Dim             ....  321

ORBITAL ENERGIES
----------------

  NO   OCC          E(Eh)            E(eV)
   0   2.0000     -20.600718      -560.5740
   1   2.0000     -15.635707      -425.4692
   2   2.0000     -15.614811      -424.9006
   3   2.0000     -15.532552      -422.6622
   4   2.0000     -11.350520      -308.8633
   5   2.0000     -11.298537      -307.4488
   6   2.0000     -11.290576      -307.2322
   7   2.0000     -11.226142      -305.4789
   8   2.0000     -11.225663      -305.4658
   9   2.0000      -1.438926       -39.1552
  10   2.0000      -1.357867       -36.9494
  11   2.0000      -1.211438       -32.9649
  12   2.0000      -1.138817       -30.9888
  13   2.0000      -1.062292       -28.9064
  14   2.0000      -0.938510       -25.5382
  15   2.0000      -0.888489       -24.1770
  16   2.0000      -0.846138       -23.0246
  17   2.0000      -0.776331       -21.1250
  18   2.0000      -0.750291       -20.4164
  19   2.0000      -0.688673       -18.7397
  20   2.0000      -0.653665       -17.7871
  21   2.0000      -0.644738       -17.5442
  22   2.0000      -0.608413       -16.5558
  23   2.0000      -0.593170       -16.1410
  24   2.0000      -0.576078       -15.6759
  25   2.0000      -0.573223       -15.5982
  26   2.0000      -0.560860       -15.2618
  27   2.0000      -0.525296       -14.2940
  28   2.0000      -0.482911       -13.1407
  29   2.0000      -0.449372       -12.2280
  30   2.0000      -0.403699       -10.9852
  31   2.0000      -0.380928       -10.3656
  32   2.0000      -0.286285        -7.7902
  33   0.0000       0.103371         2.8129
  34   0.0000       0.125061         3.4031
  35   0.0000       0.141440         3.8488
  36   0.0000       0.146834         3.9956
  37   0.0000       0.173427         4.7192

MULLIKEN ATOMIC CHARGES
-----------------------
   0 C :   -0.271069
   1 N :   -0.212603
   2 C :    0.011174
   3 C :   -0.207466
   4 C :   -0.004096
   5 N :   -0.155592
   6 N :   -0.192497
   7 C :    0.189997
   8 O :   -0.403944
   9 H :    0.123438
  10 H :    0.133524
  11 H :    0.123430
  12 H :    0.130049
  13 H :    0.147125
  14 H :    0.261126
  15 H :    0.327402
Sum of atomic charges:   -0.0000000

LOEWDIN ATOMIC CHARGES
----------------------
   0 C :   -0.349230
   1 N :    0.078594
   2 C :   -0.268460
   3 C :   -0.138180
   4 C :   -0.227941
   5 N :    0.089208
   6 N :    0.045844
   7 C :   -0.349139
   8 O :    0.095281
   9 H :    0.111816
  10 H :    0.110378
  11 H :    0.111806
  12 H :    0.156618
  13 H :    0.147280
  14 H :    0.190775
  15 H :    0.195350

  Mayer bond orders larger than 0.1
B(  0-C ,  1-N ) :   0.8761 B(  0-C ,  9-H ) :   0.9281 B(  0-C , 10-H ) :   0.9442
B(  0-C , 11-H ) :   0.9281 B(  1-N ,  2-C ) :   1.8576 B(  2-C ,  3-C ) :   1.1254
B(  2-C ,  7-C ) :   0.9492 B(  3-C ,  4-C ) :   1.5884 B(  3-C , 12-H ) :   0.9176
B(  4-C ,  5-N ) :   1.1399 B(  4-C , 13-H ) :   0.9063 B(  5-N ,  6-N ) :   0.9838
B(  5-N , 14-H ) :   0.8783 B(  6-N ,  7-C ) :   1.6652 B(  7-C ,  8-O ) :   1.1136
B(  8-O , 15-H ) :   0.8136

MP2 TOTAL ENERGY:     -433.336417180 Eh
FINAL SINGLE POINT ENERGY      -433.336417179867

DIPOLE MOMENT
-------------
                                X             Y             Z
Electronic contribution:      2.22932      -2.50981       3.81646
Nuclear contribution   :     -1.50395       1.75999      -2.57241
                        -----------------------------------------
Total Dipole Moment    :      0.72537      -0.74983       1.24405
                        -----------------------------------------
Magnitude (a.u.)       :      1.62360
Magnitude (Debye)      :      4.12686

                             ****ORCA TERMINATED NORMALLY****
TOTAL RUN TIME: 0 days 0 hours 16 minutes 35 seconds 631 msec
