                         Program Version 3.0.3 - RELEASE   -
|  1> ! RI-MP2 RIJK def2-TZVP def2-TZVP/C def2-TZVP/JK TIGHTSCF
|  2> % maxcore 2000
|  3> % mp2 density relaxed end
|  4> *xyz 0 1
|  5>  C        0.0856836469    -6.3148448625    -0.0358983555
|  6>  C        0.0709769902    -5.1053950191    -0.0260907081
|  7>  C        0.0543537208    -3.7557065683    -0.0166296791
|  8>  C        0.0378010332    -2.5355646644    -0.0100325508
|  9>  C        0.0191997477    -1.1933031288    -0.0030939597
| 10>  C        0.0016882930     0.0250029584     0.0024460150
| 11>  C       -0.0170896370     1.3821269097     0.0092333335
| 12>  N       -0.0334690151     2.5462758164     0.0143817115
| 13>  H        0.0999683301    -7.3771968415    -0.0419357864
| 14> *
| 15>
| 16>                          ****END OF INPUT****

CARTESIAN COORDINATES (ANGSTROEM)
---------------------------------
  C      0.085684   -6.314845   -0.035898
  C      0.070977   -5.105395   -0.026091
  C      0.054354   -3.755707   -0.016630
  C      0.037801   -2.535565   -0.010033
  C      0.019200   -1.193303   -0.003094
  C      0.001688    0.025003    0.002446
  C     -0.017090    1.382127    0.009233
  N     -0.033469    2.546276    0.014382
  H      0.099968   -7.377197   -0.041936

 Total Charge           Charge          ....    0
 Multiplicity           Mult            ....    1
 Number of Electrons    NEL             ....   50
 Basis Dimension        Dim             ....  254

ORBITAL ENERGIES
----------------

  NO   OCC          E(Eh)            E(eV)
   0   2.0000     -15.610757      -424.7903
   1   2.0000     -11.322601      -308.1036
   2   2.0000     -11.314712      -307.8890
   3   2.0000     -11.314456      -307.8820
   4   2.0000     -11.310762      -307.7815
   5   2.0000     -11.303072      -307.5722
   6   2.0000     -11.292706      -307.2901
   7   2.0000     -11.288853      -307.1853
   8   2.0000      -1.247070       -33.9345
   9   2.0000      -1.149046       -31.2671
  10   2.0000      -1.108535       -30.1648
  11   2.0000      -1.053353       -28.6632
  12   2.0000      -0.952053       -25.9067
  13   2.0000      -0.880502       -23.9597
  14   2.0000      -0.817204       -22.2372
  15   2.0000      -0.744451       -20.2575
  16   2.0000      -0.592314       -16.1177
  17   2.0000      -0.570578       -15.5262
  18   2.0000      -0.570578       -15.5262
  19   2.0000      -0.528122       -14.3709
  20   2.0000      -0.528122       -14.3709
  21   2.0000      -0.458556       -12.4779
  22   2.0000      -0.458556       -12.4779
  23   2.0000      -0.366638        -9.9767
  24   2.0000      -0.366638        -9.9767
  25   0.0000       0.018004         0.4899
  26   0.0000       0.018004         0.4899
  27   0.0000       0.121355         3.3022
  28   0.0000       0.143243         3.8978
  29   0.0000       0.143256         3.8982

MULLIKEN ATOMIC CHARGES
-----------------------
   0 C :   -0.121881
   1 C :    0.033486
   2 C :   -0.003481
   3 C :   -0.075912
   4 C :   -0.035177
   5 C :    0.219695
   6 C :   -0.188337
   7 N :   -0.037245
   8 H :    0.208853
Sum of atomic charges:    0.0000000

LOEWDIN ATOMIC CHARGES
----------------------
   0 C :   -0.002938
   1 C :   -0.086251
   2 C :    0.011183
   3 C :   -0.003861
   4 C :    0.006565
   5 C :   -0.003006
   6 C :   -0.171802
   7 N :    0.113936
   8 H :    0.136175

  Mayer bond orders larger than 0.1
B(  0-C ,  1-C ) :   2.5263 B(  0-C ,  8-H ) :   0.8672 B(  1-C ,  2-C ) :   1.3234
B(  1-C ,  4-C ) :   0.1005 B(  2-C ,  3-C ) :   2.4434 B(  3-C ,  4-C ) :   1.3029
B(  3-C ,  6-C ) :   0.1031 B(  4-C ,  5-C ) :   2.4679 B(  4-C ,  7-N ) :   0.1036
B(  5-C ,  6-C ) :   0.9763 B(  6-C ,  7-N ) :   2.7211

MP2 TOTAL ENERGY:     -321.235959879 Eh
FINAL SINGLE POINT ENERGY      -321.235959879031

DIPOLE MOMENT
-------------
                                X             Y             Z
Electronic contribution:     -0.04147       3.22015       0.02138
Nuclear contribution   :      0.06821      -5.17447      -0.03162
                        -----------------------------------------
Total Dipole Moment    :      0.02675      -1.95432      -0.01024
                        -----------------------------------------
Magnitude (a.u.)       :      1.95453
Magnitude (Debye)      :      4.96802

                             ****ORCA TERMINATED NORMALLY****
TOTAL RUN TIME: 0 days 0 hours 4 minutes 38 seconds 692 msec
