                         Program Version 3.0.3 - RELEASE   -
|  1> ! RI-MP2 RIJK def2-TZVP def2-TZVP/C def2-TZVP/JK TIGHTSCF
|  2> % maxcore 2000
|  3> % mp2 density relaxed end
|  4> *xyz 0 1
|  5>  C        0.0081798176     1.4755767776     0.0706639161
|  6>  C        0.0129968062    -0.0138395896    -0.0250516092
|  7>  C       -0.1395479479    -0.7981642566    -1.1317835408
|  8>  N       -0.0558462730    -2.1133797880    -0.6749065315
|  9>  C        0.1394186368    -2.0348822799     0.6626016934
| 10>  O        0.2600301321    -3.1608039404     1.3879512235
| 11>  N        0.1888342207    -0.8085850773     1.1048865506
| 12>  H        0.9536992494     1.8488437435     0.4796472246
| 13>  H       -0.1419879146     1.9306459895    -0.9121807257
| 14>  H       -0.7887401243     1.8267183355     0.7356543464
| 15>  H       -0.2947577454    -0.5685961727    -2.1723079394
| 16>  H       -0.1245914037    -2.9579753499    -1.2153094177
| 17>  H        0.3902149761    -2.8760947218     2.3011829197
| 18> *
| 19>
| 20>                          ****END OF INPUT****

CARTESIAN COORDINATES (ANGSTROEM)
---------------------------------
  C      0.008180    1.475577    0.070664
  C      0.012997   -0.013840   -0.025052
  C     -0.139548   -0.798164   -1.131784
  N     -0.055846   -2.113380   -0.674907
  C      0.139419   -2.034882    0.662602
  O      0.260030   -3.160804    1.387951
  N      0.188834   -0.808585    1.104887
  H      0.953699    1.848844    0.479647
  H     -0.141988    1.930646   -0.912181
  H     -0.788740    1.826718    0.735654
  H     -0.294758   -0.568596   -2.172308
  H     -0.124591   -2.957975   -1.215309
  H      0.390215   -2.876095    2.301183

 Total Charge           Charge          ....    0
 Multiplicity           Mult            ....    1
 Number of Electrons    NEL             ....   52
 Basis Dimension        Dim             ....  253

ORBITAL ENERGIES
----------------

  NO   OCC          E(Eh)            E(eV)
   0   2.0000     -20.609491      -560.8128
   1   2.0000     -15.609612      -424.7591
   2   2.0000     -15.532804      -422.6691
   3   2.0000     -11.358840      -309.0898
   4   2.0000     -11.250135      -306.1317
   5   2.0000     -11.246759      -306.0399
   6   2.0000     -11.216737      -305.2229
   7   2.0000      -1.443749       -39.2864
   8   2.0000      -1.321568       -35.9617
   9   2.0000      -1.170164       -31.8418
  10   2.0000      -1.026342       -27.9282
  11   2.0000      -0.936167       -25.4744
  12   2.0000      -0.834079       -22.6964
  13   2.0000      -0.785006       -21.3611
  14   2.0000      -0.761730       -20.7277
  15   2.0000      -0.668455       -18.1896
  16   2.0000      -0.646697       -17.5975
  17   2.0000      -0.624698       -16.9989
  18   2.0000      -0.598764       -16.2932
  19   2.0000      -0.568361       -15.4659
  20   2.0000      -0.540566       -14.7095
  21   2.0000      -0.527262       -14.3475
  22   2.0000      -0.526014       -14.3136
  23   2.0000      -0.441255       -12.0071
  24   2.0000      -0.397354       -10.8126
  25   2.0000      -0.301114        -8.1937
  26   0.0000       0.134363         3.6562
  27   0.0000       0.153383         4.1738
  28   0.0000       0.158400         4.3103
  29   0.0000       0.187377         5.0988
  30   0.0000       0.190325         5.1790

MULLIKEN ATOMIC CHARGES
-----------------------
   0 C :   -0.409040
   1 C :    0.087429
   2 C :   -0.127884
   3 N :   -0.281714
   4 C :    0.340682
   5 O :   -0.432289
   6 N :   -0.339166
   7 H :    0.139470
   8 H :    0.127293
   9 H :    0.139471
  10 H :    0.146240
  11 H :    0.255665
  12 H :    0.353845
Sum of atomic charges:    0.0000000

LOEWDIN ATOMIC CHARGES
----------------------
   0 C :   -0.276485
   1 C :   -0.289366
   2 C :   -0.227686
   3 N :    0.181041
   4 C :   -0.480007
   5 O :    0.071853
   6 N :    0.092859
   7 H :    0.131115
   8 H :    0.128850
   9 H :    0.131119
  10 H :    0.134178
  11 H :    0.194894
  12 H :    0.207636

  Mayer bond orders larger than 0.1
B(  0-C ,  1-C ) :   0.8855 B(  0-C ,  7-H ) :   0.9346 B(  0-C ,  8-H ) :   0.9509
B(  0-C ,  9-H ) :   0.9345 B(  1-C ,  2-C ) :   1.5821 B(  1-C ,  6-N ) :   1.2152
B(  2-C ,  3-N ) :   1.0559 B(  2-C , 10-H ) :   0.9066 B(  3-N ,  4-C ) :   1.1956
B(  3-N , 11-H ) :   0.8641 B(  4-C ,  5-O ) :   1.1076 B(  4-C ,  6-N ) :   1.5796
B(  5-O , 12-H ) :   0.8127

MP2 TOTAL ENERGY:     -340.122729757 Eh
FINAL SINGLE POINT ENERGY      -340.122729757416

DIPOLE MOMENT
-------------
                                X             Y             Z
Electronic contribution:      0.27313      -5.90259       1.35324
Nuclear contribution   :     -0.36259       5.45962      -2.00035
                        -----------------------------------------
Total Dipole Moment    :     -0.08945      -0.44296      -0.64711
                        -----------------------------------------
Magnitude (a.u.)       :      0.78928
Magnitude (Debye)      :      2.00620

                             ****ORCA TERMINATED NORMALLY****
TOTAL RUN TIME: 0 days 0 hours 7 minutes 17 seconds 594 msec
