                         Program Version 3.0.3 - RELEASE   -
|  1> ! RI-MP2 RIJK def2-TZVP def2-TZVP/C def2-TZVP/JK TIGHTSCF
|  2> % maxcore 2000
|  3> % mp2 density relaxed end
|  4> *xyz 0 1
|  5>  O       -0.0015189645    -0.0843194578    -0.3518030910
|  6>  C       -0.0150354871     1.1164571004    -0.1360189818
|  7>  C       -1.2743490534     1.8410451700     0.0889445011
|  8>  C       -1.4944697283     3.1764090373     0.0954915259
|  9>  N       -0.6932066328     4.2566389555    -0.2594352265
| 10>  N        0.5737501271     4.2739174045    -0.2762199526
| 11>  C        1.4132912601     3.2160663934     0.0569674476
| 12>  C        1.2295688571     1.8751944519     0.0557698162
| 13>  H       -2.1313744218     1.1896944694     0.2439642026
| 14>  H       -2.5108387307     3.5153090349     0.2799747417
| 15>  H        2.4245708373     3.5826215351     0.2145874600
| 16>  H        2.1078419070     1.2475108353     0.1877965567
| 17> *
| 18>
| 19>                          ****END OF INPUT****

CARTESIAN COORDINATES (ANGSTROEM)
---------------------------------
  O     -0.001519   -0.084319   -0.351803
  C     -0.015035    1.116457   -0.136019
  C     -1.274349    1.841045    0.088945
  C     -1.494470    3.176409    0.095492
  N     -0.693207    4.256639   -0.259435
  N      0.573750    4.273917   -0.276220
  C      1.413291    3.216066    0.056967
  C      1.229569    1.875194    0.055770
  H     -2.131374    1.189694    0.243964
  H     -2.510839    3.515309    0.279975
  H      2.424571    3.582622    0.214587
  H      2.107842    1.247511    0.187797

 Total Charge           Charge          ....    0
 Multiplicity           Mult            ....    1
 Number of Electrons    NEL             ....   56
 Basis Dimension        Dim             ....  272

ORBITAL ENERGIES
----------------

  NO   OCC          E(Eh)            E(eV)
   0   2.0000     -20.556463      -559.3698
   1   2.0000     -15.658213      -426.0816
   2   2.0000     -15.657061      -426.0503
   3   2.0000     -11.356929      -309.0378
   4   2.0000     -11.313176      -307.8472
   5   2.0000     -11.313165      -307.8469
   6   2.0000     -11.285103      -307.0833
   7   2.0000     -11.285088      -307.0829
   8   2.0000      -1.400464       -38.1086
   9   2.0000      -1.385654       -37.7056
  10   2.0000      -1.142541       -31.0901
  11   2.0000      -1.116855       -30.3912
  12   2.0000      -0.986780       -26.8517
  13   2.0000      -0.941436       -25.6178
  14   2.0000      -0.801293       -21.8043
  15   2.0000      -0.787022       -21.4160
  16   2.0000      -0.725129       -19.7318
  17   2.0000      -0.664703       -18.0875
  18   2.0000      -0.644254       -17.5310
  19   2.0000      -0.638276       -17.3684
  20   2.0000      -0.608128       -16.5480
  21   2.0000      -0.593589       -16.1524
  22   2.0000      -0.552095       -15.0233
  23   2.0000      -0.526897       -14.3376
  24   2.0000      -0.448916       -12.2156
  25   2.0000      -0.442174       -12.0322
  26   2.0000      -0.410056       -11.1582
  27   2.0000      -0.380050       -10.3417
  28   0.0000       0.013052         0.3552
  29   0.0000       0.050529         1.3750
  30   0.0000       0.148630         4.0444
  31   0.0000       0.155554         4.2328
  32   0.0000       0.188475         5.1287

MULLIKEN ATOMIC CHARGES
-----------------------
   0 O :   -0.306798
   1 C :    0.249874
   2 C :   -0.160986
   3 C :   -0.021108
   4 N :   -0.101084
   5 N :   -0.101084
   6 C :   -0.021108
   7 C :   -0.160986
   8 H :    0.158429
   9 H :    0.153212
  10 H :    0.153212
  11 H :    0.158429
Sum of atomic charges:    0.0000000

LOEWDIN ATOMIC CHARGES
----------------------
   0 O :    0.139597
   1 C :   -0.352737
   2 C :   -0.082875
   3 C :   -0.205946
   4 N :    0.073693
   5 N :    0.073693
   6 C :   -0.205946
   7 C :   -0.082875
   8 H :    0.166901
   9 H :    0.154796
  10 H :    0.154796
  11 H :    0.166901

  Mayer bond orders larger than 0.1
B(  0-O ,  1-C ) :   1.8682 B(  1-C ,  2-C ) :   1.0215 B(  1-C ,  7-C ) :   1.0215
B(  2-C ,  3-C ) :   1.4982 B(  2-C ,  8-H ) :   0.9045 B(  3-C ,  4-N ) :   1.1855
B(  3-C ,  9-H ) :   0.9325 B(  4-N ,  5-N ) :   1.3666 B(  5-N ,  6-C ) :   1.1855
B(  6-C ,  7-C ) :   1.4982 B(  6-C , 10-H ) :   0.9325 B(  7-C , 11-H ) :   0.9045

MP2 TOTAL ENERGY:     -376.834487094 Eh
FINAL SINGLE POINT ENERGY      -376.834487093754

DIPOLE MOMENT
-------------
                                X             Y             Z
Electronic contribution:     -0.01221       0.25567      -0.65875
Nuclear contribution   :      0.01870      -0.18665       1.21960
                        -----------------------------------------
Total Dipole Moment    :      0.00649       0.06903       0.56085
                        -----------------------------------------
Magnitude (a.u.)       :      0.56512
Magnitude (Debye)      :      1.43642

                             ****ORCA TERMINATED NORMALLY****
TOTAL RUN TIME: 0 days 0 hours 10 minutes 9 seconds 662 msec
