                         Program Version 3.0.3 - RELEASE   -
|  1> ! RI-MP2 RIJK def2-TZVP def2-TZVP/C def2-TZVP/JK TIGHTSCF
|  2> % maxcore 2000
|  3> % mp2 density relaxed end
|  4> *xyz 0 1
|  5>  C        0.5947695809     1.7112117530     0.2701494483
|  6>  C       -0.1235484973     0.3882559334    -0.0263303934
|  7>  C        0.4421795002    -0.3290099272    -1.2427512130
|  8>  C        0.2371349521     0.3659988508    -2.5766970408
|  9>  N        1.7055441676    -1.0218259299    -1.0043362284
| 10>  C        0.5107758500    -1.8429889521    -1.2826898854
| 11>  C       -0.0155538508    -2.7306118741    -0.1903708266
| 12>  C       -0.9077799014    -3.8662086441    -0.6640905214
| 13>  O        0.2282135638    -2.5546899672     0.9819478841
| 14>  H        1.6674330015     1.5393691897     0.4023995519
| 15>  H        0.4630150058     2.4476375130    -0.5295283454
| 16>  H        0.2094406053     2.1571714705     1.1917598030
| 17>  H       -0.0284801854    -0.2716184027     0.8374325459
| 18>  H       -1.1944841417     0.5692442625    -0.1867964752
| 19>  H        0.7393245620     1.3390573034    -2.5905780945
| 20>  H        0.6372867028    -0.2297979173    -3.4034471099
| 21>  H       -0.8265400314     0.5417151702    -2.7705249901
| 22>  H        2.2957582564    -0.9986538814    -1.8332510762
| 23>  H        0.4165390059    -2.2715484289    -2.2793068179
| 24>  H       -0.3367555054    -4.5572806102    -1.2956891541
| 25>  H       -1.3078193713    -4.4050157006     0.1952556335
| 26>  H       -1.7301032696    -3.4814378605    -1.2783650547
| 27> *
| 28>
| 29>                          ****END OF INPUT****

CARTESIAN COORDINATES (ANGSTROEM)
---------------------------------
  C      0.594770    1.711212    0.270149
  C     -0.123548    0.388256   -0.026330
  C      0.442180   -0.329010   -1.242751
  C      0.237135    0.365999   -2.576697
  N      1.705544   -1.021826   -1.004336
  C      0.510776   -1.842989   -1.282690
  C     -0.015554   -2.730612   -0.190371
  C     -0.907780   -3.866209   -0.664091
  O      0.228214   -2.554690    0.981948
  H      1.667433    1.539369    0.402400
  H      0.463015    2.447638   -0.529528
  H      0.209441    2.157171    1.191760
  H     -0.028480   -0.271618    0.837433
  H     -1.194484    0.569244   -0.186796
  H      0.739325    1.339057   -2.590578
  H      0.637287   -0.229798   -3.403447
  H     -0.826540    0.541715   -2.770525
  H      2.295758   -0.998654   -1.833251
  H      0.416539   -2.271548   -2.279307
  H     -0.336756   -4.557281   -1.295689
  H     -1.307819   -4.405016    0.195256
  H     -1.730103   -3.481438   -1.278365

 Total Charge           Charge          ....    0
 Multiplicity           Mult            ....    1
 Number of Electrons    NEL             ....   70
 Basis Dimension        Dim             ....  357

ORBITAL ENERGIES
----------------

  NO   OCC          E(Eh)            E(eV)
   0   2.0000     -20.537898      -558.8646
   1   2.0000     -15.565705      -423.5644
   2   2.0000     -11.328142      -308.2544
   3   2.0000     -11.280464      -306.9570
   4   2.0000     -11.267096      -306.5933
   5   2.0000     -11.234962      -305.7189
   6   2.0000     -11.232749      -305.6586
   7   2.0000     -11.215693      -305.1945
   8   2.0000     -11.208887      -305.0093
   9   2.0000      -1.383416       -37.6447
  10   2.0000      -1.274170       -34.6719
  11   2.0000      -1.045526       -28.4502
  12   2.0000      -1.022201       -27.8155
  13   2.0000      -0.981326       -26.7032
  14   2.0000      -0.916505       -24.9394
  15   2.0000      -0.870076       -23.6760
  16   2.0000      -0.776385       -21.1265
  17   2.0000      -0.727801       -19.8045
  18   2.0000      -0.687940       -18.7198
  19   2.0000      -0.654339       -17.8055
  20   2.0000      -0.620329       -16.8800
  21   2.0000      -0.609515       -16.5857
  22   2.0000      -0.600600       -16.3432
  23   2.0000      -0.582822       -15.8594
  24   2.0000      -0.581211       -15.8156
  25   2.0000      -0.553778       -15.0691
  26   2.0000      -0.545580       -14.8460
  27   2.0000      -0.529100       -14.3976
  28   2.0000      -0.503443       -13.6994
  29   2.0000      -0.498956       -13.5773
  30   2.0000      -0.476462       -12.9652
  31   2.0000      -0.465852       -12.6765
  32   2.0000      -0.449919       -12.2429
  33   2.0000      -0.414083       -11.2678
  34   2.0000      -0.384274       -10.4566
  35   0.0000       0.120380         3.2757
  36   0.0000       0.134650         3.6640
  37   0.0000       0.145542         3.9604
  38   0.0000       0.158643         4.3169
  39   0.0000       0.177587         4.8324

MULLIKEN ATOMIC CHARGES
-----------------------
   0 C :   -0.437950
   1 C :   -0.193053
   2 C :    0.197391
   3 C :   -0.399724
   4 N :   -0.371741
   5 C :   -0.146090
   6 C :    0.208674
   7 C :   -0.430769
   8 O :   -0.290190
   9 H :    0.145926
  10 H :    0.119998
  11 H :    0.137242
  12 H :    0.156897
  13 H :    0.099090
  14 H :    0.148669
  15 H :    0.125621
  16 H :    0.136943
  17 H :    0.219018
  18 H :    0.129207
  19 H :    0.145846
  20 H :    0.154849
  21 H :    0.144148
Sum of atomic charges:   -0.0000000

LOEWDIN ATOMIC CHARGES
----------------------
   0 C :   -0.312159
   1 C :   -0.247198
   2 C :   -0.300093
   3 C :   -0.271756
   4 N :    0.052605
   5 C :   -0.217501
   6 C :   -0.345398
   7 C :   -0.280380
   8 O :    0.155507
   9 H :    0.127304
  10 H :    0.115900
  11 H :    0.122837
  12 H :    0.154397
  13 H :    0.138897
  14 H :    0.130037
  15 H :    0.125719
  16 H :    0.132032
  17 H :    0.169208
  18 H :    0.145010
  19 H :    0.136777
  20 H :    0.133014
  21 H :    0.135240

  Mayer bond orders larger than 0.1
B(  0-C ,  1-C ) :   0.9083 B(  0-C ,  9-H ) :   0.9383 B(  0-C , 10-H ) :   0.9402
B(  0-C , 11-H ) :   0.9409 B(  1-C ,  2-C ) :   0.9129 B(  1-C , 12-H ) :   0.9200
B(  1-C , 13-H ) :   0.9314 B(  2-C ,  3-C ) :   0.9170 B(  2-C ,  4-N ) :   0.8649
B(  2-C ,  5-C ) :   0.8624 B(  3-C , 14-H ) :   0.9361 B(  3-C , 15-H ) :   0.9257
B(  3-C , 16-H ) :   0.9306 B(  4-N ,  5-C ) :   0.9554 B(  4-N , 17-H ) :   0.8637
B(  5-C ,  6-C ) :   0.8688 B(  5-C , 18-H ) :   0.9140 B(  6-C ,  7-C ) :   0.9172
B(  6-C ,  8-O ) :   1.9949 B(  7-C , 19-H ) :   0.9155 B(  7-C , 20-H ) :   0.9403
B(  7-C , 21-H ) :   0.9157

MP2 TOTAL ENERGY:     -403.658019614 Eh
FINAL SINGLE POINT ENERGY      -403.658019613582

DIPOLE MOMENT
-------------
                                X             Y             Z
Electronic contribution:      2.17452      -6.04415       3.45034
Nuclear contribution   :     -2.63874       6.11721      -4.95053
                        -----------------------------------------
Total Dipole Moment    :     -0.46421       0.07306      -1.50019
                        -----------------------------------------
Magnitude (a.u.)       :      1.57207
Magnitude (Debye)      :      3.99589

                             ****ORCA TERMINATED NORMALLY****
TOTAL RUN TIME: 0 days 0 hours 19 minutes 50 seconds 77 msec
