                         Program Version 3.0.3 - RELEASE   -
|  1> ! RI-MP2 RIJK def2-TZVP def2-TZVP/C def2-TZVP/JK TIGHTSCF
|  2> % maxcore 2000
|  3> % mp2 density relaxed end
|  4> *xyz 0 1
|  5>  O        0.0084579055     0.2371603268     0.8207837816
|  6>  C       -0.0047886243     1.2104438902     0.1246578927
|  7>  C       -1.2987622346     1.8916369100    -0.3554882857
|  8>  N       -1.2292121042     3.3566722850    -0.4772638685
|  9>  C       -0.1056755922     3.6831091080    -0.9502936174
| 10>  N        0.6100936369     4.8616031183    -1.1032270266
| 11>  C        1.9041930373     4.1340374489    -0.9434919685
| 12>  C        1.1048222143     2.8219301240    -1.2091756644
| 13>  O        1.1894603204     1.7643121167    -0.2717208632
| 14>  H       -1.5819992451     1.4255368472    -1.3111064682
| 15>  H       -2.0690366464     1.6177852287     0.3664359142
| 16>  H        0.3757225119     5.7064438749    -0.5976255747
| 17>  H        2.6685439810     4.4112914061    -1.6715825052
| 18>  H        2.3063739660     4.1589859116     0.0734713279
| 19>  H        1.2245798434     2.4411194035    -2.2273686142
| 20> *
| 21>
| 22>                          ****END OF INPUT****

CARTESIAN COORDINATES (ANGSTROEM)
---------------------------------
  O      0.008458    0.237160    0.820784
  C     -0.004789    1.210444    0.124658
  C     -1.298762    1.891637   -0.355488
  N     -1.229212    3.356672   -0.477264
  C     -0.105676    3.683109   -0.950294
  N      0.610094    4.861603   -1.103227
  C      1.904193    4.134037   -0.943492
  C      1.104822    2.821930   -1.209176
  O      1.189460    1.764312   -0.271721
  H     -1.581999    1.425537   -1.311106
  H     -2.069037    1.617785    0.366436
  H      0.375723    5.706444   -0.597626
  H      2.668544    4.411291   -1.671583
  H      2.306374    4.158986    0.073471
  H      1.224580    2.441119   -2.227369

 Total Charge           Charge          ....    0
 Multiplicity           Mult            ....    1
 Number of Electrons    NEL             ....   66
 Basis Dimension        Dim             ....  315

ORBITAL ENERGIES
----------------

  NO   OCC          E(Eh)            E(eV)
   0   2.0000     -20.618292      -561.0522
   1   2.0000     -20.548151      -559.1436
   2   2.0000     -15.599783      -424.4917
   3   2.0000     -15.563341      -423.5000
   4   2.0000     -11.389428      -309.9221
   5   2.0000     -11.333082      -308.3888
   6   2.0000     -11.328237      -308.2570
   7   2.0000     -11.301991      -307.5428
   8   2.0000     -11.285094      -307.0830
   9   2.0000      -1.470805       -40.0226
  10   2.0000      -1.379492       -37.5379
  11   2.0000      -1.315177       -35.7878
  12   2.0000      -1.226257       -33.3682
  13   2.0000      -1.022999       -27.8372
  14   2.0000      -0.992654       -27.0115
  15   2.0000      -0.902553       -24.5597
  16   2.0000      -0.850864       -23.1532
  17   2.0000      -0.759444       -20.6655
  18   2.0000      -0.743106       -20.2210
  19   2.0000      -0.706629       -19.2284
  20   2.0000      -0.678144       -18.4532
  21   2.0000      -0.646921       -17.6036
  22   2.0000      -0.630774       -17.1642
  23   2.0000      -0.623095       -16.9553
  24   2.0000      -0.583587       -15.8802
  25   2.0000      -0.570261       -15.5176
  26   2.0000      -0.554205       -15.0807
  27   2.0000      -0.546705       -14.8766
  28   2.0000      -0.508661       -13.8414
  29   2.0000      -0.478039       -13.0081
  30   2.0000      -0.464797       -12.6478
  31   2.0000      -0.410934       -11.1821
  32   2.0000      -0.382360       -10.4045
  33   0.0000       0.125095         3.4040
  34   0.0000       0.128749         3.5034
  35   0.0000       0.138122         3.7585
  36   0.0000       0.161001         4.3811
  37   0.0000       0.175556         4.7771

MULLIKEN ATOMIC CHARGES
-----------------------
   0 O :   -0.270941
   1 C :    0.224950
   2 C :   -0.136255
   3 N :   -0.212971
   4 C :    0.033827
   5 N :   -0.304354
   6 C :   -0.122087
   7 C :    0.058440
   8 O :   -0.215077
   9 H :    0.140913
  10 H :    0.163924
  11 H :    0.238921
  12 H :    0.129305
  13 H :    0.140398
  14 H :    0.131008
Sum of atomic charges:    0.0000000

LOEWDIN ATOMIC CHARGES
----------------------
   0 O :    0.149362
   1 C :   -0.450094
   2 C :   -0.251713
   3 N :    0.093096
   4 C :   -0.347134
   5 N :    0.094328
   6 C :   -0.204181
   7 C :   -0.238752
   8 O :    0.272836
   9 H :    0.149104
  10 H :    0.151682
  11 H :    0.174681
  12 H :    0.125234
  13 H :    0.133351
  14 H :    0.148201

  Mayer bond orders larger than 0.1
B(  0-O ,  1-C ) :   2.0387 B(  1-C ,  2-C ) :   0.9221 B(  1-C ,  8-O ) :   1.0659
B(  2-C ,  3-N ) :   0.8726 B(  2-C ,  9-H ) :   0.9024 B(  2-C , 10-H ) :   0.9220
B(  3-N ,  4-C ) :   1.8646 B(  4-C ,  5-N ) :   1.1740 B(  4-C ,  7-C ) :   0.9155
B(  5-N ,  6-C ) :   0.9304 B(  5-N , 11-H ) :   0.8605 B(  6-C ,  7-C ) :   0.9051
B(  6-C , 12-H ) :   0.9199 B(  6-C , 13-H ) :   0.9122 B(  7-C ,  8-O ) :   0.9221
B(  7-C , 14-H ) :   0.9144

MP2 TOTAL ENERGY:     -453.216447007 Eh
FINAL SINGLE POINT ENERGY      -453.216447006650

DIPOLE MOMENT
-------------
                                X             Y             Z
Electronic contribution:     -0.70314      -2.53154       1.57976
Nuclear contribution   :      1.28961       3.68439      -2.39279
                        -----------------------------------------
Total Dipole Moment    :      0.58647       1.15285      -0.81303
                        -----------------------------------------
Magnitude (a.u.)       :      1.52775
Magnitude (Debye)      :      3.88324

                             ****ORCA TERMINATED NORMALLY****
TOTAL RUN TIME: 0 days 0 hours 15 minutes 5 seconds 43 msec
