                         Program Version 3.0.3 - RELEASE   -
|  1> ! RI-MP2 RIJK def2-TZVP def2-TZVP/C def2-TZVP/JK TIGHTSCF
|  2> % maxcore 2000
|  3> % mp2 density relaxed end
|  4> *xyz 0 1
|  5>  C        0.0973297690     1.5520546482     0.2074461232
|  6>  C        0.0483932762     0.0358806959     0.1230545865
|  7>  C        0.3633196849    -0.4904875563    -1.2782981795
|  8>  O        0.4061520214    -1.9110847578    -1.2954877430
|  9>  C        1.3399719100    -2.4141323769    -0.3577120057
| 10>  C        1.0285074373    -1.8950575275     1.0491754551
| 11>  O        1.0033404169    -0.4805212890     1.0490984646
| 12>  C        1.2977494769    -3.9287282557    -0.4445909514
| 13>  O        1.7912862330    -4.6552423246     0.3781209499
| 14>  H        1.0863121948     1.9216490882    -0.0802486295
| 15>  H       -0.6502959067     2.0006212123    -0.4536455512
| 16>  H       -0.1037923312     1.8778493678     1.2309104740
| 17>  H       -0.9541298667    -0.3289613254     0.4057355206
| 18>  H       -0.4103941644    -0.1944473955    -1.9924048412
| 19>  H        1.3305167193    -0.0789237136    -1.6117361221
| 20>  H        2.3619736440    -2.0880328884    -0.6274446016
| 21>  H        0.0585773851    -2.3006137150     1.3790940880
| 22>  H        1.7999114113    -2.2145237454     1.7524569386
| 23>  H        0.7675955586    -4.3119157112    -1.3437598952
| 24> *
| 25>
| 26>                          ****END OF INPUT****

CARTESIAN COORDINATES (ANGSTROEM)
---------------------------------
  C      0.097330    1.552055    0.207446
  C      0.048393    0.035881    0.123055
  C      0.363320   -0.490488   -1.278298
  O      0.406152   -1.911085   -1.295488
  C      1.339972   -2.414132   -0.357712
  C      1.028507   -1.895058    1.049175
  O      1.003340   -0.480521    1.049098
  C      1.297749   -3.928728   -0.444591
  O      1.791286   -4.655242    0.378121
  H      1.086312    1.921649   -0.080249
  H     -0.650296    2.000621   -0.453646
  H     -0.103792    1.877849    1.230910
  H     -0.954130   -0.328961    0.405736
  H     -0.410394   -0.194447   -1.992405
  H      1.330517   -0.078924   -1.611736
  H      2.361974   -2.088033   -0.627445
  H      0.058577   -2.300614    1.379094
  H      1.799911   -2.214524    1.752457
  H      0.767596   -4.311916   -1.343760

 Total Charge           Charge          ....    0
 Multiplicity           Mult            ....    1
 Number of Electrons    NEL             ....   70
 Basis Dimension        Dim             ....  339

ORBITAL ENERGIES
----------------

  NO   OCC          E(Eh)            E(eV)
   0   2.0000     -20.578748      -559.9762
   1   2.0000     -20.567575      -559.6722
   2   2.0000     -20.567284      -559.6642
   3   2.0000     -11.339257      -308.5569
   4   2.0000     -11.301418      -307.5272
   5   2.0000     -11.291903      -307.2683
   6   2.0000     -11.289614      -307.2060
   7   2.0000     -11.287808      -307.1569
   8   2.0000     -11.227202      -305.5077
   9   2.0000      -1.420096       -38.6428
  10   2.0000      -1.403684       -38.1962
  11   2.0000      -1.373560       -37.3765
  12   2.0000      -1.085723       -29.5440
  13   2.0000      -1.009960       -27.4824
  14   2.0000      -0.943032       -25.6612
  15   2.0000      -0.895984       -24.3810
  16   2.0000      -0.820032       -22.3142
  17   2.0000      -0.796542       -21.6750
  18   2.0000      -0.707959       -19.2645
  19   2.0000      -0.684215       -18.6184
  20   2.0000      -0.677928       -18.4474
  21   2.0000      -0.661242       -17.9933
  22   2.0000      -0.644256       -17.5311
  23   2.0000      -0.636108       -17.3094
  24   2.0000      -0.594012       -16.1639
  25   2.0000      -0.578595       -15.7444
  26   2.0000      -0.562343       -15.3021
  27   2.0000      -0.550692       -14.9851
  28   2.0000      -0.533335       -14.5128
  29   2.0000      -0.520766       -14.1708
  30   2.0000      -0.501866       -13.6565
  31   2.0000      -0.481740       -13.1088
  32   2.0000      -0.467336       -12.7169
  33   2.0000      -0.430457       -11.7133
  34   2.0000      -0.405353       -11.0302
  35   0.0000       0.118833         3.2336
  36   0.0000       0.138248         3.7619
  37   0.0000       0.149843         4.0774
  38   0.0000       0.169129         4.6022
  39   0.0000       0.179356         4.8805

MULLIKEN ATOMIC CHARGES
-----------------------
   0 C :   -0.373519
   1 C :    0.049303
   2 C :   -0.049022
   3 O :   -0.309391
   4 C :    0.090247
   5 C :   -0.068712
   6 O :   -0.295973
   7 C :    0.083006
   8 O :   -0.263894
   9 H :    0.131778
  10 H :    0.127159
  11 H :    0.144996
  12 H :    0.072363
  13 H :    0.131661
  14 H :    0.093529
  15 H :    0.093541
  16 H :    0.098353
  17 H :    0.144463
  18 H :    0.100113
Sum of atomic charges:   -0.0000000

LOEWDIN ATOMIC CHARGES
----------------------
   0 C :   -0.287243
   1 C :   -0.354429
   2 C :   -0.294017
   3 O :    0.177277
   4 C :   -0.334164
   5 C :   -0.293315
   6 O :    0.177885
   7 C :   -0.261012
   8 O :    0.143935
   9 H :    0.128047
  10 H :    0.128630
  11 H :    0.130713
  12 H :    0.138070
  13 H :    0.135252
  14 H :    0.126707
  15 H :    0.152187
  16 H :    0.127589
  17 H :    0.140251
  18 H :    0.117638

  Mayer bond orders larger than 0.1
B(  0-C ,  1-C ) :   0.9142 B(  0-C ,  9-H ) :   0.9328 B(  0-C , 10-H ) :   0.9312
B(  0-C , 11-H ) :   0.9340 B(  1-C ,  2-C ) :   0.9417 B(  1-C ,  6-O ) :   0.9490
B(  1-C , 12-H ) :   0.9259 B(  2-C ,  3-O ) :   0.9152 B(  2-C , 13-H ) :   0.9183
B(  2-C , 14-H ) :   0.9214 B(  3-O ,  4-C ) :   0.9507 B(  4-C ,  5-C ) :   0.9368
B(  4-C ,  7-C ) :   0.8456 B(  4-C , 15-H ) :   0.8981 B(  5-C ,  6-O ) :   0.9324
B(  5-C , 16-H ) :   0.9240 B(  5-C , 17-H ) :   0.9133 B(  7-C ,  8-O ) :   1.9932
B(  7-C , 18-H ) :   0.9335

MP2 TOTAL ENERGY:     -459.432105574 Eh
FINAL SINGLE POINT ENERGY      -459.432105574125

DIPOLE MOMENT
-------------
                                X             Y             Z
Electronic contribution:      2.31986      -8.45763       0.19370
Nuclear contribution   :     -2.72044       9.32701      -0.70116
                        -----------------------------------------
Total Dipole Moment    :     -0.40059       0.86938      -0.50747
                        -----------------------------------------
Magnitude (a.u.)       :      1.08343
Magnitude (Debye)      :      2.75385

                             ****ORCA TERMINATED NORMALLY****
TOTAL RUN TIME: 0 days 0 hours 16 minutes 48 seconds 440 msec
