                         Program Version 3.0.3 - RELEASE   -
|  1> ! RI-MP2 RIJK def2-TZVP def2-TZVP/C def2-TZVP/JK TIGHTSCF
|  2> % maxcore 2000
|  3> % mp2 density relaxed end
|  4> *xyz 0 1
|  5>  C        0.0640909255     1.3531449751    -0.1655322245
|  6>  O       -0.0687894428    -0.0772928183    -0.2120831438
|  7>  C       -1.2656886743    -0.5586525702     0.1366047667
|  8>  O       -2.2037267225     0.1106582888     0.4818579976
|  9>  C       -1.2848435922    -2.0927964657     0.0947732749
| 10>  C       -2.7290818500    -2.6375314191     0.0751859656
| 11>  N       -2.7116144695    -4.0803154152     0.2882246489
| 12>  C       -0.5038503530    -2.6332224124    -1.0190062714
| 13>  N        0.0621656813    -3.1058952941    -1.9086712696
| 14>  H        1.0810296608     1.5629893705    -0.4941416779
| 15>  H       -0.6621916765     1.8239852222    -0.8316599557
| 16>  H       -0.0965130568     1.7175456451     0.8518261587
| 17>  H       -0.8132426099    -2.4415422296     1.0235492793
| 18>  H       -3.2614333206    -2.1583020794     0.8996134846
| 19>  H       -3.2135802479    -2.3070461256    -0.8567822628
| 20>  H       -3.6585615566    -4.4196441073     0.4194134724
| 21>  H       -2.3463571652    -4.5533779749    -0.5337953029
| 22> *
| 23>
| 24>                          ****END OF INPUT****

CARTESIAN COORDINATES (ANGSTROEM)
---------------------------------
  C      0.064091    1.353145   -0.165532
  O     -0.068789   -0.077293   -0.212083
  C     -1.265689   -0.558653    0.136605
  O     -2.203727    0.110658    0.481858
  C     -1.284844   -2.092796    0.094773
  C     -2.729082   -2.637531    0.075186
  N     -2.711614   -4.080315    0.288225
  C     -0.503850   -2.633222   -1.019006
  N      0.062166   -3.105895   -1.908671
  H      1.081030    1.562989   -0.494142
  H     -0.662192    1.823985   -0.831660
  H     -0.096513    1.717546    0.851826
  H     -0.813243   -2.441542    1.023549
  H     -3.261433   -2.158302    0.899613
  H     -3.213580   -2.307046   -0.856782
  H     -3.658562   -4.419644    0.419413
  H     -2.346357   -4.553378   -0.533795

 Total Charge           Charge          ....    0
 Multiplicity           Mult            ....    1
 Number of Electrons    NEL             ....   68
 Basis Dimension        Dim             ....  327

ORBITAL ENERGIES
----------------

  NO   OCC          E(Eh)            E(eV)
   0   2.0000     -20.624940      -561.2331
   1   2.0000     -20.568644      -559.7013
   2   2.0000     -15.578694      -423.9178
   3   2.0000     -15.560294      -423.4171
   4   2.0000     -11.408625      -310.4445
   5   2.0000     -11.305603      -307.6411
   6   2.0000     -11.300631      -307.5058
   7   2.0000     -11.282938      -307.0244
   8   2.0000     -11.282753      -307.0193
   9   2.0000      -1.486916       -40.4611
  10   2.0000      -1.386620       -37.7318
  11   2.0000      -1.232334       -33.5335
  12   2.0000      -1.202982       -32.7348
  13   2.0000      -1.090486       -29.6736
  14   2.0000      -0.987828       -26.8802
  15   2.0000      -0.889696       -24.2099
  16   2.0000      -0.810711       -22.0606
  17   2.0000      -0.757813       -20.6211
  18   2.0000      -0.723184       -19.6788
  19   2.0000      -0.703863       -19.1531
  20   2.0000      -0.679854       -18.4998
  21   2.0000      -0.673417       -18.3246
  22   2.0000      -0.634353       -17.2616
  23   2.0000      -0.595704       -16.2099
  24   2.0000      -0.576348       -15.6832
  25   2.0000      -0.571494       -15.5511
  26   2.0000      -0.556168       -15.1341
  27   2.0000      -0.546581       -14.8732
  28   2.0000      -0.539945       -14.6926
  29   2.0000      -0.502221       -13.6661
  30   2.0000      -0.484745       -13.1906
  31   2.0000      -0.466561       -12.6958
  32   2.0000      -0.453402       -12.3377
  33   2.0000      -0.416895       -11.3443
  34   0.0000       0.117918         3.2087
  35   0.0000       0.138106         3.7581
  36   0.0000       0.148129         4.0308
  37   0.0000       0.163560         4.4507
  38   0.0000       0.170805         4.6478

MULLIKEN ATOMIC CHARGES
-----------------------
   0 C :   -0.226975
   1 O :   -0.229223
   2 C :    0.264194
   3 O :   -0.313571
   4 C :    0.148226
   5 C :   -0.161085
   6 N :   -0.544798
   7 C :   -0.223159
   8 N :   -0.056000
   9 H :    0.155005
  10 H :    0.146397
  11 H :    0.143896
  12 H :    0.144415
  13 H :    0.147945
  14 H :    0.122417
  15 H :    0.236978
  16 H :    0.245339
Sum of atomic charges:   -0.0000000

LOEWDIN ATOMIC CHARGES
----------------------
   0 C :   -0.294798
   1 O :    0.253528
   2 C :   -0.456676
   3 O :    0.142685
   4 C :   -0.211408
   5 C :   -0.292614
   6 N :   -0.173395
   7 C :   -0.170896
   8 N :    0.067169
   9 H :    0.118928
  10 H :    0.116939
  11 H :    0.116201
  12 H :    0.195589
  13 H :    0.143681
  14 H :    0.127702
  15 H :    0.157267
  16 H :    0.160099

  Mayer bond orders larger than 0.1
B(  0-C ,  1-O ) :   0.8299 B(  0-C ,  9-H ) :   0.9325 B(  0-C , 10-H ) :   0.9370
B(  0-C , 11-H ) :   0.9376 B(  1-O ,  2-C ) :   1.1627 B(  2-C ,  3-O ) :   1.9168
B(  2-C ,  4-C ) :   0.8894 B(  4-C ,  5-C ) :   0.8918 B(  4-C ,  7-C ) :   0.8995
B(  4-C , 12-H ) :   0.8629 B(  5-C ,  6-N ) :   0.9910 B(  5-C , 13-H ) :   0.9230
B(  5-C , 14-H ) :   0.9252 B(  6-N , 15-H ) :   0.8891 B(  6-N , 16-H ) :   0.8803
B(  7-C ,  8-N ) :   2.8629

MP2 TOTAL ENERGY:     -454.446164812 Eh
FINAL SINGLE POINT ENERGY      -454.446164811887

DIPOLE MOMENT
-------------
                                X             Y             Z
Electronic contribution:      2.58603      -0.38909      -1.60120
Nuclear contribution   :     -3.07468       1.03463       2.11874
                        -----------------------------------------
Total Dipole Moment    :     -0.48866       0.64554       0.51754
                        -----------------------------------------
Magnitude (a.u.)       :      0.96092
Magnitude (Debye)      :      2.44246

                             ****ORCA TERMINATED NORMALLY****
TOTAL RUN TIME: 0 days 0 hours 15 minutes 53 seconds 171 msec
