                         Program Version 3.0.3 - RELEASE   -
|  1> ! RI-MP2 RIJK def2-TZVP def2-TZVP/C def2-TZVP/JK TIGHTSCF
|  2> % maxcore 2000
|  3> % mp2 density relaxed end
|  4> *xyz 0 1
|  5>  C       -0.0382176513     1.5038714188    -0.1079303031
|  6>  C        1.3376574307     2.1583149718     0.0013548112
|  7>  C        2.2688976366     1.8255414327    -1.1690556614
|  8>  N        2.6550061152     0.4454812731    -1.3989896052
|  9>  C        1.9142683559    -0.5699648355    -1.3273537217
| 10>  O        0.6167671275    -0.7614441856    -0.9557683146
| 11>  C        0.0104892516    -0.0037851023     0.0952349884
| 12>  H       -0.7071242620     1.9101834706     0.6610725858
| 13>  H       -0.4973368666     1.7286104788    -1.0792572050
| 14>  H        1.2305316456     3.2490370413     0.0425886710
| 15>  H        1.8125271945     1.8546857797     0.9439573431
| 16>  H        1.8055215958     2.1904347895    -2.0990304243
| 17>  H        3.1946951473     2.4002434750    -1.0532506189
| 18>  H        2.3131232866    -1.5294783641    -1.6616911921
| 19>  H        0.5357992982    -0.2306903667     1.0342227888
| 20>  H       -0.9997014658    -0.4154107872     0.1669531481
| 21> *
| 22>
| 23>                          ****END OF INPUT****

CARTESIAN COORDINATES (ANGSTROEM)
---------------------------------
  C     -0.038218    1.503871   -0.107930
  C      1.337657    2.158315    0.001355
  C      2.268898    1.825541   -1.169056
  N      2.655006    0.445481   -1.398990
  C      1.914268   -0.569965   -1.327354
  O      0.616767   -0.761444   -0.955768
  C      0.010489   -0.003785    0.095235
  H     -0.707124    1.910183    0.661073
  H     -0.497337    1.728610   -1.079257
  H      1.230532    3.249037    0.042589
  H      1.812527    1.854686    0.943957
  H      1.805522    2.190435   -2.099030
  H      3.194695    2.400243   -1.053251
  H      2.313123   -1.529478   -1.661691
  H      0.535799   -0.230690    1.034223
  H     -0.999701   -0.415411    0.166953

 Total Charge           Charge          ....    0
 Multiplicity           Mult            ....    1
 Number of Electrons    NEL             ....   54
 Basis Dimension        Dim             ....  271

ORBITAL ENERGIES
----------------

  NO   OCC          E(Eh)            E(eV)
   0   2.0000     -20.584415      -560.1304
   1   2.0000     -15.540127      -422.8683
   2   2.0000     -11.326152      -308.2003
   3   2.0000     -11.291009      -307.2440
   4   2.0000     -11.252775      -306.2036
   5   2.0000     -11.232639      -305.6556
   6   2.0000     -11.228203      -305.5349
   7   2.0000      -1.411775       -38.4163
   8   2.0000      -1.210699       -32.9448
   9   2.0000      -1.086219       -29.5575
  10   2.0000      -0.976232       -26.5646
  11   2.0000      -0.932275       -25.3685
  12   2.0000      -0.808395       -21.9976
  13   2.0000      -0.760777       -20.7018
  14   2.0000      -0.703375       -19.1398
  15   2.0000      -0.676367       -18.4049
  16   2.0000      -0.632162       -17.2020
  17   2.0000      -0.611767       -16.6470
  18   2.0000      -0.600783       -16.3481
  19   2.0000      -0.581751       -15.8303
  20   2.0000      -0.549026       -14.9397
  21   2.0000      -0.515907       -14.0385
  22   2.0000      -0.492437       -13.3999
  23   2.0000      -0.473748       -12.8913
  24   2.0000      -0.471287       -12.8244
  25   2.0000      -0.394890       -10.7455
  26   2.0000      -0.385818       -10.4986
  27   0.0000       0.135003         3.6736
  28   0.0000       0.146786         3.9943
  29   0.0000       0.171750         4.6735
  30   0.0000       0.183155         4.9839
  31   0.0000       0.189678         5.1614

MULLIKEN ATOMIC CHARGES
-----------------------
   0 C :   -0.212759
   1 C :   -0.224707
   2 C :   -0.127540
   3 N :   -0.258115
   4 C :    0.067190
   5 O :   -0.270192
   6 C :   -0.066036
   7 H :    0.124085
   8 H :    0.113302
   9 H :    0.120627
  10 H :    0.111008
  11 H :    0.119325
  12 H :    0.134395
  13 H :    0.126310
  14 H :    0.107825
  15 H :    0.135281
Sum of atomic charges:    0.0000000

LOEWDIN ATOMIC CHARGES
----------------------
   0 C :   -0.277800
   1 C :   -0.278112
   2 C :   -0.302846
   3 N :    0.078390
   4 C :   -0.370238
   5 O :    0.208596
   6 C :   -0.296797
   7 H :    0.145983
   8 H :    0.141791
   9 H :    0.142038
  10 H :    0.139139
  11 H :    0.140342
  12 H :    0.136093
  13 H :    0.131720
  14 H :    0.128169
  15 H :    0.133533

  Mayer bond orders larger than 0.1
B(  0-C ,  1-C ) :   0.9060 B(  0-C ,  6-C ) :   0.9352 B(  0-C ,  7-H ) :   0.9190
B(  0-C ,  8-H ) :   0.9231 B(  1-C ,  2-C ) :   0.9217 B(  1-C ,  9-H ) :   0.9231
B(  1-C , 10-H ) :   0.9288 B(  2-C ,  3-N ) :   0.9082 B(  2-C , 11-H ) :   0.9248
B(  2-C , 12-H ) :   0.9390 B(  3-N ,  4-C ) :   1.8769 B(  4-C ,  5-O ) :   1.0518
B(  4-C , 13-H ) :   0.9311 B(  5-O ,  6-C ) :   0.8729 B(  6-C , 14-H ) :   0.9363
B(  6-C , 15-H ) :   0.9333

MP2 TOTAL ENERGY:     -325.229589434 Eh
FINAL SINGLE POINT ENERGY      -325.229589433915

DIPOLE MOMENT
-------------
                                X             Y             Z
Electronic contribution:      1.56594      -4.49038      -2.39161
Nuclear contribution   :     -2.22379       4.96689       2.93424
                        -----------------------------------------
Total Dipole Moment    :     -0.65784       0.47651       0.54263
                        -----------------------------------------
Magnitude (a.u.)       :      0.97687
Magnitude (Debye)      :      2.48300

                             ****ORCA TERMINATED NORMALLY****
TOTAL RUN TIME: 0 days 0 hours 9 minutes 1 seconds 884 msec
