                         Program Version 3.0.3 - RELEASE   -
|  1> ! RI-MP2 RIJK def2-TZVP def2-TZVP/C def2-TZVP/JK TIGHTSCF
|  2> % maxcore 2000
|  3> % mp2 density relaxed end
|  4> *xyz 0 1
|  5>  O       -0.0124724742     0.0286297569     0.1404415415
|  6>  C       -0.0105517880     1.2286568288     0.0317712478
|  7>  C       -1.1832146255     2.1471527973    -0.0489636030
|  8>  C       -1.0350771607     3.5300876858     0.6332777807
|  9>  C       -0.7649252629     3.3585448889    -0.8333679106
| 10>  N        0.7175233314     3.4731774924    -0.5969156856
| 11>  C        0.4448618948     3.8679896407     0.8437979831
| 12>  C        1.4009009375     2.7764967346     1.3561425739
| 13>  C        1.2100791903     2.1440391171    -0.0547036172
| 14>  H       -2.1860038948     1.7480876446    -0.1264885092
| 15>  H       -1.8920782069     3.9579012868     1.1388557737
| 16>  H       -1.2451938519     3.7357520490    -1.7270994894
| 17>  H        0.6293642923     4.9117759590     1.1101632948
| 18>  H        2.4129483737     3.1597559936     1.5019991945
| 19>  H        1.1048756972     2.1789509614     2.2206489009
| 20>  H        2.0626433977     1.6968265833    -0.5650664959
| 21> *
| 22>
| 23>                          ****END OF INPUT****

CARTESIAN COORDINATES (ANGSTROEM)
---------------------------------
  O     -0.012472    0.028630    0.140442
  C     -0.010552    1.228657    0.031771
  C     -1.183215    2.147153   -0.048964
  C     -1.035077    3.530088    0.633278
  C     -0.764925    3.358545   -0.833368
  N      0.717523    3.473177   -0.596916
  C      0.444862    3.867990    0.843798
  C      1.400901    2.776497    1.356143
  C      1.210079    2.144039   -0.054704
  H     -2.186004    1.748088   -0.126489
  H     -1.892078    3.957901    1.138856
  H     -1.245194    3.735752   -1.727099
  H      0.629364    4.911776    1.110163
  H      2.412948    3.159756    1.501999
  H      1.104876    2.178951    2.220649
  H      2.062643    1.696827   -0.565066

 Total Charge           Charge          ....    0
 Multiplicity           Mult            ....    1
 Number of Electrons    NEL             ....   64
 Basis Dimension        Dim             ....  321

ORBITAL ENERGIES
----------------

  NO   OCC          E(Eh)            E(eV)
   0   2.0000     -20.547244      -559.1189
   1   2.0000     -15.570163      -423.6857
   2   2.0000     -11.333406      -308.3977
   3   2.0000     -11.284139      -307.0570
   4   2.0000     -11.282780      -307.0201
   5   2.0000     -11.273683      -306.7725
   6   2.0000     -11.267483      -306.6038
   7   2.0000     -11.257377      -306.3288
   8   2.0000     -11.246565      -306.0346
   9   2.0000      -1.392675       -37.8966
  10   2.0000      -1.318160       -35.8690
  11   2.0000      -1.120917       -30.5017
  12   2.0000      -1.017763       -27.6948
  13   2.0000      -0.991060       -26.9681
  14   2.0000      -0.856285       -23.3007
  15   2.0000      -0.840076       -22.8596
  16   2.0000      -0.776679       -21.1345
  17   2.0000      -0.734296       -19.9812
  18   2.0000      -0.701534       -19.0897
  19   2.0000      -0.653555       -17.7841
  20   2.0000      -0.648722       -17.6526
  21   2.0000      -0.616337       -16.7714
  22   2.0000      -0.609276       -16.5792
  23   2.0000      -0.574899       -15.6438
  24   2.0000      -0.550268       -14.9735
  25   2.0000      -0.522755       -14.2249
  26   2.0000      -0.494139       -13.4462
  27   2.0000      -0.477902       -13.0044
  28   2.0000      -0.449846       -12.2409
  29   2.0000      -0.434898       -11.8342
  30   2.0000      -0.392555       -10.6820
  31   2.0000      -0.376707       -10.2507
  32   0.0000       0.126562         3.4439
  33   0.0000       0.154028         4.1913
  34   0.0000       0.157536         4.2868
  35   0.0000       0.164128         4.4662
  36   0.0000       0.170140         4.6298

MULLIKEN ATOMIC CHARGES
-----------------------
   0 O :   -0.270865
   1 C :    0.077633
   2 C :   -0.141182
   3 C :   -0.186052
   4 C :   -0.059925
   5 N :   -0.196934
   6 C :    0.011828
   7 C :   -0.303227
   8 C :    0.089803
   9 H :    0.148184
  10 H :    0.144853
  11 H :    0.146553
  12 H :    0.127470
  13 H :    0.133563
  14 H :    0.135169
  15 H :    0.143128
Sum of atomic charges:   -0.0000000

LOEWDIN ATOMIC CHARGES
----------------------
   0 O :    0.154174
   1 C :   -0.298906
   2 C :   -0.137544
   3 C :   -0.134604
   4 C :   -0.167018
   5 N :    0.153195
   6 C :   -0.193000
   7 C :   -0.190660
   8 C :   -0.185510
   9 H :    0.159572
  10 H :    0.141847
  11 H :    0.135710
  12 H :    0.139092
  13 H :    0.142207
  14 H :    0.136912
  15 H :    0.144535

  Mayer bond orders larger than 0.1
B(  0-O ,  1-C ) :   2.0310 B(  1-C ,  2-C ) :   0.9693 B(  1-C ,  8-C ) :   0.8705
B(  2-C ,  3-C ) :   0.8406 B(  2-C ,  4-C ) :   0.8424 B(  2-C ,  8-C ) :  -0.1277
B(  2-C ,  9-H ) :   0.9184 B(  3-C ,  4-C ) :   0.8665 B(  3-C ,  6-C ) :   0.9317
B(  3-C , 10-H ) :   0.9093 B(  4-C ,  5-N ) :   0.9484 B(  4-C , 11-H ) :   0.9160
B(  5-N ,  6-C ) :   0.9556 B(  5-N ,  8-C ) :   0.9478 B(  6-C ,  7-C ) :   0.9651
B(  6-C , 12-H ) :   0.8963 B(  7-C ,  8-C ) :   0.8935 B(  7-C , 13-H ) :   0.9141
B(  7-C , 14-H ) :   0.9131 B(  8-C , 15-H ) :   0.8979

MP2 TOTAL ENERGY:     -400.013304257 Eh
FINAL SINGLE POINT ENERGY      -400.013304257050

DIPOLE MOMENT
-------------
                                X             Y             Z
Electronic contribution:     -0.60912      -2.81538      -1.81507
Nuclear contribution   :      0.21069       3.79880       2.21061
                        -----------------------------------------
Total Dipole Moment    :     -0.39844       0.98342       0.39554
                        -----------------------------------------
Magnitude (a.u.)       :      1.13239
Magnitude (Debye)      :      2.87832

                             ****ORCA TERMINATED NORMALLY****
TOTAL RUN TIME: 0 days 0 hours 18 minutes 54 seconds 429 msec
