                         Program Version 3.0.3 - RELEASE   -
|  1> ! RI-MP2 RIJK def2-TZVP def2-TZVP/C def2-TZVP/JK TIGHTSCF
|  2> % maxcore 2000
|  3> % mp2 density relaxed end
|  4> *xyz 0 1
|  5>  C       -0.5697232312     0.7529641343    -0.9813085295
|  6>  C        0.2457904014     0.0213445918     0.0809915594
|  7>  O        1.3396704744    -0.7280550400    -0.4390382236
|  8>  C        0.9941734825    -1.9048038689    -1.0881777047
|  9>  C        0.6131944186    -2.0183765915    -2.5510538852
| 10>  N        1.2743066950    -0.9432103978    -3.3130590117
| 11>  C        2.6189737161    -1.4958783254    -2.9158353839
| 12>  C        1.9543280190    -2.5553221613    -2.0256494690
| 13>  O        2.4408793498    -3.8416058301    -1.8764371639
| 14>  H        0.0872720786     1.3437489290    -1.6233991347
| 15>  H       -1.1220948551     0.0568629554    -1.6170808988
| 16>  H       -1.2923606449     1.4187087612    -0.4968148775
| 17>  H        0.7021201159     0.7414161370     0.7679078959
| 18>  H       -0.4040839639    -0.6372855713     0.6797781765
| 19>  H        0.4534137221    -2.6279786758    -0.4698171445
| 20>  H       -0.2990163821    -2.4977408950    -2.8886037972
| 21>  H        1.1317410018    -1.0939670486    -4.3069691137
| 22>  H        3.1452020656    -1.9659346909    -3.7510947936
| 23>  H        3.2673391065    -0.7649472736    -2.4246194231
| 24>  H        2.8291625998    -3.9198028683    -0.9978367572
| 25> *
| 26>
| 27>                          ****END OF INPUT****

CARTESIAN COORDINATES (ANGSTROEM)
---------------------------------
  C     -0.569723    0.752964   -0.981309
  C      0.245790    0.021345    0.080992
  O      1.339670   -0.728055   -0.439038
  C      0.994173   -1.904804   -1.088178
  C      0.613194   -2.018377   -2.551054
  N      1.274307   -0.943210   -3.313059
  C      2.618974   -1.495878   -2.915835
  C      1.954328   -2.555322   -2.025649
  O      2.440879   -3.841606   -1.876437
  H      0.087272    1.343749   -1.623399
  H     -1.122095    0.056863   -1.617081
  H     -1.292361    1.418709   -0.496815
  H      0.702120    0.741416    0.767908
  H     -0.404084   -0.637286    0.679778
  H      0.453414   -2.627979   -0.469817
  H     -0.299016   -2.497741   -2.888604
  H      1.131741   -1.093967   -4.306969
  H      3.145202   -1.965935   -3.751095
  H      3.267339   -0.764947   -2.424619
  H      2.829163   -3.919803   -0.997837

 Total Charge           Charge          ....    0
 Multiplicity           Mult            ....    1
 Number of Electrons    NEL             ....   70
 Basis Dimension        Dim             ....  345

ORBITAL ENERGIES
----------------

  NO   OCC          E(Eh)            E(eV)
   0   2.0000     -20.571762      -559.7861
   1   2.0000     -20.555390      -559.3406
   2   2.0000     -15.547081      -423.0576
   3   2.0000     -11.287623      -307.1518
   4   2.0000     -11.283172      -307.0307
   5   2.0000     -11.272728      -306.7465
   6   2.0000     -11.261403      -306.4383
   7   2.0000     -11.252024      -306.1831
   8   2.0000     -11.206697      -304.9497
   9   2.0000      -1.389452       -37.8089
  10   2.0000      -1.373220       -37.3672
  11   2.0000      -1.246946       -33.9311
  12   2.0000      -1.064818       -28.9752
  13   2.0000      -1.002105       -27.2687
  14   2.0000      -0.929039       -25.2804
  15   2.0000      -0.855941       -23.2913
  16   2.0000      -0.787799       -21.4371
  17   2.0000      -0.764114       -20.7926
  18   2.0000      -0.732191       -19.9239
  19   2.0000      -0.677732       -18.4420
  20   2.0000      -0.648077       -17.6351
  21   2.0000      -0.629977       -17.1425
  22   2.0000      -0.621873       -16.9220
  23   2.0000      -0.606757       -16.5107
  24   2.0000      -0.590081       -16.0569
  25   2.0000      -0.556555       -15.1446
  26   2.0000      -0.531176       -14.4540
  27   2.0000      -0.526830       -14.3358
  28   2.0000      -0.520918       -14.1749
  29   2.0000      -0.508049       -13.8247
  30   2.0000      -0.473531       -12.8854
  31   2.0000      -0.441532       -12.0147
  32   2.0000      -0.418421       -11.3858
  33   2.0000      -0.395013       -10.7489
  34   2.0000      -0.348655        -9.4874
  35   0.0000       0.137540         3.7427
  36   0.0000       0.142776         3.8851
  37   0.0000       0.158214         4.3052
  38   0.0000       0.173427         4.7192
  39   0.0000       0.179030         4.8716

MULLIKEN ATOMIC CHARGES
-----------------------
   0 C :   -0.345278
   1 C :   -0.061284
   2 O :   -0.295440
   3 C :   -0.032374
   4 C :   -0.103082
   5 N :   -0.325031
   6 C :   -0.137835
   7 C :    0.158914
   8 O :   -0.456493
   9 H :    0.132625
  10 H :    0.118875
  11 H :    0.123874
  12 H :    0.120354
  13 H :    0.084287
  14 H :    0.105000
  15 H :    0.134639
  16 H :    0.207210
  17 H :    0.126178
  18 H :    0.112318
  19 H :    0.332545
Sum of atomic charges:    0.0000000

LOEWDIN ATOMIC CHARGES
----------------------
   0 C :   -0.321920
   1 C :   -0.335901
   2 O :    0.194068
   3 C :   -0.290857
   4 C :   -0.207309
   5 N :   -0.011950
   6 C :   -0.217623
   7 C :   -0.331347
   8 O :    0.025453
   9 H :    0.127158
  10 H :    0.121428
  11 H :    0.122772
  12 H :    0.127294
  13 H :    0.116414
  14 H :    0.146714
  15 H :    0.130157
  16 H :    0.163647
  17 H :    0.129462
  18 H :    0.125420
  19 H :    0.186922

  Mayer bond orders larger than 0.1
B(  0-C ,  1-C ) :   0.9388 B(  0-C ,  9-H ) :   0.9268 B(  0-C , 10-H ) :   0.9382
B(  0-C , 11-H ) :   0.9239 B(  1-C ,  2-O ) :   0.9086 B(  1-C , 12-H ) :   0.9349
B(  1-C , 13-H ) :   0.9379 B(  2-O ,  3-C ) :   0.9871 B(  3-C ,  4-C ) :   0.8730
B(  3-C ,  7-C ) :   0.9172 B(  3-C , 14-H ) :   0.9436 B(  4-C ,  5-N ) :   1.0077
B(  4-C ,  7-C ) :   0.8583 B(  4-C , 15-H ) :   0.8980 B(  5-N ,  6-C ) :   0.9497
B(  5-N , 16-H ) :   0.8760 B(  6-C ,  7-C ) :   0.9462 B(  6-C , 17-H ) :   0.9227
B(  6-C , 18-H ) :   0.9078 B(  7-C ,  8-O ) :   1.0146 B(  8-O , 19-H ) :   0.8325

MP2 TOTAL ENERGY:     -439.493576018 Eh
FINAL SINGLE POINT ENERGY      -439.493576018130

DIPOLE MOMENT
-------------
                                X             Y             Z
Electronic contribution:      4.31146      -5.45412      -0.90199
Nuclear contribution   :     -4.57065       5.25308       1.08246
                        -----------------------------------------
Total Dipole Moment    :     -0.25918      -0.20104       0.18047
                        -----------------------------------------
Magnitude (a.u.)       :      0.37438
Magnitude (Debye)      :      0.95160

                             ****ORCA TERMINATED NORMALLY****
TOTAL RUN TIME: 0 days 0 hours 17 minutes 31 seconds 13 msec
