                         Program Version 3.0.3 - RELEASE   -
|  1> ! RI-MP2 RIJK def2-TZVP def2-TZVP/C def2-TZVP/JK TIGHTSCF
|  2> % maxcore 2000
|  3> % mp2 density relaxed end
|  4> *xyz 0 1
|  5>  C       -0.0572622583     1.5696545110     0.0813236429
|  6>  C       -0.0007315188     0.0333248891     0.0657242867
|  7>  C        0.7112263251    -0.4884173460     1.3245446187
|  8>  C       -1.4270608690    -0.5371135506     0.0030268134
|  9>  O       -2.1459322067    -0.1123577580     1.1506758158
| 10>  C        0.7325728380    -0.4653960981    -1.2131383229
| 11>  C        2.1154179635    -0.0188682124    -1.3286046040
| 12>  C        3.2558147724     0.3509736744    -1.4210125565
| 13>  H        0.9498813611     1.9936876964     0.1153017760
| 14>  H       -0.5545306695     1.9545258804    -0.8167354605
| 15>  H       -0.6168818645     1.9197341187     0.9513824588
| 16>  H        0.1683626428    -0.1826221144     2.2214947794
| 17>  H        0.7662879669    -1.5833454565     1.3205134875
| 18>  H        1.7320742386    -0.1010552149     1.3804157717
| 19>  H       -1.9189925372    -0.1878527021    -0.9200420465
| 20>  H       -1.3776320333    -1.6377171511    -0.0443501626
| 21>  H       -3.0345947373    -0.4751656205     1.1018758362
| 22>  H        0.7111653473    -1.5635737496    -1.2338108885
| 23>  H        0.1762128035    -0.1307233192    -2.0993282505
| 24>  H        4.2633587256     0.6739422235    -1.5087829152
| 25> *
| 26>
| 27>                          ****END OF INPUT****

CARTESIAN COORDINATES (ANGSTROEM)
---------------------------------
  C     -0.057262    1.569655    0.081324
  C     -0.000732    0.033325    0.065724
  C      0.711226   -0.488417    1.324545
  C     -1.427061   -0.537114    0.003027
  O     -2.145932   -0.112358    1.150676
  C      0.732573   -0.465396   -1.213138
  C      2.115418   -0.018868   -1.328605
  C      3.255815    0.350974   -1.421013
  H      0.949881    1.993688    0.115302
  H     -0.554531    1.954526   -0.816735
  H     -0.616882    1.919734    0.951382
  H      0.168363   -0.182622    2.221495
  H      0.766288   -1.583345    1.320513
  H      1.732074   -0.101055    1.380416
  H     -1.918993   -0.187853   -0.920042
  H     -1.377632   -1.637717   -0.044350
  H     -3.034595   -0.475166    1.101876
  H      0.711165   -1.563574   -1.233811
  H      0.176213   -0.130723   -2.099328
  H      4.263359    0.673942   -1.508783

 Total Charge           Charge          ....    0
 Multiplicity           Mult            ....    1
 Number of Electrons    NEL             ....   62
 Basis Dimension        Dim             ....  320

ORBITAL ENERGIES
----------------

  NO   OCC          E(Eh)            E(eV)
   0   2.0000     -20.559046      -559.4401
   1   2.0000     -11.278323      -306.8988
   2   2.0000     -11.250079      -306.1302
   3   2.0000     -11.242055      -305.9119
   4   2.0000     -11.231208      -305.6167
   5   2.0000     -11.216544      -305.2177
   6   2.0000     -11.204398      -304.8872
   7   2.0000     -11.204383      -304.8868
   8   2.0000      -1.364626       -37.1334
   9   2.0000      -1.116831       -30.3905
  10   2.0000      -1.031072       -28.0569
  11   2.0000      -0.944667       -25.7057
  12   2.0000      -0.926756       -25.2183
  13   2.0000      -0.918705       -24.9992
  14   2.0000      -0.749251       -20.3882
  15   2.0000      -0.717153       -19.5147
  16   2.0000      -0.700348       -19.0574
  17   2.0000      -0.648585       -17.6489
  18   2.0000      -0.642096       -17.4723
  19   2.0000      -0.602798       -16.4030
  20   2.0000      -0.591529       -16.0963
  21   2.0000      -0.576166       -15.6783
  22   2.0000      -0.545382       -14.8406
  23   2.0000      -0.527576       -14.3561
  24   2.0000      -0.519683       -14.1413
  25   2.0000      -0.479105       -13.0371
  26   2.0000      -0.472378       -12.8541
  27   2.0000      -0.456809       -12.4304
  28   2.0000      -0.443936       -12.0801
  29   2.0000      -0.381896       -10.3919
  30   2.0000      -0.381127       -10.3710
  31   0.0000       0.125249         3.4082
  32   0.0000       0.149773         4.0755
  33   0.0000       0.167023         4.5449
  34   0.0000       0.170885         4.6500
  35   0.0000       0.173063         4.7093

MULLIKEN ATOMIC CHARGES
-----------------------
   0 C :   -0.432397
   1 C :    0.123325
   2 C :   -0.432386
   3 C :   -0.074450
   4 O :   -0.467994
   5 C :   -0.384282
   6 C :   -0.008123
   7 C :   -0.140920
   8 H :    0.147311
   9 H :    0.117120
  10 H :    0.152575
  11 H :    0.152564
  12 H :    0.117105
  13 H :    0.147314
  14 H :    0.098687
  15 H :    0.098703
  16 H :    0.316372
  17 H :    0.141142
  18 H :    0.141159
  19 H :    0.187172
Sum of atomic charges:    0.0000000

LOEWDIN ATOMIC CHARGES
----------------------
   0 C :   -0.264065
   1 C :   -0.324414
   2 C :   -0.264074
   3 C :   -0.312681
   4 O :   -0.038381
   5 C :   -0.210452
   6 C :   -0.109213
   7 C :   -0.109581
   8 H :    0.130635
   9 H :    0.125199
  10 H :    0.131111
  11 H :    0.131107
  12 H :    0.125195
  13 H :    0.130637
  14 H :    0.119594
  15 H :    0.119593
  16 H :    0.173679
  17 H :    0.160219
  18 H :    0.160219
  19 H :    0.125672

  Mayer bond orders larger than 0.1
B(  0-C ,  1-C ) :   0.9168 B(  0-C ,  8-H ) :   0.9330 B(  0-C ,  9-H ) :   0.9298
B(  0-C , 10-H ) :   0.9323 B(  1-C ,  2-C ) :   0.9168 B(  1-C ,  3-C ) :   0.9049
B(  1-C ,  5-C ) :   0.8849 B(  2-C , 11-H ) :   0.9323 B(  2-C , 12-H ) :   0.9298
B(  2-C , 13-H ) :   0.9330 B(  3-C ,  4-O ) :   1.0364 B(  3-C , 14-H ) :   0.9263
B(  3-C , 15-H ) :   0.9263 B(  4-O , 16-H ) :   0.8466 B(  5-C ,  6-C ) :   1.1245
B(  5-C ,  7-C ) :  -0.1171 B(  5-C , 17-H ) :   0.9152 B(  5-C , 18-H ) :   0.9152
B(  6-C ,  7-C ) :   2.6099 B(  7-C , 19-H ) :   0.8980

MP2 TOTAL ENERGY:     -348.369620410 Eh
FINAL SINGLE POINT ENERGY      -348.369620409765

DIPOLE MOMENT
-------------
                                X             Y             Z
Electronic contribution:      1.42941      -0.58022      -1.84426
Nuclear contribution   :     -1.95663       0.21180       1.56185
                        -----------------------------------------
Total Dipole Moment    :     -0.52722      -0.36842      -0.28241
                        -----------------------------------------
Magnitude (a.u.)       :      0.70246
Magnitude (Debye)      :      1.78551

                             ****ORCA TERMINATED NORMALLY****
TOTAL RUN TIME: 0 days 0 hours 12 minutes 56 seconds 519 msec
