                         Program Version 3.0.3 - RELEASE   -
|  1> ! RI-MP2 RIJK def2-TZVP def2-TZVP/C def2-TZVP/JK TIGHTSCF
|  2> % maxcore 2000
|  3> % mp2 density relaxed end
|  4> *xyz 0 1
|  5>  C       -0.1545775636     1.4926990478    -0.1681367775
|  6>  C       -0.0848379213    -0.0261163672    -0.0571383034
|  7>  O        0.8583664701    -0.4651192226     0.9204061266
|  8>  C       -1.4352195482    -0.6520232357     0.2617021566
|  9>  O       -2.4306480430    -0.4191097810    -0.7884315052
| 10>  C       -2.5350949034    -1.7719360183    -1.0613975777
| 11>  N       -3.1805126922    -2.3733326964    -1.9503124190
| 12>  C       -1.5880556648    -2.1963564853     0.0502608850
| 13>  N       -0.4923775385    -3.0546812374    -0.3309235444
| 14>  H        0.8286573508     1.9036300098    -0.4121256052
| 15>  H       -0.8658376627     1.7859180569    -0.9451704138
| 16>  H       -0.4905559229     1.9370358336     0.7775643511
| 17>  H        0.2766125241    -0.4425356954    -1.0042074882
| 18>  H        0.6836434091     0.0160722504     1.7371311424
| 19>  H       -1.8141101572    -0.2792634943     1.2216247932
| 20>  H       -3.6995739062    -1.7195617689    -2.5396259089
| 21>  H       -2.1266102357    -2.6517390985     0.8881825716
| 22>  H       -0.1192966924    -2.7918715198    -1.2368346811
| 23>  H        0.2622192481    -2.9723628677     0.3436431878
| 24> *
| 25>
| 26>                          ****END OF INPUT****

CARTESIAN COORDINATES (ANGSTROEM)
---------------------------------
  C     -0.154578    1.492699   -0.168137
  C     -0.084838   -0.026116   -0.057138
  O      0.858366   -0.465119    0.920406
  C     -1.435220   -0.652023    0.261702
  O     -2.430648   -0.419110   -0.788432
  C     -2.535095   -1.771936   -1.061398
  N     -3.180513   -2.373333   -1.950312
  C     -1.588056   -2.196356    0.050261
  N     -0.492378   -3.054681   -0.330924
  H      0.828657    1.903630   -0.412126
  H     -0.865838    1.785918   -0.945170
  H     -0.490556    1.937036    0.777564
  H      0.276613   -0.442536   -1.004207
  H      0.683643    0.016072    1.737131
  H     -1.814110   -0.279263    1.221625
  H     -3.699574   -1.719562   -2.539626
  H     -2.126610   -2.651739    0.888183
  H     -0.119297   -2.791872   -1.236835
  H      0.262219   -2.972363    0.343643

 Total Charge           Charge          ....    0
 Multiplicity           Mult            ....    1
 Number of Electrons    NEL             ....   70
 Basis Dimension        Dim             ....  339

ORBITAL ENERGIES
----------------

  NO   OCC          E(Eh)            E(eV)
   0   2.0000     -20.595948      -560.4442
   1   2.0000     -20.578636      -559.9732
   2   2.0000     -15.553573      -423.2342
   3   2.0000     -15.540547      -422.8798
   4   2.0000     -11.339583      -308.5658
   5   2.0000     -11.303749      -307.5907
   6   2.0000     -11.301624      -307.5328
   7   2.0000     -11.283538      -307.0407
   8   2.0000     -11.233951      -305.6914
   9   2.0000      -1.437912       -39.1276
  10   2.0000      -1.383391       -37.6440
  11   2.0000      -1.205485       -32.8029
  12   2.0000      -1.191112       -32.4118
  13   2.0000      -1.054160       -28.6852
  14   2.0000      -0.990129       -26.9428
  15   2.0000      -0.915518       -24.9125
  16   2.0000      -0.837999       -22.8031
  17   2.0000      -0.750445       -20.4207
  18   2.0000      -0.713301       -19.4099
  19   2.0000      -0.705496       -19.1975
  20   2.0000      -0.689616       -18.7654
  21   2.0000      -0.661845       -18.0097
  22   2.0000      -0.650068       -17.6892
  23   2.0000      -0.619780       -16.8651
  24   2.0000      -0.590756       -16.0753
  25   2.0000      -0.572417       -15.5763
  26   2.0000      -0.558622       -15.2009
  27   2.0000      -0.546182       -14.8624
  28   2.0000      -0.532018       -14.4769
  29   2.0000      -0.511139       -13.9088
  30   2.0000      -0.493737       -13.4353
  31   2.0000      -0.470233       -12.7957
  32   2.0000      -0.438061       -11.9203
  33   2.0000      -0.408464       -11.1149
  34   2.0000      -0.396238       -10.7822
  35   0.0000       0.117200         3.1892
  36   0.0000       0.138772         3.7762
  37   0.0000       0.148300         4.0354
  38   0.0000       0.160527         4.3682
  39   0.0000       0.175453         4.7743

MULLIKEN ATOMIC CHARGES
-----------------------
   0 C :   -0.406346
   1 C :    0.057682
   2 O :   -0.472036
   3 C :    0.068704
   4 O :   -0.280238
   5 C :    0.072738
   6 N :   -0.346616
   7 C :    0.050000
   8 N :   -0.497954
   9 H :    0.152784
  10 H :    0.152101
  11 H :    0.115508
  12 H :    0.085723
  13 H :    0.317947
  14 H :    0.102585
  15 H :    0.228946
  16 H :    0.129703
  17 H :    0.226569
  18 H :    0.242199
Sum of atomic charges:   -0.0000000

LOEWDIN ATOMIC CHARGES
----------------------
   0 C :   -0.297578
   1 C :   -0.364562
   2 O :   -0.017348
   3 C :   -0.232841
   4 O :    0.225726
   5 C :   -0.383291
   6 N :   -0.042686
   7 C :   -0.261023
   8 N :   -0.122157
   9 H :    0.128749
  10 H :    0.135504
  11 H :    0.122904
  12 H :    0.145733
  13 H :    0.176416
  14 H :    0.136694
  15 H :    0.174015
  16 H :    0.155267
  17 H :    0.158402
  18 H :    0.162073

  Mayer bond orders larger than 0.1
B(  0-C ,  1-C ) :   0.9452 B(  0-C ,  9-H ) :   0.9414 B(  0-C , 10-H ) :   0.9283
B(  0-C , 11-H ) :   0.9167 B(  1-C ,  2-O ) :   0.8918 B(  1-C ,  3-C ) :   0.9205
B(  1-C , 12-H ) :   0.9130 B(  2-O , 13-H ) :   0.8395 B(  3-C ,  4-O ) :   0.8823
B(  3-C ,  7-C ) :   0.9050 B(  3-C , 14-H ) :   0.8993 B(  4-O ,  5-C ) :   1.0550
B(  5-C ,  6-N ) :   2.1083 B(  5-C ,  7-C ) :   0.8877 B(  6-N , 15-H ) :   0.8438
B(  7-C ,  8-N ) :   1.0190 B(  7-C , 16-H ) :   0.9171 B(  8-N , 17-H ) :   0.8894
B(  8-N , 18-H ) :   0.8846

MP2 TOTAL ENERGY:     -455.603327506 Eh
FINAL SINGLE POINT ENERGY      -455.603327506137

DIPOLE MOMENT
-------------
                                X             Y             Z
Electronic contribution:     -3.93113      -3.43365      -1.21735
Nuclear contribution   :      4.43135       4.71630       1.98532
                        -----------------------------------------
Total Dipole Moment    :      0.50022       1.28265       0.76797
                        -----------------------------------------
Magnitude (a.u.)       :      1.57645
Magnitude (Debye)      :      4.00702

                             ****ORCA TERMINATED NORMALLY****
TOTAL RUN TIME: 0 days 0 hours 17 minutes 56 seconds 285 msec
