                         Program Version 3.0.3 - RELEASE   -
|  1> ! RI-MP2 RIJK def2-TZVP def2-TZVP/C def2-TZVP/JK TIGHTSCF
|  2> % maxcore 2000
|  3> % mp2 density relaxed end
|  4> *xyz 0 1
|  5>  C       -0.0685658684     1.5303992511     0.0322211613
|  6>  C        0.0031253044     0.0020883989     0.0079424909
|  7>  C        0.6299275061    -0.5315068371    -1.2922573613
|  8>  C        0.7496522541    -2.0619798363    -1.2776316051
|  9>  C        1.5145853114    -2.5410614861    -0.0386426072
| 10>  N        0.9272629430    -1.9785712473     1.1715024509
| 11>  C        0.7917262928    -0.5337435297     1.2165266425
| 12>  C        0.5055845076    -2.7860418049     2.1832733564
| 13>  O        0.5802366913    -3.9977018484     2.2017931953
| 14>  H        0.9323556929     1.9737668395    -0.0264986100
| 15>  H       -0.6484852085     1.9089706757    -0.8152835902
| 16>  H       -0.5414415979     1.8956023190     0.9503298246
| 17>  H       -1.0167859168    -0.4010203487     0.0831871703
| 18>  H        0.0387152621    -0.2018254467    -2.1541041104
| 19>  H        1.6294691005    -0.0878613972    -1.4129797256
| 20>  H       -0.2508041299    -2.5117395896    -1.2739955235
| 21>  H        1.2590787505    -2.4169953803    -2.1800023649
| 22>  H        1.4899630893    -3.6262116356     0.0684447822
| 23>  H        2.5671616350    -2.2270057644    -0.1067682037
| 24>  H        1.7909642078    -0.0687070847     1.2272669265
| 25>  H        0.2981281057    -0.2602054841     2.1548733823
| 26>  H        0.0701862871    -2.1989908531     3.0170607586
| 27> *
| 28>
| 29>                          ****END OF INPUT****

CARTESIAN COORDINATES (ANGSTROEM)
---------------------------------
  C     -0.068566    1.530399    0.032221
  C      0.003125    0.002088    0.007942
  C      0.629928   -0.531507   -1.292257
  C      0.749652   -2.061980   -1.277632
  C      1.514585   -2.541061   -0.038643
  N      0.927263   -1.978571    1.171502
  C      0.791726   -0.533744    1.216527
  C      0.505585   -2.786042    2.183273
  O      0.580237   -3.997702    2.201793
  H      0.932356    1.973767   -0.026499
  H     -0.648485    1.908971   -0.815284
  H     -0.541442    1.895602    0.950330
  H     -1.016786   -0.401020    0.083187
  H      0.038715   -0.201825   -2.154104
  H      1.629469   -0.087861   -1.412980
  H     -0.250804   -2.511740   -1.273996
  H      1.259079   -2.416995   -2.180002
  H      1.489963   -3.626212    0.068445
  H      2.567162   -2.227006   -0.106768
  H      1.790964   -0.068707    1.227267
  H      0.298128   -0.260205    2.154873
  H      0.070186   -2.198991    3.017061

 Total Charge           Charge          ....    0
 Multiplicity           Mult            ....    1
 Number of Electrons    NEL             ....   70
 Basis Dimension        Dim             ....  357

ORBITAL ENERGIES
----------------

  NO   OCC          E(Eh)            E(eV)
   0   2.0000     -20.513927      -558.2123
   1   2.0000     -15.584370      -424.0723
   2   2.0000     -11.340951      -308.6030
   3   2.0000     -11.272921      -306.7518
   4   2.0000     -11.259192      -306.3782
   5   2.0000     -11.239840      -305.8516
   6   2.0000     -11.230107      -305.5868
   7   2.0000     -11.228544      -305.5442
   8   2.0000     -11.225835      -305.4705
   9   2.0000      -1.375771       -37.4366
  10   2.0000      -1.255909       -34.1750
  11   2.0000      -1.098124       -29.8815
  12   2.0000      -1.047661       -28.5083
  13   2.0000      -0.947520       -25.7833
  14   2.0000      -0.929783       -25.3007
  15   2.0000      -0.852321       -23.1928
  16   2.0000      -0.797798       -21.7092
  17   2.0000      -0.757577       -20.6147
  18   2.0000      -0.703914       -19.1545
  19   2.0000      -0.663370       -18.0512
  20   2.0000      -0.631062       -17.1721
  21   2.0000      -0.626969       -17.0607
  22   2.0000      -0.617426       -16.8010
  23   2.0000      -0.587106       -15.9760
  24   2.0000      -0.576475       -15.6867
  25   2.0000      -0.556536       -15.1441
  26   2.0000      -0.543207       -14.7814
  27   2.0000      -0.533785       -14.5250
  28   2.0000      -0.521884       -14.2012
  29   2.0000      -0.494227       -13.4486
  30   2.0000      -0.482240       -13.1224
  31   2.0000      -0.469330       -12.7711
  32   2.0000      -0.458727       -12.4826
  33   2.0000      -0.423232       -11.5167
  34   2.0000      -0.367129        -9.9901
  35   0.0000       0.126850         3.4518
  36   0.0000       0.141738         3.8569
  37   0.0000       0.148911         4.0521
  38   0.0000       0.164172         4.4673
  39   0.0000       0.181143         4.9291

MULLIKEN ATOMIC CHARGES
-----------------------
   0 C :   -0.400088
   1 C :   -0.029539
   2 C :   -0.227385
   3 C :   -0.212631
   4 C :   -0.197586
   5 N :   -0.046691
   6 C :   -0.239126
   7 C :    0.139694
   8 O :   -0.368875
   9 H :    0.126470
  10 H :    0.137961
  11 H :    0.135312
  12 H :    0.088996
  13 H :    0.126662
  14 H :    0.105722
  15 H :    0.119265
  16 H :    0.125957
  17 H :    0.173927
  18 H :    0.118572
  19 H :    0.120967
  20 H :    0.133456
  21 H :    0.068960
Sum of atomic charges:    0.0000000

LOEWDIN ATOMIC CHARGES
----------------------
   0 C :   -0.292177
   1 C :   -0.283471
   2 C :   -0.245239
   3 C :   -0.260693
   4 C :   -0.244913
   5 N :    0.175126
   6 C :   -0.237750
   7 C :   -0.422716
   8 O :    0.049207
   9 H :    0.124524
  10 H :    0.126526
  11 H :    0.124624
  12 H :    0.153614
  13 H :    0.139773
  14 H :    0.140295
  15 H :    0.141793
  16 H :    0.139822
  17 H :    0.148886
  18 H :    0.134663
  19 H :    0.136253
  20 H :    0.140105
  21 H :    0.111748

  Mayer bond orders larger than 0.1
B(  0-C ,  1-C ) :   0.9132 B(  0-C ,  9-H ) :   0.9284 B(  0-C , 10-H ) :   0.9389
B(  0-C , 11-H ) :   0.9415 B(  1-C ,  2-C ) :   0.9222 B(  1-C ,  6-C ) :   0.9164
B(  1-C , 12-H ) :   0.9206 B(  2-C ,  3-C ) :   0.9233 B(  2-C , 13-H ) :   0.9290
B(  2-C , 14-H ) :   0.9252 B(  3-C ,  4-C ) :   0.9394 B(  3-C , 15-H ) :   0.9293
B(  3-C , 16-H ) :   0.9325 B(  4-C ,  5-N ) :   0.8455 B(  4-C , 17-H ) :   0.9152
B(  4-C , 18-H ) :   0.9294 B(  5-N ,  6-C ) :   0.9301 B(  5-N ,  7-C ) :   1.1480
B(  6-C , 19-H ) :   0.9275 B(  6-C , 20-H ) :   0.9249 B(  7-C ,  8-O ) :   1.8896
B(  7-C , 21-H ) :   0.9275

MP2 TOTAL ENERGY:     -403.711760744 Eh
FINAL SINGLE POINT ENERGY      -403.711760744238

DIPOLE MOMENT
-------------
                                X             Y             Z
Electronic contribution:      0.52190      -8.31291       5.55938
Nuclear contribution   :     -0.47579       9.80318      -6.27407
                        -----------------------------------------
Total Dipole Moment    :      0.04611       1.49027      -0.71469
                        -----------------------------------------
Magnitude (a.u.)       :      1.65343
Magnitude (Debye)      :      4.20267

                             ****ORCA TERMINATED NORMALLY****
TOTAL RUN TIME: 0 days 0 hours 20 minutes 35 seconds 571 msec
