                         Program Version 3.0.3 - RELEASE   -
|  1> ! RI-MP2 RIJK def2-TZVP def2-TZVP/C def2-TZVP/JK TIGHTSCF
|  2> % maxcore 2000
|  3> % mp2 density relaxed end
|  4> *xyz 0 1
|  5>  C       -0.6222343499     1.1871581880    -0.7055838160
|  6>  O       -0.8050833816    -0.2069380617    -0.6534198501
|  7>  C       -0.9363147504    -0.6969886954     0.6615458616
|  8>  C       -1.1095842119    -2.2177230909     0.6272832100
|  9>  O       -1.0631693852    -2.7219389451     1.9612310569
| 10>  C       -2.3681704444    -2.6754580689    -0.0945847640
| 11>  C       -2.4678680394    -2.5611191522    -1.6433307670
| 12>  C       -3.1607643050    -3.9498650127    -1.6649841079
| 13>  C       -2.6079299062    -4.2049412604    -0.2361835817
| 14>  H       -0.5208901314     1.4663658754    -1.7571729910
| 15>  H       -1.4796399204     1.7285199990    -0.2746186514
| 16>  H        0.2851953591     1.4994793871    -0.1648853902
| 17>  H       -0.0469719115    -0.4543835509     1.2651521970
| 18>  H       -1.8076500732    -0.2355258678     1.1640792613
| 19>  H       -0.2330558803    -2.6498434069     0.1287048139
| 20>  H       -1.8941749571    -2.4892082506     2.3902241159
| 21>  H       -3.2407307901    -2.1966481380     0.3738419334
| 22>  H       -3.0075622937    -1.7056181195    -2.0527428330
| 23>  H       -1.4765413190    -2.5900044767    -2.1037725084
| 24>  H       -4.2513275832    -3.8609912743    -1.6685541871
| 25>  H       -2.8709807498    -4.6497617458    -2.4524079819
| 26>  H       -1.6580719665    -4.7482963550    -0.2567792460
| 27>  H       -3.2641153789    -4.6899165466     0.4902508859
| 28> *
| 29>
| 30>                          ****END OF INPUT****

CARTESIAN COORDINATES (ANGSTROEM)
---------------------------------
  C     -0.622234    1.187158   -0.705584
  O     -0.805083   -0.206938   -0.653420
  C     -0.936315   -0.696989    0.661546
  C     -1.109584   -2.217723    0.627283
  O     -1.063169   -2.721939    1.961231
  C     -2.368170   -2.675458   -0.094585
  C     -2.467868   -2.561119   -1.643331
  C     -3.160764   -3.949865   -1.664984
  C     -2.607930   -4.204941   -0.236184
  H     -0.520890    1.466366   -1.757173
  H     -1.479640    1.728520   -0.274619
  H      0.285195    1.499479   -0.164885
  H     -0.046972   -0.454384    1.265152
  H     -1.807650   -0.235526    1.164079
  H     -0.233056   -2.649843    0.128705
  H     -1.894175   -2.489208    2.390224
  H     -3.240731   -2.196648    0.373842
  H     -3.007562   -1.705618   -2.052743
  H     -1.476541   -2.590004   -2.103773
  H     -4.251328   -3.860991   -1.668554
  H     -2.870981   -4.649762   -2.452408
  H     -1.658072   -4.748296   -0.256779
  H     -3.264115   -4.689917    0.490251

 Total Charge           Charge          ....    0
 Multiplicity           Mult            ....    1
 Number of Electrons    NEL             ....   72
 Basis Dimension        Dim             ....  363

ORBITAL ENERGIES
----------------

  NO   OCC          E(Eh)            E(eV)
   0   2.0000     -20.558483      -559.4248
   1   2.0000     -20.554176      -559.3076
   2   2.0000     -11.274165      -306.7856
   3   2.0000     -11.273586      -306.7699
   4   2.0000     -11.273415      -306.7652
   5   2.0000     -11.222871      -305.3899
   6   2.0000     -11.214456      -305.1609
   7   2.0000     -11.213822      -305.1436
   8   2.0000     -11.213083      -305.1235
   9   2.0000      -1.381780       -37.6002
  10   2.0000      -1.357926       -36.9511
  11   2.0000      -1.124868       -30.6092
  12   2.0000      -1.016473       -27.6596
  13   2.0000      -0.929465       -25.2920
  14   2.0000      -0.889846       -24.2139
  15   2.0000      -0.881244       -23.9799
  16   2.0000      -0.815592       -22.1934
  17   2.0000      -0.754841       -20.5403
  18   2.0000      -0.683121       -18.5887
  19   2.0000      -0.669007       -18.2046
  20   2.0000      -0.660172       -17.9642
  21   2.0000      -0.643458       -17.5094
  22   2.0000      -0.637569       -17.3491
  23   2.0000      -0.589206       -16.0331
  24   2.0000      -0.579884       -15.7794
  25   2.0000      -0.558990       -15.2109
  26   2.0000      -0.549500       -14.9527
  27   2.0000      -0.531791       -14.4708
  28   2.0000      -0.496666       -13.5150
  29   2.0000      -0.486809       -13.2467
  30   2.0000      -0.474265       -12.9054
  31   2.0000      -0.466979       -12.7071
  32   2.0000      -0.444876       -12.1057
  33   2.0000      -0.430060       -11.7025
  34   2.0000      -0.427494       -11.6327
  35   2.0000      -0.408567       -11.1177
  36   0.0000       0.130317         3.5461
  37   0.0000       0.145767         3.9665
  38   0.0000       0.151131         4.1125
  39   0.0000       0.166730         4.5369
  40   0.0000       0.180454         4.9104

MULLIKEN ATOMIC CHARGES
-----------------------
   0 C :   -0.218487
   1 O :   -0.299587
   2 C :   -0.057879
   3 C :    0.113525
   4 O :   -0.468264
   5 C :   -0.141885
   6 C :   -0.236411
   7 C :   -0.188553
   8 C :   -0.204325
   9 H :    0.139184
  10 H :    0.110622
  11 H :    0.113465
  12 H :    0.112411
  13 H :    0.074318
  14 H :    0.088378
  15 H :    0.312058
  16 H :    0.086734
  17 H :    0.110925
  18 H :    0.113830
  19 H :    0.106912
  20 H :    0.111251
  21 H :    0.112065
  22 H :    0.109715
Sum of atomic charges:   -0.0000000

LOEWDIN ATOMIC CHARGES
----------------------
   0 C :   -0.360815
   1 O :    0.145109
   2 C :   -0.318004
   3 C :   -0.335240
   4 O :   -0.014251
   5 C :   -0.229267
   6 C :   -0.222738
   7 C :   -0.246079
   8 C :   -0.220298
   9 H :    0.113528
  10 H :    0.101070
  11 H :    0.102846
  12 H :    0.124122
  13 H :    0.116543
  14 H :    0.149009
  15 H :    0.174725
  16 H :    0.148078
  17 H :    0.122829
  18 H :    0.137489
  19 H :    0.131059
  20 H :    0.120932
  21 H :    0.138010
  22 H :    0.121341

  Mayer bond orders larger than 0.1
B(  0-C ,  1-O ) :   0.9189 B(  0-C ,  9-H ) :   0.9400 B(  0-C , 10-H ) :   0.9370
B(  0-C , 11-H ) :   0.9355 B(  1-O ,  2-C ) :   0.9399 B(  2-C ,  3-C ) :   0.9745
B(  2-C , 12-H ) :   0.9253 B(  2-C , 13-H ) :   0.9032 B(  3-C ,  4-O ) :   0.8792
B(  3-C ,  5-C ) :   0.9648 B(  3-C , 14-H ) :   0.8975 B(  4-O , 15-H ) :   0.8426
B(  5-C ,  6-C ) :   0.9495 B(  5-C ,  8-C ) :   0.9317 B(  5-C , 16-H ) :   0.9024
B(  6-C ,  7-C ) :   0.9245 B(  6-C , 17-H ) :   0.9305 B(  6-C , 18-H ) :   0.9247
B(  7-C ,  8-C ) :   0.9292 B(  7-C , 19-H ) :   0.9267 B(  7-C , 20-H ) :   0.9266
B(  8-C , 21-H ) :   0.9217 B(  8-C , 22-H ) :   0.9313

MP2 TOTAL ENERGY:     -424.695023018 Eh
FINAL SINGLE POINT ENERGY      -424.695023018186

DIPOLE MOMENT
-------------
                                X             Y             Z
Electronic contribution:      1.74719      -1.03550       2.52993
Nuclear contribution   :     -2.18162       1.66919      -2.49829
                        -----------------------------------------
Total Dipole Moment    :     -0.43443       0.63369       0.03164
                        -----------------------------------------
Magnitude (a.u.)       :      0.76896
Magnitude (Debye)      :      1.95453

                             ****ORCA TERMINATED NORMALLY****
TOTAL RUN TIME: 0 days 0 hours 17 minutes 37 seconds 85 msec
