                         Program Version 3.0.3 - RELEASE   -
|  1> ! RI-MP2 RIJK def2-TZVP def2-TZVP/C def2-TZVP/JK TIGHTSCF
|  2> % maxcore 2000
|  3> % mp2 density relaxed end
|  4> *xyz 0 1
|  5>  C       -0.0538698579     1.5670090953     0.0348306449
|  6>  C        0.0850799686     0.0628982969     0.0410415301
|  7>  C        1.3665150414    -0.6677770512    -0.2186175126
|  8>  O        2.5672015035     0.0582304989    -0.0087303060
|  9>  C        2.5761681385     0.3775175688     1.3202260859
| 10>  C        3.7625274477     1.1721608360     1.7532448036
| 11>  O        3.9350813173     1.5621068874     2.8769435031
| 12>  N        1.6213678504    -0.0516288287     2.0508177147
| 13>  C        0.7200002358    -0.7414309733     1.1743231209
| 14>  H        0.7730199372     2.0631885891     0.5464963120
| 15>  H       -0.0873226781     1.9450800128    -0.9919212490
| 16>  H       -0.9778017043     1.8656645446     0.5388928963
| 17>  H       -0.7653065384    -0.4669492100    -0.3818890078
| 18>  H        1.4764512778    -1.4607908102    -0.9472706294
| 19>  H        4.4816936360     1.3644801288     0.9309796218
| 20>  H        0.1988351943    -1.5954720051     1.5888432514
| 21> *
| 22>
| 23>                          ****END OF INPUT****

CARTESIAN COORDINATES (ANGSTROEM)
---------------------------------
  C     -0.053870    1.567009    0.034831
  C      0.085080    0.062898    0.041042
  C      1.366515   -0.667777   -0.218618
  O      2.567202    0.058230   -0.008730
  C      2.576168    0.377518    1.320226
  C      3.762527    1.172161    1.753245
  O      3.935081    1.562107    2.876944
  N      1.621368   -0.051629    2.050818
  C      0.720000   -0.741431    1.174323
  H      0.773020    2.063189    0.546496
  H     -0.087323    1.945080   -0.991921
  H     -0.977802    1.865665    0.538893
  H     -0.765307   -0.466949   -0.381889
  H      1.476451   -1.460791   -0.947271
  H      4.481694    1.364480    0.930980
  H      0.198835   -1.595472    1.588843

 Total Charge           Charge          ....    0
 Multiplicity           Mult            ....    1
 Number of Electrons    NEL             ....   66
 Basis Dimension        Dim             ....  321

ORBITAL ENERGIES
----------------

  NO   OCC          E(Eh)            E(eV)
   0   2.0000     -20.620866      -561.1223
   1   2.0000     -20.582424      -560.0762
   2   2.0000     -15.578507      -423.9127
   3   2.0000     -11.355284      -308.9930
   4   2.0000     -11.350782      -308.8705
   5   2.0000     -11.310070      -307.7626
   6   2.0000     -11.281535      -306.9862
   7   2.0000     -11.258289      -306.3536
   8   2.0000     -11.232525      -305.6525
   9   2.0000      -1.469656       -39.9914
  10   2.0000      -1.416549       -38.5463
  11   2.0000      -1.245173       -33.8829
  12   2.0000      -1.145312       -31.1655
  13   2.0000      -0.998262       -27.1641
  14   2.0000      -0.943406       -25.6714
  15   2.0000      -0.859628       -23.3917
  16   2.0000      -0.815302       -22.1855
  17   2.0000      -0.751123       -20.4391
  18   2.0000      -0.740016       -20.1369
  19   2.0000      -0.700336       -19.0571
  20   2.0000      -0.671853       -18.2820
  21   2.0000      -0.630165       -17.1476
  22   2.0000      -0.621638       -16.9156
  23   2.0000      -0.607503       -16.5310
  24   2.0000      -0.590008       -16.0549
  25   2.0000      -0.567401       -15.4398
  26   2.0000      -0.548588       -14.9278
  27   2.0000      -0.525401       -14.2969
  28   2.0000      -0.495450       -13.4819
  29   2.0000      -0.484790       -13.1918
  30   2.0000      -0.451289       -12.2802
  31   2.0000      -0.409503       -11.1432
  32   2.0000      -0.374821       -10.1994
  33   0.0000       0.063172         1.7190
  34   0.0000       0.134321         3.6551
  35   0.0000       0.156443         4.2570
  36   0.0000       0.175079         4.7641
  37   0.0000       0.183395         4.9904

MULLIKEN ATOMIC CHARGES
-----------------------
   0 C :   -0.377455
   1 C :   -0.132443
   2 C :    0.044487
   3 O :   -0.264512
   4 C :    0.212462
   5 C :    0.031161
   6 O :   -0.223139
   7 N :   -0.224911
   8 C :   -0.023903
   9 H :    0.140598
  10 H :    0.140618
  11 H :    0.143119
  12 H :    0.131547
  13 H :    0.148156
  14 H :    0.109087
  15 H :    0.145129
Sum of atomic charges:   -0.0000000

LOEWDIN ATOMIC CHARGES
----------------------
   0 C :   -0.282144
   1 C :   -0.220258
   2 C :   -0.224415
   3 O :    0.281611
   4 C :   -0.371170
   5 C :   -0.258778
   6 O :    0.173791
   7 N :    0.159361
   8 C :   -0.216837
   9 H :    0.131783
  10 H :    0.130538
  11 H :    0.132122
  12 H :    0.162495
  13 H :    0.138264
  14 H :    0.121950
  15 H :    0.141687

  Mayer bond orders larger than 0.1
B(  0-C ,  1-C ) :   0.9222 B(  0-C ,  9-H ) :   0.9235 B(  0-C , 10-H ) :   0.9374
B(  0-C , 11-H ) :   0.9363 B(  1-C ,  2-C ) :   0.8678 B(  1-C ,  8-C ) :   0.8267
B(  1-C , 12-H ) :   0.9204 B(  2-C ,  3-O ) :   0.8960 B(  2-C ,  8-C ) :   0.8528
B(  2-C , 13-H ) :   0.9292 B(  3-O ,  4-C ) :   1.0675 B(  4-C ,  5-C ) :   0.7937
B(  4-C ,  7-N ) :   1.7742 B(  5-C ,  6-O ) :   2.0381 B(  5-C , 14-H ) :   0.9702
B(  7-N ,  8-C ) :   0.9598 B(  8-C , 15-H ) :   0.9327

MP2 TOTAL ENERGY:     -437.153114004 Eh
FINAL SINGLE POINT ENERGY      -437.153114003531

DIPOLE MOMENT
-------------
                                X             Y             Z
Electronic contribution:      6.74902      -1.35447       3.94476
Nuclear contribution   :     -7.42864       0.85989      -5.34848
                        -----------------------------------------
Total Dipole Moment    :     -0.67962      -0.49458      -1.40372
                        -----------------------------------------
Magnitude (a.u.)       :      1.63613
Magnitude (Debye)      :      4.15872

                             ****ORCA TERMINATED NORMALLY****
TOTAL RUN TIME: 0 days 0 hours 16 minutes 44 seconds 70 msec
