                         Program Version 3.0.3 - RELEASE   -
|  1> ! RI-MP2 RIJK def2-TZVP def2-TZVP/C def2-TZVP/JK TIGHTSCF
|  2> % maxcore 2000
|  3> % mp2 density relaxed end
|  4> *xyz 0 1
|  5>  C       -0.0278965480     1.5252029777    -0.0649659898
|  6>  C        1.4314327132     2.0368043897     0.0351478422
|  7>  C        2.2795154527     1.6717215985     1.2570878199
|  8>  N        1.5029564512     0.9797674545     2.2608911245
|  9>  C        1.0876831787    -0.0591127018     1.6577987962
| 10>  O       -0.2357612718    -0.4588105153     1.5191180829
| 11>  C       -0.0041455015    -0.0241001266     0.1038529233
| 12>  C        1.5248932482    -0.3330705275     0.2252070847
| 13>  C        2.3736946196     0.8647000061    -0.0667768513
| 14>  H       -0.6988718144     1.9753967318     0.6707258520
| 15>  H       -0.4097295188     1.7694672750    -1.0615237939
| 16>  H        1.6754782892     2.9635507874    -0.4727455058
| 17>  H        3.0607781154     2.3491115148     1.5805553011
| 18>  H       -0.6539892627    -0.6019186609    -0.5533984177
| 19>  H        1.8451700887    -1.3398311953    -0.0279327541
| 20>  H        3.2585621701     0.8420100219    -0.6868412243
| 21> *
| 22>
| 23>                          ****END OF INPUT****

CARTESIAN COORDINATES (ANGSTROEM)
---------------------------------
  C     -0.027897    1.525203   -0.064966
  C      1.431433    2.036804    0.035148
  C      2.279515    1.671722    1.257088
  N      1.502956    0.979767    2.260891
  C      1.087683   -0.059113    1.657799
  O     -0.235761   -0.458811    1.519118
  C     -0.004146   -0.024100    0.103853
  C      1.524893   -0.333071    0.225207
  C      2.373695    0.864700   -0.066777
  H     -0.698872    1.975397    0.670726
  H     -0.409730    1.769467   -1.061524
  H      1.675478    2.963551   -0.472746
  H      3.060778    2.349112    1.580555
  H     -0.653989   -0.601919   -0.553398
  H      1.845170   -1.339831   -0.027933
  H      3.258562    0.842010   -0.686841

 Total Charge           Charge          ....    0
 Multiplicity           Mult            ....    1
 Number of Electrons    NEL             ....   64
 Basis Dimension        Dim             ....  321

ORBITAL ENERGIES
----------------

  NO   OCC          E(Eh)            E(eV)
   0   2.0000     -20.585932      -560.1717
   1   2.0000     -15.547128      -423.0589
   2   2.0000     -11.340430      -308.5888
   3   2.0000     -11.318755      -307.9990
   4   2.0000     -11.275586      -306.8243
   5   2.0000     -11.256618      -306.3081
   6   2.0000     -11.247343      -306.0558
   7   2.0000     -11.245866      -306.0156
   8   2.0000     -11.245087      -305.9944
   9   2.0000      -1.429890       -38.9093
  10   2.0000      -1.265237       -34.4288
  11   2.0000      -1.139206       -30.9994
  12   2.0000      -1.031102       -28.0577
  13   2.0000      -0.997832       -27.1524
  14   2.0000      -0.875887       -23.8341
  15   2.0000      -0.808529       -22.0012
  16   2.0000      -0.773266       -21.0416
  17   2.0000      -0.743119       -20.2213
  18   2.0000      -0.707562       -19.2537
  19   2.0000      -0.661322       -17.9955
  20   2.0000      -0.642404       -17.4807
  21   2.0000      -0.629979       -17.1426
  22   2.0000      -0.595250       -16.1976
  23   2.0000      -0.546494       -14.8709
  24   2.0000      -0.540430       -14.7058
  25   2.0000      -0.518233       -14.1018
  26   2.0000      -0.508129       -13.8269
  27   2.0000      -0.491633       -13.3780
  28   2.0000      -0.449862       -12.2414
  29   2.0000      -0.428716       -11.6659
  30   2.0000      -0.404879       -11.0173
  31   2.0000      -0.347787        -9.4638
  32   0.0000       0.120563         3.2807
  33   0.0000       0.138384         3.7656
  34   0.0000       0.162734         4.4282
  35   0.0000       0.166368         4.5271
  36   0.0000       0.186538         5.0759

MULLIKEN ATOMIC CHARGES
-----------------------
   0 C :   -0.198034
   1 C :   -0.124492
   2 C :   -0.011242
   3 N :   -0.215562
   4 C :    0.113151
   5 O :   -0.272242
   6 C :    0.013233
   7 C :   -0.038254
   8 C :   -0.228999
   9 H :    0.138437
  10 H :    0.133041
  11 H :    0.134190
  12 H :    0.130929
  13 H :    0.137631
  14 H :    0.146538
  15 H :    0.141676
Sum of atomic charges:   -0.0000000

LOEWDIN ATOMIC CHARGES
----------------------
   0 C :   -0.193313
   1 C :   -0.168764
   2 C :   -0.197409
   3 N :    0.147698
   4 C :   -0.329689
   5 O :    0.200240
   6 C :   -0.174717
   7 C :   -0.150833
   8 C :   -0.158840
   9 H :    0.152643
  10 H :    0.147718
  11 H :    0.147782
  12 H :    0.139299
  13 H :    0.139095
  14 H :    0.154976
  15 H :    0.144115

  Mayer bond orders larger than 0.1
B(  0-C ,  1-C ) :   0.9370 B(  0-C ,  6-C ) :   0.9488 B(  0-C ,  9-H ) :   0.9030
B(  0-C , 10-H ) :   0.9140 B(  1-C ,  2-C ) :   0.8399 B(  1-C ,  8-C ) :   0.8695
B(  1-C , 11-H ) :   0.9236 B(  2-C ,  3-N ) :   0.9780 B(  2-C ,  8-C ) :   0.8475
B(  2-C , 12-H ) :   0.9390 B(  3-N ,  4-C ) :   1.8016 B(  4-C ,  5-O ) :   1.0522
B(  4-C ,  7-C ) :   0.9443 B(  5-O ,  6-C ) :   0.8883 B(  6-C ,  7-C ) :   0.8606
B(  6-C , 13-H ) :   0.9054 B(  7-C ,  8-C ) :   0.9717 B(  7-C , 14-H ) :   0.9018
B(  8-C , 15-H ) :   0.9183

MP2 TOTAL ENERGY:     -400.005261329 Eh
FINAL SINGLE POINT ENERGY      -400.005261329388

DIPOLE MOMENT
-------------
                                X             Y             Z
Electronic contribution:     -0.16328      -2.81601       4.06686
Nuclear contribution   :      0.54064       2.96976      -5.55146
                        -----------------------------------------
Total Dipole Moment    :      0.37736       0.15375      -1.48460
                        -----------------------------------------
Magnitude (a.u.)       :      1.53951
Magnitude (Debye)      :      3.91312

                             ****ORCA TERMINATED NORMALLY****
TOTAL RUN TIME: 0 days 0 hours 20 minutes 12 seconds 778 msec
