                         Program Version 3.0.3 - RELEASE   -
|  1> ! RI-MP2 RIJK def2-TZVP def2-TZVP/C def2-TZVP/JK TIGHTSCF
|  2> % maxcore 2000
|  3> % mp2 density relaxed end
|  4> *xyz 0 1
|  5>  N        0.3007285331     0.9825098658     0.1119568548
|  6>  H        0.2991818749    -0.0193574853     0.4121009790
|  7>  H        1.2487886828     1.3575113061     0.0861651879
|  8>  H       -0.1218371855     1.0911973006    -0.8098538737
|  9>  C       -0.5372122874     1.5955540967     1.2115299699
| 10>  C       -1.6974080939     0.6580519730     1.6006068160
| 11>  O       -0.6693776017    -0.3704585032     1.9979331212
| 12>  C       -0.2122478209     0.9465753387     2.5715193294
| 13>  C       -1.6570502512     1.2720346580     3.0206332177
| 14>  C       -2.1182868921     2.7743558218     3.2797574076
| 15>  O       -2.8044620896     2.8998909170     4.2921654327
| 16>  O       -1.7262865302     3.6155975156     2.4301195372
| 17>  H       -0.7266703452     2.6769524211     1.1799296302
| 18>  H       -2.5374012914     0.3132825490     0.9973769668
| 19>  H        0.7241694978     0.9469095890     3.1296084364
| 20>  H       -2.0230883594     0.5871806461     3.7840693570
| 21> *
| 22>
| 23>                          ****END OF INPUT****

CARTESIAN COORDINATES (ANGSTROEM)
---------------------------------
  N      0.300729    0.982510    0.111957
  H      0.299182   -0.019357    0.412101
  H      1.248789    1.357511    0.086165
  H     -0.121837    1.091197   -0.809854
  C     -0.537212    1.595554    1.211530
  C     -1.697408    0.658052    1.600607
  O     -0.669378   -0.370459    1.997933
  C     -0.212248    0.946575    2.571519
  C     -1.657050    1.272035    3.020633
  C     -2.118287    2.774356    3.279757
  O     -2.804462    2.899891    4.292165
  O     -1.726287    3.615598    2.430120
  H     -0.726670    2.676952    1.179930
  H     -2.537401    0.313283    0.997377
  H      0.724169    0.946910    3.129608
  H     -2.023088    0.587181    3.784069

 Total Charge           Charge          ....    0
 Multiplicity           Mult            ....    1
 Number of Electrons    NEL             ....   68
 Basis Dimension        Dim             ....  321

ORBITAL ENERGIES
----------------

  NO   OCC          E(Eh)            E(eV)
   0   2.0000     -20.598192      -560.5053
   1   2.0000     -20.441892      -556.2522
   2   2.0000     -20.438796      -556.1679
   3   2.0000     -15.747603      -428.5141
   4   2.0000     -11.341034      -308.6052
   5   2.0000     -11.340945      -308.6028
   6   2.0000     -11.328415      -308.2618
   7   2.0000     -11.293595      -307.3143
   8   2.0000     -11.246018      -306.0197
   9   2.0000      -1.444433       -39.3050
  10   2.0000      -1.352479       -36.8028
  11   2.0000      -1.326765       -36.1031
  12   2.0000      -1.230779       -33.4912
  13   2.0000      -1.118628       -30.4394
  14   2.0000      -0.957698       -26.0603
  15   2.0000      -0.930080       -25.3088
  16   2.0000      -0.834686       -22.7130
  17   2.0000      -0.821539       -22.3552
  18   2.0000      -0.797120       -21.6907
  19   2.0000      -0.744639       -20.2627
  20   2.0000      -0.708902       -19.2902
  21   2.0000      -0.685235       -18.6462
  22   2.0000      -0.601972       -16.3805
  23   2.0000      -0.591632       -16.0991
  24   2.0000      -0.567796       -15.4505
  25   2.0000      -0.546187       -14.8625
  26   2.0000      -0.531788       -14.4707
  27   2.0000      -0.530805       -14.4439
  28   2.0000      -0.517085       -14.0706
  29   2.0000      -0.470707       -12.8086
  30   2.0000      -0.468991       -12.7619
  31   2.0000      -0.364826        -9.9274
  32   2.0000      -0.346977        -9.4417
  33   2.0000      -0.346303        -9.4234
  34   0.0000       0.044850         1.2204
  35   0.0000       0.105858         2.8805
  36   0.0000       0.139256         3.7894
  37   0.0000       0.157498         4.2857
  38   0.0000       0.158763         4.3202

MULLIKEN ATOMIC CHARGES
-----------------------
   0 N :   -0.351176
   1 H :    0.331376
   2 H :    0.318099
   3 H :    0.318099
   4 C :   -0.114479
   5 C :    0.011620
   6 O :   -0.353050
   7 C :    0.011617
   8 C :   -0.187144
   9 C :    0.243701
  10 O :   -0.417371
  11 O :   -0.510542
  12 H :    0.250231
  13 H :    0.155821
  14 H :    0.155821
  15 H :    0.137377
Sum of atomic charges:   -0.0000000

LOEWDIN ATOMIC CHARGES
----------------------
   0 N :    0.143076
   1 H :    0.217195
   2 H :    0.205330
   3 H :    0.205330
   4 C :   -0.210553
   5 C :   -0.180142
   6 O :    0.083413
   7 C :   -0.180142
   8 C :   -0.143446
   9 C :   -0.662662
  10 O :    0.006436
  11 O :   -0.076161
  12 H :    0.170986
  13 H :    0.131558
  14 H :    0.131558
  15 H :    0.158224

  Mayer bond orders larger than 0.1
B(  0-N ,  1-H ) :   0.7816 B(  0-N ,  2-H ) :   0.8464 B(  0-N ,  3-H ) :   0.8464
B(  0-N ,  4-C ) :   0.7340 B(  1-H ,  6-O ) :   0.1217 B(  4-C ,  5-C ) :   0.9413
B(  4-C ,  7-C ) :   0.9413 B(  4-C , 12-H ) :   0.8162 B(  5-C ,  6-O ) :   0.8204
B(  5-C ,  7-C ) :   0.1031 B(  5-C ,  8-C ) :   0.8903 B(  5-C , 13-H ) :   0.8730
B(  6-O ,  7-C ) :   0.8204 B(  7-C ,  8-C ) :   0.8903 B(  7-C , 14-H ) :   0.8730
B(  8-C ,  9-C ) :   0.9030 B(  8-C , 15-H ) :   0.9268 B(  9-C , 10-O ) :   1.8044
B(  9-C , 11-O ) :   1.6149 B( 11-O , 12-H ) :   0.1174

MP2 TOTAL ENERGY:     -474.167847181 Eh
FINAL SINGLE POINT ENERGY      -474.167847181326

DIPOLE MOMENT
-------------
                                X             Y             Z
Electronic contribution:     -1.78030       1.28869       2.34033
Nuclear contribution   :      5.02195      -3.94375      -6.51004
                        -----------------------------------------
Total Dipole Moment    :      3.24165      -2.65506      -4.16971
                        -----------------------------------------
Magnitude (a.u.)       :      5.91136
Magnitude (Debye)      :     15.02547

                             ****ORCA TERMINATED NORMALLY****
TOTAL RUN TIME: 0 days 0 hours 14 minutes 30 seconds 36 msec
