                         Program Version 3.0.3 - RELEASE   -
|  1> ! RI-MP2 RIJK def2-TZVP def2-TZVP/C def2-TZVP/JK TIGHTSCF
|  2> % maxcore 2000
|  3> % mp2 density relaxed end
|  4> *xyz 0 1
|  5>  C        0.0108073373     1.6073384626     0.1656268748
|  6>  C       -0.0212072304     0.0802563261     0.0544925249
|  7>  C        0.8851176981    -0.5795451209     1.0777037899
|  8>  O        0.4731569957    -0.3136497199     2.4412010868
|  9>  C        0.2146813063    -1.7028621969     2.7023048730
| 10>  C        0.7539221112    -2.1235171029     1.3074057025
| 11>  C       -0.1100040094    -2.9020562831     0.4447285728
| 12>  C       -0.8361672570    -3.5537412685    -0.2625441658
| 13>  C       -1.7094594149    -4.3439993461    -1.1185380185
| 14>  H        1.0150418376     1.9997704393    -0.0304518707
| 15>  H       -0.6745423129     2.0698459704    -0.5506915345
| 16>  H       -0.2812785806     1.9217500197     1.1715615932
| 17>  H       -1.0431865740    -0.2899465178     0.1920100079
| 18>  H        0.2963510667    -0.2418086714    -0.9454783429
| 19>  H        1.9240823729    -0.2550917477     0.9259455130
| 20>  H        0.7829754832    -2.0761403196     3.5620895127
| 21>  H       -0.8514270927    -1.9073509999     2.8550762983
| 22>  H        1.7374009312    -2.5964835442     1.3802458355
| 23>  H       -1.9833808926    -3.7918974595    -2.0244384294
| 24>  H       -1.2247521053    -5.2751114733    -1.4324298065
| 25>  H       -2.6378997203    -4.6115941664    -0.6019190770
| 26> *
| 27>
| 28>                          ****END OF INPUT****

CARTESIAN COORDINATES (ANGSTROEM)
---------------------------------
  C      0.010807    1.607338    0.165627
  C     -0.021207    0.080256    0.054493
  C      0.885118   -0.579545    1.077704
  O      0.473157   -0.313650    2.441201
  C      0.214681   -1.702862    2.702305
  C      0.753922   -2.123517    1.307406
  C     -0.110004   -2.902056    0.444729
  C     -0.836167   -3.553741   -0.262544
  C     -1.709459   -4.343999   -1.118538
  H      1.015042    1.999770   -0.030452
  H     -0.674542    2.069846   -0.550692
  H     -0.281279    1.921750    1.171562
  H     -1.043187   -0.289947    0.192010
  H      0.296351   -0.241809   -0.945478
  H      1.924082   -0.255092    0.925946
  H      0.782975   -2.076140    3.562090
  H     -0.851427   -1.907351    2.855076
  H      1.737401   -2.596484    1.380246
  H     -1.983381   -3.791897   -2.024438
  H     -1.224752   -5.275111   -1.432430
  H     -2.637900   -4.611594   -0.601919

 Total Charge           Charge          ....    0
 Multiplicity           Mult            ....    1
 Number of Electrons    NEL             ....   68
 Basis Dimension        Dim             ....  351

ORBITAL ENERGIES
----------------

  NO   OCC          E(Eh)            E(eV)
   0   2.0000     -20.545792      -559.0794
   1   2.0000     -11.285252      -307.0873
   2   2.0000     -11.281391      -306.9823
   3   2.0000     -11.255893      -306.2884
   4   2.0000     -11.248731      -306.0935
   5   2.0000     -11.226637      -305.4923
   6   2.0000     -11.219818      -305.3068
   7   2.0000     -11.217636      -305.2474
   8   2.0000     -11.208345      -304.9946
   9   2.0000      -1.378520       -37.5114
  10   2.0000      -1.080109       -29.3913
  11   2.0000      -1.047723       -28.5100
  12   2.0000      -1.022041       -27.8111
  13   2.0000      -0.940785       -25.6001
  14   2.0000      -0.923488       -25.1294
  15   2.0000      -0.839459       -22.8428
  16   2.0000      -0.773936       -21.0599
  17   2.0000      -0.692532       -18.8448
  18   2.0000      -0.682673       -18.5765
  19   2.0000      -0.633199       -17.2302
  20   2.0000      -0.621648       -16.9159
  21   2.0000      -0.590616       -16.0715
  22   2.0000      -0.589105       -16.0304
  23   2.0000      -0.579713       -15.7748
  24   2.0000      -0.572201       -15.5704
  25   2.0000      -0.566512       -15.4156
  26   2.0000      -0.533295       -14.5117
  27   2.0000      -0.505866       -13.7653
  28   2.0000      -0.488079       -13.2813
  29   2.0000      -0.471929       -12.8418
  30   2.0000      -0.462329       -12.5806
  31   2.0000      -0.411716       -11.2034
  32   2.0000      -0.367206        -9.9922
  33   2.0000      -0.364570        -9.9204
  34   0.0000       0.130630         3.5546
  35   0.0000       0.147672         4.0184
  36   0.0000       0.154380         4.2009
  37   0.0000       0.166598         4.5334
  38   0.0000       0.185031         5.0350

MULLIKEN ATOMIC CHARGES
-----------------------
   0 C :   -0.394845
   1 C :   -0.203049
   2 C :    0.091979
   3 O :   -0.334074
   4 C :   -0.006748
   5 C :   -0.191247
   6 C :   -0.049110
   7 C :    0.040383
   8 C :   -0.483432
   9 H :    0.117477
  10 H :    0.132242
  11 H :    0.146852
  12 H :    0.115817
  13 H :    0.111201
  14 H :    0.085807
  15 H :    0.098368
  16 H :    0.101602
  17 H :    0.132568
  18 H :    0.162428
  19 H :    0.162952
  20 H :    0.162829
Sum of atomic charges:   -0.0000000

LOEWDIN ATOMIC CHARGES
----------------------
   0 C :   -0.315510
   1 C :   -0.274827
   2 C :   -0.248647
   3 O :    0.134627
   4 C :   -0.237287
   5 C :   -0.205136
   6 C :   -0.074751
   7 C :   -0.099295
   8 C :   -0.295236
   9 H :    0.120303
  10 H :    0.120510
  11 H :    0.127118
  12 H :    0.143925
  13 H :    0.143145
  14 H :    0.135750
  15 H :    0.116863
  16 H :    0.121220
  17 H :    0.164267
  18 H :    0.141027
  19 H :    0.140976
  20 H :    0.140959

  Mayer bond orders larger than 0.1
B(  0-C ,  1-C ) :   0.9157 B(  0-C ,  9-H ) :   0.9365 B(  0-C , 10-H ) :   0.9409
B(  0-C , 11-H ) :   0.9369 B(  1-C ,  2-C ) :   0.9375 B(  1-C , 12-H ) :   0.9275
B(  1-C , 13-H ) :   0.9216 B(  2-C ,  3-O ) :   0.9304 B(  2-C ,  5-C ) :   0.9425
B(  2-C , 14-H ) :   0.9146 B(  3-O ,  4-C ) :   0.9573 B(  4-C ,  5-C ) :   0.9288
B(  4-C , 15-H ) :   0.9130 B(  4-C , 16-H ) :   0.9118 B(  5-C ,  6-C ) :   1.0556
B(  5-C , 17-H ) :   0.9343 B(  6-C ,  7-C ) :   2.6647 B(  7-C ,  8-C ) :   0.8518
B(  8-C , 18-H ) :   0.9465 B(  8-C , 19-H ) :   0.9501 B(  8-C , 20-H ) :   0.9474

MP2 TOTAL ENERGY:     -386.363804812 Eh
FINAL SINGLE POINT ENERGY      -386.363804811820

DIPOLE MOMENT
-------------
                                X             Y             Z
Electronic contribution:      2.19843      -3.04539       3.95977
Nuclear contribution   :     -2.28425       2.44406      -4.46399
                        -----------------------------------------
Total Dipole Moment    :     -0.08582      -0.60133      -0.50422
                        -----------------------------------------
Magnitude (a.u.)       :      0.78943
Magnitude (Debye)      :      2.00656

                             ****ORCA TERMINATED NORMALLY****
TOTAL RUN TIME: 0 days 0 hours 18 minutes 8 seconds 709 msec
