                         Program Version 3.0.3 - RELEASE   -
|  1> ! RI-MP2 RIJK def2-TZVP def2-TZVP/C def2-TZVP/JK TIGHTSCF
|  2> % maxcore 2000
|  3> % mp2 density relaxed end
|  4> *xyz 0 1
|  5>  C        0.2098355525     1.5132466702    -0.6315753855
|  6>  C       -0.0485292796     0.1179363834    -0.1210991109
|  7>  N        1.1019795922    -0.7611789506     0.0354909518
|  8>  C        0.3712217994    -0.3563527281     1.2503252877
|  9>  C        1.0743424426     0.5460440516     2.2232443156
| 10>  O        2.0233849845     1.2375535850     1.9098208880
| 11>  C        0.5138939848     0.5692700025     3.6070578320
| 12>  C        1.5054263827     0.7533958594     4.7499212702
| 13>  C        0.6085882534     1.8801983451     4.3748232706
| 14>  H        1.1381771797     1.9056990516    -0.2153057920
| 15>  H        0.2933694958     1.4994595443    -1.7236253324
| 16>  H       -0.6152913325     2.1823503552    -0.3648107352
| 17>  H       -0.9758966194    -0.3341935462    -0.4744099024
| 18>  H        0.8646764751    -1.7224355745    -0.1950590163
| 19>  H       -0.2885781850    -1.0889852289     1.7105644435
| 20>  H       -0.3498253041    -0.0579546280     3.7964161602
| 21>  H        1.3110658425     0.2054303660     5.6646541456
| 22>  H        2.5456979003     0.8233495778     4.4536443285
| 23>  H        1.0488084374     2.7056695805     3.8274842926
| 24>  H       -0.2209570424     2.1324666139     5.0252323982
| 25> *
| 26>
| 27>                          ****END OF INPUT****

CARTESIAN COORDINATES (ANGSTROEM)
---------------------------------
  C      0.209836    1.513247   -0.631575
  C     -0.048529    0.117936   -0.121099
  N      1.101980   -0.761179    0.035491
  C      0.371222   -0.356353    1.250325
  C      1.074342    0.546044    2.223244
  O      2.023385    1.237554    1.909821
  C      0.513894    0.569270    3.607058
  C      1.505426    0.753396    4.749921
  C      0.608588    1.880198    4.374823
  H      1.138177    1.905699   -0.215306
  H      0.293369    1.499460   -1.723625
  H     -0.615291    2.182350   -0.364811
  H     -0.975897   -0.334194   -0.474410
  H      0.864676   -1.722436   -0.195059
  H     -0.288578   -1.088985    1.710564
  H     -0.349825   -0.057955    3.796416
  H      1.311066    0.205430    5.664654
  H      2.545698    0.823350    4.453644
  H      1.048808    2.705670    3.827484
  H     -0.220957    2.132467    5.025232

 Total Charge           Charge          ....    0
 Multiplicity           Mult            ....    1
 Number of Electrons    NEL             ....   68
 Basis Dimension        Dim             ....  345

ORBITAL ENERGIES
----------------

  NO   OCC          E(Eh)            E(eV)
   0   2.0000     -20.530311      -558.6582
   1   2.0000     -15.567411      -423.6108
   2   2.0000     -11.326221      -308.2021
   3   2.0000     -11.276187      -306.8407
   4   2.0000     -11.268595      -306.6341
   5   2.0000     -11.242284      -305.9181
   6   2.0000     -11.239194      -305.8340
   7   2.0000     -11.238251      -305.8084
   8   2.0000     -11.211732      -305.0867
   9   2.0000      -1.378270       -37.5046
  10   2.0000      -1.271160       -34.5900
  11   2.0000      -1.150980       -31.3198
  12   2.0000      -0.990468       -26.9520
  13   2.0000      -0.968293       -26.3486
  14   2.0000      -0.856677       -23.3114
  15   2.0000      -0.829901       -22.5828
  16   2.0000      -0.805358       -21.9149
  17   2.0000      -0.729089       -19.8395
  18   2.0000      -0.722585       -19.6625
  19   2.0000      -0.682982       -18.5849
  20   2.0000      -0.643106       -17.4998
  21   2.0000      -0.619909       -16.8686
  22   2.0000      -0.581249       -15.8166
  23   2.0000      -0.568181       -15.4610
  24   2.0000      -0.556417       -15.1409
  25   2.0000      -0.542473       -14.7614
  26   2.0000      -0.529826       -14.4173
  27   2.0000      -0.511385       -13.9155
  28   2.0000      -0.482014       -13.1163
  29   2.0000      -0.456499       -12.4220
  30   2.0000      -0.447084       -12.1658
  31   2.0000      -0.415582       -11.3086
  32   2.0000      -0.414042       -11.2667
  33   2.0000      -0.389758       -10.6059
  34   0.0000       0.124043         3.3754
  35   0.0000       0.129403         3.5212
  36   0.0000       0.154070         4.1925
  37   0.0000       0.164837         4.4854
  38   0.0000       0.174187         4.7399

MULLIKEN ATOMIC CHARGES
-----------------------
   0 C :   -0.411779
   1 C :    0.002109
   2 N :   -0.371218
   3 C :   -0.045725
   4 C :    0.144423
   5 O :   -0.320467
   6 C :   -0.098344
   7 C :   -0.255603
   8 C :   -0.251807
   9 H :    0.179564
  10 H :    0.130278
  11 H :    0.118636
  12 H :    0.118839
  13 H :    0.221680
  14 H :    0.137018
  15 H :    0.124191
  16 H :    0.136981
  17 H :    0.153699
  18 H :    0.151267
  19 H :    0.136257
Sum of atomic charges:   -0.0000000

LOEWDIN ATOMIC CHARGES
----------------------
   0 C :   -0.293775
   1 C :   -0.271790
   2 N :    0.026935
   3 C :   -0.229012
   4 C :   -0.311559
   5 O :    0.150898
   6 C :   -0.197767
   7 C :   -0.205917
   8 C :   -0.208503
   9 H :    0.138641
  10 H :    0.128019
  11 H :    0.125666
  12 H :    0.136338
  13 H :    0.169305
  14 H :    0.142589
  15 H :    0.148183
  16 H :    0.132983
  17 H :    0.143147
  18 H :    0.142610
  19 H :    0.133010

  Mayer bond orders larger than 0.1
B(  0-C ,  1-C ) :   0.8970 B(  0-C ,  9-H ) :   0.9335 B(  0-C , 10-H ) :   0.9306
B(  0-C , 11-H ) :   0.9339 B(  1-C ,  2-N ) :   0.9389 B(  1-C ,  3-C ) :   0.8529
B(  1-C , 12-H ) :   0.9244 B(  2-N ,  3-C ) :   0.8591 B(  2-N , 13-H ) :   0.8619
B(  3-C ,  4-C ) :   0.9197 B(  3-C , 14-H ) :   0.9187 B(  4-C ,  5-O ) :   1.9595
B(  4-C ,  6-C ) :   0.9677 B(  6-C ,  7-C ) :   0.8250 B(  6-C ,  8-C ) :   0.8306
B(  6-C , 15-H ) :   0.9225 B(  7-C ,  8-C ) :   0.9353 B(  7-C , 16-H ) :   0.9296
B(  7-C , 17-H ) :   0.9238 B(  8-C , 18-H ) :   0.9236 B(  8-C , 19-H ) :   0.9288

MP2 TOTAL ENERGY:     -402.432105362 Eh
FINAL SINGLE POINT ENERGY      -402.432105362376

DIPOLE MOMENT
-------------
                                X             Y             Z
Electronic contribution:      2.73242      -1.96830      -0.14688
Nuclear contribution   :     -4.05328       1.32833       0.51542
                        -----------------------------------------
Total Dipole Moment    :     -1.32086      -0.63997       0.36854
                        -----------------------------------------
Magnitude (a.u.)       :      1.51329
Magnitude (Debye)      :      3.84649

                             ****ORCA TERMINATED NORMALLY****
TOTAL RUN TIME: 0 days 0 hours 16 minutes 39 seconds 300 msec
