                         Program Version 3.0.3 - RELEASE   -
|  1> ! RI-MP2 RIJK def2-TZVP def2-TZVP/C def2-TZVP/JK TIGHTSCF
|  2> % maxcore 2000
|  3> % mp2 density relaxed end
|  4> *xyz 0 1
|  5>  C        0.0655853126     1.5228397161     0.0398822398
|  6>  C        0.0684294056     0.0058243016     0.0400252903
|  7>  C       -1.1947422353    -0.6037984003    -0.5448994040
|  8>  C        1.3200646701    -0.8020866140    -0.1824392589
|  9>  N        2.5182382574    -0.1818058746     0.3869786235
| 10>  C        1.9492816292    -0.1025135138     1.6752456265
| 11>  O        2.3641048005     0.3520989263     2.7050203577
| 12>  C        0.6769189651    -0.8146530948     1.2088138527
| 13>  N       -0.0623848852    -1.8334478711     1.8632131296
| 14>  H        0.9842330346     1.9485883992     0.4491572549
| 15>  H       -0.0593520588     1.9036416001    -0.9803163853
| 16>  H       -0.7690989320     1.9040046411     0.6380886351
| 17>  H       -1.3390270126    -0.2465460471    -1.5706765874
| 18>  H       -1.1543341306    -1.6941519047    -0.5526721096
| 19>  H       -2.0761646364    -0.3105057906     0.0357350588
| 20>  H        1.4051444128    -1.6246804499    -0.8813019184
| 21>  H        3.0037394790     0.5994165601    -0.0395057114
| 22>  H        0.5563874300    -2.4854504285     2.3348664652
| 23>  H       -0.6757379859    -1.4385740152     2.5693591408
| 24> *
| 25>
| 26>                          ****END OF INPUT****

CARTESIAN COORDINATES (ANGSTROEM)
---------------------------------
  C      0.065585    1.522840    0.039882
  C      0.068429    0.005824    0.040025
  C     -1.194742   -0.603798   -0.544899
  C      1.320065   -0.802087   -0.182439
  N      2.518238   -0.181806    0.386979
  C      1.949282   -0.102514    1.675246
  O      2.364105    0.352099    2.705020
  C      0.676919   -0.814653    1.208814
  N     -0.062385   -1.833448    1.863213
  H      0.984233    1.948588    0.449157
  H     -0.059352    1.903642   -0.980316
  H     -0.769099    1.904005    0.638089
  H     -1.339027   -0.246546   -1.570677
  H     -1.154334   -1.694152   -0.552672
  H     -2.076165   -0.310506    0.035735
  H      1.405144   -1.624680   -0.881302
  H      3.003739    0.599417   -0.039506
  H      0.556387   -2.485450    2.334866
  H     -0.675738   -1.438574    2.569359

 Total Charge           Charge          ....    0
 Multiplicity           Mult            ....    1
 Number of Electrons    NEL             ....   68
 Basis Dimension        Dim             ....  339

ORBITAL ENERGIES
----------------

  NO   OCC          E(Eh)            E(eV)
   0   2.0000     -20.537223      -558.8462
   1   2.0000     -15.579777      -423.9473
   2   2.0000     -15.562877      -423.4874
   3   2.0000     -11.352720      -308.9232
   4   2.0000     -11.280988      -306.9713
   5   2.0000     -11.278352      -306.8996
   6   2.0000     -11.267240      -306.5972
   7   2.0000     -11.229405      -305.5676
   8   2.0000     -11.226921      -305.5001
   9   2.0000      -1.395952       -37.9858
  10   2.0000      -1.291235       -35.1363
  11   2.0000      -1.195470       -32.5304
  12   2.0000      -1.104203       -30.0469
  13   2.0000      -0.983016       -26.7492
  14   2.0000      -0.949381       -25.8340
  15   2.0000      -0.876395       -23.8479
  16   2.0000      -0.786971       -21.4146
  17   2.0000      -0.732962       -19.9449
  18   2.0000      -0.686442       -18.6790
  19   2.0000      -0.672589       -18.3021
  20   2.0000      -0.667588       -18.1660
  21   2.0000      -0.653716       -17.7885
  22   2.0000      -0.604818       -16.4579
  23   2.0000      -0.582119       -15.8403
  24   2.0000      -0.575093       -15.6491
  25   2.0000      -0.556717       -15.1490
  26   2.0000      -0.544584       -14.8189
  27   2.0000      -0.542484       -14.7617
  28   2.0000      -0.505295       -13.7498
  29   2.0000      -0.476733       -12.9726
  30   2.0000      -0.463676       -12.6173
  31   2.0000      -0.420157       -11.4331
  32   2.0000      -0.399718       -10.8769
  33   2.0000      -0.362921        -9.8756
  34   0.0000       0.118950         3.2368
  35   0.0000       0.141364         3.8467
  36   0.0000       0.154897         4.2150
  37   0.0000       0.165779         4.5111
  38   0.0000       0.175010         4.7623

MULLIKEN ATOMIC CHARGES
-----------------------
   0 C :   -0.372782
   1 C :    0.073044
   2 C :   -0.427298
   3 C :   -0.035167
   4 N :   -0.314024
   5 C :    0.169560
   6 O :   -0.288929
   7 C :    0.042676
   8 N :   -0.558737
   9 H :    0.137272
  10 H :    0.131767
  11 H :    0.136814
  12 H :    0.137445
  13 H :    0.160232
  14 H :    0.129291
  15 H :    0.147620
  16 H :    0.232359
  17 H :    0.249512
  18 H :    0.249346
Sum of atomic charges:    0.0000000

LOEWDIN ATOMIC CHARGES
----------------------
   0 C :   -0.261785
   1 C :   -0.236319
   2 C :   -0.257790
   3 C :   -0.173287
   4 N :    0.110878
   5 C :   -0.401198
   6 O :    0.123951
   7 C :   -0.234749
   8 N :   -0.103239
   9 H :    0.130083
  10 H :    0.129022
  11 H :    0.131985
  12 H :    0.129573
  13 H :    0.135513
  14 H :    0.129506
  15 H :    0.141166
  16 H :    0.169594
  17 H :    0.167463
  18 H :    0.169632

  Mayer bond orders larger than 0.1
B(  0-C ,  1-C ) :   0.9255 B(  0-C ,  9-H ) :   0.9281 B(  0-C , 10-H ) :   0.9327
B(  0-C , 11-H ) :   0.9339 B(  1-C ,  2-C ) :   0.8953 B(  1-C ,  3-C ) :   0.8911
B(  1-C ,  7-C ) :   0.8063 B(  2-C , 12-H ) :   0.9385 B(  2-C , 13-H ) :   0.9265
B(  2-C , 14-H ) :   0.9342 B(  3-C ,  4-N ) :   0.9538 B(  3-C ,  7-C ) :   0.8048
B(  3-C , 15-H ) :   0.9157 B(  4-N ,  5-C ) :   1.1165 B(  4-N , 16-H ) :   0.8609
B(  5-C ,  6-O ) :   2.0445 B(  5-C ,  7-C ) :   0.9048 B(  7-C ,  8-N ) :   1.0023
B(  8-N , 17-H ) :   0.8866 B(  8-N , 18-H ) :   0.8805

MP2 TOTAL ENERGY:     -418.498275171 Eh
FINAL SINGLE POINT ENERGY      -418.498275171212

DIPOLE MOMENT
-------------
                                X             Y             Z
Electronic contribution:      7.36053      -1.21220       4.93239
Nuclear contribution   :     -8.02870       1.14404      -5.79994
                        -----------------------------------------
Total Dipole Moment    :     -0.66818      -0.06816      -0.86755
                        -----------------------------------------
Magnitude (a.u.)       :      1.09715
Magnitude (Debye)      :      2.78874

                             ****ORCA TERMINATED NORMALLY****
TOTAL RUN TIME: 0 days 0 hours 21 minutes 29 seconds 472 msec
