                         Program Version 3.0.3 - RELEASE   -
|  1> ! RI-MP2 RIJK def2-TZVP def2-TZVP/C def2-TZVP/JK TIGHTSCF
|  2> % maxcore 2000
|  3> % mp2 density relaxed end
|  4> *xyz 0 1
|  5>  C        0.0080994983     1.4260603946    -0.0348798428
|  6>  O       -0.0085993431     0.0198344207     0.0169526424
|  7>  C        0.6262288285    -0.5755179121    -1.0884231939
|  8>  C        0.5777771890    -2.0811161831    -0.9761209621
|  9>  N        1.1586871359    -2.7391516243    -1.9865699403
| 10>  C        1.1491082304    -4.0717914401    -1.9457255044
| 11>  C        0.5710608706    -4.8092655973    -0.9152466497
| 12>  C       -0.0294450518    -4.1149196585     0.1290012229
| 13>  C       -0.0283795479    -2.7241469497     0.1021255846
| 14>  H        1.0360413780     1.8214732601    -0.0445290506
| 15>  H       -0.5134720432     1.8073801152    -0.9268823264
| 16>  H       -0.5037342047     1.7924535752     0.8580607053
| 17>  H        0.1444197269    -0.2708523974    -2.0329669392
| 18>  H        1.6794987455    -0.2551272582    -1.1598014793
| 19>  H        1.6287012721    -4.5782768158    -2.7805931772
| 20>  H        0.5941088300    -5.8929846669    -0.9363231224
| 21>  H       -0.4926971589    -4.6471715261     0.9537580338
| 22>  H       -0.4814204656    -2.1358117663     0.8887798494
| 23> *
| 24>
| 25>                          ****END OF INPUT****

CARTESIAN COORDINATES (ANGSTROEM)
---------------------------------
  C      0.008099    1.426060   -0.034880
  O     -0.008599    0.019834    0.016953
  C      0.626229   -0.575518   -1.088423
  C      0.577777   -2.081116   -0.976121
  N      1.158687   -2.739152   -1.986570
  C      1.149108   -4.071791   -1.945726
  C      0.571061   -4.809266   -0.915247
  C     -0.029445   -4.114920    0.129001
  C     -0.028380   -2.724147    0.102126
  H      1.036041    1.821473   -0.044529
  H     -0.513472    1.807380   -0.926882
  H     -0.503734    1.792454    0.858061
  H      0.144420   -0.270852   -2.032967
  H      1.679499   -0.255127   -1.159801
  H      1.628701   -4.578277   -2.780593
  H      0.594109   -5.892985   -0.936323
  H     -0.492697   -4.647172    0.953758
  H     -0.481420   -2.135812    0.888780

 Total Charge           Charge          ....    0
 Multiplicity           Mult            ....    1
 Number of Electrons    NEL             ....   66
 Basis Dimension        Dim             ....  333

ORBITAL ENERGIES
----------------

  NO   OCC          E(Eh)            E(eV)
   0   2.0000     -20.562252      -559.5273
   1   2.0000     -15.557955      -423.3535
   2   2.0000     -11.281646      -306.9892
   3   2.0000     -11.275753      -306.8288
   4   2.0000     -11.275538      -306.8230
   5   2.0000     -11.270074      -306.6743
   6   2.0000     -11.252886      -306.2066
   7   2.0000     -11.233206      -305.6711
   8   2.0000     -11.229160      -305.5610
   9   2.0000      -1.385747       -37.7081
  10   2.0000      -1.256960       -34.2036
  11   2.0000      -1.082959       -29.4688
  12   2.0000      -1.051837       -28.6220
  13   2.0000      -0.965385       -26.2695
  14   2.0000      -0.896355       -24.3911
  15   2.0000      -0.852160       -23.1885
  16   2.0000      -0.817557       -22.2468
  17   2.0000      -0.708791       -19.2872
  18   2.0000      -0.676346       -18.4043
  19   2.0000      -0.671708       -18.2781
  20   2.0000      -0.647994       -17.6328
  21   2.0000      -0.629792       -17.1375
  22   2.0000      -0.621066       -16.9001
  23   2.0000      -0.573651       -15.6098
  24   2.0000      -0.572078       -15.5670
  25   2.0000      -0.553059       -15.0495
  26   2.0000      -0.522595       -14.2205
  27   2.0000      -0.505032       -13.7426
  28   2.0000      -0.490401       -13.3445
  29   2.0000      -0.433372       -11.7926
  30   2.0000      -0.414080       -11.2677
  31   2.0000      -0.377300       -10.2668
  32   2.0000      -0.335520        -9.1300
  33   0.0000       0.106987         2.9113
  34   0.0000       0.127604         3.4723
  35   0.0000       0.144605         3.9349
  36   0.0000       0.161515         4.3951
  37   0.0000       0.179014         4.8712

MULLIKEN ATOMIC CHARGES
-----------------------
   0 C :   -0.219594
   1 O :   -0.301070
   2 C :   -0.055097
   3 C :    0.172443
   4 N :   -0.264923
   5 C :   -0.077541
   6 C :   -0.081369
   7 C :   -0.138537
   8 C :   -0.159910
   9 H :    0.114423
  10 H :    0.114414
  11 H :    0.139300
  12 H :    0.108652
  13 H :    0.108620
  14 H :    0.124985
  15 H :    0.132679
  16 H :    0.133035
  17 H :    0.149489
Sum of atomic charges:   -0.0000000

LOEWDIN ATOMIC CHARGES
----------------------
   0 C :   -0.356991
   1 O :    0.138848
   2 C :   -0.287318
   3 C :   -0.220225
   4 N :    0.158666
   5 C :   -0.214538
   6 C :   -0.149075
   7 C :   -0.131139
   8 C :   -0.110674
   9 H :    0.102955
  10 H :    0.102959
  11 H :    0.113677
  12 H :    0.131632
  13 H :    0.131628
  14 H :    0.137861
  15 H :    0.147885
  16 H :    0.147862
  17 H :    0.155988

  Mayer bond orders larger than 0.1
B(  0-C ,  1-O ) :   0.9142 B(  0-C ,  9-H ) :   0.9363 B(  0-C , 10-H ) :   0.9363
B(  0-C , 11-H ) :   0.9400 B(  1-O ,  2-C ) :   0.9608 B(  2-C ,  3-C ) :   0.9414
B(  2-C , 12-H ) :   0.9165 B(  2-C , 13-H ) :   0.9166 B(  3-C ,  4-N ) :   1.2925
B(  3-C ,  8-C ) :   1.3734 B(  4-N ,  5-C ) :   1.4327 B(  5-C ,  6-C ) :   1.3121
B(  5-C , 14-H ) :   0.9451 B(  6-C ,  7-C ) :   1.3466 B(  6-C , 15-H ) :   0.9225
B(  7-C ,  8-C ) :   1.3380 B(  7-C , 16-H ) :   0.9354 B(  8-C , 17-H ) :   0.9134

MP2 TOTAL ENERGY:     -401.290447306 Eh
FINAL SINGLE POINT ENERGY      -401.290447306235

DIPOLE MOMENT
-------------
                                X             Y             Z
Electronic contribution:      0.59009      -5.82537      -0.93944
Nuclear contribution   :     -0.78627       5.85368       1.28551
                        -----------------------------------------
Total Dipole Moment    :     -0.19618       0.02831       0.34606
                        -----------------------------------------
Magnitude (a.u.)       :      0.39881
Magnitude (Debye)      :      1.01369

                             ****ORCA TERMINATED NORMALLY****
TOTAL RUN TIME: 0 days 0 hours 16 minutes 3 seconds 951 msec
