                         Program Version 3.0.3 - RELEASE   -
|  1> ! RI-MP2 RIJK def2-TZVP def2-TZVP/C def2-TZVP/JK TIGHTSCF
|  2> % maxcore 2000
|  3> % mp2 density relaxed end
|  4> *xyz 0 1
|  5>  C        0.0647040239     1.5044203178     0.1818829500
|  6>  C       -0.0365860912    -0.0174139522     0.0095018714
|  7>  O       -1.3970246658    -0.4243778904    -0.1560555802
|  8>  C        0.7216449417    -0.5146234214    -1.1983083571
|  9>  C        1.9190314830    -1.0920958826    -1.1024030589
| 10>  C        2.6787383320    -1.5763385704    -2.3086841360
| 11>  C        1.7397260046    -1.6632684793    -3.5139629109
| 12>  O        0.9617203647    -0.4863272673    -3.6347606974
| 13>  C        0.0678396687    -0.3211580052    -2.5496874422
| 14>  H        1.1057466593     1.8077207809     0.3250596798
| 15>  H       -0.3346009143     2.0292973339    -0.6907043450
| 16>  H       -0.5031924960     1.8275499755     1.0632363316
| 17>  H        0.3930494757    -0.4938526792     0.9050920222
| 18>  H       -1.9204935353     0.0100892302     0.5245860236
| 19>  H        2.3800780428    -1.2254341822    -0.1254877830
| 20>  H        3.5159018278    -0.8992573505    -2.5287551154
| 21>  H        3.1230571716    -2.5605973364    -2.1123786668
| 22>  H        2.2958548997    -1.7633332778    -4.4504392983
| 23>  H        1.0848921384    -2.5447131870    -3.4107076810
| 24>  H       -0.7877154829    -1.0106208658    -2.6394226301
| 25>  H       -0.3370935783     0.6919008894    -2.6450464363
| 26> *
| 27>
| 28>                          ****END OF INPUT****

CARTESIAN COORDINATES (ANGSTROEM)
---------------------------------
  C      0.064704    1.504420    0.181883
  C     -0.036586   -0.017414    0.009502
  O     -1.397025   -0.424378   -0.156056
  C      0.721645   -0.514623   -1.198308
  C      1.919031   -1.092096   -1.102403
  C      2.678738   -1.576339   -2.308684
  C      1.739726   -1.663268   -3.513963
  O      0.961720   -0.486327   -3.634761
  C      0.067840   -0.321158   -2.549687
  H      1.105747    1.807721    0.325060
  H     -0.334601    2.029297   -0.690704
  H     -0.503192    1.827550    1.063236
  H      0.393049   -0.493853    0.905092
  H     -1.920494    0.010089    0.524586
  H      2.380078   -1.225434   -0.125488
  H      3.515902   -0.899257   -2.528755
  H      3.123057   -2.560597   -2.112379
  H      2.295855   -1.763333   -4.450439
  H      1.084892   -2.544713   -3.410708
  H     -0.787715   -1.010621   -2.639423
  H     -0.337094    0.691901   -2.645046

 Total Charge           Charge          ....    0
 Multiplicity           Mult            ....    1
 Number of Electrons    NEL             ....   70
 Basis Dimension        Dim             ....  351

ORBITAL ENERGIES
----------------

  NO   OCC          E(Eh)            E(eV)
   0   2.0000     -20.558646      -559.4292
   1   2.0000     -20.546395      -559.0958
   2   2.0000     -11.289744      -307.2095
   3   2.0000     -11.268788      -306.6393
   4   2.0000     -11.268693      -306.6367
   5   2.0000     -11.228583      -305.5453
   6   2.0000     -11.224603      -305.4370
   7   2.0000     -11.224470      -305.4334
   8   2.0000     -11.223543      -305.4081
   9   2.0000      -1.370412       -37.2908
  10   2.0000      -1.364188       -37.1214
  11   2.0000      -1.096561       -29.8389
  12   2.0000      -1.038794       -28.2670
  13   2.0000      -0.992673       -27.0120
  14   2.0000      -0.891981       -24.2720
  15   2.0000      -0.874157       -23.7870
  16   2.0000      -0.819169       -22.2907
  17   2.0000      -0.715200       -19.4616
  18   2.0000      -0.691042       -18.8042
  19   2.0000      -0.675540       -18.3824
  20   2.0000      -0.634696       -17.2710
  21   2.0000      -0.628388       -17.0993
  22   2.0000      -0.623202       -16.9582
  23   2.0000      -0.591038       -16.0830
  24   2.0000      -0.568771       -15.4771
  25   2.0000      -0.553110       -15.0509
  26   2.0000      -0.548312       -14.9203
  27   2.0000      -0.540541       -14.7089
  28   2.0000      -0.525145       -14.2899
  29   2.0000      -0.502814       -13.6823
  30   2.0000      -0.487414       -13.2632
  31   2.0000      -0.451477       -12.2853
  32   2.0000      -0.449226       -12.2241
  33   2.0000      -0.403733       -10.9861
  34   2.0000      -0.343663        -9.3515
  35   0.0000       0.128281         3.4907
  36   0.0000       0.146306         3.9812
  37   0.0000       0.160488         4.3671
  38   0.0000       0.170285         4.6337
  39   0.0000       0.175271         4.7694

MULLIKEN ATOMIC CHARGES
-----------------------
   0 C :   -0.419129
   1 C :    0.044208
   2 O :   -0.466707
   3 C :    0.062400
   4 C :   -0.230641
   5 C :   -0.147899
   6 C :   -0.064653
   7 O :   -0.314569
   8 C :   -0.060454
   9 H :    0.135717
  10 H :    0.135622
  11 H :    0.124518
  12 H :    0.080566
  13 H :    0.312269
  14 H :    0.118705
  15 H :    0.113652
  16 H :    0.114612
  17 H :    0.124874
  18 H :    0.093204
  19 H :    0.124893
  20 H :    0.118811
Sum of atomic charges:   -0.0000000

LOEWDIN ATOMIC CHARGES
----------------------
   0 C :   -0.296276
   1 C :   -0.334577
   2 O :   -0.019197
   3 C :   -0.159925
   4 C :   -0.141307
   5 C :   -0.259651
   6 C :   -0.310275
   7 O :    0.157092
   8 C :   -0.275285
   9 H :    0.129766
  10 H :    0.124858
  11 H :    0.119621
  12 H :    0.139324
  13 H :    0.172756
  14 H :    0.143009
  15 H :    0.144053
  16 H :    0.143586
  17 H :    0.127921
  18 H :    0.123025
  19 H :    0.134164
  20 H :    0.137318

  Mayer bond orders larger than 0.1
B(  0-C ,  1-C ) :   0.9256 B(  0-C ,  9-H ) :   0.9315 B(  0-C , 10-H ) :   0.9331
B(  0-C , 11-H ) :   0.9321 B(  1-C ,  2-O ) :   1.0129 B(  1-C ,  3-C ) :   0.8809
B(  1-C , 12-H ) :   0.9478 B(  2-O , 13-H ) :   0.8447 B(  3-C ,  4-C ) :   1.7520
B(  3-C ,  8-C ) :   0.9217 B(  4-C ,  5-C ) :   0.9387 B(  4-C , 14-H ) :   0.9274
B(  5-C ,  6-C ) :   0.9570 B(  5-C , 15-H ) :   0.9046 B(  5-C , 16-H ) :   0.9230
B(  6-C ,  7-O ) :   0.9178 B(  6-C , 17-H ) :   0.9310 B(  6-C , 18-H ) :   0.9324
B(  7-O ,  8-C ) :   0.9535 B(  8-C , 19-H ) :   0.9555 B(  8-C , 20-H ) :   0.9079

MP2 TOTAL ENERGY:     -423.523858263 Eh
FINAL SINGLE POINT ENERGY      -423.523858262600

DIPOLE MOMENT
-------------
                                X             Y             Z
Electronic contribution:     -1.35995      -1.53737      -2.12622
Nuclear contribution   :      1.54559       1.65373       2.96462
                        -----------------------------------------
Total Dipole Moment    :      0.18564       0.11636       0.83840
                        -----------------------------------------
Magnitude (a.u.)       :      0.86655
Magnitude (Debye)      :      2.20261

                             ****ORCA TERMINATED NORMALLY****
TOTAL RUN TIME: 0 days 0 hours 20 minutes 42 seconds 706 msec
