                         Program Version 3.0.3 - RELEASE   -
|  1> ! RI-MP2 RIJK def2-TZVP def2-TZVP/C def2-TZVP/JK TIGHTSCF
|  2> % maxcore 2000
|  3> % mp2 density relaxed end
|  4> *xyz 0 1
|  5>  C       -0.0269229654     1.6115873867     0.1540239557
|  6>  C        1.4646606487     1.2185701442     0.0083532122
|  7>  C        1.1746939140     0.0488068035     1.0197192298
|  8>  C       -0.0118908356     0.0505566608     0.0202370252
|  9>  C       -1.1753011291    -0.8145539772    -0.3457458611
| 10>  O       -1.5871443234    -0.4518194780    -1.6938708748
| 11>  C       -0.7368437131     0.1978437224    -2.5336947001
| 12>  N        0.4673263421     0.5769817083    -2.3823659613
| 13>  C        1.0311316227     0.2078963247    -1.1037539998
| 14>  H       -0.3360466249     2.0030850327     1.1269238234
| 15>  H       -0.4670478761     2.1794662164    -0.6654913355
| 16>  H        2.3284212314     1.8837815834     0.0121742905
| 17>  H        1.8460520622    -0.8140539329     0.9840647164
| 18>  H        0.9587445981     0.3499621868     2.0475697692
| 19>  H       -0.9024837845    -1.8768269194    -0.3507772316
| 20>  H       -2.0661619983    -0.6842475866     0.2757077525
| 21>  H       -1.2627712264     0.3906829957    -3.4675807132
| 22>  H        1.7285791078    -0.6276437014    -1.2360127276
| 23> *
| 24>
| 25>                          ****END OF INPUT****

CARTESIAN COORDINATES (ANGSTROEM)
---------------------------------
  C     -0.026923    1.611587    0.154024
  C      1.464661    1.218570    0.008353
  C      1.174694    0.048807    1.019719
  C     -0.011891    0.050557    0.020237
  C     -1.175301   -0.814554   -0.345746
  O     -1.587144   -0.451819   -1.693871
  C     -0.736844    0.197844   -2.533695
  N      0.467326    0.576982   -2.382366
  C      1.031132    0.207896   -1.103754
  H     -0.336047    2.003085    1.126924
  H     -0.467048    2.179466   -0.665491
  H      2.328421    1.883782    0.012174
  H      1.846052   -0.814054    0.984065
  H      0.958745    0.349962    2.047570
  H     -0.902484   -1.876827   -0.350777
  H     -2.066162   -0.684248    0.275708
  H     -1.262771    0.390683   -3.467581
  H      1.728579   -0.627644   -1.236013

 Total Charge           Charge          ....    0
 Multiplicity           Mult            ....    1
 Number of Electrons    NEL             ....   66
 Basis Dimension        Dim             ....  333

ORBITAL ENERGIES
----------------

  NO   OCC          E(Eh)            E(eV)
   0   2.0000     -20.594915      -560.4161
   1   2.0000     -15.540549      -422.8798
   2   2.0000     -11.332960      -308.3855
   3   2.0000     -11.296889      -307.4040
   4   2.0000     -11.259285      -306.3807
   5   2.0000     -11.250598      -306.1443
   6   2.0000     -11.249920      -306.1259
   7   2.0000     -11.243275      -305.9451
   8   2.0000     -11.229937      -305.5821
   9   2.0000      -1.419248       -38.6197
  10   2.0000      -1.245123       -33.8815
  11   2.0000      -1.183607       -32.2076
  12   2.0000      -1.004818       -27.3425
  13   2.0000      -0.917932       -24.9782
  14   2.0000      -0.911209       -24.7952
  15   2.0000      -0.846386       -23.0313
  16   2.0000      -0.792991       -21.5784
  17   2.0000      -0.726723       -19.7751
  18   2.0000      -0.703461       -19.1422
  19   2.0000      -0.671206       -18.2644
  20   2.0000      -0.658049       -17.9064
  21   2.0000      -0.629195       -17.1213
  22   2.0000      -0.604486       -16.4489
  23   2.0000      -0.574675       -15.6377
  24   2.0000      -0.538792       -14.6613
  25   2.0000      -0.526329       -14.3221
  26   2.0000      -0.501645       -13.6504
  27   2.0000      -0.475361       -12.9352
  28   2.0000      -0.460128       -12.5207
  29   2.0000      -0.455551       -12.3962
  30   2.0000      -0.442794       -12.0490
  31   2.0000      -0.384794       -10.4708
  32   2.0000      -0.377166       -10.2632
  33   0.0000       0.138729         3.7750
  34   0.0000       0.158872         4.3231
  35   0.0000       0.163949         4.4613
  36   0.0000       0.178526         4.8579
  37   0.0000       0.184018         5.0074

MULLIKEN ATOMIC CHARGES
-----------------------
   0 C :   -0.215628
   1 C :   -0.125304
   2 C :   -0.187151
   3 C :   -0.132158
   4 C :   -0.021285
   5 O :   -0.259642
   6 C :    0.089866
   7 N :   -0.297268
   8 C :    0.032776
   9 H :    0.112945
  10 H :    0.133629
  11 H :    0.141056
  12 H :    0.117123
  13 H :    0.120675
  14 H :    0.120180
  15 H :    0.127582
  16 H :    0.137434
  17 H :    0.105169
Sum of atomic charges:    0.0000000

LOEWDIN ATOMIC CHARGES
----------------------
   0 C :   -0.166713
   1 C :   -0.151272
   2 C :   -0.167520
   3 C :   -0.223073
   4 C :   -0.233228
   5 O :    0.219650
   6 C :   -0.349418
   7 N :    0.083304
   8 C :   -0.211992
   9 H :    0.129084
  10 H :    0.135467
  11 H :    0.125227
  12 H :    0.130645
  13 H :    0.130666
  14 H :    0.135523
  15 H :    0.133476
  16 H :    0.133984
  17 H :    0.146189

  Mayer bond orders larger than 0.1
B(  0-C ,  1-C ) :   0.9162 B(  0-C ,  3-C ) :   0.9129 B(  0-C ,  9-H ) :   0.9308
B(  0-C , 10-H ) :   0.9079 B(  1-C ,  2-C ) :   0.9024 B(  1-C ,  8-C ) :   0.8615
B(  1-C , 11-H ) :   0.8904 B(  2-C ,  3-C ) :   0.8726 B(  2-C , 12-H ) :   0.9263
B(  2-C , 13-H ) :   0.9246 B(  3-C ,  4-C ) :   0.9001 B(  3-C ,  8-C ) :   0.8738
B(  4-C ,  5-O ) :   0.8766 B(  4-C , 14-H ) :   0.9371 B(  4-C , 15-H ) :   0.9221
B(  5-O ,  6-C ) :   1.0793 B(  6-C ,  7-N ) :   1.7949 B(  6-C , 16-H ) :   0.9272
B(  7-N ,  8-C ) :   0.9386 B(  8-C , 17-H ) :   0.9553

MP2 TOTAL ENERGY:     -401.208722481 Eh
FINAL SINGLE POINT ENERGY      -401.208722481175

DIPOLE MOMENT
-------------
                                X             Y             Z
Electronic contribution:     -1.59880      -0.64152      -4.45901
Nuclear contribution   :      1.44269       0.29370       5.30668
                        -----------------------------------------
Total Dipole Moment    :     -0.15611      -0.34782       0.84766
                        -----------------------------------------
Magnitude (a.u.)       :      0.92945
Magnitude (Debye)      :      2.36248

                             ****ORCA TERMINATED NORMALLY****
TOTAL RUN TIME: 0 days 0 hours 18 minutes 44 seconds 879 msec
