                         Program Version 3.0.3 - RELEASE   -
|  1> ! RI-MP2 RIJK def2-TZVP def2-TZVP/C def2-TZVP/JK TIGHTSCF
|  2> % maxcore 2000
|  3> % mp2 density relaxed end
|  4> *xyz 0 1
|  5>  C       -0.0942392370     0.8117007175    -0.3890670333
|  6>  O       -0.5018377589    -0.2736336251     0.4373593983
|  7>  C        0.4783572795    -0.6569659488     1.3389058379
|  8>  C        0.3656662087    -2.0423454702     1.8885493680
|  9>  C        1.4985476113    -1.7047486266     0.9360010988
| 10>  C        1.5486360874    -2.1805939907    -0.4963909376
| 11>  N        0.9341553543    -3.3690665723    -0.7532458730
| 12>  O        2.1172851917    -1.5399751970    -1.3623924835
| 13>  H        0.7936718656     0.5513527351    -0.9751607588
| 14>  H       -0.9300662960     1.0270452075    -1.0582605752
| 15>  H        0.1167154663     1.7072652684     0.2145026159
| 16>  H        0.8250808602     0.1395688401     1.9993793719
| 17>  H        0.5921967582    -2.2192815951     2.9338765199
| 18>  H       -0.4642833799    -2.6215640106     1.4973424196
| 19>  H        2.4917214643    -1.5828751787     1.3576263655
| 20>  H        0.5820886395    -3.9543241101    -0.0176368210
| 21>  H        0.9958979347    -3.7408538035    -1.6869642635
| 22> *
| 23>
| 24>                          ****END OF INPUT****

CARTESIAN COORDINATES (ANGSTROEM)
---------------------------------
  C     -0.094239    0.811701   -0.389067
  O     -0.501838   -0.273634    0.437359
  C      0.478357   -0.656966    1.338906
  C      0.365666   -2.042345    1.888549
  C      1.498548   -1.704749    0.936001
  C      1.548636   -2.180594   -0.496391
  N      0.934155   -3.369067   -0.753246
  O      2.117285   -1.539975   -1.362392
  H      0.793672    0.551353   -0.975161
  H     -0.930066    1.027045   -1.058261
  H      0.116715    1.707265    0.214503
  H      0.825081    0.139569    1.999379
  H      0.592197   -2.219282    2.933877
  H     -0.464283   -2.621564    1.497342
  H      2.491721   -1.582875    1.357626
  H      0.582089   -3.954324   -0.017637
  H      0.995898   -3.740854   -1.686964

 Total Charge           Charge          ....    0
 Multiplicity           Mult            ....    1
 Number of Electrons    NEL             ....   62
 Basis Dimension        Dim             ....  302

ORBITAL ENERGIES
----------------

  NO   OCC          E(Eh)            E(eV)
   0   2.0000     -20.563869      -559.5713
   1   2.0000     -20.513679      -558.2056
   2   2.0000     -15.581909      -424.0053
   3   2.0000     -11.353371      -308.9409
   4   2.0000     -11.296077      -307.3819
   5   2.0000     -11.263231      -306.4881
   6   2.0000     -11.248010      -306.0739
   7   2.0000     -11.241818      -305.9054
   8   2.0000      -1.389196       -37.8020
   9   2.0000      -1.376884       -37.4669
  10   2.0000      -1.211385       -32.9635
  11   2.0000      -1.144402       -31.1408
  12   2.0000      -0.936188       -25.4750
  13   2.0000      -0.894156       -24.3312
  14   2.0000      -0.825252       -22.4562
  15   2.0000      -0.777730       -21.1631
  16   2.0000      -0.729804       -19.8590
  17   2.0000      -0.704338       -19.1660
  18   2.0000      -0.674239       -18.3470
  19   2.0000      -0.632255       -17.2045
  20   2.0000      -0.628832       -17.1114
  21   2.0000      -0.601572       -16.3696
  22   2.0000      -0.584070       -15.8934
  23   2.0000      -0.559975       -15.2377
  24   2.0000      -0.546924       -14.8826
  25   2.0000      -0.507095       -13.7988
  26   2.0000      -0.477647       -12.9974
  27   2.0000      -0.448662       -12.2087
  28   2.0000      -0.416251       -11.3268
  29   2.0000      -0.412880       -11.2350
  30   2.0000      -0.395844       -10.7715
  31   0.0000       0.132527         3.6062
  32   0.0000       0.145407         3.9567
  33   0.0000       0.167609         4.5609
  34   0.0000       0.175622         4.7789
  35   0.0000       0.189390         5.1536

MULLIKEN ATOMIC CHARGES
-----------------------
   0 C :   -0.229019
   1 O :   -0.308576
   2 C :    0.046086
   3 C :   -0.283849
   4 C :   -0.121763
   5 C :    0.292497
   6 N :   -0.472089
   7 O :   -0.364935
   8 H :    0.156134
   9 H :    0.134367
  10 H :    0.109037
  11 H :    0.104404
  12 H :    0.140576
  13 H :    0.139848
  14 H :    0.139463
  15 H :    0.262039
  16 H :    0.255782
Sum of atomic charges:   -0.0000000

LOEWDIN ATOMIC CHARGES
----------------------
   0 C :   -0.336234
   1 O :    0.170114
   2 C :   -0.297777
   3 C :   -0.207339
   4 C :   -0.179492
   5 C :   -0.466511
   6 N :   -0.005091
   7 O :    0.079841
   8 H :    0.113790
   9 H :    0.112828
  10 H :    0.101719
  11 H :    0.135081
  12 H :    0.134179
  13 H :    0.140463
  14 H :    0.159737
  15 H :    0.171059
  16 H :    0.173632

  Mayer bond orders larger than 0.1
B(  0-C ,  1-O ) :   0.8741 B(  0-C ,  8-H ) :   0.9298 B(  0-C ,  9-H ) :   0.9392
B(  0-C , 10-H ) :   0.9339 B(  1-O ,  2-C ) :   1.0176 B(  2-C ,  3-C ) :   0.8754
B(  2-C ,  4-C ) :   0.8837 B(  2-C , 11-H ) :   0.9373 B(  3-C ,  4-C ) :   0.8711
B(  3-C , 12-H ) :   0.9209 B(  3-C , 13-H ) :   0.9213 B(  4-C ,  5-C ) :   0.8984
B(  4-C , 14-H ) :   0.9119 B(  5-C ,  6-N ) :   1.1592 B(  5-C ,  7-O ) :   1.9411
B(  6-N , 15-H ) :   0.8664 B(  6-N , 16-H ) :   0.8593

MP2 TOTAL ENERGY:     -400.352165430 Eh
FINAL SINGLE POINT ENERGY      -400.352165429774

DIPOLE MOMENT
-------------
                                X             Y             Z
Electronic contribution:      1.60143      -2.13906      -1.89371
Nuclear contribution   :     -1.87409       1.43430       2.63404
                        -----------------------------------------
Total Dipole Moment    :     -0.27267      -0.70476       0.74032
                        -----------------------------------------
Magnitude (a.u.)       :      1.05788
Magnitude (Debye)      :      2.68892

                             ****ORCA TERMINATED NORMALLY****
TOTAL RUN TIME: 0 days 0 hours 11 minutes 32 seconds 185 msec
