                         Program Version 3.0.3 - RELEASE   -
|  1> ! RI-MP2 RIJK def2-TZVP def2-TZVP/C def2-TZVP/JK TIGHTSCF
|  2> % maxcore 2000
|  3> % mp2 density relaxed end
|  4> *xyz 0 1
|  5>  C        0.0775618882     1.4754424436    -0.1618684257
|  6>  C       -0.0763822511     0.0051190230    -0.0004096746
|  7>  C       -1.1489755883    -0.8292887342     0.1235368445
|  8>  C       -2.5981547585    -0.4720109570     0.1429289840
|  9>  O       -3.2678188996    -1.2258021695    -0.8652869072
| 10>  C       -0.6100078836    -2.1580674098     0.2480775371
| 11>  C        0.7359337887    -2.0271781687     0.1935343303
| 12>  O        1.0810803014    -0.7172667866     0.0468600089
| 13>  H        0.6940201792     1.7121604234    -1.0359497546
| 14>  H       -0.8978762026     1.9479958292    -0.2946044656
| 15>  H        0.5589792286     1.9317411176     0.7112192084
| 16>  H       -3.0251445687    -0.6982380954     1.1338763993
| 17>  H       -2.7223491284     0.6098526699    -0.0185691548
| 18>  H       -4.2137002772    -1.0878139528    -0.7539136736
| 19>  H       -1.1713766704    -3.0736577994     0.3459635675
| 20>  H        1.5569053123    -2.7236477932     0.2358908960
| 21> *
| 22>
| 23>                          ****END OF INPUT****

CARTESIAN COORDINATES (ANGSTROEM)
---------------------------------
  C      0.077562    1.475442   -0.161868
  C     -0.076382    0.005119   -0.000410
  C     -1.148976   -0.829289    0.123537
  C     -2.598155   -0.472011    0.142929
  O     -3.267819   -1.225802   -0.865287
  C     -0.610008   -2.158067    0.248078
  C      0.735934   -2.027178    0.193534
  O      1.081080   -0.717267    0.046860
  H      0.694020    1.712160   -1.035950
  H     -0.897876    1.947996   -0.294604
  H      0.558979    1.931741    0.711219
  H     -3.025145   -0.698238    1.133876
  H     -2.722349    0.609853   -0.018569
  H     -4.213700   -1.087814   -0.753914
  H     -1.171377   -3.073658    0.345964
  H      1.556905   -2.723648    0.235891

 Total Charge           Charge          ....    0
 Multiplicity           Mult            ....    1
 Number of Electrons    NEL             ....   60
 Basis Dimension        Dim             ....  296

ORBITAL ENERGIES
----------------

  NO   OCC          E(Eh)            E(eV)
   0   2.0000     -20.610013      -560.8270
   1   2.0000     -20.558103      -559.4144
   2   2.0000     -11.286554      -307.1227
   3   2.0000     -11.286526      -307.1220
   4   2.0000     -11.276681      -306.8541
   5   2.0000     -11.233396      -305.6763
   6   2.0000     -11.222303      -305.3744
   7   2.0000     -11.218874      -305.2811
   8   2.0000      -1.448553       -39.4171
   9   2.0000      -1.360915       -37.0324
  10   2.0000      -1.090663       -29.6784
  11   2.0000      -1.044116       -28.4118
  12   2.0000      -0.956349       -26.0236
  13   2.0000      -0.905467       -24.6390
  14   2.0000      -0.793144       -21.5825
  15   2.0000      -0.741038       -20.1647
  16   2.0000      -0.702179       -19.1073
  17   2.0000      -0.689883       -18.7727
  18   2.0000      -0.641395       -17.4532
  19   2.0000      -0.630398       -17.1540
  20   2.0000      -0.594936       -16.1890
  21   2.0000      -0.571414       -15.5490
  22   2.0000      -0.560156       -15.2426
  23   2.0000      -0.557826       -15.1792
  24   2.0000      -0.551031       -14.9943
  25   2.0000      -0.516883       -14.0651
  26   2.0000      -0.505641       -13.7592
  27   2.0000      -0.454409       -12.3651
  28   2.0000      -0.383014       -10.4223
  29   2.0000      -0.304263        -8.2794
  30   0.0000       0.129377         3.5205
  31   0.0000       0.147697         4.0190
  32   0.0000       0.156518         4.2591
  33   0.0000       0.185520         5.0483
  34   0.0000       0.195483         5.3194

MULLIKEN ATOMIC CHARGES
-----------------------
   0 C :   -0.436307
   1 C :    0.189102
   2 C :    0.026864
   3 C :   -0.122931
   4 O :   -0.457596
   5 C :   -0.224251
   6 C :    0.003472
   7 O :   -0.224919
   8 H :    0.151244
   9 H :    0.140642
  10 H :    0.148965
  11 H :    0.115130
  12 H :    0.091825
  13 H :    0.313652
  14 H :    0.140923
  15 H :    0.144183
Sum of atomic charges:    0.0000000

LOEWDIN ATOMIC CHARGES
----------------------
   0 C :   -0.273039
   1 C :   -0.245216
   2 C :   -0.174193
   3 C :   -0.307960
   4 O :   -0.047059
   5 C :   -0.156646
   6 C :   -0.243536
   7 O :    0.349784
   8 H :    0.136155
   9 H :    0.133744
  10 H :    0.134147
  11 H :    0.123973
  12 H :    0.120750
  13 H :    0.170859
  14 H :    0.147002
  15 H :    0.131234

  Mayer bond orders larger than 0.1
B(  0-C ,  1-C ) :   0.8547 B(  0-C ,  8-H ) :   0.9347 B(  0-C ,  9-H ) :   0.9592
B(  0-C , 10-H ) :   0.9312 B(  1-C ,  2-C ) :   1.5315 B(  1-C ,  7-O ) :   1.0533
B(  2-C ,  3-C ) :   0.8750 B(  2-C ,  4-O ) :  -0.1424 B(  2-C ,  5-C ) :   1.1712
B(  3-C ,  4-O ) :   1.0895 B(  3-C , 11-H ) :   0.9366 B(  3-C , 12-H ) :   0.9398
B(  4-O , 13-H ) :   0.8486 B(  5-C ,  6-C ) :   1.5558 B(  5-C , 14-H ) :   0.9183
B(  6-C ,  7-O ) :   1.0232 B(  6-C , 15-H ) :   0.9412

MP2 TOTAL ENERGY:     -383.127220459 Eh
FINAL SINGLE POINT ENERGY      -383.127220458770

DIPOLE MOMENT
-------------
                                X             Y             Z
Electronic contribution:      2.27203      -3.67431      -0.30030
Nuclear contribution   :     -2.78537       4.09109       0.70922
                        -----------------------------------------
Total Dipole Moment    :     -0.51334       0.41679       0.40892
                        -----------------------------------------
Magnitude (a.u.)       :      0.77746
Magnitude (Debye)      :      1.97614

                             ****ORCA TERMINATED NORMALLY****
TOTAL RUN TIME: 0 days 0 hours 10 minutes 56 seconds 47 msec
