                         Program Version 3.0.3 - RELEASE   -
|  1> ! RI-MP2 RIJK def2-TZVP def2-TZVP/C def2-TZVP/JK TIGHTSCF
|  2> % maxcore 2000
|  3> % mp2 density relaxed end
|  4> *xyz 0 1
|  5>  O       -0.0335392274     1.4057992297    -0.3141851161
|  6>  C       -0.0183377233     0.0328860412     0.0558455772
|  7>  C       -1.4631348828    -0.4378733045     0.0959350950
|  8>  N       -2.0618709001    -0.2808470533    -1.2161544777
|  9>  C       -3.3940259795    -0.6033898247    -1.3827268646
| 10>  C       -4.2128128783    -1.4477290710    -0.6586927535
| 11>  N       -5.3919240826    -1.3968268884    -1.3414862065
| 12>  N       -5.3232865140    -0.5838555898    -2.3969794301
| 13>  N       -4.1116444067    -0.0962419189    -2.4287428495
| 14>  H        0.8625981246     1.6748417154    -0.5339226527
| 15>  H        0.5383357493    -0.5691190820    -0.6765874696
| 16>  H        0.4410770113    -0.1122911627     1.0450184862
| 17>  H       -1.4780244082    -1.4972079476     0.3817153785
| 18>  H       -2.0062488517     0.1218057670     0.8766628350
| 19>  H       -1.8249371365     0.6064188221    -1.6414486775
| 20>  H       -4.0737021430    -2.0454649849     0.2240051346
| 21>  H       -6.2564572112    -1.8721906776    -1.1404565986
| 22> *
| 23>
| 24>                          ****END OF INPUT****

CARTESIAN COORDINATES (ANGSTROEM)
---------------------------------
  O     -0.033539    1.405799   -0.314185
  C     -0.018338    0.032886    0.055846
  C     -1.463135   -0.437873    0.095935
  N     -2.061871   -0.280847   -1.216154
  C     -3.394026   -0.603390   -1.382727
  C     -4.212813   -1.447729   -0.658693
  N     -5.391924   -1.396827   -1.341486
  N     -5.323287   -0.583856   -2.396979
  N     -4.111644   -0.096242   -2.428743
  H      0.862598    1.674842   -0.533923
  H      0.538336   -0.569119   -0.676587
  H      0.441077   -0.112291    1.045018
  H     -1.478024   -1.497208    0.381715
  H     -2.006249    0.121806    0.876663
  H     -1.824937    0.606419   -1.641449
  H     -4.073702   -2.045465    0.224005
  H     -6.256457   -1.872191   -1.140457

 Total Charge           Charge          ....    0
 Multiplicity           Mult            ....    1
 Number of Electrons    NEL             ....   68
 Basis Dimension        Dim             ....  327

ORBITAL ENERGIES
----------------

  NO   OCC          E(Eh)            E(eV)
   0   2.0000     -20.568312      -559.6922
   1   2.0000     -15.650722      -425.8778
   2   2.0000     -15.637253      -425.5113
   3   2.0000     -15.580774      -423.9744
   4   2.0000     -15.558362      -423.3646
   5   2.0000     -11.287912      -307.1597
   6   2.0000     -11.287509      -307.1487
   7   2.0000     -11.265370      -306.5463
   8   2.0000     -11.264676      -306.5274
   9   2.0000      -1.430988       -38.9392
  10   2.0000      -1.373668       -37.3794
  11   2.0000      -1.242123       -33.7999
  12   2.0000      -1.183231       -32.1973
  13   2.0000      -1.065541       -28.9948
  14   2.0000      -0.994098       -27.0508
  15   2.0000      -0.875547       -23.8248
  16   2.0000      -0.836942       -22.7743
  17   2.0000      -0.804391       -21.8886
  18   2.0000      -0.762789       -20.7565
  19   2.0000      -0.717730       -19.5304
  20   2.0000      -0.670317       -18.2402
  21   2.0000      -0.657887       -17.9020
  22   2.0000      -0.640983       -17.4420
  23   2.0000      -0.616492       -16.7756
  24   2.0000      -0.595786       -16.2122
  25   2.0000      -0.586643       -15.9634
  26   2.0000      -0.545608       -14.8468
  27   2.0000      -0.516858       -14.0644
  28   2.0000      -0.504635       -13.7318
  29   2.0000      -0.462118       -12.5749
  30   2.0000      -0.456013       -12.4087
  31   2.0000      -0.433912       -11.8073
  32   2.0000      -0.397627       -10.8200
  33   2.0000      -0.306194        -8.3320
  34   0.0000       0.125836         3.4242
  35   0.0000       0.131546         3.5796
  36   0.0000       0.143324         3.9000
  37   0.0000       0.149397         4.0653
  38   0.0000       0.179310         4.8793

MULLIKEN ATOMIC CHARGES
-----------------------
   0 O :   -0.484307
   1 C :   -0.067806
   2 C :   -0.094600
   3 N :   -0.337918
   4 C :    0.141930
   5 C :   -0.207617
   6 N :   -0.059065
   7 N :   -0.155839
   8 N :   -0.162243
   9 H :    0.324023
  10 H :    0.111266
  11 H :    0.103004
  12 H :    0.109387
  13 H :    0.110475
  14 H :    0.248811
  15 H :    0.160267
  16 H :    0.260231
Sum of atomic charges:    0.0000000

LOEWDIN ATOMIC CHARGES
----------------------
   0 O :   -0.051627
   1 C :   -0.349978
   2 C :   -0.299061
   3 N :    0.065825
   4 C :   -0.366686
   5 C :   -0.257586
   6 N :    0.112677
   7 N :   -0.065847
   8 N :    0.012368
   9 H :    0.175872
  10 H :    0.120712
  11 H :    0.118993
  12 H :    0.136029
  13 H :    0.127448
  14 H :    0.194040
  15 H :    0.137604
  16 H :    0.189216

  Mayer bond orders larger than 0.1
B(  0-O ,  1-C ) :   0.9856 B(  0-O ,  9-H ) :   0.8452 B(  1-C ,  2-C ) :   0.9502
B(  1-C , 10-H ) :   0.9302 B(  1-C , 11-H ) :   0.9275 B(  2-C ,  3-N ) :   0.9252
B(  2-C , 12-H ) :   0.9171 B(  2-C , 13-H ) :   0.9148 B(  3-N ,  4-C ) :   1.1101
B(  3-N , 14-H ) :   0.8522 B(  4-C ,  5-C ) :   1.4143 B(  4-C ,  8-N ) :   1.3754
B(  5-C ,  6-N ) :   1.1563 B(  5-C ,  7-N ) :   0.1401 B(  5-C , 15-H ) :   0.9041
B(  6-N ,  7-N ) :   1.0854 B(  6-N , 16-H ) :   0.8644 B(  7-N ,  8-N ) :   1.2749

MP2 TOTAL ENERGY:     -450.580437311 Eh
FINAL SINGLE POINT ENERGY      -450.580437311483

DIPOLE MOMENT
-------------
                                X             Y             Z
Electronic contribution:     -7.36458      -0.08059      -4.79275
Nuclear contribution   :      8.16199      -0.88147       6.38639
                        -----------------------------------------
Total Dipole Moment    :      0.79741      -0.96206       1.59365
                        -----------------------------------------
Magnitude (a.u.)       :      2.02512
Magnitude (Debye)      :      5.14746

                             ****ORCA TERMINATED NORMALLY****
TOTAL RUN TIME: 0 days 0 hours 14 minutes 46 seconds 193 msec
