                         Program Version 3.0.3 - RELEASE   -
|  1> ! RI-MP2 RIJK def2-TZVP def2-TZVP/C def2-TZVP/JK TIGHTSCF
|  2> % maxcore 2000
|  3> % mp2 density relaxed end
|  4> *xyz 0 1
|  5>  C       -0.0860253799     1.6239427453     0.0593382782
|  6>  C        0.0510626841     0.1133636327     0.0870261442
|  7>  C        1.1625815358    -0.6256256652    -0.7180787420
|  8>  C        2.4279082306    -0.0336314609    -0.0366695079
|  9>  C        2.1648995951    -0.0256667301     1.2838025375
| 10>  C        0.7757288229    -0.6442098347     1.2955868341
| 11>  C       -0.1766521422    -1.5986655385     2.0157077300
| 12>  O       -0.2680681236    -2.3972793013     0.7832790582
| 13>  C        0.9792448093    -1.8038201576     0.3158527205
| 14>  H        0.8615861427     2.1304986604     0.2582626759
| 15>  H       -0.4470891421     1.9545371237    -0.9212370433
| 16>  H       -0.8167435635     1.9602152877     0.8035333294
| 17>  H       -0.9198189696    -0.3541620164    -0.0920564594
| 18>  H        1.1703963612    -0.7155150502    -1.8061021889
| 19>  H        3.3118447716     0.3129525692    -0.5529611105
| 20>  H        2.7753667266     0.3170653419     2.1064982069
| 21>  H        0.2692046763    -2.1882848810     2.8272070710
| 22>  H       -1.1554612458    -1.2150114028     2.3202584867
| 23>  H        1.8094706403    -2.5087755924     0.4151393896
| 24> *
| 25>
| 26>                          ****END OF INPUT****

CARTESIAN COORDINATES (ANGSTROEM)
---------------------------------
  C     -0.086025    1.623943    0.059338
  C      0.051063    0.113364    0.087026
  C      1.162582   -0.625626   -0.718079
  C      2.427908   -0.033631   -0.036670
  C      2.164900   -0.025667    1.283803
  C      0.775729   -0.644210    1.295587
  C     -0.176652   -1.598666    2.015708
  O     -0.268068   -2.397279    0.783279
  C      0.979245   -1.803820    0.315853
  H      0.861586    2.130499    0.258263
  H     -0.447089    1.954537   -0.921237
  H     -0.816744    1.960215    0.803533
  H     -0.919819   -0.354162   -0.092056
  H      1.170396   -0.715515   -1.806102
  H      3.311845    0.312953   -0.552961
  H      2.775367    0.317065    2.106498
  H      0.269205   -2.188285    2.827207
  H     -1.155461   -1.215011    2.320258
  H      1.809471   -2.508776    0.415139

 Total Charge           Charge          ....    0
 Multiplicity           Mult            ....    1
 Number of Electrons    NEL             ....   66
 Basis Dimension        Dim             ....  339

ORBITAL ENERGIES
----------------

  NO   OCC          E(Eh)            E(eV)
   0   2.0000     -20.550796      -559.2156
   1   2.0000     -11.290079      -307.2187
   2   2.0000     -11.280238      -306.9509
   3   2.0000     -11.247959      -306.0725
   4   2.0000     -11.242996      -305.9375
   5   2.0000     -11.242208      -305.9160
   6   2.0000     -11.233959      -305.6916
   7   2.0000     -11.233440      -305.6774
   8   2.0000     -11.210898      -305.0640
   9   2.0000      -1.376468       -37.4556
  10   2.0000      -1.188164       -32.3316
  11   2.0000      -1.010396       -27.4943
  12   2.0000      -0.970774       -26.4161
  13   2.0000      -0.959323       -26.1045
  14   2.0000      -0.877701       -23.8835
  15   2.0000      -0.833140       -22.6709
  16   2.0000      -0.735052       -20.0018
  17   2.0000      -0.716498       -19.4969
  18   2.0000      -0.684381       -18.6229
  19   2.0000      -0.653802       -17.7909
  20   2.0000      -0.622406       -16.9365
  21   2.0000      -0.601556       -16.3692
  22   2.0000      -0.575782       -15.6678
  23   2.0000      -0.571602       -15.5541
  24   2.0000      -0.558951       -15.2098
  25   2.0000      -0.518646       -14.1131
  26   2.0000      -0.493266       -13.4224
  27   2.0000      -0.481449       -13.1009
  28   2.0000      -0.468784       -12.7563
  29   2.0000      -0.439084       -11.9481
  30   2.0000      -0.427998       -11.6464
  31   2.0000      -0.384041       -10.4503
  32   2.0000      -0.335065        -9.1176
  33   0.0000       0.128890         3.5073
  34   0.0000       0.142277         3.8716
  35   0.0000       0.160625         4.3708
  36   0.0000       0.170687         4.6446
  37   0.0000       0.172207         4.6860

MULLIKEN ATOMIC CHARGES
-----------------------
   0 C :   -0.423125
   1 C :   -0.093996
   2 C :   -0.046011
   3 C :   -0.225121
   4 C :   -0.245061
   5 C :    0.060316
   6 C :   -0.002002
   7 O :   -0.328501
   8 C :    0.037354
   9 H :    0.141194
  10 H :    0.134115
  11 H :    0.129900
  12 H :    0.125221
  13 H :    0.136173
  14 H :    0.135711
  15 H :    0.137930
  16 H :    0.104201
  17 H :    0.114618
  18 H :    0.107084
Sum of atomic charges:    0.0000000

LOEWDIN ATOMIC CHARGES
----------------------
   0 C :   -0.296411
   1 C :   -0.176638
   2 C :   -0.154044
   3 C :   -0.119085
   4 C :   -0.110116
   5 C :   -0.175516
   6 C :   -0.224541
   7 O :    0.119725
   8 C :   -0.184254
   9 H :    0.126549
  10 H :    0.127643
  11 H :    0.125608
  12 H :    0.159157
  13 H :    0.130594
  14 H :    0.133982
  15 H :    0.135821
  16 H :    0.123901
  17 H :    0.122864
  18 H :    0.134760

  Mayer bond orders larger than 0.1
B(  0-C ,  1-C ) :   0.8967 B(  0-C ,  9-H ) :   0.9357 B(  0-C , 10-H ) :   0.9367
B(  0-C , 11-H ) :   0.9371 B(  1-C ,  2-C ) :   0.9181 B(  1-C ,  5-C ) :   0.8614
B(  1-C , 12-H ) :   0.8976 B(  2-C ,  3-C ) :   0.9060 B(  2-C ,  8-C ) :   0.8675
B(  2-C , 13-H ) :   0.8968 B(  3-C ,  4-C ) :   1.7140 B(  3-C , 14-H ) :   0.9336
B(  4-C ,  5-C ) :   0.9379 B(  4-C , 15-H ) :   0.9346 B(  5-C ,  6-C ) :   0.9289
B(  5-C ,  8-C ) :   0.8834 B(  6-C ,  7-O ) :   0.9028 B(  6-C , 16-H ) :   0.9183
B(  6-C , 17-H ) :   0.9076 B(  7-O ,  8-C ) :   0.9595 B(  8-C , 18-H ) :   0.9436

MP2 TOTAL ENERGY:     -385.118528674 Eh
FINAL SINGLE POINT ENERGY      -385.118528673913

DIPOLE MOMENT
-------------
                                X             Y             Z
Electronic contribution:      0.85429      -4.88544       0.55026
Nuclear contribution   :     -0.51396       5.41705      -0.31535
                        -----------------------------------------
Total Dipole Moment    :      0.34033       0.53161       0.23491
                        -----------------------------------------
Magnitude (a.u.)       :      0.67352
Magnitude (Debye)      :      1.71194

                             ****ORCA TERMINATED NORMALLY****
TOTAL RUN TIME: 0 days 0 hours 20 minutes 11 seconds 986 msec
