                         Program Version 3.0.3 - RELEASE   -
|  1> ! RI-MP2 RIJK def2-TZVP def2-TZVP/C def2-TZVP/JK TIGHTSCF
|  2> % maxcore 2000
|  3> % mp2 density relaxed end
|  4> *xyz 0 1
|  5>  C       -0.0177129054     1.4807709719    -0.0074982798
|  6>  N       -0.0080758199     0.0181051034     0.0014364261
|  7>  C       -0.0039628778    -0.6318905789     1.2467045126
|  8>  O       -0.0083031082    -0.0433973963     2.2977870546
|  9>  C       -0.0020721275    -0.7659508173    -1.1560782322
| 10>  O        0.0058950142    -1.9719923336    -1.1341522772
| 11>  C       -0.0060590209     0.0292311984    -2.4711508644
| 12>  C        0.0016144519    -0.8422872588    -3.6399823738
| 13>  N        0.0074541979    -1.4931378493    -4.5927177780
| 14>  H        0.8732271157     1.8836868768    -0.4968630622
| 15>  H       -0.9113382182     1.8718045045    -0.5014965096
| 16>  H       -0.0224414763     1.7977813274     1.0348238212
| 17>  H        0.0035285642    -1.7225419091     1.1358617301
| 18>  H       -0.8868508819     0.6803703580    -2.5112567531
| 19>  H        0.8654592724     0.6928736528    -2.5089909141
| 20> *
| 21>
| 22>                          ****END OF INPUT****

CARTESIAN COORDINATES (ANGSTROEM)
---------------------------------
  C     -0.017713    1.480771   -0.007498
  N     -0.008076    0.018105    0.001436
  C     -0.003963   -0.631891    1.246705
  O     -0.008303   -0.043397    2.297787
  C     -0.002072   -0.765951   -1.156078
  O      0.005895   -1.971992   -1.134152
  C     -0.006059    0.029231   -2.471151
  C      0.001614   -0.842287   -3.639982
  N      0.007454   -1.493138   -4.592718
  H      0.873227    1.883687   -0.496863
  H     -0.911338    1.871805   -0.501497
  H     -0.022441    1.797781    1.034824
  H      0.003529   -1.722542    1.135862
  H     -0.886851    0.680370   -2.511257
  H      0.865459    0.692874   -2.508991

 Total Charge           Charge          ....    0
 Multiplicity           Mult            ....    1
 Number of Electrons    NEL             ....   66
 Basis Dimension        Dim             ....  315

ORBITAL ENERGIES
----------------

  NO   OCC          E(Eh)            E(eV)
   0   2.0000     -20.575982      -559.9009
   1   2.0000     -20.568981      -559.7104
   2   2.0000     -15.645143      -425.7260
   3   2.0000     -15.587102      -424.1466
   4   2.0000     -11.412791      -310.5578
   5   2.0000     -11.381972      -309.7192
   6   2.0000     -11.326272      -308.2035
   7   2.0000     -11.300592      -307.5048
   8   2.0000     -11.291039      -307.2448
   9   2.0000      -1.449852       -39.4525
  10   2.0000      -1.422770       -38.7155
  11   2.0000      -1.287949       -35.0469
  12   2.0000      -1.235047       -33.6073
  13   2.0000      -1.096264       -29.8309
  14   2.0000      -1.006605       -27.3911
  15   2.0000      -0.915271       -24.9058
  16   2.0000      -0.796702       -21.6794
  17   2.0000      -0.749411       -20.3925
  18   2.0000      -0.728930       -19.8352
  19   2.0000      -0.707353       -19.2481
  20   2.0000      -0.702002       -19.1024
  21   2.0000      -0.658690       -17.9239
  22   2.0000      -0.650451       -17.6997
  23   2.0000      -0.632238       -17.2041
  24   2.0000      -0.596271       -16.2254
  25   2.0000      -0.588922       -16.0254
  26   2.0000      -0.570546       -15.5253
  27   2.0000      -0.555887       -15.1265
  28   2.0000      -0.500322       -13.6145
  29   2.0000      -0.482185       -13.1209
  30   2.0000      -0.477488       -12.9931
  31   2.0000      -0.453256       -12.3337
  32   2.0000      -0.435125       -11.8404
  33   0.0000       0.093430         2.5424
  34   0.0000       0.098351         2.6763
  35   0.0000       0.142697         3.8830
  36   0.0000       0.152099         4.1388
  37   0.0000       0.164555         4.4778

MULLIKEN ATOMIC CHARGES
-----------------------
   0 C :   -0.352453
   1 N :   -0.098178
   2 C :    0.164158
   3 O :   -0.307311
   4 C :    0.219506
   5 O :   -0.294507
   6 C :   -0.151769
   7 C :   -0.157972
   8 N :   -0.032444
   9 H :    0.147833
  10 H :    0.147636
  11 H :    0.200447
  12 H :    0.156753
  13 H :    0.179167
  14 H :    0.179132
Sum of atomic charges:    0.0000000

LOEWDIN ATOMIC CHARGES
----------------------
   0 C :   -0.274327
   1 N :    0.172513
   2 C :   -0.336907
   3 O :    0.110754
   4 C :   -0.385908
   5 O :    0.152444
   6 C :   -0.211740
   7 C :   -0.179751
   8 N :    0.079556
   9 H :    0.121833
  10 H :    0.121824
  11 H :    0.141563
  12 H :    0.135125
  13 H :    0.176509
  14 H :    0.176513

  Mayer bond orders larger than 0.1
B(  0-C ,  1-N ) :   0.8549 B(  0-C ,  9-H ) :   0.9301 B(  0-C , 10-H ) :   0.9300
B(  0-C , 11-H ) :   0.9112 B(  1-N ,  2-C ) :   0.9895 B(  1-N ,  4-C ) :   1.1017
B(  2-C ,  3-O ) :   1.9270 B(  2-C , 12-H ) :   0.9181 B(  4-C ,  5-O ) :   1.9438
B(  4-C ,  6-C ) :   0.8913 B(  6-C ,  7-C ) :   0.9719 B(  6-C , 13-H ) :   0.8818
B(  6-C , 14-H ) :   0.8819 B(  7-C ,  8-N ) :   2.8723

MP2 TOTAL ENERGY:     -453.261903564 Eh
FINAL SINGLE POINT ENERGY      -453.261903564440

DIPOLE MOMENT
-------------
                                X             Y             Z
Electronic contribution:      0.03930      -5.57600      -1.50843
Nuclear contribution   :     -0.05271       7.38115       1.86539
                        -----------------------------------------
Total Dipole Moment    :     -0.01341       1.80514       0.35696
                        -----------------------------------------
Magnitude (a.u.)       :      1.84015
Magnitude (Debye)      :      4.67729

                             ****ORCA TERMINATED NORMALLY****
TOTAL RUN TIME: 0 days 0 hours 14 minutes 40 seconds 492 msec
