                         Program Version 3.0.3 - RELEASE   -
|  1> ! RI-MP2 RIJK def2-TZVP def2-TZVP/C def2-TZVP/JK TIGHTSCF
|  2> % maxcore 2000
|  3> % mp2 density relaxed end
|  4> *xyz 0 1
|  5>  C       -1.0335742841     1.1110157924     0.1173431146
|  6>  C       -0.0709601158    -0.0594050763    -0.0097227108
|  7>  C        1.1753266760     0.0755755908    -0.9341369185
|  8>  C        2.0492426265    -0.6206928930     0.1497966217
|  9>  C        3.2532705361     0.1713434267     0.6863404180
| 10>  N        2.6327093575     1.0799456803     1.6358159998
| 11>  C        1.3493020336     0.7753465650     2.0141133140
| 12>  O        0.7074011676     1.3594100806     2.8620766666
| 13>  C        0.8935604789    -0.4135896210     1.1675351271
| 14>  H       -0.5105574808     2.0346065970     0.3819380569
| 15>  H       -1.5605289464     1.2773453852    -0.8290139272
| 16>  H       -1.7813673627     0.9271123805     0.8950141118
| 17>  H       -0.6276965762    -0.9639752223    -0.2772130328
| 18>  H        1.1221658115    -0.4113055488    -1.9105663264
| 19>  H        1.4664294493     1.1205559876    -1.0841232987
| 20>  H        2.3023589724    -1.6541615887    -0.0876656982
| 21>  H        3.9884920500    -0.4831201466     1.1758106707
| 22>  H        3.7716546471     0.7174285441    -0.1113055582
| 23>  H        3.1417244133     1.7945514214     2.1319551647
| 24>  H        0.5868307460    -1.2293838249     1.8256148648
| 25> *
| 26>
| 27>                          ****END OF INPUT****

CARTESIAN COORDINATES (ANGSTROEM)
---------------------------------
  C     -1.033574    1.111016    0.117343
  C     -0.070960   -0.059405   -0.009723
  C      1.175327    0.075576   -0.934137
  C      2.049243   -0.620693    0.149797
  C      3.253271    0.171343    0.686340
  N      2.632709    1.079946    1.635816
  C      1.349302    0.775347    2.014113
  O      0.707401    1.359410    2.862077
  C      0.893560   -0.413590    1.167535
  H     -0.510557    2.034607    0.381938
  H     -1.560529    1.277345   -0.829014
  H     -1.781367    0.927112    0.895014
  H     -0.627697   -0.963975   -0.277213
  H      1.122166   -0.411306   -1.910566
  H      1.466429    1.120556   -1.084123
  H      2.302359   -1.654162   -0.087666
  H      3.988492   -0.483120    1.175811
  H      3.771655    0.717429   -0.111306
  H      3.141724    1.794551    2.131955
  H      0.586831   -1.229384    1.825615

 Total Charge           Charge          ....    0
 Multiplicity           Mult            ....    1
 Number of Electrons    NEL             ....   68
 Basis Dimension        Dim             ....  345

ORBITAL ENERGIES
----------------

  NO   OCC          E(Eh)            E(eV)
   0   2.0000     -20.509779      -558.0995
   1   2.0000     -15.578742      -423.9191
   2   2.0000     -11.339752      -308.5703
   3   2.0000     -11.273972      -306.7804
   4   2.0000     -11.242501      -305.9240
   5   2.0000     -11.238154      -305.8057
   6   2.0000     -11.237113      -305.7774
   7   2.0000     -11.228141      -305.5332
   8   2.0000     -11.208939      -305.0107
   9   2.0000      -1.373935       -37.3867
  10   2.0000      -1.246977       -33.9320
  11   2.0000      -1.137014       -30.9397
  12   2.0000      -1.003700       -27.3121
  13   2.0000      -0.961015       -26.1506
  14   2.0000      -0.925632       -25.1877
  15   2.0000      -0.832154       -22.6440
  16   2.0000      -0.790621       -21.5139
  17   2.0000      -0.736827       -20.0501
  18   2.0000      -0.696397       -18.9499
  19   2.0000      -0.667820       -18.1723
  20   2.0000      -0.624990       -17.0068
  21   2.0000      -0.615092       -16.7375
  22   2.0000      -0.596341       -16.2273
  23   2.0000      -0.581278       -15.8174
  24   2.0000      -0.563726       -15.3398
  25   2.0000      -0.559793       -15.2327
  26   2.0000      -0.532888       -14.5006
  27   2.0000      -0.509919       -13.8756
  28   2.0000      -0.486858       -13.2481
  29   2.0000      -0.469905       -12.7868
  30   2.0000      -0.442457       -12.0399
  31   2.0000      -0.433674       -11.8009
  32   2.0000      -0.400137       -10.8883
  33   2.0000      -0.387040       -10.5319
  34   0.0000       0.128143         3.4869
  35   0.0000       0.141279         3.8444
  36   0.0000       0.154005         4.1907
  37   0.0000       0.165281         4.4975
  38   0.0000       0.181590         4.9413

MULLIKEN ATOMIC CHARGES
-----------------------
   0 C :   -0.406406
   1 C :   -0.047342
   2 C :   -0.299614
   3 C :   -0.059920
   4 C :   -0.131017
   5 N :   -0.324641
   6 C :    0.148353
   7 O :   -0.342693
   8 C :   -0.011201
   9 H :    0.134292
  10 H :    0.126731
  11 H :    0.137871
  12 H :    0.097775
  13 H :    0.123326
  14 H :    0.116566
  15 H :    0.125331
  16 H :    0.118053
  17 H :    0.126016
  18 H :    0.234573
  19 H :    0.133947
Sum of atomic charges:    0.0000000

LOEWDIN ATOMIC CHARGES
----------------------
   0 C :   -0.295289
   1 C :   -0.227556
   2 C :   -0.192582
   3 C :   -0.189930
   4 C :   -0.255829
   5 N :    0.119844
   6 C :   -0.431230
   7 O :    0.082685
   8 C :   -0.143824
   9 H :    0.127330
  10 H :    0.123510
  11 H :    0.129810
  12 H :    0.150964
  13 H :    0.126120
  14 H :    0.139442
  15 H :    0.145456
  16 H :    0.126810
  17 H :    0.130999
  18 H :    0.181612
  19 H :    0.151656

  Mayer bond orders larger than 0.1
B(  0-C ,  1-C ) :   0.9058 B(  0-C ,  9-H ) :   0.9332 B(  0-C , 10-H ) :   0.9354
B(  0-C , 11-H ) :   0.9349 B(  1-C ,  2-C ) :   0.9445 B(  1-C ,  8-C ) :   0.9044
B(  1-C , 12-H ) :   0.9239 B(  2-C ,  3-C ) :   0.9352 B(  2-C , 13-H ) :   0.9261
B(  2-C , 14-H ) :   0.9059 B(  3-C ,  4-C ) :   0.9225 B(  3-C ,  8-C ) :   0.9278
B(  3-C , 15-H ) :   0.9083 B(  4-C ,  5-N ) :   0.8945 B(  4-C , 16-H ) :   0.9311
B(  4-C , 17-H ) :   0.9247 B(  5-N ,  6-C ) :   1.1692 B(  5-N , 18-H ) :   0.8663
B(  6-C ,  7-O ) :   2.0000 B(  6-C ,  8-C ) :   0.8673 B(  8-C , 19-H ) :   0.9120

MP2 TOTAL ENERGY:     -402.499929074 Eh
FINAL SINGLE POINT ENERGY      -402.499929073564

DIPOLE MOMENT
-------------
                                X             Y             Z
Electronic contribution:      2.28566       0.78335       5.99387
Nuclear contribution   :     -1.34021      -1.37617      -6.98635
                        -----------------------------------------
Total Dipole Moment    :      0.94545      -0.59282      -0.99248
                        -----------------------------------------
Magnitude (a.u.)       :      1.49343
Magnitude (Debye)      :      3.79600

                             ****ORCA TERMINATED NORMALLY****
TOTAL RUN TIME: 0 days 0 hours 18 minutes 46 seconds 69 msec
