                         Program Version 3.0.3 - RELEASE   -
|  1> ! RI-MP2 RIJK def2-TZVP def2-TZVP/C def2-TZVP/JK TIGHTSCF
|  2> % maxcore 2000
|  3> % mp2 density relaxed end
|  4> *xyz 0 1
|  5>  O        0.0071707620     1.3012310289     0.0483217417
|  6>  C       -0.0316805784    -0.1131719961     0.0631287563
|  7>  C       -1.5067078828    -0.5388240698    -0.0013256926
|  8>  C       -1.5902952066    -2.0710922394    -0.1958592092
|  9>  C       -2.8628117933    -2.5269595177    -0.7498773269
| 10>  N       -3.8641525042    -2.8869380669    -1.2008088041
| 11>  C       -2.2590639769     0.0107637685     1.2045417560
| 12>  C       -3.4055779709    -0.6593895065     1.8620225901
| 13>  N       -2.1072858155    -0.5516836183     2.5594364910
| 14>  H        0.8885958968     1.5881223258     0.3024509676
| 15>  H        0.5113962976    -0.5325776300    -0.7995041172
| 16>  H        0.4285588574    -0.5210903987     0.9772160817
| 17>  H       -1.9305559612    -0.0644762478    -0.8947318431
| 18>  H       -0.7978609857    -2.3941054645    -0.8806793094
| 19>  H       -1.4082501327    -2.6022698234     0.7463201114
| 20>  H       -2.2447467895     1.0964952380     1.2127229048
| 21>  H       -4.2035014516    -0.0579216740     2.2881944865
| 22>  H       -3.7276342338    -1.6323670217     1.5051523653
| 23>  H       -1.6297543308    -1.4504081264     2.5291053400
| 24> *
| 25>
| 26>                          ****END OF INPUT****

CARTESIAN COORDINATES (ANGSTROEM)
---------------------------------
  O      0.007171    1.301231    0.048322
  C     -0.031681   -0.113172    0.063129
  C     -1.506708   -0.538824   -0.001326
  C     -1.590295   -2.071092   -0.195859
  C     -2.862812   -2.526960   -0.749877
  N     -3.864153   -2.886938   -1.200809
  C     -2.259064    0.010764    1.204542
  C     -3.405578   -0.659390    1.862023
  N     -2.107286   -0.551684    2.559436
  H      0.888596    1.588122    0.302451
  H      0.511396   -0.532578   -0.799504
  H      0.428559   -0.521090    0.977216
  H     -1.930556   -0.064476   -0.894732
  H     -0.797861   -2.394105   -0.880679
  H     -1.408250   -2.602270    0.746320
  H     -2.244747    1.096495    1.212723
  H     -4.203501   -0.057922    2.288194
  H     -3.727634   -1.632367    1.505152
  H     -1.629754   -1.450408    2.529105

 Total Charge           Charge          ....    0
 Multiplicity           Mult            ....    1
 Number of Electrons    NEL             ....   68
 Basis Dimension        Dim             ....  339

ORBITAL ENERGIES
----------------

  NO   OCC          E(Eh)            E(eV)
   0   2.0000     -20.575572      -559.8898
   1   2.0000     -15.574832      -423.8127
   2   2.0000     -15.563756      -423.5113
   3   2.0000     -11.301143      -307.5197
   4   2.0000     -11.295029      -307.3534
   5   2.0000     -11.280099      -306.9471
   6   2.0000     -11.267882      -306.6147
   7   2.0000     -11.267151      -306.5948
   8   2.0000     -11.258982      -306.3725
   9   2.0000      -1.382461       -37.6187
  10   2.0000      -1.266799       -34.4714
  11   2.0000      -1.225105       -33.3368
  12   2.0000      -1.110109       -30.2076
  13   2.0000      -0.990617       -26.9561
  14   2.0000      -0.915066       -24.9002
  15   2.0000      -0.870944       -23.6996
  16   2.0000      -0.792899       -21.5759
  17   2.0000      -0.735485       -20.0136
  18   2.0000      -0.713584       -19.4176
  19   2.0000      -0.699986       -19.0476
  20   2.0000      -0.659083       -17.9346
  21   2.0000      -0.636387       -17.3170
  22   2.0000      -0.613030       -16.6814
  23   2.0000      -0.592946       -16.1349
  24   2.0000      -0.564848       -15.3703
  25   2.0000      -0.557994       -15.1838
  26   2.0000      -0.535298       -14.5662
  27   2.0000      -0.520411       -14.1611
  28   2.0000      -0.480871       -13.0852
  29   2.0000      -0.473957       -12.8970
  30   2.0000      -0.463337       -12.6081
  31   2.0000      -0.459387       -12.5006
  32   2.0000      -0.458546       -12.4777
  33   2.0000      -0.394199       -10.7267
  34   0.0000       0.112926         3.0729
  35   0.0000       0.127116         3.4590
  36   0.0000       0.143037         3.8922
  37   0.0000       0.162036         4.4092
  38   0.0000       0.171622         4.6701

MULLIKEN ATOMIC CHARGES
-----------------------
   0 O :   -0.468537
   1 C :   -0.062614
   2 C :   -0.016430
   3 C :   -0.181983
   4 C :   -0.202336
   5 N :   -0.047595
   6 C :   -0.085683
   7 C :   -0.161821
   8 N :   -0.363475
   9 H :    0.323780
  10 H :    0.104699
  11 H :    0.104359
  12 H :    0.117678
  13 H :    0.168660
  14 H :    0.153650
  15 H :    0.141243
  16 H :    0.127242
  17 H :    0.145769
  18 H :    0.203396
Sum of atomic charges:   -0.0000000

LOEWDIN ATOMIC CHARGES
----------------------
   0 O :   -0.032118
   1 C :   -0.324800
   2 C :   -0.235691
   3 C :   -0.222534
   4 C :   -0.199345
   5 N :    0.060135
   6 C :   -0.255171
   7 C :   -0.255791
   8 N :   -0.017531
   9 H :    0.177510
  10 H :    0.118197
  11 H :    0.121349
  12 H :    0.172139
  13 H :    0.169856
  14 H :    0.160440
  15 H :    0.153141
  16 H :    0.126998
  17 H :    0.127837
  18 H :    0.155379

  Mayer bond orders larger than 0.1
B(  0-O ,  1-C ) :   1.0387 B(  0-O ,  9-H ) :   0.8436 B(  1-C ,  2-C ) :   0.9182
B(  1-C , 10-H ) :   0.9380 B(  1-C , 11-H ) :   0.9104 B(  2-C ,  3-C ) :   0.8529
B(  2-C ,  6-C ) :   0.9551 B(  2-C , 12-H ) :   0.9089 B(  3-C ,  4-C ) :   0.9542
B(  3-C , 13-H ) :   0.9055 B(  3-C , 14-H ) :   0.9049 B(  4-C ,  5-N ) :   2.8755
B(  6-C ,  7-C ) :   0.9337 B(  6-C ,  8-N ) :   0.9057 B(  6-C , 15-H ) :   0.9136
B(  7-C ,  8-N ) :   0.9162 B(  7-C , 16-H ) :   0.9257 B(  7-C , 17-H ) :   0.9142
B(  8-N , 18-H ) :   0.8833

MP2 TOTAL ENERGY:     -418.482574897 Eh
FINAL SINGLE POINT ENERGY      -418.482574897477

DIPOLE MOMENT
-------------
                                X             Y             Z
Electronic contribution:     -2.75895      -1.62793      -2.44521
Nuclear contribution   :      4.45527       1.65215       2.60581
                        -----------------------------------------
Total Dipole Moment    :      1.69632       0.02423       0.16059
                        -----------------------------------------
Magnitude (a.u.)       :      1.70408
Magnitude (Debye)      :      4.33143

                             ****ORCA TERMINATED NORMALLY****
TOTAL RUN TIME: 0 days 0 hours 17 minutes 26 seconds 978 msec
