                         Program Version 3.0.3 - RELEASE   -
|  1> ! RI-MP2 RIJK def2-TZVP def2-TZVP/C def2-TZVP/JK TIGHTSCF
|  2> % maxcore 2000
|  3> % mp2 density relaxed end
|  4> *xyz 0 1
|  5>  C       -0.0166501569     1.5131091695     0.1378364816
|  6>  C        0.0414018605     0.0212806779     0.0260402893
|  7>  C        0.0521087017    -0.7365137147    -1.0824282327
|  8>  C        0.0089462973    -0.2996221370    -2.5137503315
|  9>  C        0.0572778624    -2.2125667681    -0.7309383916
| 10>  C        0.4788912270    -2.2291142951     0.7554128523
| 11>  O        1.8824428286    -2.4170004269     0.8974155349
| 12>  C        0.0379146645    -0.8420165288     1.2738428624
| 13>  H        0.8312222673     1.8982952279     0.7189933751
| 14>  H       -0.0110071972     2.0109975006    -0.8347895084
| 15>  H       -0.9226457409     1.8310541632     0.6706960341
| 16>  H        0.0064181370     0.7874057713    -2.6246097407
| 17>  H        0.8677406921    -0.6937673348    -3.0724265223
| 18>  H       -0.8871418195    -0.6887067157    -3.0152449579
| 19>  H       -0.9421173672    -2.6495242239    -0.8743498343
| 20>  H        0.7505456593    -2.8097090494    -1.3351366089
| 21>  H        0.0283401112    -3.0528444124     1.3141970787
| 22>  H        2.3125492158    -1.7025904138     0.4131699186
| 23>  H        0.7177647955    -0.4896044345     2.0586131401
| 24>  H       -0.9671751985    -0.8760168653     1.7198565112
| 25> *
| 26>
| 27>                          ****END OF INPUT****

CARTESIAN COORDINATES (ANGSTROEM)
---------------------------------
  C     -0.016650    1.513109    0.137836
  C      0.041402    0.021281    0.026040
  C      0.052109   -0.736514   -1.082428
  C      0.008946   -0.299622   -2.513750
  C      0.057278   -2.212567   -0.730938
  C      0.478891   -2.229114    0.755413
  O      1.882443   -2.417000    0.897416
  C      0.037915   -0.842017    1.273843
  H      0.831222    1.898295    0.718993
  H     -0.011007    2.010998   -0.834790
  H     -0.922646    1.831054    0.670696
  H      0.006418    0.787406   -2.624610
  H      0.867741   -0.693767   -3.072427
  H     -0.887142   -0.688707   -3.015245
  H     -0.942117   -2.649524   -0.874350
  H      0.750546   -2.809709   -1.335137
  H      0.028340   -3.052844    1.314197
  H      2.312549   -1.702590    0.413170
  H      0.717765   -0.489604    2.058613
  H     -0.967175   -0.876017    1.719857

 Total Charge           Charge          ....    0
 Multiplicity           Mult            ....    1
 Number of Electrons    NEL             ....   62
 Basis Dimension        Dim             ....  320

ORBITAL ENERGIES
----------------

  NO   OCC          E(Eh)            E(eV)
   0   2.0000     -20.545609      -559.0745
   1   2.0000     -11.273982      -306.7806
   2   2.0000     -11.227521      -305.5164
   3   2.0000     -11.225902      -305.4723
   4   2.0000     -11.223237      -305.3998
   5   2.0000     -11.223222      -305.3994
   6   2.0000     -11.219663      -305.3025
   7   2.0000     -11.219649      -305.3022
   8   2.0000      -1.353367       -36.8270
   9   2.0000      -1.136058       -30.9137
  10   2.0000      -1.005877       -27.3713
  11   2.0000      -1.004363       -27.3301
  12   2.0000      -0.920968       -25.0608
  13   2.0000      -0.886387       -24.1198
  14   2.0000      -0.794235       -21.6122
  15   2.0000      -0.680621       -18.5206
  16   2.0000      -0.674904       -18.3651
  17   2.0000      -0.644823       -17.5465
  18   2.0000      -0.613606       -16.6971
  19   2.0000      -0.587443       -15.9851
  20   2.0000      -0.585321       -15.9274
  21   2.0000      -0.573364       -15.6020
  22   2.0000      -0.555262       -15.1095
  23   2.0000      -0.541990       -14.7483
  24   2.0000      -0.518570       -14.1110
  25   2.0000      -0.510568       -13.8933
  26   2.0000      -0.501528       -13.6473
  27   2.0000      -0.475602       -12.9418
  28   2.0000      -0.460641       -12.5347
  29   2.0000      -0.421920       -11.4810
  30   2.0000      -0.328757        -8.9459
  31   0.0000       0.127657         3.4737
  32   0.0000       0.156191         4.2502
  33   0.0000       0.160403         4.3648
  34   0.0000       0.165427         4.5015
  35   0.0000       0.170628         4.6430

MULLIKEN ATOMIC CHARGES
-----------------------
   0 C :   -0.421198
   1 C :   -0.029331
   2 C :   -0.029340
   3 C :   -0.421199
   4 C :   -0.223678
   5 C :    0.099672
   6 O :   -0.471978
   7 C :   -0.223679
   8 H :    0.138841
   9 H :    0.126796
  10 H :    0.138882
  11 H :    0.126795
  12 H :    0.138841
  13 H :    0.138883
  14 H :    0.113270
  15 H :    0.132387
  16 H :    0.105631
  17 H :    0.314748
  18 H :    0.132388
  19 H :    0.113270
Sum of atomic charges:   -0.0000000

LOEWDIN ATOMIC CHARGES
----------------------
   0 C :   -0.275375
   1 C :   -0.179833
   2 C :   -0.179833
   3 C :   -0.275375
   4 C :   -0.205700
   5 C :   -0.313612
   6 O :   -0.025555
   7 C :   -0.205701
   8 H :    0.130954
   9 H :    0.125747
  10 H :    0.132145
  11 H :    0.125748
  12 H :    0.130953
  13 H :    0.132145
  14 H :    0.143674
  15 H :    0.141065
  16 H :    0.137477
  17 H :    0.176334
  18 H :    0.141065
  19 H :    0.143675

  Mayer bond orders larger than 0.1
B(  0-C ,  1-C ) :   0.8909 B(  0-C ,  8-H ) :   0.9352 B(  0-C ,  9-H ) :   0.9526
B(  0-C , 10-H ) :   0.9287 B(  1-C ,  2-C ) :   1.6809 B(  1-C ,  7-C ) :   0.9284
B(  2-C ,  3-C ) :   0.8909 B(  2-C ,  4-C ) :   0.9284 B(  3-C , 11-H ) :   0.9526
B(  3-C , 12-H ) :   0.9352 B(  3-C , 13-H ) :   0.9287 B(  4-C ,  5-C ) :   0.9302
B(  4-C , 14-H ) :   0.8937 B(  4-C , 15-H ) :   0.9317 B(  5-C ,  6-O ) :   0.9375
B(  5-C ,  7-C ) :   0.9302 B(  5-C , 16-H ) :   0.9372 B(  6-O , 17-H ) :   0.8419
B(  7-C , 18-H ) :   0.9317 B(  7-C , 19-H ) :   0.8937

MP2 TOTAL ENERGY:     -348.423590772 Eh
FINAL SINGLE POINT ENERGY      -348.423590772201

DIPOLE MOMENT
-------------
                                X             Y             Z
Electronic contribution:      1.92161      -3.68013       2.53444
Nuclear contribution   :     -2.30197       4.24145      -2.92186
                        -----------------------------------------
Total Dipole Moment    :     -0.38036       0.56133      -0.38742
                        -----------------------------------------
Magnitude (a.u.)       :      0.78093
Magnitude (Debye)      :      1.98496

                             ****ORCA TERMINATED NORMALLY****
TOTAL RUN TIME: 0 days 0 hours 13 minutes 18 seconds 772 msec
