                         Program Version 3.0.3 - RELEASE   -
|  1> ! RI-MP2 RIJK def2-TZVP def2-TZVP/C def2-TZVP/JK TIGHTSCF
|  2> % maxcore 2000
|  3> % mp2 density relaxed end
|  4> *xyz 0 1
|  5>  C        0.0141860192    -1.2008100412    -0.0639204059
|  6>  C        0.0134931356     0.0030039901    -0.0353761834
|  7>  C       -0.0148522360     1.4156491255     0.0007696842
|  8>  C       -1.0925303569     2.2682324424     0.1372395240
|  9>  C       -2.5295840293     2.7379601234     0.3031441318
| 10>  C       -1.9173111898     4.1895033420     0.2708440912
| 11>  N       -0.5956780303     3.5326445523     0.1131590551
| 12>  C        0.7587154018     3.4647301935    -0.0349063334
| 13>  N        1.1299535610     2.2030860186    -0.1045538653
| 14>  H        0.0248906190    -2.2618350104    -0.0902539916
| 15>  H       -3.2042944753     2.5106421516    -0.5249997713
| 16>  H       -3.0134523763     2.4695212261     1.2447085697
| 17>  H       -2.1998598829     4.8051997771    -0.5855084442
| 18>  H       -2.0079650519     4.7639384806     1.1949987041
| 19>  H        1.4130282222     4.3205669183    -0.0855754251
| 20> *
| 21>
| 22>                          ****END OF INPUT****

CARTESIAN COORDINATES (ANGSTROEM)
---------------------------------
  C      0.014186   -1.200810   -0.063920
  C      0.013493    0.003004   -0.035376
  C     -0.014852    1.415649    0.000770
  C     -1.092530    2.268232    0.137240
  C     -2.529584    2.737960    0.303144
  C     -1.917311    4.189503    0.270844
  N     -0.595678    3.532645    0.113159
  C      0.758715    3.464730   -0.034906
  N      1.129954    2.203086   -0.104554
  H      0.024891   -2.261835   -0.090254
  H     -3.204294    2.510642   -0.525000
  H     -3.013452    2.469521    1.244709
  H     -2.199860    4.805200   -0.585508
  H     -2.007965    4.763938    1.194999
  H      1.413028    4.320567   -0.085575

 Total Charge           Charge          ....    0
 Multiplicity           Mult            ....    1
 Number of Electrons    NEL             ....   62
 Basis Dimension        Dim             ....  315

ORBITAL ENERGIES
----------------

  NO   OCC          E(Eh)            E(eV)
   0   2.0000     -15.616493      -424.9464
   1   2.0000     -15.551319      -423.1729
   2   2.0000     -11.311798      -307.8097
   3   2.0000     -11.298849      -307.4573
   4   2.0000     -11.274487      -306.7944
   5   2.0000     -11.273577      -306.7696
   6   2.0000     -11.266075      -306.5655
   7   2.0000     -11.227847      -305.5253
   8   2.0000     -11.215505      -305.1894
   9   2.0000      -1.365015       -37.1439
  10   2.0000      -1.210001       -32.9258
  11   2.0000      -1.066600       -29.0237
  12   2.0000      -1.017412       -27.6852
  13   2.0000      -0.980726       -26.6869
  14   2.0000      -0.908841       -24.7308
  15   2.0000      -0.835346       -22.7309
  16   2.0000      -0.763258       -20.7693
  17   2.0000      -0.743009       -20.2183
  18   2.0000      -0.694370       -18.8948
  19   2.0000      -0.693981       -18.8842
  20   2.0000      -0.614010       -16.7081
  21   2.0000      -0.593465       -16.1490
  22   2.0000      -0.575477       -15.6595
  23   2.0000      -0.560503       -15.2521
  24   2.0000      -0.554295       -15.0831
  25   2.0000      -0.525172       -14.2907
  26   2.0000      -0.437033       -11.8923
  27   2.0000      -0.435570       -11.8525
  28   2.0000      -0.385704       -10.4955
  29   2.0000      -0.375417       -10.2156
  30   2.0000      -0.299650        -8.1539
  31   0.0000       0.127338         3.4651
  32   0.0000       0.139505         3.7961
  33   0.0000       0.146440         3.9848
  34   0.0000       0.155317         4.2264
  35   0.0000       0.169473         4.6116

MULLIKEN ATOMIC CHARGES
-----------------------
   0 C :   -0.125538
   1 C :   -0.001538
   2 C :   -0.110488
   3 C :    0.023089
   4 C :   -0.193796
   5 C :   -0.150631
   6 N :   -0.077913
   7 C :    0.006530
   8 N :   -0.280871
   9 H :    0.188969
  10 H :    0.144677
  11 H :    0.144684
  12 H :    0.140145
  13 H :    0.140142
  14 H :    0.152538
Sum of atomic charges:   -0.0000000

LOEWDIN ATOMIC CHARGES
----------------------
   0 C :   -0.084328
   1 C :   -0.073762
   2 C :   -0.235020
   3 C :   -0.154024
   4 C :   -0.190528
   5 C :   -0.177987
   6 N :    0.282234
   7 C :   -0.299096
   8 N :    0.130893
   9 H :    0.126029
  10 H :    0.140105
  11 H :    0.140101
  12 H :    0.131761
  13 H :    0.131755
  14 H :    0.131867

  Mayer bond orders larger than 0.1
B(  0-C ,  1-C ) :   2.6143 B(  0-C ,  2-C ) :  -0.1671 B(  0-C ,  9-H ) :   0.8738
B(  1-C ,  2-C ) :   1.2631 B(  2-C ,  3-C ) :   1.3906 B(  2-C ,  8-N ) :   1.2720
B(  3-C ,  4-C ) :   0.8907 B(  3-C ,  6-N ) :   1.1368 B(  4-C ,  5-C ) :   0.9661
B(  4-C , 10-H ) :   0.9168 B(  4-C , 11-H ) :   0.9168 B(  5-C ,  6-N ) :   0.8551
B(  5-C , 12-H ) :   0.9147 B(  5-C , 13-H ) :   0.9147 B(  6-N ,  7-C ) :   1.1384
B(  7-C ,  8-N ) :   1.5353 B(  7-C , 14-H ) :   0.9228

MP2 TOTAL ENERGY:     -378.948305032 Eh
FINAL SINGLE POINT ENERGY      -378.948305032083

DIPOLE MOMENT
-------------
                                X             Y             Z
Electronic contribution:      4.10876      -2.37355      -0.49815
Nuclear contribution   :     -5.61984       3.59348       0.68954
                        -----------------------------------------
Total Dipole Moment    :     -1.51108       1.21993       0.19139
                        -----------------------------------------
Magnitude (a.u.)       :      1.95147
Magnitude (Debye)      :      4.96024

                             ****ORCA TERMINATED NORMALLY****
TOTAL RUN TIME: 0 days 0 hours 22 minutes 19 seconds 499 msec
