                         Program Version 3.0.3 - RELEASE   -
|  1> ! RI-MP2 RIJK def2-TZVP def2-TZVP/C def2-TZVP/JK TIGHTSCF
|  2> % maxcore 2000
|  3> % mp2 density relaxed end
|  4> *xyz 0 1
|  5>  N        0.0173303116     1.4559798888     0.0476356781
|  6>  C        0.0233601640     0.0282743631     0.0077215628
|  7>  C       -0.2584089602    -0.8553372185    -1.1805705601
|  8>  C       -1.1566305699    -0.9376297338     0.0323437254
|  9>  C       -0.4945379953    -1.7909788106     1.1040236570
| 10>  O       -0.2743279288    -3.1140471725     0.7044443082
| 11>  C        0.7409008625    -0.7866289987     1.1054043208
| 12>  C        2.0478074232    -1.3509671530     0.8176131451
| 13>  N        3.0743973128    -1.8352451385     0.5946046520
| 14>  H        0.7465375913     1.8400618728    -0.5471416197
| 15>  H       -0.8658895907     1.8229302216    -0.2907790898
| 16>  H       -0.6938087725    -0.3345572814    -2.0272504357
| 17>  H        0.3815723326    -1.6928066440    -1.4394848192
| 18>  H       -2.2169483871    -0.7220321934    -0.0165170920
| 19>  H       -1.0129239467    -1.7354025480     2.0690702642
| 20>  H        0.2954515759    -3.5471783132     1.3496445529
| 21>  H        0.7808920573    -0.2187288606     2.0375847600
| 22> *
| 23>
| 24>                          ****END OF INPUT****

CARTESIAN COORDINATES (ANGSTROEM)
---------------------------------
  N      0.017330    1.455980    0.047636
  C      0.023360    0.028274    0.007722
  C     -0.258409   -0.855337   -1.180571
  C     -1.156631   -0.937630    0.032344
  C     -0.494538   -1.790979    1.104024
  O     -0.274328   -3.114047    0.704444
  C      0.740901   -0.786629    1.105404
  C      2.047807   -1.350967    0.817613
  N      3.074397   -1.835245    0.594605
  H      0.746538    1.840062   -0.547142
  H     -0.865890    1.822930   -0.290779
  H     -0.693809   -0.334557   -2.027250
  H      0.381572   -1.692807   -1.439485
  H     -2.216948   -0.722032   -0.016517
  H     -1.012924   -1.735403    2.069070
  H      0.295452   -3.547178    1.349645
  H      0.780892   -0.218729    2.037585

 Total Charge           Charge          ....    0
 Multiplicity           Mult            ....    1
 Number of Electrons    NEL             ....   66
 Basis Dimension        Dim             ....  327

ORBITAL ENERGIES
----------------

  NO   OCC          E(Eh)            E(eV)
   0   2.0000     -20.574840      -559.8699
   1   2.0000     -15.567602      -423.6160
   2   2.0000     -15.566347      -423.5818
   3   2.0000     -11.315448      -307.9090
   4   2.0000     -11.294914      -307.3502
   5   2.0000     -11.281535      -306.9862
   6   2.0000     -11.270021      -306.6729
   7   2.0000     -11.251455      -306.1676
   8   2.0000     -11.241786      -305.9045
   9   2.0000      -1.387682       -37.7607
  10   2.0000      -1.248280       -33.9674
  11   2.0000      -1.213335       -33.0165
  12   2.0000      -1.152351       -31.3571
  13   2.0000      -1.025778       -27.9129
  14   2.0000      -0.929622       -25.2963
  15   2.0000      -0.825279       -22.4570
  16   2.0000      -0.776737       -21.1361
  17   2.0000      -0.732884       -19.9428
  18   2.0000      -0.711921       -19.3723
  19   2.0000      -0.682587       -18.5741
  20   2.0000      -0.667041       -18.1511
  21   2.0000      -0.630290       -17.1511
  22   2.0000      -0.614676       -16.7262
  23   2.0000      -0.571648       -15.5553
  24   2.0000      -0.559925       -15.2363
  25   2.0000      -0.549042       -14.9402
  26   2.0000      -0.514717       -14.0062
  27   2.0000      -0.493657       -13.4331
  28   2.0000      -0.478533       -13.0215
  29   2.0000      -0.456317       -12.4170
  30   2.0000      -0.437067       -11.8932
  31   2.0000      -0.416257       -11.3269
  32   2.0000      -0.383127       -10.4254
  33   0.0000       0.119289         3.2460
  34   0.0000       0.133110         3.6221
  35   0.0000       0.150050         4.0831
  36   0.0000       0.159514         4.3406
  37   0.0000       0.174457         4.7472

MULLIKEN ATOMIC CHARGES
-----------------------
   0 N :   -0.523463
   1 C :    0.071515
   2 C :   -0.272112
   3 C :   -0.116047
   4 C :    0.017315
   5 O :   -0.435610
   6 C :    0.061624
   7 C :   -0.258582
   8 N :   -0.043552
   9 H :    0.247174
  10 H :    0.239985
  11 H :    0.131704
  12 H :    0.164364
  13 H :    0.146295
  14 H :    0.104021
  15 H :    0.327544
  16 H :    0.137826
Sum of atomic charges:   -0.0000000

LOEWDIN ATOMIC CHARGES
----------------------
   0 N :   -0.113478
   1 C :   -0.269178
   2 C :   -0.179672
   3 C :   -0.145769
   4 C :   -0.274150
   5 O :    0.012001
   6 C :   -0.163019
   7 C :   -0.179451
   8 N :    0.060311
   9 H :    0.165438
  10 H :    0.164674
  11 H :    0.141947
  12 H :    0.143140
  13 H :    0.139750
  14 H :    0.136931
  15 H :    0.184122
  16 H :    0.176403

  Mayer bond orders larger than 0.1
B(  0-N ,  1-C ) :   1.0692 B(  0-N ,  9-H ) :   0.8844 B(  0-N , 10-H ) :   0.8858
B(  1-C ,  2-C ) :   0.9106 B(  1-C ,  3-C ) :   0.8274 B(  1-C ,  6-C ) :   0.8880
B(  2-C ,  3-C ) :   0.8528 B(  2-C , 11-H ) :   0.9330 B(  2-C , 12-H ) :   0.8956
B(  3-C ,  4-C ) :   0.9160 B(  3-C , 13-H ) :   0.9168 B(  4-C ,  5-O ) :   1.1466
B(  4-C ,  6-C ) :   0.8897 B(  4-C , 14-H ) :   0.9644 B(  5-O , 15-H ) :   0.8340
B(  6-C ,  7-C ) :   0.9419 B(  6-C , 16-H ) :   0.8903 B(  7-C ,  8-N ) :   2.8622

MP2 TOTAL ENERGY:     -417.281527206 Eh
FINAL SINGLE POINT ENERGY      -417.281527206200

DIPOLE MOMENT
-------------
                                X             Y             Z
Electronic contribution:      3.92176      -2.61768       1.71793
Nuclear contribution   :     -5.27277       3.42148      -1.59461
                        -----------------------------------------
Total Dipole Moment    :     -1.35100       0.80380       0.12332
                        -----------------------------------------
Magnitude (a.u.)       :      1.57687
Magnitude (Debye)      :      4.00808

                             ****ORCA TERMINATED NORMALLY****
TOTAL RUN TIME: 0 days 0 hours 17 minutes 46 seconds 353 msec
