                         Program Version 3.0.3 - RELEASE   -
|  1> ! RI-MP2 RIJK def2-TZVP def2-TZVP/C def2-TZVP/JK TIGHTSCF
|  2> % maxcore 2000
|  3> % mp2 density relaxed end
|  4> *xyz 0 1
|  5>  C       -0.0272418935     1.4770974530     0.2046965085
|  6>  C        0.0251890256    -0.0362999315     0.0617044406
|  7>  C        0.6967430344    -0.5024640597    -1.2357842171
|  8>  C        0.8310851134    -2.0312621765    -1.2622839640
|  9>  C        1.5074179302    -2.5329662166     0.0217864527
| 10>  C        0.7959205699    -1.9654439809     1.2504342840
| 11>  C        1.4864001726    -2.2815154205     2.5726783298
| 12>  O        0.8037253108    -1.6982480994     3.6628974902
| 13>  O        0.7370719433    -0.5399847166     1.1910786861
| 14>  H        0.9832213833     1.8974870497     0.1922708982
| 15>  H       -0.5978106026     1.9206819890    -0.6167472093
| 16>  H       -0.5035334945     1.7574244016     1.1483202524
| 17>  H       -1.0028179093    -0.4409296006     0.0883043724
| 18>  H        0.1182068207    -0.1486412302    -2.0967418634
| 19>  H        1.6897807689    -0.0384411917    -1.2976093103
| 20>  H       -0.1672246361    -2.4820897928    -1.3454581807
| 21>  H        1.3934356506    -2.3532619009    -2.1449997576
| 22>  H        1.5008240106    -3.6282453780     0.0627584431
| 23>  H        2.5565570084    -2.2107665612     0.0411478897
| 24>  H       -0.2352230175    -2.3589504330     1.2925537666
| 25>  H        1.4993964324    -3.3643304642     2.7357711404
| 26>  H        2.5318437990    -1.9346937638     2.5184025726
| 27>  H        0.6284605492    -0.7884162452     3.3923844548
| 28> *
| 29>
| 30>                          ****END OF INPUT****

CARTESIAN COORDINATES (ANGSTROEM)
---------------------------------
  C     -0.027242    1.477097    0.204697
  C      0.025189   -0.036300    0.061704
  C      0.696743   -0.502464   -1.235784
  C      0.831085   -2.031262   -1.262284
  C      1.507418   -2.532966    0.021786
  C      0.795921   -1.965444    1.250434
  C      1.486400   -2.281515    2.572678
  O      0.803725   -1.698248    3.662897
  O      0.737072   -0.539985    1.191079
  H      0.983221    1.897487    0.192271
  H     -0.597811    1.920682   -0.616747
  H     -0.503533    1.757424    1.148320
  H     -1.002818   -0.440930    0.088304
  H      0.118207   -0.148641   -2.096742
  H      1.689781   -0.038441   -1.297609
  H     -0.167225   -2.482090   -1.345458
  H      1.393436   -2.353262   -2.145000
  H      1.500824   -3.628245    0.062758
  H      2.556557   -2.210767    0.041148
  H     -0.235223   -2.358950    1.292554
  H      1.499396   -3.364330    2.735771
  H      2.531844   -1.934694    2.518403
  H      0.628461   -0.788416    3.392384

 Total Charge           Charge          ....    0
 Multiplicity           Mult            ....    1
 Number of Electrons    NEL             ....   72
 Basis Dimension        Dim             ....  363

ORBITAL ENERGIES
----------------

  NO   OCC          E(Eh)            E(eV)
   0   2.0000     -20.556129      -559.3607
   1   2.0000     -20.542275      -558.9837
   2   2.0000     -11.282163      -307.0033
   3   2.0000     -11.277544      -306.8776
   4   2.0000     -11.267383      -306.6011
   5   2.0000     -11.228792      -305.5510
   6   2.0000     -11.226245      -305.4817
   7   2.0000     -11.224265      -305.4278
   8   2.0000     -11.216812      -305.2250
   9   2.0000      -1.384616       -37.6773
  10   2.0000      -1.344775       -36.5932
  11   2.0000      -1.082048       -29.4440
  12   2.0000      -1.067021       -29.0351
  13   2.0000      -0.970973       -26.4215
  14   2.0000      -0.918874       -25.0038
  15   2.0000      -0.842363       -22.9219
  16   2.0000      -0.823359       -22.4047
  17   2.0000      -0.778132       -21.1741
  18   2.0000      -0.690906       -18.8005
  19   2.0000      -0.669818       -18.2267
  20   2.0000      -0.652952       -17.7677
  21   2.0000      -0.620301       -16.8793
  22   2.0000      -0.613070       -16.6825
  23   2.0000      -0.592573       -16.1247
  24   2.0000      -0.577080       -15.7031
  25   2.0000      -0.567077       -15.4309
  26   2.0000      -0.549251       -14.9459
  27   2.0000      -0.534198       -14.5363
  28   2.0000      -0.527069       -14.3423
  29   2.0000      -0.499784       -13.5998
  30   2.0000      -0.489687       -13.3251
  31   2.0000      -0.485013       -13.1979
  32   2.0000      -0.465771       -12.6743
  33   2.0000      -0.455271       -12.3886
  34   2.0000      -0.427616       -11.6360
  35   2.0000      -0.410458       -11.1691
  36   0.0000       0.133035         3.6201
  37   0.0000       0.148615         4.0440
  38   0.0000       0.150965         4.1080
  39   0.0000       0.163967         4.4618
  40   0.0000       0.186202         5.0668

MULLIKEN ATOMIC CHARGES
-----------------------
   0 C :   -0.371823
   1 C :    0.043707
   2 C :   -0.223182
   3 C :   -0.190628
   4 C :   -0.226919
   5 C :   -0.011342
   6 C :    0.032630
   7 O :   -0.484462
   8 O :   -0.326515
   9 H :    0.129570
  10 H :    0.124972
  11 H :    0.137014
  12 H :    0.074582
  13 H :    0.121316
  14 H :    0.105528
  15 H :    0.109136
  16 H :    0.126971
  17 H :    0.124309
  18 H :    0.106390
  19 H :    0.080046
  20 H :    0.102525
  21 H :    0.090292
  22 H :    0.325884
Sum of atomic charges:   -0.0000000

LOEWDIN ATOMIC CHARGES
----------------------
   0 C :   -0.291633
   1 C :   -0.345541
   2 C :   -0.247929
   3 C :   -0.264463
   4 C :   -0.245932
   5 C :   -0.334604
   6 C :   -0.330935
   7 O :   -0.047829
   8 O :    0.184796
   9 H :    0.126653
  10 H :    0.127152
  11 H :    0.125637
  12 H :    0.136574
  13 H :    0.140684
  14 H :    0.141835
  15 H :    0.138378
  16 H :    0.136631
  17 H :    0.142114
  18 H :    0.142158
  19 H :    0.139352
  20 H :    0.130323
  21 H :    0.119903
  22 H :    0.176676

  Mayer bond orders larger than 0.1
B(  0-C ,  1-C ) :   0.9169 B(  0-C ,  9-H ) :   0.9358 B(  0-C , 10-H ) :   0.9346
B(  0-C , 11-H ) :   0.9398 B(  1-C ,  2-C ) :   0.9353 B(  1-C ,  8-O ) :   0.9221
B(  1-C , 12-H ) :   0.9343 B(  2-C ,  3-C ) :   0.9273 B(  2-C , 13-H ) :   0.9256
B(  2-C , 14-H ) :   0.9181 B(  3-C ,  4-C ) :   0.9239 B(  3-C , 15-H ) :   0.9345
B(  3-C , 16-H ) :   0.9333 B(  4-C ,  5-C ) :   0.9314 B(  4-C , 17-H ) :   0.9267
B(  4-C , 18-H ) :   0.9153 B(  5-C ,  6-C ) :   0.9436 B(  5-C ,  8-O ) :   0.8994
B(  5-C , 19-H ) :   0.9291 B(  6-C ,  7-O ) :   0.9390 B(  6-C , 20-H ) :   0.9224
B(  6-C , 21-H ) :   0.9238 B(  7-O , 22-H ) :   0.8281

MP2 TOTAL ENERGY:     -424.749455742 Eh
FINAL SINGLE POINT ENERGY      -424.749455741971

DIPOLE MOMENT
-------------
                                X             Y             Z
Electronic contribution:      0.16690      -1.24201       5.29881
Nuclear contribution   :     -0.23267       1.29715      -6.41986
                        -----------------------------------------
Total Dipole Moment    :     -0.06578       0.05514      -1.12105
                        -----------------------------------------
Magnitude (a.u.)       :      1.12433
Magnitude (Debye)      :      2.85783

                             ****ORCA TERMINATED NORMALLY****
TOTAL RUN TIME: 0 days 0 hours 19 minutes 24 seconds 769 msec
