                         Program Version 3.0.3 - RELEASE   -
|  1> ! RI-MP2 RIJK def2-TZVP def2-TZVP/C def2-TZVP/JK TIGHTSCF
|  2> % maxcore 2000
|  3> % mp2 density relaxed end
|  4> *xyz 0 1
|  5>  O       -0.0992803791     1.4167631194     0.1988176431
|  6>  C        0.0390031749     0.0055628887     0.1461933069
|  7>  C        0.4998347492    -0.5389757931     1.5170944926
|  8>  C       -0.7193586055    -1.4113837156     1.8377067949
|  9>  C       -1.9429566786    -0.4342141767     1.4331566786
| 10>  C       -1.3211495246    -0.7413635068     0.0274582963
| 11>  O       -1.6023816662    -1.1591548124    -1.3481324428
| 12>  C       -0.7961652922    -2.3712157433    -1.0421976505
| 13>  C       -1.0966550745    -2.1393685164     0.4795547380
| 14>  H       -0.4524574350     1.7058479824    -0.6498189185
| 15>  H        0.7182771799    -0.2701281123    -0.6685125052
| 16>  H        1.4286000163    -1.1122588899     1.4563884506
| 17>  H        0.6375497560     0.2767578210     2.2311855892
| 18>  H       -0.7382872980    -1.9453659074     2.7879982350
| 19>  H       -2.9145927124    -0.8977297806     1.5993082244
| 20>  H       -1.9085242112     0.5893720572     1.8108632442
| 21>  H       -1.2458050966    -3.2627448981    -1.4848696883
| 22>  H        0.2342913751    -2.2528576975    -1.3879432153
| 23>  H       -2.0658266372    -2.6172087886     0.6436769567
| 24> *
| 25>
| 26>                          ****END OF INPUT****

CARTESIAN COORDINATES (ANGSTROEM)
---------------------------------
  O     -0.099280    1.416763    0.198818
  C      0.039003    0.005563    0.146193
  C      0.499835   -0.538976    1.517094
  C     -0.719359   -1.411384    1.837707
  C     -1.942957   -0.434214    1.433157
  C     -1.321150   -0.741364    0.027458
  O     -1.602382   -1.159155   -1.348132
  C     -0.796165   -2.371216   -1.042198
  C     -1.096655   -2.139369    0.479555
  H     -0.452457    1.705848   -0.649819
  H      0.718277   -0.270128   -0.668513
  H      1.428600   -1.112259    1.456388
  H      0.637550    0.276758    2.231186
  H     -0.738287   -1.945366    2.787998
  H     -2.914593   -0.897730    1.599308
  H     -1.908524    0.589372    1.810863
  H     -1.245805   -3.262745   -1.484870
  H      0.234291   -2.252858   -1.387943
  H     -2.065827   -2.617209    0.643677

 Total Charge           Charge          ....    0
 Multiplicity           Mult            ....    1
 Number of Electrons    NEL             ....   68
 Basis Dimension        Dim             ....  339

ORBITAL ENERGIES
----------------

  NO   OCC          E(Eh)            E(eV)
   0   2.0000     -20.557323      -559.3932
   1   2.0000     -20.557221      -559.3904
   2   2.0000     -11.297959      -307.4331
   3   2.0000     -11.283670      -307.0443
   4   2.0000     -11.280732      -306.9643
   5   2.0000     -11.263892      -306.5061
   6   2.0000     -11.244465      -305.9775
   7   2.0000     -11.227505      -305.5159
   8   2.0000     -11.226733      -305.4949
   9   2.0000      -1.378644       -37.5148
  10   2.0000      -1.358329       -36.9620
  11   2.0000      -1.174803       -31.9680
  12   2.0000      -0.996704       -27.1217
  13   2.0000      -0.957433       -26.0531
  14   2.0000      -0.919303       -25.0155
  15   2.0000      -0.856760       -23.3136
  16   2.0000      -0.776512       -21.1300
  17   2.0000      -0.748998       -20.3813
  18   2.0000      -0.702356       -19.1121
  19   2.0000      -0.667875       -18.1738
  20   2.0000      -0.642067       -17.4715
  21   2.0000      -0.621244       -16.9049
  22   2.0000      -0.606179       -16.4950
  23   2.0000      -0.577639       -15.7184
  24   2.0000      -0.562515       -15.3068
  25   2.0000      -0.547465       -14.8973
  26   2.0000      -0.527157       -14.3447
  27   2.0000      -0.494962       -13.4686
  28   2.0000      -0.482038       -13.1169
  29   2.0000      -0.470094       -12.7919
  30   2.0000      -0.459450       -12.5023
  31   2.0000      -0.446203       -12.1418
  32   2.0000      -0.395253       -10.7554
  33   2.0000      -0.376340       -10.2407
  34   0.0000       0.133933         3.6445
  35   0.0000       0.142722         3.8837
  36   0.0000       0.160685         4.3724
  37   0.0000       0.169008         4.5989
  38   0.0000       0.188189         5.1209

MULLIKEN ATOMIC CHARGES
-----------------------
   0 O :   -0.471239
   1 C :    0.022677
   2 C :   -0.230611
   3 C :   -0.064107
   4 C :   -0.251047
   5 C :    0.145038
   6 O :   -0.323087
   7 C :   -0.071259
   8 C :   -0.140901
   9 H :    0.320757
  10 H :    0.096996
  11 H :    0.120501
  12 H :    0.129080
  13 H :    0.129086
  14 H :    0.136180
  15 H :    0.136580
  16 H :    0.121653
  17 H :    0.107489
  18 H :    0.086211
Sum of atomic charges:    0.0000000

LOEWDIN ATOMIC CHARGES
----------------------
   0 O :   -0.015221
   1 C :   -0.288719
   2 C :   -0.206029
   3 C :   -0.161458
   4 C :   -0.157314
   5 C :   -0.285035
   6 O :    0.115732
   7 C :   -0.225447
   8 C :   -0.176678
   9 H :    0.180004
  10 H :    0.134584
  11 H :    0.137140
  12 H :    0.145019
  13 H :    0.132970
  14 H :    0.137198
  15 H :    0.130816
  16 H :    0.121251
  17 H :    0.118339
  18 H :    0.162848

  Mayer bond orders larger than 0.1
B(  0-O ,  1-C ) :   1.0200 B(  0-O ,  9-H ) :   0.8442 B(  1-C ,  2-C ) :   0.9005
B(  1-C ,  5-C ) :   0.8868 B(  1-C , 10-H ) :   0.9628 B(  2-C ,  3-C ) :   0.9226
B(  2-C , 11-H ) :   0.9224 B(  2-C , 12-H ) :   0.9093 B(  3-C ,  4-C ) :   0.8893
B(  3-C ,  8-C ) :   0.8816 B(  3-C , 13-H ) :   0.9053 B(  4-C ,  5-C ) :   0.9146
B(  4-C , 14-H ) :   0.9233 B(  4-C , 15-H ) :   0.9114 B(  5-C ,  6-O ) :   0.9498
B(  5-C ,  8-C ) :   0.8973 B(  6-O ,  7-C ) :   0.9141 B(  7-C ,  8-C ) :   0.9593
B(  7-C , 16-H ) :   0.9043 B(  7-C , 17-H ) :   0.9100 B(  8-C , 18-H ) :   0.8964

MP2 TOTAL ENERGY:     -422.215322884 Eh
FINAL SINGLE POINT ENERGY      -422.215322883821

DIPOLE MOMENT
-------------
                                X             Y             Z
Electronic contribution:     -1.15786       1.39551      -2.65383
Nuclear contribution   :      1.34579      -1.91141       2.88292
                        -----------------------------------------
Total Dipole Moment    :      0.18794      -0.51590       0.22909
                        -----------------------------------------
Magnitude (a.u.)       :      0.59494
Magnitude (Debye)      :      1.51223

                             ****ORCA TERMINATED NORMALLY****
TOTAL RUN TIME: 0 days 0 hours 20 minutes 23 seconds 864 msec
