                         Program Version 3.0.3 - RELEASE   -
|  1> ! RI-MP2 RIJK def2-TZVP def2-TZVP/C def2-TZVP/JK TIGHTSCF
|  2> % maxcore 2000
|  3> % mp2 density relaxed end
|  4> *xyz 0 1
|  5>  C        0.1137980985     1.3900540782     0.2607485789
|  6>  N        0.0701921967    -0.0482732203     0.0517442954
|  7>  C       -1.0341009153    -0.6499281313     0.0433830459
|  8>  O       -2.2592845155    -0.0516290635     0.2478424145
|  9>  C       -3.3046073839    -1.0141075010     0.0956035667
| 10>  C       -2.6353656067    -2.3817600680     0.3315573823
| 11>  O       -3.2710829776    -3.4538886496    -0.3320623731
| 12>  C       -1.2156150279    -2.1360519145    -0.2094951656
| 13>  C       -1.0523131096    -2.4702305341    -1.7015437633
| 14>  H        0.5778412943     1.6002970104     1.2321013890
| 15>  H        0.7607555582     1.8391463677    -0.5006813656
| 16>  H       -0.8645760406     1.8823403688     0.2303690330
| 17>  H       -4.0942089864    -0.7730432986     0.8129162432
| 18>  H       -3.7195961339    -0.9728343895    -0.9196722646
| 19>  H       -2.5785838008    -2.5713727643     1.4132309044
| 20>  H       -4.0830755880    -3.6656625854     0.1381144146
| 21>  H       -0.4665047365    -2.6902062443     0.3595102299
| 22>  H       -1.7618876518    -1.9158208210    -2.3236482561
| 23>  H       -0.0418575075    -2.2031118089    -2.0194246551
| 24>  H       -1.2171251359    -3.5357346906    -1.8738996343
| 25> *
| 26>
| 27>                          ****END OF INPUT****

CARTESIAN COORDINATES (ANGSTROEM)
---------------------------------
  C      0.113798    1.390054    0.260749
  N      0.070192   -0.048273    0.051744
  C     -1.034101   -0.649928    0.043383
  O     -2.259285   -0.051629    0.247842
  C     -3.304607   -1.014108    0.095604
  C     -2.635366   -2.381760    0.331557
  O     -3.271083   -3.453889   -0.332062
  C     -1.215615   -2.136052   -0.209495
  C     -1.052313   -2.470231   -1.701544
  H      0.577841    1.600297    1.232101
  H      0.760756    1.839146   -0.500681
  H     -0.864576    1.882340    0.230369
  H     -4.094209   -0.773043    0.812916
  H     -3.719596   -0.972834   -0.919672
  H     -2.578584   -2.571373    1.413231
  H     -4.083076   -3.665663    0.138114
  H     -0.466505   -2.690206    0.359510
  H     -1.761888   -1.915821   -2.323648
  H     -0.041858   -2.203112   -2.019425
  H     -1.217125   -3.535735   -1.873900

 Total Charge           Charge          ....    0
 Multiplicity           Mult            ....    1
 Number of Electrons    NEL             ....   70
 Basis Dimension        Dim             ....  345

ORBITAL ENERGIES
----------------

  NO   OCC          E(Eh)            E(eV)
   0   2.0000     -20.589570      -560.2707
   1   2.0000     -20.576474      -559.9143
   2   2.0000     -15.530380      -422.6031
   3   2.0000     -11.323832      -308.1371
   4   2.0000     -11.298814      -307.4563
   5   2.0000     -11.292401      -307.2819
   6   2.0000     -11.243266      -305.9448
   7   2.0000     -11.232091      -305.6407
   8   2.0000     -11.217710      -305.2494
   9   2.0000      -1.425744       -38.7965
  10   2.0000      -1.382561       -37.6214
  11   2.0000      -1.207602       -32.8605
  12   2.0000      -1.084017       -29.4976
  13   2.0000      -0.994110       -27.0511
  14   2.0000      -0.936985       -25.4966
  15   2.0000      -0.895537       -24.3688
  16   2.0000      -0.811212       -22.0742
  17   2.0000      -0.757934       -20.6244
  18   2.0000      -0.730855       -19.8876
  19   2.0000      -0.682202       -18.5637
  20   2.0000      -0.647267       -17.6130
  21   2.0000      -0.641552       -17.4575
  22   2.0000      -0.606890       -16.5143
  23   2.0000      -0.597621       -16.2621
  24   2.0000      -0.584747       -15.9118
  25   2.0000      -0.571801       -15.5595
  26   2.0000      -0.550584       -14.9822
  27   2.0000      -0.543109       -14.7787
  28   2.0000      -0.527389       -14.3510
  29   2.0000      -0.506940       -13.7945
  30   2.0000      -0.492441       -13.4000
  31   2.0000      -0.468475       -12.7478
  32   2.0000      -0.446784       -12.1576
  33   2.0000      -0.397999       -10.8301
  34   2.0000      -0.373437       -10.1617
  35   0.0000       0.118624         3.2279
  36   0.0000       0.149510         4.0684
  37   0.0000       0.158002         4.2995
  38   0.0000       0.166421         4.5285
  39   0.0000       0.178331         4.8526

MULLIKEN ATOMIC CHARGES
-----------------------
   0 C :   -0.276492
   1 N :   -0.257032
   2 C :    0.096755
   3 O :   -0.272422
   4 C :   -0.073784
   5 C :    0.018573
   6 O :   -0.453380
   7 C :    0.068241
   8 C :   -0.429509
   9 H :    0.132297
  10 H :    0.134814
  11 H :    0.127159
  12 H :    0.120074
  13 H :    0.109301
  14 H :    0.096540
  15 H :    0.320162
  16 H :    0.114929
  17 H :    0.123900
  18 H :    0.151248
  19 H :    0.148626
Sum of atomic charges:   -0.0000000

LOEWDIN ATOMIC CHARGES
----------------------
   0 C :   -0.333470
   1 N :    0.075341
   2 C :   -0.347316
   3 O :    0.231977
   4 C :   -0.267498
   5 C :   -0.327401
   6 O :   -0.003571
   7 C :   -0.215499
   8 C :   -0.273966
   9 H :    0.118521
  10 H :    0.116836
  11 H :    0.108708
  12 H :    0.124856
  13 H :    0.127308
  14 H :    0.138205
  15 H :    0.178420
  16 H :    0.163572
  17 H :    0.125450
  18 H :    0.131069
  19 H :    0.128459

  Mayer bond orders larger than 0.1
B(  0-C ,  1-N ) :   0.8572 B(  0-C ,  9-H ) :   0.9345 B(  0-C , 10-H ) :   0.9380
B(  0-C , 11-H ) :   0.9294 B(  1-N ,  2-C ) :   1.9926 B(  2-C ,  3-O ) :   1.0380
B(  2-C ,  7-C ) :   0.8771 B(  3-O ,  4-C ) :   0.9048 B(  4-C ,  5-C ) :   0.9306
B(  4-C , 12-H ) :   0.9270 B(  4-C , 13-H ) :   0.9119 B(  5-C ,  6-O ) :   1.0362
B(  5-C ,  7-C ) :   0.8985 B(  5-C , 14-H ) :   0.9407 B(  6-O , 15-H ) :   0.8431
B(  7-C ,  8-C ) :   0.9064 B(  7-C , 16-H ) :   0.9161 B(  8-C , 17-H ) :   0.9265
B(  8-C , 18-H ) :   0.9364 B(  8-C , 19-H ) :   0.9303

MP2 TOTAL ENERGY:     -439.579067775 Eh
FINAL SINGLE POINT ENERGY      -439.579067774866

DIPOLE MOMENT
-------------
                                X             Y             Z
Electronic contribution:     -1.80348      -0.65504       2.18056
Nuclear contribution   :      0.72927       0.34071      -1.77383
                        -----------------------------------------
Total Dipole Moment    :     -1.07421      -0.31433       0.40673
                        -----------------------------------------
Magnitude (a.u.)       :      1.19087
Magnitude (Debye)      :      3.02694

                             ****ORCA TERMINATED NORMALLY****
TOTAL RUN TIME: 0 days 0 hours 17 minutes 25 seconds 591 msec
