                         Program Version 3.0.3 - RELEASE   -
|  1> ! RI-MP2 RIJK def2-TZVP def2-TZVP/C def2-TZVP/JK TIGHTSCF
|  2> % maxcore 2000
|  3> % mp2 density relaxed end
|  4> *xyz 0 1
|  5>  C       -0.1781653948     1.5482888528     0.0354553652
|  6>  C        0.0700408165     0.0400599429    -0.0036033973
|  7>  C        0.9092477555    -0.4663488342    -1.1956921849
|  8>  C        1.9000984322    -1.4663900546    -0.6072354674
|  9>  O        2.6621836440    -2.1994305439    -1.1855797257
| 10>  N        1.7867856666    -1.3631072773     0.7735692610
| 11>  C        0.8202940098    -0.4676183923     1.2274116205
| 12>  N        0.5532365822    -0.1141626217     2.4157469143
| 13>  H        0.7672713616     2.1002273287     0.0069719629
| 14>  H       -0.7826329437     1.8633269969    -0.8203761472
| 15>  H       -0.6988375643     1.8201681198     0.9558466894
| 16>  H       -0.8988227755    -0.4740970668    -0.0010612022
| 17>  H        0.3266166810    -0.9403288764    -1.9879346528
| 18>  H        1.4858714042     0.3413556731    -1.6607815832
| 19>  H        2.3890035626    -1.8967715929     1.3837751294
| 20>  H        1.1554305619    -0.5733717943     3.1008664679
| 21> *
| 22>
| 23>                          ****END OF INPUT****

CARTESIAN COORDINATES (ANGSTROEM)
---------------------------------
  C     -0.178165    1.548289    0.035455
  C      0.070041    0.040060   -0.003603
  C      0.909248   -0.466349   -1.195692
  C      1.900098   -1.466390   -0.607235
  O      2.662184   -2.199431   -1.185580
  N      1.786786   -1.363107    0.773569
  C      0.820294   -0.467618    1.227412
  N      0.553237   -0.114163    2.415747
  H      0.767271    2.100227    0.006972
  H     -0.782633    1.863327   -0.820376
  H     -0.698838    1.820168    0.955847
  H     -0.898823   -0.474097   -0.001061
  H      0.326617   -0.940329   -1.987935
  H      1.485871    0.341356   -1.660782
  H      2.389004   -1.896772    1.383775
  H      1.155431   -0.573372    3.100866

 Total Charge           Charge          ....    0
 Multiplicity           Mult            ....    1
 Number of Electrons    NEL             ....   60
 Basis Dimension        Dim             ....  296

ORBITAL ENERGIES
----------------

  NO   OCC          E(Eh)            E(eV)
   0   2.0000     -20.543445      -559.0156
   1   2.0000     -15.616967      -424.9593
   2   2.0000     -15.543742      -422.9667
   3   2.0000     -11.371564      -309.4360
   4   2.0000     -11.335722      -308.4607
   5   2.0000     -11.261765      -306.4482
   6   2.0000     -11.255932      -306.2895
   7   2.0000     -11.229962      -305.5828
   8   2.0000      -1.409089       -38.3433
   9   2.0000      -1.303691       -35.4752
  10   2.0000      -1.185204       -32.2510
  11   2.0000      -1.097581       -29.8667
  12   2.0000      -0.982229       -26.7278
  13   2.0000      -0.898976       -24.4624
  14   2.0000      -0.824159       -22.4265
  15   2.0000      -0.795483       -21.6462
  16   2.0000      -0.719185       -19.5700
  17   2.0000      -0.681952       -18.5569
  18   2.0000      -0.654983       -17.8230
  19   2.0000      -0.622753       -16.9460
  20   2.0000      -0.605897       -16.4873
  21   2.0000      -0.586007       -15.9461
  22   2.0000      -0.562459       -15.3053
  23   2.0000      -0.546053       -14.8589
  24   2.0000      -0.522936       -14.2298
  25   2.0000      -0.515885       -14.0380
  26   2.0000      -0.475312       -12.9339
  27   2.0000      -0.456611       -12.4250
  28   2.0000      -0.422941       -11.5088
  29   2.0000      -0.391352       -10.6492
  30   0.0000       0.116304         3.1648
  31   0.0000       0.137012         3.7283
  32   0.0000       0.150722         4.1014
  33   0.0000       0.161715         4.4005
  34   0.0000       0.168092         4.5740

MULLIKEN ATOMIC CHARGES
-----------------------
   0 C :   -0.416716
   1 C :    0.067545
   2 C :   -0.243387
   3 C :    0.212736
   4 O :   -0.304846
   5 N :   -0.267654
   6 C :    0.025527
   7 N :   -0.356074
   8 H :    0.124665
   9 H :    0.137109
  10 H :    0.161040
  11 H :    0.120026
  12 H :    0.148871
  13 H :    0.142641
  14 H :    0.241795
  15 H :    0.206719
Sum of atomic charges:   -0.0000000

LOEWDIN ATOMIC CHARGES
----------------------
   0 C :   -0.281971
   1 C :   -0.224073
   2 C :   -0.188761
   3 C :   -0.414191
   4 O :    0.114180
   5 N :    0.169972
   6 C :   -0.334825
   7 N :   -0.056682
   8 H :    0.126029
   9 H :    0.124947
  10 H :    0.134390
  11 H :    0.168383
  12 H :    0.151678
  13 H :    0.158577
  14 H :    0.191820
  15 H :    0.160527

  Mayer bond orders larger than 0.1
B(  0-C ,  1-C ) :   0.9144 B(  0-C ,  8-H ) :   0.9305 B(  0-C ,  9-H ) :   0.9381
B(  0-C , 10-H ) :   0.9312 B(  1-C ,  2-C ) :   0.9130 B(  1-C ,  6-C ) :   0.8636
B(  1-C , 11-H ) :   0.9113 B(  2-C ,  3-C ) :   0.9184 B(  2-C , 12-H ) :   0.9201
B(  2-C , 13-H ) :   0.9058 B(  3-C ,  4-O ) :   2.0434 B(  3-C ,  5-N ) :   1.0592
B(  5-N ,  6-C ) :   1.0315 B(  5-N , 14-H ) :   0.8587 B(  6-C ,  7-N ) :   2.0862
B(  7-N , 15-H ) :   0.8540

MP2 TOTAL ENERGY:     -379.351591865 Eh
FINAL SINGLE POINT ENERGY      -379.351591865049

DIPOLE MOMENT
-------------
                                X             Y             Z
Electronic contribution:      4.38424      -6.10911       0.62578
Nuclear contribution   :     -4.59166       6.31786      -0.43710
                        -----------------------------------------
Total Dipole Moment    :     -0.20742       0.20876       0.18869
                        -----------------------------------------
Magnitude (a.u.)       :      0.34958
Magnitude (Debye)      :      0.88856

                             ****ORCA TERMINATED NORMALLY****
TOTAL RUN TIME: 0 days 0 hours 17 minutes 18 seconds 254 msec
