                         Program Version 3.0.3 - RELEASE   -
|  1> ! RI-MP2 RIJK def2-TZVP def2-TZVP/C def2-TZVP/JK TIGHTSCF
|  2> % maxcore 2000
|  3> % mp2 density relaxed end
|  4> *xyz 0 1
|  5>  N        0.0185119083     1.4038193376     0.1705693925
|  6>  C        0.0124342249     0.0195232784     0.0260855280
|  7>  N       -1.0261450581    -0.7774931392    -0.0013963189
|  8>  N       -0.6030112595    -2.1120172790    -0.0384625012
|  9>  C        0.6989356662    -2.0346237663    -0.0531194418
| 10>  N        1.8233792715    -2.8095758867    -0.0887419020
| 11>  N        2.9556404546    -2.0393238999    -0.0541865284
| 12>  C        2.5503807616    -0.8031354479     0.0008580862
| 13>  N        1.1695590569    -0.7377339688    -0.0023776648
| 14>  H        0.4245332203     1.8851098161    -0.6263508669
| 15>  H       -0.9353924297     1.7243612573     0.2951774403
| 16>  H        1.8978152473    -3.8085268675    -0.1467400802
| 17>  H        3.2051570858     0.0498939662     0.0488935474
| 18> *
| 19>
| 20>                          ****END OF INPUT****

CARTESIAN COORDINATES (ANGSTROEM)
---------------------------------
  N      0.018512    1.403819    0.170569
  C      0.012434    0.019523    0.026086
  N     -1.026145   -0.777493   -0.001396
  N     -0.603011   -2.112017   -0.038463
  C      0.698936   -2.034624   -0.053119
  N      1.823379   -2.809576   -0.088742
  N      2.955640   -2.039324   -0.054187
  C      2.550381   -0.803135    0.000858
  N      1.169559   -0.737734   -0.002378
  H      0.424533    1.885110   -0.626351
  H     -0.935392    1.724361    0.295177
  H      1.897815   -3.808527   -0.146740
  H      3.205157    0.049894    0.048894

 Total Charge           Charge          ....    0
 Multiplicity           Mult            ....    1
 Number of Electrons    NEL             ....   64
 Basis Dimension        Dim             ....  303

ORBITAL ENERGIES
----------------

  NO   OCC          E(Eh)            E(eV)
   0   2.0000     -15.651720      -425.9050
   1   2.0000     -15.649971      -425.8574
   2   2.0000     -15.637457      -425.5169
   3   2.0000     -15.593690      -424.3259
   4   2.0000     -15.580784      -423.9747
   5   2.0000     -15.566909      -423.5971
   6   2.0000     -11.350589      -308.8652
   7   2.0000     -11.349263      -308.8291
   8   2.0000     -11.345581      -308.7289
   9   2.0000      -1.457065       -39.6488
  10   2.0000      -1.361202       -37.0402
  11   2.0000      -1.245972       -33.9046
  12   2.0000      -1.224174       -33.3115
  13   2.0000      -1.140153       -31.0251
  14   2.0000      -1.059991       -28.8438
  15   2.0000      -0.911321       -24.7983
  16   2.0000      -0.887948       -24.1623
  17   2.0000      -0.825698       -22.4684
  18   2.0000      -0.755123       -20.5479
  19   2.0000      -0.723944       -19.6995
  20   2.0000      -0.698160       -18.9979
  21   2.0000      -0.670843       -18.2546
  22   2.0000      -0.661723       -18.0064
  23   2.0000      -0.633568       -17.2402
  24   2.0000      -0.574710       -15.6387
  25   2.0000      -0.536996       -14.6124
  26   2.0000      -0.499296       -13.5865
  27   2.0000      -0.484702       -13.1894
  28   2.0000      -0.465871       -12.6770
  29   2.0000      -0.431748       -11.7485
  30   2.0000      -0.385139       -10.4802
  31   2.0000      -0.315629        -8.5887
  32   0.0000       0.111954         3.0464
  33   0.0000       0.123927         3.3722
  34   0.0000       0.135675         3.6919
  35   0.0000       0.164176         4.4675
  36   0.0000       0.184697         5.0259

MULLIKEN ATOMIC CHARGES
-----------------------
   0 N :   -0.529807
   1 C :    0.201772
   2 N :   -0.176317
   3 N :   -0.187366
   4 C :    0.188063
   5 N :   -0.202512
   6 N :   -0.172648
   7 C :   -0.002798
   8 N :   -0.096627
   9 H :    0.257967
  10 H :    0.270774
  11 H :    0.275399
  12 H :    0.174100
Sum of atomic charges:    0.0000000

LOEWDIN ATOMIC CHARGES
----------------------
   0 N :   -0.089861
   1 C :   -0.430126
   2 N :    0.037081
   3 N :    0.004335
   4 C :   -0.389060
   5 N :    0.117471
   6 N :    0.051004
   7 C :   -0.280085
   8 N :    0.287354
   9 H :    0.171976
  10 H :    0.183664
  11 H :    0.194215
  12 H :    0.142031

  Mayer bond orders larger than 0.1
B(  0-N ,  1-C ) :   1.0633 B(  0-N ,  9-H ) :   0.8656 B(  0-N , 10-H ) :   0.8688
B(  1-C ,  2-N ) :   1.6591 B(  1-C ,  8-N ) :   1.0689 B(  2-N ,  3-N ) :   0.9877
B(  3-N ,  4-C ) :   1.7290 B(  4-C ,  5-N ) :   1.1194 B(  4-C ,  8-N ) :   1.0300
B(  5-N ,  6-N ) :   1.0005 B(  5-N , 11-H ) :   0.8664 B(  6-N ,  7-C ) :   1.6441
B(  7-C ,  8-N ) :   1.0669 B(  7-C , 12-H ) :   0.9178

MP2 TOTAL ENERGY:     -444.363772754 Eh
FINAL SINGLE POINT ENERGY      -444.363772753511

DIPOLE MOMENT
-------------
                                X             Y             Z
Electronic contribution:      0.06617      -3.10734      -0.02263
Nuclear contribution   :      1.14239       3.88003      -0.37356
                        -----------------------------------------
Total Dipole Moment    :      1.20856       0.77269      -0.39619
                        -----------------------------------------
Magnitude (a.u.)       :      1.48816
Magnitude (Debye)      :      3.78261

                             ****ORCA TERMINATED NORMALLY****
TOTAL RUN TIME: 0 days 0 hours 14 minutes 42 seconds 259 msec
