                         Program Version 3.0.3 - RELEASE   -
|  1> ! RI-MP2 RIJK def2-TZVP def2-TZVP/C def2-TZVP/JK TIGHTSCF
|  2> % maxcore 2000
|  3> % mp2 density relaxed end
|  4> *xyz 0 1
|  5>  C        0.3300301478     1.1689600863     0.1335443550
|  6>  C       -0.0355114637    -0.2950381622     0.2265483838
|  7>  O        0.7760701345    -1.1349164999     0.5568638303
|  8>  C       -1.4905286175    -0.6734235573    -0.0871677064
|  9>  C       -1.6136358233    -2.0524341637    -0.7824654884
| 10>  C       -1.8177789841    -3.0776185984     0.3628979127
| 11>  O       -0.6231596307    -3.7170103976     0.7783897166
| 12>  C       -2.4029483880    -2.2108812263     1.4627425022
| 13>  C       -2.2191875937    -0.9124834059     1.2290921825
| 14>  H        1.3553662132     1.3291678753     0.4680672332
| 15>  H        0.2207245710     1.5106633914    -0.9025619609
| 16>  H       -0.3607576292     1.7704618810     0.7356678669
| 17>  H       -1.9500079430     0.1324562144    -0.6692642707
| 18>  H       -2.4972188757    -2.0358136743    -1.4273785584
| 19>  H       -0.7468907931    -2.3140924696    -1.3926126895
| 20>  H       -2.4890390837    -3.8885166923     0.0622646861
| 21>  H        0.0341586300    -3.0124015512     0.8951078766
| 22>  H       -2.8441061806    -2.6326978670     2.3585917959
| 23>  H       -2.4864110204    -0.1003088627     1.8965038926
| 24> *
| 25>
| 26>                          ****END OF INPUT****

CARTESIAN COORDINATES (ANGSTROEM)
---------------------------------
  C      0.330030    1.168960    0.133544
  C     -0.035511   -0.295038    0.226548
  O      0.776070   -1.134916    0.556864
  C     -1.490529   -0.673424   -0.087168
  C     -1.613636   -2.052434   -0.782465
  C     -1.817779   -3.077619    0.362898
  O     -0.623160   -3.717010    0.778390
  C     -2.402948   -2.210881    1.462743
  C     -2.219188   -0.912483    1.229092
  H      1.355366    1.329168    0.468067
  H      0.220725    1.510663   -0.902562
  H     -0.360758    1.770462    0.735668
  H     -1.950008    0.132456   -0.669264
  H     -2.497219   -2.035814   -1.427379
  H     -0.746891   -2.314092   -1.392613
  H     -2.489039   -3.888517    0.062265
  H      0.034159   -3.012402    0.895108
  H     -2.844106   -2.632698    2.358592
  H     -2.486411   -0.100309    1.896504

 Total Charge           Charge          ....    0
 Multiplicity           Mult            ....    1
 Number of Electrons    NEL             ....   68
 Basis Dimension        Dim             ....  339

ORBITAL ENERGIES
----------------

  NO   OCC          E(Eh)            E(eV)
   0   2.0000     -20.557314      -559.3930
   1   2.0000     -20.532875      -558.7279
   2   2.0000     -11.344370      -308.6960
   3   2.0000     -11.279477      -306.9302
   4   2.0000     -11.254918      -306.2619
   5   2.0000     -11.245895      -306.0164
   6   2.0000     -11.243395      -305.9483
   7   2.0000     -11.233070      -305.6674
   8   2.0000     -11.230783      -305.6051
   9   2.0000      -1.402516       -38.1644
  10   2.0000      -1.343702       -36.5640
  11   2.0000      -1.141810       -31.0702
  12   2.0000      -1.034231       -28.1429
  13   2.0000      -0.982073       -26.7236
  14   2.0000      -0.955655       -26.0047
  15   2.0000      -0.827367       -22.5138
  16   2.0000      -0.759950       -20.6793
  17   2.0000      -0.735264       -20.0076
  18   2.0000      -0.704981       -19.1835
  19   2.0000      -0.676260       -18.4020
  20   2.0000      -0.645067       -17.5532
  21   2.0000      -0.622733       -16.9454
  22   2.0000      -0.609371       -16.5818
  23   2.0000      -0.602643       -16.3988
  24   2.0000      -0.574216       -15.6252
  25   2.0000      -0.562590       -15.3089
  26   2.0000      -0.536069       -14.5872
  27   2.0000      -0.529561       -14.4101
  28   2.0000      -0.514610       -14.0033
  29   2.0000      -0.486811       -13.2468
  30   2.0000      -0.470385       -12.7998
  31   2.0000      -0.434871       -11.8334
  32   2.0000      -0.422514       -11.4972
  33   2.0000      -0.366298        -9.9675
  34   0.0000       0.115582         3.1451
  35   0.0000       0.122399         3.3306
  36   0.0000       0.154805         4.2124
  37   0.0000       0.162039         4.4093
  38   0.0000       0.168841         4.5944

MULLIKEN ATOMIC CHARGES
-----------------------
   0 C :   -0.422979
   1 C :    0.249544
   2 O :   -0.339975
   3 C :   -0.028518
   4 C :   -0.275446
   5 C :    0.113696
   6 O :   -0.471398
   7 C :   -0.187267
   8 C :   -0.189480
   9 H :    0.157286
  10 H :    0.152956
  11 H :    0.148449
  12 H :    0.126315
  13 H :    0.123347
  14 H :    0.144916
  15 H :    0.100010
  16 H :    0.329626
  17 H :    0.131921
  18 H :    0.136999
Sum of atomic charges:    0.0000000

LOEWDIN ATOMIC CHARGES
----------------------
   0 C :   -0.274017
   1 C :   -0.312865
   2 O :    0.146017
   3 C :   -0.207450
   4 C :   -0.197327
   5 C :   -0.326929
   6 O :   -0.021274
   7 C :   -0.128632
   8 C :   -0.129434
   9 H :    0.134234
  10 H :    0.140840
  11 H :    0.139228
  12 H :    0.156790
  13 H :    0.144502
  14 H :    0.143801
  15 H :    0.141244
  16 H :    0.172005
  17 H :    0.140444
  18 H :    0.138825

  Mayer bond orders larger than 0.1
B(  0-C ,  1-C ) :   0.9252 B(  0-C ,  9-H ) :   0.9384 B(  0-C , 10-H ) :   0.9151
B(  0-C , 11-H ) :   0.9145 B(  1-C ,  2-O ) :   1.8699 B(  1-C ,  3-C ) :   0.8489
B(  3-C ,  4-C ) :   0.8949 B(  3-C ,  8-C ) :   0.8973 B(  3-C , 12-H ) :   0.9096
B(  4-C ,  5-C ) :   0.9278 B(  4-C , 13-H ) :   0.9130 B(  4-C , 14-H ) :   0.9410
B(  5-C ,  6-O ) :   0.9479 B(  5-C ,  7-C ) :   0.9330 B(  5-C , 15-H ) :   0.9438
B(  6-O , 16-H ) :   0.8084 B(  7-C ,  8-C ) :   1.7791 B(  7-C , 17-H ) :   0.9277
B(  8-C , 18-H ) :   0.9137

MP2 TOTAL ENERGY:     -422.349834895 Eh
FINAL SINGLE POINT ENERGY      -422.349834895400

DIPOLE MOMENT
-------------
                                X             Y             Z
Electronic contribution:      1.35826      -3.47960       1.72018
Nuclear contribution   :     -2.04452       4.96012      -2.10753
                        -----------------------------------------
Total Dipole Moment    :     -0.68626       1.48052      -0.38735
                        -----------------------------------------
Magnitude (a.u.)       :      1.67719
Magnitude (Debye)      :      4.26307

                             ****ORCA TERMINATED NORMALLY****
TOTAL RUN TIME: 0 days 0 hours 18 minutes 54 seconds 925 msec
