                         Program Version 3.0.3 - RELEASE   -
|  1> ! RI-MP2 RIJK def2-TZVP def2-TZVP/C def2-TZVP/JK TIGHTSCF
|  2> % maxcore 2000
|  3> % mp2 density relaxed end
|  4> *xyz 0 1
|  5>  C       -0.0174639876     1.5315534816    -0.0173232222
|  6>  C        0.0129721579     0.0232513420    -0.0034278542
|  7>  C        0.0089932574    -0.6989651336    -1.1966010127
|  8>  C        0.0350816078    -2.0885708201    -1.2213711263
|  9>  C        0.0677228955    -2.8077085560    -0.0235849910
| 10>  N        0.1584764316    -4.2046209641    -0.0211088932
| 11>  C        0.0703151167    -2.0892414594     1.1788706323
| 12>  C        0.0443975121    -0.6970607690     1.2062612816
| 13>  C        0.0480071968     0.0257469819     2.5311243237
| 14>  H        0.8607159583     1.9661479503     0.4765425929
| 15>  H       -0.0403633085     1.9115313057    -1.0422238191
| 16>  H       -0.8968350799     1.9314389974     0.5031377134
| 17>  H       -0.0179317504    -0.1580700455    -2.1386967886
| 18>  H        0.0339089899    -2.6175732240    -2.1699893044
| 19>  H       -0.2176169569    -4.6464403783    -0.8479874942
| 20>  H       -0.1988468783    -4.6435253847     0.8155961606
| 21>  H        0.0975850030    -2.6365955219     2.1181566710
| 22>  H        0.9158668482     0.6894148880     2.6263213357
| 23>  H       -0.8410034992     0.6568223199     2.6502905800
| 24>  H        0.0729114756    -0.6778244000     3.3671619346
| 25> *
| 26>
| 27>                          ****END OF INPUT****

CARTESIAN COORDINATES (ANGSTROEM)
---------------------------------
  C     -0.017464    1.531553   -0.017323
  C      0.012972    0.023251   -0.003428
  C      0.008993   -0.698965   -1.196601
  C      0.035082   -2.088571   -1.221371
  C      0.067723   -2.807709   -0.023585
  N      0.158476   -4.204621   -0.021109
  C      0.070315   -2.089241    1.178871
  C      0.044398   -0.697061    1.206261
  C      0.048007    0.025747    2.531124
  H      0.860716    1.966148    0.476543
  H     -0.040363    1.911531   -1.042224
  H     -0.896835    1.931439    0.503138
  H     -0.017932   -0.158070   -2.138697
  H      0.033909   -2.617573   -2.169989
  H     -0.217617   -4.646440   -0.847987
  H     -0.198847   -4.643525    0.815596
  H      0.097585   -2.636596    2.118157
  H      0.915867    0.689415    2.626321
  H     -0.841003    0.656822    2.650291
  H      0.072911   -0.677824    3.367162

 Total Charge           Charge          ....    0
 Multiplicity           Mult            ....    1
 Number of Electrons    NEL             ....   66
 Basis Dimension        Dim             ....  345

ORBITAL ENERGIES
----------------

  NO   OCC          E(Eh)            E(eV)
   0   2.0000     -15.558068      -423.3566
   1   2.0000     -11.268303      -306.6261
   2   2.0000     -11.235166      -305.7244
   3   2.0000     -11.224819      -305.4429
   4   2.0000     -11.219982      -305.3112
   5   2.0000     -11.218454      -305.2696
   6   2.0000     -11.215835      -305.1984
   7   2.0000     -11.214307      -305.1568
   8   2.0000     -11.213526      -305.1356
   9   2.0000      -1.217432       -33.1280
  10   2.0000      -1.133180       -30.8354
  11   2.0000      -1.033133       -28.1130
  12   2.0000      -1.016125       -27.6502
  13   2.0000      -0.939721       -25.5711
  14   2.0000      -0.902596       -24.5609
  15   2.0000      -0.813506       -22.1366
  16   2.0000      -0.778542       -21.1852
  17   2.0000      -0.688698       -18.7404
  18   2.0000      -0.675888       -18.3918
  19   2.0000      -0.627760       -17.0822
  20   2.0000      -0.612390       -16.6640
  21   2.0000      -0.586558       -15.9611
  22   2.0000      -0.581073       -15.8118
  23   2.0000      -0.558493       -15.1974
  24   2.0000      -0.544186       -14.8080
  25   2.0000      -0.534006       -14.5310
  26   2.0000      -0.528554       -14.3827
  27   2.0000      -0.519684       -14.1413
  28   2.0000      -0.485165       -13.2020
  29   2.0000      -0.472459       -12.8563
  30   2.0000      -0.430682       -11.7194
  31   2.0000      -0.324990        -8.8434
  32   2.0000      -0.282093        -7.6761
  33   0.0000       0.131533         3.5792
  34   0.0000       0.135989         3.7004
  35   0.0000       0.141303         3.8450
  36   0.0000       0.153107         4.1663
  37   0.0000       0.165872         4.5136

MULLIKEN ATOMIC CHARGES
-----------------------
   0 C :   -0.432533
   1 C :    0.060642
   2 C :   -0.164180
   3 C :   -0.261384
   4 C :    0.311617
   5 N :   -0.511420
   6 C :   -0.301654
   7 C :    0.114306
   8 C :   -0.431340
   9 H :    0.137637
  10 H :    0.134064
  11 H :    0.136701
  12 H :    0.107060
  13 H :    0.106879
  14 H :    0.241886
  15 H :    0.241987
  16 H :    0.100052
  17 H :    0.139252
  18 H :    0.138026
  19 H :    0.132404
Sum of atomic charges:   -0.0000000

LOEWDIN ATOMIC CHARGES
----------------------
   0 C :   -0.267121
   1 C :   -0.154143
   2 C :   -0.132956
   3 C :   -0.137848
   4 C :   -0.245198
   5 N :   -0.077039
   6 C :   -0.111210
   7 C :   -0.149622
   8 C :   -0.263390
   9 H :    0.128801
  10 H :    0.128159
  11 H :    0.128485
  12 H :    0.146345
  13 H :    0.143921
  14 H :    0.164998
  15 H :    0.164720
  16 H :    0.145644
  17 H :    0.130441
  18 H :    0.129951
  19 H :    0.127061

  Mayer bond orders larger than 0.1
B(  0-C ,  1-C ) :   0.8673 B(  0-C ,  9-H ) :   0.9389 B(  0-C , 10-H ) :   0.9438
B(  0-C , 11-H ) :   0.9390 B(  1-C ,  2-C ) :   1.3497 B(  1-C ,  7-C ) :   1.2842
B(  2-C ,  3-C ) :   1.3653 B(  2-C , 12-H ) :   0.9345 B(  3-C ,  4-C ) :   1.2858
B(  3-C , 13-H ) :   0.9304 B(  4-C ,  5-N ) :   0.9746 B(  4-C ,  6-C ) :   1.2745
B(  5-N , 14-H ) :   0.8789 B(  5-N , 15-H ) :   0.8781 B(  6-C ,  7-C ) :   1.4132
B(  6-C , 16-H ) :   0.9114 B(  7-C ,  8-C ) :   0.8592 B(  8-C , 17-H ) :   0.9387
B(  8-C , 18-H ) :   0.9384 B(  8-C , 19-H ) :   0.9445

MP2 TOTAL ENERGY:     -365.419066904 Eh
FINAL SINGLE POINT ENERGY      -365.419066903790

DIPOLE MOMENT
-------------
                                X             Y             Z
Electronic contribution:      0.25514      -5.20743      -2.82499
Nuclear contribution   :     -0.66201       4.94530       2.93282
                        -----------------------------------------
Total Dipole Moment    :     -0.40687      -0.26213       0.10783
                        -----------------------------------------
Magnitude (a.u.)       :      0.49586
Magnitude (Debye)      :      1.26038

                             ****ORCA TERMINATED NORMALLY****
TOTAL RUN TIME: 0 days 0 hours 19 minutes 42 seconds 750 msec
