                         Program Version 3.0.3 - RELEASE   -
|  1> ! RI-MP2 RIJK def2-TZVP def2-TZVP/C def2-TZVP/JK TIGHTSCF
|  2> % maxcore 2000
|  3> % mp2 density relaxed end
|  4> *xyz 0 1
|  5>  C       -0.0225564497     1.3917658863    -0.0970517405
|  6>  N       -0.0523353861    -0.0581348739    -0.1338043212
|  7>  C       -1.1512433138    -0.6519739550    -0.0588539931
|  8>  O       -1.2527676321    -2.0186486208    -0.0863087471
|  9>  C       -2.5963907592    -2.3378916947     0.0217923642
| 10>  C       -2.9738108280    -3.7680738673     0.0182027017
| 11>  C       -3.3049005400    -1.2135970661     0.1112492603
| 12>  N       -4.6685697221    -0.9937492020     0.2343794684
| 13>  O       -2.4112677754    -0.1231638666     0.0603999904
| 14>  H        0.6785517942     1.7188289447     0.6790331422
| 15>  H        0.3593860433     1.7756234695    -1.0507803965
| 16>  H       -0.9958175697     1.8599843039     0.0963288820
| 17>  H       -2.5013802791    -4.3021971955     0.8499774624
| 18>  H       -4.0578533772    -3.8535256805     0.1110082412
| 19>  H       -2.6556605904    -4.2571312404    -0.9091416917
| 20>  H       -5.0464943388    -0.4620343458    -0.5442498816
| 21>  H       -4.9056121359    -0.5041913558     1.0922559789
| 22> *
| 23>
| 24>                          ****END OF INPUT****

CARTESIAN COORDINATES (ANGSTROEM)
---------------------------------
  C     -0.022556    1.391766   -0.097052
  N     -0.052335   -0.058135   -0.133804
  C     -1.151243   -0.651974   -0.058854
  O     -1.252768   -2.018649   -0.086309
  C     -2.596391   -2.337892    0.021792
  C     -2.973811   -3.768074    0.018203
  C     -3.304901   -1.213597    0.111249
  N     -4.668570   -0.993749    0.234379
  O     -2.411268   -0.123164    0.060400
  H      0.678552    1.718829    0.679033
  H      0.359386    1.775623   -1.050780
  H     -0.995818    1.859984    0.096329
  H     -2.501380   -4.302197    0.849977
  H     -4.057853   -3.853526    0.111008
  H     -2.655661   -4.257131   -0.909142
  H     -5.046494   -0.462034   -0.544250
  H     -4.905612   -0.504191    1.092256

 Total Charge           Charge          ....    0
 Multiplicity           Mult            ....    1
 Number of Electrons    NEL             ....   68
 Basis Dimension        Dim             ....  327

ORBITAL ENERGIES
----------------

  NO   OCC          E(Eh)            E(eV)
   0   2.0000     -20.620259      -561.1058
   1   2.0000     -20.617430      -561.0288
   2   2.0000     -15.585077      -424.0915
   3   2.0000     -15.530427      -422.6044
   4   2.0000     -11.390005      -309.9378
   5   2.0000     -11.325947      -308.1947
   6   2.0000     -11.306243      -307.6585
   7   2.0000     -11.243569      -305.9531
   8   2.0000     -11.239690      -305.8475
   9   2.0000      -1.512607       -41.1601
  10   2.0000      -1.392947       -37.9040
  11   2.0000      -1.239251       -33.7217
  12   2.0000      -1.207253       -32.8510
  13   2.0000      -1.060955       -28.8701
  14   2.0000      -0.958919       -26.0935
  15   2.0000      -0.931246       -25.3405
  16   2.0000      -0.827957       -22.5299
  17   2.0000      -0.815416       -22.1886
  18   2.0000      -0.720729       -19.6120
  19   2.0000      -0.715986       -19.4830
  20   2.0000      -0.671099       -18.2615
  21   2.0000      -0.656407       -17.8617
  22   2.0000      -0.630760       -17.1639
  23   2.0000      -0.594923       -16.1887
  24   2.0000      -0.592502       -16.1228
  25   2.0000      -0.571224       -15.5438
  26   2.0000      -0.568496       -15.4696
  27   2.0000      -0.557524       -15.1710
  28   2.0000      -0.552489       -15.0340
  29   2.0000      -0.548188       -14.9170
  30   2.0000      -0.461389       -12.5550
  31   2.0000      -0.417866       -11.3707
  32   2.0000      -0.412054       -11.2126
  33   2.0000      -0.321251        -8.7417
  34   0.0000       0.119372         3.2483
  35   0.0000       0.152269         4.1435
  36   0.0000       0.164798         4.4844
  37   0.0000       0.166085         4.5194
  38   0.0000       0.196866         5.3570

MULLIKEN ATOMIC CHARGES
-----------------------
   0 C :   -0.257950
   1 N :   -0.248736
   2 C :    0.295691
   3 O :   -0.226020
   4 C :    0.141413
   5 C :   -0.430880
   6 C :    0.120957
   7 N :   -0.520635
   8 O :   -0.246422
   9 H :    0.133696
  10 H :    0.131670
  11 H :    0.117280
  12 H :    0.152724
  13 H :    0.170594
  14 H :    0.152654
  15 H :    0.256992
  16 H :    0.256974
Sum of atomic charges:    0.0000000

LOEWDIN ATOMIC CHARGES
----------------------
   0 C :   -0.333156
   1 N :    0.056535
   2 C :   -0.456586
   3 O :    0.322340
   4 C :   -0.266346
   5 C :   -0.262748
   6 C :   -0.355010
   7 N :   -0.088626
   8 O :    0.275974
   9 H :    0.117063
  10 H :    0.117220
  11 H :    0.106241
  12 H :    0.138065
  13 H :    0.145197
  14 H :    0.138059
  15 H :    0.172899
  16 H :    0.172880

  Mayer bond orders larger than 0.1
B(  0-C ,  1-N ) :   0.8587 B(  0-C ,  9-H ) :   0.9375 B(  0-C , 10-H ) :   0.9347
B(  0-C , 11-H ) :   0.9290 B(  1-N ,  2-C ) :   1.9687 B(  2-C ,  3-O ) :   1.0464
B(  2-C ,  8-O ) :   1.0324 B(  3-O ,  4-C ) :   0.9867 B(  4-C ,  5-C ) :   0.8714
B(  4-C ,  6-C ) :   1.7129 B(  5-C , 12-H ) :   0.9291 B(  5-C , 13-H ) :   0.9424
B(  5-C , 14-H ) :   0.9286 B(  6-C ,  7-N ) :   1.1769 B(  6-C ,  8-O ) :   0.9815
B(  7-N , 15-H ) :   0.8763 B(  7-N , 16-H ) :   0.8763

MP2 TOTAL ENERGY:     -454.416519681 Eh
FINAL SINGLE POINT ENERGY      -454.416519680724

DIPOLE MOMENT
-------------
                                X             Y             Z
Electronic contribution:      1.02006      -0.31554      -0.10732
Nuclear contribution   :     -2.43246       0.45044       0.23003
                        -----------------------------------------
Total Dipole Moment    :     -1.41241       0.13490       0.12271
                        -----------------------------------------
Magnitude (a.u.)       :      1.42413
Magnitude (Debye)      :      3.61986

                             ****ORCA TERMINATED NORMALLY****
TOTAL RUN TIME: 0 days 0 hours 13 minutes 37 seconds 743 msec
