                         Program Version 3.0.3 - RELEASE   -
|  1> ! RI-MP2 RIJK def2-TZVP def2-TZVP/C def2-TZVP/JK TIGHTSCF
|  2> % maxcore 2000
|  3> % mp2 density relaxed end
|  4> *xyz 0 1
|  5>  O        0.4108488030     1.2618627058     0.4072612999
|  6>  C        0.0741964890    -0.0366353499     0.0419084074
|  7>  C       -1.4585537604    -0.5155459931     0.0696203576
|  8>  C       -2.4976606817     0.6227443783    -0.0496739444
|  9>  N       -2.0355584821     1.3518174812    -1.2716623559
| 10>  C       -1.4148307550     0.4849614342    -1.9576243464
| 11>  N       -0.0547072439     0.6559248492    -2.4644941182
| 12>  C        0.2371688099    -0.4725630945    -1.4755829734
| 13>  C       -1.2406386603    -0.9274531865    -1.3970618397
| 14>  H        0.0435040483     1.8557961079    -0.2632697524
| 15>  H        0.6654743043    -0.7102599686     0.6679000084
| 16>  H       -1.6784786975    -1.2699181722     0.8269512373
| 17>  H       -3.5288985031     0.2533135362    -0.1301849882
| 18>  H       -2.4551018233     1.3252503123     0.7873441705
| 19>  H        0.0771141741     0.2735851237    -3.4013696620
| 20>  H        1.0932478638    -1.0889384396    -1.7515331537
| 21>  H       -1.6583525051    -1.7983387946    -1.8995843268
| 22> *
| 23>
| 24>                          ****END OF INPUT****

CARTESIAN COORDINATES (ANGSTROEM)
---------------------------------
  O      0.410849    1.261863    0.407261
  C      0.074196   -0.036635    0.041908
  C     -1.458554   -0.515546    0.069620
  C     -2.497661    0.622744   -0.049674
  N     -2.035558    1.351817   -1.271662
  C     -1.414831    0.484961   -1.957624
  N     -0.054707    0.655925   -2.464494
  C      0.237169   -0.472563   -1.475583
  C     -1.240639   -0.927453   -1.397062
  H      0.043504    1.855796   -0.263270
  H      0.665474   -0.710260    0.667900
  H     -1.678479   -1.269918    0.826951
  H     -3.528899    0.253314   -0.130185
  H     -2.455102    1.325250    0.787344
  H      0.077114    0.273585   -3.401370
  H      1.093248   -1.088938   -1.751533
  H     -1.658353   -1.798339   -1.899584

 Total Charge           Charge          ....    0
 Multiplicity           Mult            ....    1
 Number of Electrons    NEL             ....   66
 Basis Dimension        Dim             ....  327

ORBITAL ENERGIES
----------------

  NO   OCC          E(Eh)            E(eV)
   0   2.0000     -20.555151      -559.3341
   1   2.0000     -15.581198      -423.9860
   2   2.0000     -15.556293      -423.3082
   3   2.0000     -11.317341      -307.9605
   4   2.0000     -11.298934      -307.4596
   5   2.0000     -11.284940      -307.0788
   6   2.0000     -11.261753      -306.4479
   7   2.0000     -11.251128      -306.1587
   8   2.0000     -11.245879      -306.0159
   9   2.0000      -1.372873       -37.3578
  10   2.0000      -1.309462       -35.6323
  11   2.0000      -1.197554       -32.5871
  12   2.0000      -1.099957       -29.9313
  13   2.0000      -0.958705       -26.0877
  14   2.0000      -0.916866       -24.9492
  15   2.0000      -0.864344       -23.5200
  16   2.0000      -0.772627       -21.0242
  17   2.0000      -0.761020       -20.7084
  18   2.0000      -0.694001       -18.8847
  19   2.0000      -0.672413       -18.2973
  20   2.0000      -0.638493       -17.3743
  21   2.0000      -0.628424       -17.1003
  22   2.0000      -0.606800       -16.5119
  23   2.0000      -0.574258       -15.6264
  24   2.0000      -0.570814       -15.5327
  25   2.0000      -0.542789       -14.7700
  26   2.0000      -0.528818       -14.3899
  27   2.0000      -0.480975       -13.0880
  28   2.0000      -0.456967       -12.4347
  29   2.0000      -0.444372       -12.0920
  30   2.0000      -0.423196       -11.5157
  31   2.0000      -0.397415       -10.8142
  32   2.0000      -0.374404       -10.1881
  33   0.0000       0.109395         2.9768
  34   0.0000       0.128356         3.4927
  35   0.0000       0.149341         4.0638
  36   0.0000       0.164591         4.4787
  37   0.0000       0.175353         4.7716

MULLIKEN ATOMIC CHARGES
-----------------------
   0 O :   -0.442395
   1 C :    0.015415
   2 C :   -0.095111
   3 C :   -0.134807
   4 N :   -0.226023
   5 C :    0.020215
   6 N :   -0.300138
   7 C :   -0.051539
   8 C :   -0.135970
   9 H :    0.343854
  10 H :    0.116412
  11 H :    0.128716
  12 H :    0.122724
  13 H :    0.137945
  14 H :    0.223084
  15 H :    0.138496
  16 H :    0.139124
Sum of atomic charges:   -0.0000000

LOEWDIN ATOMIC CHARGES
----------------------
   0 O :    0.013888
   1 C :   -0.281652
   2 C :   -0.188587
   3 C :   -0.241296
   4 N :    0.119832
   5 C :   -0.303001
   6 N :    0.025213
   7 C :   -0.183280
   8 C :   -0.150848
   9 H :    0.186987
  10 H :    0.146172
  11 H :    0.139840
  12 H :    0.131675
  13 H :    0.137447
  14 H :    0.175196
  15 H :    0.132011
  16 H :    0.140404

  Mayer bond orders larger than 0.1
B(  0-O ,  1-C ) :   1.0246 B(  0-O ,  9-H ) :   0.8087 B(  1-C ,  2-C ) :   0.8837
B(  1-C ,  7-C ) :   0.9285 B(  1-C , 10-H ) :   0.9257 B(  2-C ,  3-C ) :   0.9243
B(  2-C ,  8-C ) :   0.9039 B(  2-C , 11-H ) :   0.9025 B(  3-C ,  4-N ) :   0.8644
B(  3-C , 12-H ) :   0.9098 B(  3-C , 13-H ) :   0.9252 B(  4-N ,  5-C ) :   1.8639
B(  5-C ,  6-N ) :   1.0408 B(  5-C ,  8-C ) :   0.9711 B(  6-N ,  7-C ) :   0.9108
B(  6-N , 14-H ) :   0.8563 B(  7-C ,  8-C ) :   0.9384 B(  7-C , 15-H ) :   0.9042
B(  8-C , 16-H ) :   0.8952

MP2 TOTAL ENERGY:     -417.231198632 Eh
FINAL SINGLE POINT ENERGY      -417.231198631550

DIPOLE MOMENT
-------------
                                X             Y             Z
Electronic contribution:      0.35219       1.80782      -2.03896
Nuclear contribution   :     -0.56363      -3.30268       1.71073
                        -----------------------------------------
Total Dipole Moment    :     -0.21143      -1.49485      -0.32823
                        -----------------------------------------
Magnitude (a.u.)       :      1.54500
Magnitude (Debye)      :      3.92708

                             ****ORCA TERMINATED NORMALLY****
TOTAL RUN TIME: 0 days 0 hours 20 minutes 28 seconds 988 msec
