                         Program Version 3.0.3 - RELEASE   -
|  1> ! RI-MP2 RIJK def2-TZVP def2-TZVP/C def2-TZVP/JK TIGHTSCF
|  2> % maxcore 2000
|  3> % mp2 density relaxed end
|  4> *xyz 0 1
|  5>  C        0.7603417043     1.2182137164     0.3038886137
|  6>  C        0.5845990646     0.1396284505    -0.7097259978
|  7>  N       -0.4626779384     0.4249969410     0.2688505872
|  8>  C       -0.7378312870    -0.4633963676     1.3715399859
|  9>  C       -1.6621981954    -1.6594128762     1.1702642446
| 10>  C       -0.7367687201    -2.8649269866     0.9433443602
| 11>  O        0.6126478520    -2.4013415780     0.8972622709
| 12>  C        0.2551857001    -1.5165033191     1.9986143415
| 13>  C       -0.9990995415    -2.4015314393     2.3322150609
| 14>  H        1.4718676116     1.0303043864     1.1068316282
| 15>  H        0.6569739639     2.2647444568     0.0289845121
| 16>  H        0.3289352107     0.4035616897    -1.7329912469
| 17>  H        1.1668629250    -0.7662977872    -0.5918822661
| 18>  H       -1.1248408881     0.1489484714     2.1938361225
| 19>  H       -2.7060772087    -1.6591256553     0.8851095606
| 20>  H       -1.0045082032    -3.7620338790     0.4017441770
| 21>  H        1.0969840796    -1.2580334147     2.6372325999
| 22>  H       -1.3910740195    -2.8564391291     3.2300803356
| 23> *
| 24>
| 25>                          ****END OF INPUT****

CARTESIAN COORDINATES (ANGSTROEM)
---------------------------------
  C      0.760342    1.218214    0.303889
  C      0.584599    0.139628   -0.709726
  N     -0.462678    0.424997    0.268851
  C     -0.737831   -0.463396    1.371540
  C     -1.662198   -1.659413    1.170264
  C     -0.736769   -2.864927    0.943344
  O      0.612648   -2.401342    0.897262
  C      0.255186   -1.516503    1.998614
  C     -0.999100   -2.401531    2.332215
  H      1.471868    1.030304    1.106832
  H      0.656974    2.264744    0.028985
  H      0.328935    0.403562   -1.732991
  H      1.166863   -0.766298   -0.591882
  H     -1.124841    0.148948    2.193836
  H     -2.706077   -1.659126    0.885110
  H     -1.004508   -3.762034    0.401744
  H      1.096984   -1.258033    2.637233
  H     -1.391074   -2.856439    3.230080

 Total Charge           Charge          ....    0
 Multiplicity           Mult            ....    1
 Number of Electrons    NEL             ....   66
 Basis Dimension        Dim             ....  333

ORBITAL ENERGIES
----------------

  NO   OCC          E(Eh)            E(eV)
   0   2.0000     -20.556490      -559.3705
   1   2.0000     -15.551725      -423.1840
   2   2.0000     -11.298567      -307.4496
   3   2.0000     -11.293983      -307.3249
   4   2.0000     -11.268031      -306.6187
   5   2.0000     -11.248497      -306.0872
   6   2.0000     -11.243595      -305.9538
   7   2.0000     -11.242197      -305.9157
   8   2.0000     -11.241379      -305.8935
   9   2.0000      -1.407665       -38.3045
  10   2.0000      -1.264942       -34.4208
  11   2.0000      -1.154604       -31.4184
  12   2.0000      -0.999800       -27.2059
  13   2.0000      -0.922440       -25.1009
  14   2.0000      -0.844072       -22.9684
  15   2.0000      -0.832685       -22.6585
  16   2.0000      -0.766340       -20.8532
  17   2.0000      -0.743141       -20.2219
  18   2.0000      -0.729867       -19.8607
  19   2.0000      -0.682167       -18.5627
  20   2.0000      -0.650568       -17.7029
  21   2.0000      -0.616739       -16.7823
  22   2.0000      -0.602378       -16.3915
  23   2.0000      -0.557006       -15.1569
  24   2.0000      -0.552879       -15.0446
  25   2.0000      -0.519582       -14.1386
  26   2.0000      -0.499353       -13.5881
  27   2.0000      -0.481138       -13.0924
  28   2.0000      -0.455680       -12.3997
  29   2.0000      -0.434857       -11.8331
  30   2.0000      -0.401192       -10.9170
  31   2.0000      -0.387079       -10.5330
  32   2.0000      -0.357314        -9.7230
  33   0.0000       0.147979         4.0267
  34   0.0000       0.164833         4.4853
  35   0.0000       0.171159         4.6575
  36   0.0000       0.179840         4.8937
  37   0.0000       0.186785         5.0827

MULLIKEN ATOMIC CHARGES
-----------------------
   0 C :   -0.178965
   1 C :   -0.182435
   2 N :   -0.235321
   3 C :    0.038068
   4 C :   -0.177044
   5 C :    0.021055
   6 O :   -0.332614
   7 C :    0.053124
   8 C :   -0.217748
   9 H :    0.115890
  10 H :    0.126573
  11 H :    0.122051
  12 H :    0.155882
  13 H :    0.108500
  14 H :    0.136895
  15 H :    0.143720
  16 H :    0.144352
  17 H :    0.158016
Sum of atomic charges:   -0.0000000

LOEWDIN ATOMIC CHARGES
----------------------
   0 C :   -0.266245
   1 C :   -0.257942
   2 N :    0.113945
   3 C :   -0.256317
   4 C :   -0.141431
   5 C :   -0.233264
   6 O :    0.166025
   7 C :   -0.185020
   8 C :   -0.131666
   9 H :    0.121268
  10 H :    0.121942
  11 H :    0.122400
  12 H :    0.127885
  13 H :    0.160849
  14 H :    0.139968
  15 H :    0.135683
  16 H :    0.128016
  17 H :    0.133904

  Mayer bond orders larger than 0.1
B(  0-C ,  1-C ) :   0.9394 B(  0-C ,  2-N ) :   0.8780 B(  0-C ,  9-H ) :   0.9229
B(  0-C , 10-H ) :   0.9256 B(  1-C ,  2-N ) :   0.8750 B(  1-C , 11-H ) :   0.9293
B(  1-C , 12-H ) :   0.9151 B(  2-N ,  3-C ) :   0.9525 B(  3-C ,  4-C ) :   0.8993
B(  3-C ,  7-C ) :   0.9324 B(  3-C , 13-H ) :   0.9437 B(  4-C ,  5-C ) :   0.8670
B(  4-C ,  8-C ) :   0.8163 B(  4-C , 14-H ) :   0.9229 B(  5-C ,  6-O ) :   0.9370
B(  5-C ,  8-C ) :   0.9026 B(  5-C , 15-H ) :   0.9215 B(  6-O ,  7-C ) :   0.8623
B(  7-C ,  8-C ) :   0.9620 B(  7-C , 16-H ) :   0.9056 B(  8-C , 17-H ) :   0.8952

MP2 TOTAL ENERGY:     -401.139661727 Eh
FINAL SINGLE POINT ENERGY      -401.139661727213

DIPOLE MOMENT
-------------
                                X             Y             Z
Electronic contribution:     -0.74260      -2.95683       0.78189
Nuclear contribution   :      0.56387       2.82039      -0.25810
                        -----------------------------------------
Total Dipole Moment    :     -0.17873      -0.13644       0.52379
                        -----------------------------------------
Magnitude (a.u.)       :      0.57001
Magnitude (Debye)      :      1.44886

                             ****ORCA TERMINATED NORMALLY****
TOTAL RUN TIME: 0 days 0 hours 18 minutes 42 seconds 274 msec
