                         Program Version 3.0.3 - RELEASE   -
|  1> ! RI-MP2 RIJK def2-TZVP def2-TZVP/C def2-TZVP/JK TIGHTSCF
|  2> % maxcore 2000
|  3> % mp2 density relaxed end
|  4> *xyz 0 1
|  5>  C        0.0361825402     1.5100140948    -0.0141498224
|  6>  C       -0.0272002618     0.0014104026     0.0336453350
|  7>  C       -0.8792194264    -0.6835030292     1.0760508558
|  8>  C        0.6248068340    -0.8311018208     1.1274586444
|  9>  C        1.3355737141    -1.9756848434     0.3703515352
| 10>  C        0.3178365861    -2.9735451984    -0.2323302452
| 11>  C       -0.3637872644    -2.1336286049    -1.3645931446
| 12>  C        0.3521136444    -0.7669928105    -1.2622004208
| 13>  C        1.7918800163    -1.2211413491    -0.9052113462
| 14>  H        0.9771667450     1.8583745353    -0.4568019424
| 15>  H       -0.7829212178     1.9280672064    -0.6123639641
| 16>  H       -0.0361240115     1.9410534127     0.9900082689
| 17>  H       -1.3193744972    -0.0344376818     1.8281770678
| 18>  H       -1.5099259101    -1.5275117176     0.8252113877
| 19>  H        1.1582723016    -0.3614690097     1.9484241297
| 20>  H        2.1211500766    -2.4542588752     0.9580305005
| 21>  H        0.8423724465    -3.8393560637    -0.6473788198
| 22>  H       -0.3899330669    -3.3519619656     0.5093343842
| 23>  H       -0.1788925397    -2.5777693754    -2.3473195729
| 24>  H       -1.4473143232    -2.0516032116    -1.2485076605
| 25>  H        0.2474319803    -0.1517206815    -2.1584395099
| 26>  H        2.4622717571    -0.3845598985    -0.6871076817
| 27>  H        2.2560600469    -1.8640825747    -1.6626246487
| 28> *
| 29>
| 30>                          ****END OF INPUT****

CARTESIAN COORDINATES (ANGSTROEM)
---------------------------------
  C      0.036183    1.510014   -0.014150
  C     -0.027200    0.001410    0.033645
  C     -0.879219   -0.683503    1.076051
  C      0.624807   -0.831102    1.127459
  C      1.335574   -1.975685    0.370352
  C      0.317837   -2.973545   -0.232330
  C     -0.363787   -2.133629   -1.364593
  C      0.352114   -0.766993   -1.262200
  C      1.791880   -1.221141   -0.905211
  H      0.977167    1.858375   -0.456802
  H     -0.782921    1.928067   -0.612364
  H     -0.036124    1.941053    0.990008
  H     -1.319374   -0.034438    1.828177
  H     -1.509926   -1.527512    0.825211
  H      1.158272   -0.361469    1.948424
  H      2.121150   -2.454259    0.958031
  H      0.842372   -3.839356   -0.647379
  H     -0.389933   -3.351962    0.509334
  H     -0.178893   -2.577769   -2.347320
  H     -1.447314   -2.051603   -1.248508
  H      0.247432   -0.151721   -2.158440
  H      2.462272   -0.384560   -0.687108
  H      2.256060   -1.864083   -1.662625

 Total Charge           Charge          ....    0
 Multiplicity           Mult            ....    1
 Number of Electrons    NEL             ....   68
 Basis Dimension        Dim             ....  363

ORBITAL ENERGIES
----------------

  NO   OCC          E(Eh)            E(eV)
   0   2.0000     -11.224831      -305.4432
   1   2.0000     -11.222740      -305.3863
   2   2.0000     -11.222154      -305.3703
   3   2.0000     -11.217473      -305.2430
   4   2.0000     -11.216135      -305.2065
   5   2.0000     -11.213347      -305.1307
   6   2.0000     -11.212765      -305.1148
   7   2.0000     -11.212477      -305.1070
   8   2.0000     -11.211297      -305.0749
   9   2.0000      -1.188779       -32.3483
  10   2.0000      -1.074808       -29.2470
  11   2.0000      -0.984650       -26.7937
  12   2.0000      -0.959587       -26.1117
  13   2.0000      -0.933541       -25.4030
  14   2.0000      -0.822787       -22.3892
  15   2.0000      -0.792380       -21.5618
  16   2.0000      -0.746385       -20.3102
  17   2.0000      -0.704370       -19.1669
  18   2.0000      -0.670254       -18.2385
  19   2.0000      -0.657833       -17.9005
  20   2.0000      -0.603004       -16.4086
  21   2.0000      -0.574511       -15.6332
  22   2.0000      -0.561131       -15.2691
  23   2.0000      -0.551686       -15.0121
  24   2.0000      -0.531941       -14.4749
  25   2.0000      -0.527559       -14.3556
  26   2.0000      -0.487410       -13.2631
  27   2.0000      -0.485564       -13.2129
  28   2.0000      -0.456903       -12.4330
  29   2.0000      -0.454180       -12.3589
  30   2.0000      -0.452269       -12.3069
  31   2.0000      -0.423940       -11.5360
  32   2.0000      -0.396708       -10.7950
  33   2.0000      -0.365478        -9.9452
  34   0.0000       0.137179         3.7328
  35   0.0000       0.157139         4.2760
  36   0.0000       0.166335         4.5262
  37   0.0000       0.171276         4.6606
  38   0.0000       0.185153         5.0383

MULLIKEN ATOMIC CHARGES
-----------------------
   0 C :   -0.454617
   1 C :    0.033267
   2 C :   -0.302770
   3 C :   -0.196858
   4 C :    0.059731
   5 C :   -0.307134
   6 C :   -0.309262
   7 C :    0.074929
   8 C :   -0.314166
   9 H :    0.128829
  10 H :    0.134289
  11 H :    0.126350
  12 H :    0.121668
  13 H :    0.131120
  14 H :    0.116337
  15 H :    0.120648
  16 H :    0.118107
  17 H :    0.125303
  18 H :    0.120574
  19 H :    0.126142
  20 H :    0.120968
  21 H :    0.115297
  22 H :    0.111247
Sum of atomic charges:    0.0000000

LOEWDIN ATOMIC CHARGES
----------------------
   0 C :   -0.272769
   1 C :   -0.217054
   2 C :   -0.186370
   3 C :   -0.154964
   4 C :   -0.209411
   5 C :   -0.228167
   6 C :   -0.227490
   7 C :   -0.186240
   8 C :   -0.198435
   9 H :    0.125834
  10 H :    0.125978
  11 H :    0.127488
  12 H :    0.136213
  13 H :    0.132907
  14 H :    0.141794
  15 H :    0.142929
  16 H :    0.133792
  17 H :    0.132433
  18 H :    0.134151
  19 H :    0.132425
  20 H :    0.145771
  21 H :    0.136912
  22 H :    0.132275

  Mayer bond orders larger than 0.1
B(  0-C ,  1-C ) :   0.8774 B(  0-C ,  9-H ) :   0.9387 B(  0-C , 10-H ) :   0.9488
B(  0-C , 11-H ) :   0.9375 B(  1-C ,  2-C ) :   0.9070 B(  1-C ,  3-C ) :   0.8889
B(  1-C ,  7-C ) :   0.8740 B(  2-C ,  3-C ) :   0.8953 B(  2-C , 12-H ) :   0.9282
B(  2-C , 13-H ) :   0.9126 B(  3-C ,  4-C ) :   0.8907 B(  3-C , 14-H ) :   0.9218
B(  4-C ,  5-C ) :   0.8893 B(  4-C ,  8-C ) :   0.9180 B(  4-C , 15-H ) :   0.9138
B(  5-C ,  6-C ) :   0.9697 B(  5-C , 16-H ) :   0.9258 B(  5-C , 17-H ) :   0.9381
B(  6-C ,  7-C ) :   0.8836 B(  6-C , 18-H ) :   0.9260 B(  6-C , 19-H ) :   0.9414
B(  7-C ,  8-C ) :   0.9040 B(  7-C , 20-H ) :   0.9183 B(  8-C , 21-H ) :   0.9182
B(  8-C , 22-H ) :   0.9216

MP2 TOTAL ENERGY:     -350.520893727 Eh
FINAL SINGLE POINT ENERGY      -350.520893726526

DIPOLE MOMENT
-------------
                                X             Y             Z
Electronic contribution:      0.52270      -0.99535       0.73350
Nuclear contribution   :     -0.46402       1.03244      -0.77992
                        -----------------------------------------
Total Dipole Moment    :      0.05868       0.03710      -0.04641
                        -----------------------------------------
Magnitude (a.u.)       :      0.08351
Magnitude (Debye)      :      0.21226

                             ****ORCA TERMINATED NORMALLY****
TOTAL RUN TIME: 0 days 0 hours 23 minutes 29 seconds 159 msec
