                         Program Version 3.0.3 - RELEASE   -
|  1> ! RI-MP2 RIJK def2-TZVP def2-TZVP/C def2-TZVP/JK TIGHTSCF
|  2> % maxcore 2000
|  3> % mp2 density relaxed end
|  4> *xyz 0 1
|  5>  O        0.2049898270    -0.2058665314    -0.3788892860
|  6>  C        0.0966157904     0.9804157441    -0.2174968551
|  7>  C        1.2633808020     1.9472506894    -0.0465448369
|  8>  C        1.2942270420     2.9410577208    -1.1656516701
|  9>  C        0.9776398301     4.2428496779    -1.1141748061
| 10>  N        1.0911676261     4.8525866606    -2.3690861751
| 11>  C        1.5054121811     3.9515224412    -3.3390101098
| 12>  O        1.6968038516     4.2007799479    -4.5043738855
| 13>  C        1.6593146872     2.6124838723    -2.5962928003
| 14>  H       -0.9003593757     1.4788375020    -0.2088459286
| 15>  H        1.1240527215     2.4721528833     0.9077665636
| 16>  H        2.1848300002     1.3577694984     0.0096075782
| 17>  H        0.6711596560     4.8317395373    -0.2604915217
| 18>  H        0.9284878218     5.8256209951    -2.5675548715
| 19>  H        2.6864128393     2.2462776378    -2.7105032738
| 20>  H        1.0099377295     1.8591902933    -3.0576671715
| 21> *
| 22>
| 23>                          ****END OF INPUT****

CARTESIAN COORDINATES (ANGSTROEM)
---------------------------------
  O      0.204990   -0.205867   -0.378889
  C      0.096616    0.980416   -0.217497
  C      1.263381    1.947251   -0.046545
  C      1.294227    2.941058   -1.165652
  C      0.977640    4.242850   -1.114175
  N      1.091168    4.852587   -2.369086
  C      1.505412    3.951522   -3.339010
  O      1.696804    4.200780   -4.504374
  C      1.659315    2.612484   -2.596293
  H     -0.900359    1.478838   -0.208846
  H      1.124053    2.472153    0.907767
  H      2.184830    1.357769    0.009608
  H      0.671160    4.831740   -0.260492
  H      0.928488    5.825621   -2.567555
  H      2.686413    2.246278   -2.710503
  H      1.009938    1.859190   -3.057667

 Total Charge           Charge          ....    0
 Multiplicity           Mult            ....    1
 Number of Electrons    NEL             ....   66
 Basis Dimension        Dim             ....  321

ORBITAL ENERGIES
----------------

  NO   OCC          E(Eh)            E(eV)
   0   2.0000     -20.567876      -559.6804
   1   2.0000     -20.534070      -558.7605
   2   2.0000     -15.607078      -424.6902
   3   2.0000     -11.364537      -309.2448
   4   2.0000     -11.342160      -308.6359
   5   2.0000     -11.298397      -307.4450
   6   2.0000     -11.262526      -306.4689
   7   2.0000     -11.257563      -306.3339
   8   2.0000     -11.255555      -306.2792
   9   2.0000      -1.407088       -38.2888
  10   2.0000      -1.398384       -38.0520
  11   2.0000      -1.282659       -34.9029
  12   2.0000      -1.110219       -30.2106
  13   2.0000      -1.019429       -27.7401
  14   2.0000      -0.973949       -26.5025
  15   2.0000      -0.825185       -22.4544
  16   2.0000      -0.821739       -22.3607
  17   2.0000      -0.771967       -21.0063
  18   2.0000      -0.720734       -19.6122
  19   2.0000      -0.675710       -18.3870
  20   2.0000      -0.656344       -17.8600
  21   2.0000      -0.640649       -17.4329
  22   2.0000      -0.633307       -17.2331
  23   2.0000      -0.628667       -17.1069
  24   2.0000      -0.595535       -16.2053
  25   2.0000      -0.574545       -15.6342
  26   2.0000      -0.547814       -14.9068
  27   2.0000      -0.542936       -14.7740
  28   2.0000      -0.515428       -14.0255
  29   2.0000      -0.489102       -13.3092
  30   2.0000      -0.436005       -11.8643
  31   2.0000      -0.429446       -11.6858
  32   2.0000      -0.333501        -9.0750
  33   0.0000       0.106097         2.8870
  34   0.0000       0.124309         3.3826
  35   0.0000       0.138197         3.7605
  36   0.0000       0.144353         3.9280
  37   0.0000       0.152275         4.1436

MULLIKEN ATOMIC CHARGES
-----------------------
   0 O :   -0.256114
   1 C :    0.103623
   2 C :   -0.167345
   3 C :   -0.107359
   4 C :   -0.055615
   5 N :   -0.270859
   6 C :    0.194053
   7 O :   -0.315371
   8 C :   -0.174902
   9 H :    0.077979
  10 H :    0.136994
  11 H :    0.126354
  12 H :    0.152337
  13 H :    0.247804
  14 H :    0.151466
  15 H :    0.156955
Sum of atomic charges:   -0.0000000

LOEWDIN ATOMIC CHARGES
----------------------
   0 O :    0.137798
   1 C :   -0.288782
   2 C :   -0.229071
   3 C :   -0.190333
   4 C :   -0.179283
   5 N :    0.147487
   6 C :   -0.406608
   7 O :    0.101249
   8 C :   -0.171154
   9 H :    0.110854
  10 H :    0.158424
  11 H :    0.152215
  12 H :    0.141180
  13 H :    0.189105
  14 H :    0.163190
  15 H :    0.163728

  Mayer bond orders larger than 0.1
B(  0-O ,  1-C ) :   1.9987 B(  1-C ,  2-C ) :   0.8654 B(  1-C ,  9-H ) :   0.9280
B(  2-C ,  3-C ) :   0.8804 B(  2-C , 10-H ) :   0.9286 B(  2-C , 11-H ) :   0.9063
B(  3-C ,  4-C ) :   1.7142 B(  3-C ,  8-C ) :   0.9376 B(  4-C ,  5-N ) :   1.0087
B(  4-C , 12-H ) :   0.9045 B(  5-N ,  6-C ) :   1.0919 B(  5-N , 13-H ) :   0.8643
B(  6-C ,  7-O ) :   2.0301 B(  6-C ,  8-C ) :   0.9300 B(  8-C , 14-H ) :   0.8930
B(  8-C , 15-H ) :   0.8888

MP2 TOTAL ENERGY:     -437.208088536 Eh
FINAL SINGLE POINT ENERGY      -437.208088535674

DIPOLE MOMENT
-------------
                                X             Y             Z
Electronic contribution:     -0.30960       0.77201      -2.85085
Nuclear contribution   :      0.13322       0.32174       4.18130
                        -----------------------------------------
Total Dipole Moment    :     -0.17637       1.09375       1.33045
                        -----------------------------------------
Magnitude (a.u.)       :      1.73133
Magnitude (Debye)      :      4.40069

                             ****ORCA TERMINATED NORMALLY****
TOTAL RUN TIME: 0 days 0 hours 14 minutes 8 seconds 41 msec
