                         Program Version 3.0.3 - RELEASE   -
|  1> ! RI-MP2 RIJK def2-TZVP def2-TZVP/C def2-TZVP/JK TIGHTSCF
|  2> % maxcore 2000
|  3> % mp2 density relaxed end
|  4> *xyz 0 1
|  5>  C        0.2010515356     1.5482866425     0.0780039946
|  6>  C        0.1088559613     0.0357945870    -0.0254467324
|  7>  C        0.8399709145    -0.5822318747    -1.2436694131
|  8>  C        1.2935652795    -1.9514486795    -0.7233264300
|  9>  C        2.8012685909    -2.2371781695    -0.5463217744
| 10>  N        3.3784250385    -1.0375340436     0.0959887921
| 11>  C        2.7128983316    -2.0625040686     0.9329365284
| 12>  C        1.1947904178    -1.8185643288     0.8313330653
| 13>  O        0.7145638578    -0.5378107081     1.1432637068
| 14>  H        1.2499951096     1.8559671583     0.1184246409
| 15>  H       -0.2741140148     2.0203656396    -0.7880621737
| 16>  H       -0.3007573776     1.9051648614     0.9819189845
| 17>  H       -0.9527876869    -0.2645000865    -0.0526440871
| 18>  H        0.1817087806    -0.6462207833    -2.1140132413
| 19>  H        1.7053425836     0.0335422053    -1.4991259493
| 20>  H        0.7395160573    -2.7964237604    -1.1340764305
| 21>  H        3.4163422498    -2.9116988683    -1.1290092952
| 22>  H        4.3818009289    -1.1931422144     0.1837869540
| 23>  H        3.2502890624    -2.5580490430     1.7318580283
| 24>  H        0.6136310896    -2.6066587855     1.3262737219
| 25> *
| 26>
| 27>                          ****END OF INPUT****

CARTESIAN COORDINATES (ANGSTROEM)
---------------------------------
  C      0.201052    1.548287    0.078004
  C      0.108856    0.035795   -0.025447
  C      0.839971   -0.582232   -1.243669
  C      1.293565   -1.951449   -0.723326
  C      2.801269   -2.237178   -0.546322
  N      3.378425   -1.037534    0.095989
  C      2.712898   -2.062504    0.932937
  C      1.194790   -1.818564    0.831333
  O      0.714564   -0.537811    1.143264
  H      1.249995    1.855967    0.118425
  H     -0.274114    2.020366   -0.788062
  H     -0.300757    1.905165    0.981919
  H     -0.952788   -0.264500   -0.052644
  H      0.181709   -0.646221   -2.114013
  H      1.705343    0.033542   -1.499126
  H      0.739516   -2.796424   -1.134076
  H      3.416342   -2.911699   -1.129009
  H      4.381801   -1.193142    0.183787
  H      3.250289   -2.558049    1.731858
  H      0.613631   -2.606659    1.326274

 Total Charge           Charge          ....    0
 Multiplicity           Mult            ....    1
 Number of Electrons    NEL             ....   68
 Basis Dimension        Dim             ....  345

ORBITAL ENERGIES
----------------

  NO   OCC          E(Eh)            E(eV)
   0   2.0000     -20.539104      -558.8974
   1   2.0000     -15.560628      -423.4262
   2   2.0000     -11.275747      -306.8287
   3   2.0000     -11.270570      -306.6878
   4   2.0000     -11.263129      -306.4853
   5   2.0000     -11.257891      -306.3428
   6   2.0000     -11.230868      -305.6075
   7   2.0000     -11.212946      -305.1198
   8   2.0000     -11.203378      -304.8594
   9   2.0000      -1.371515       -37.3208
  10   2.0000      -1.274610       -34.6839
  11   2.0000      -1.059537       -28.8315
  12   2.0000      -1.036258       -28.1980
  13   2.0000      -0.937943       -25.5227
  14   2.0000      -0.867099       -23.5950
  15   2.0000      -0.830141       -22.5893
  16   2.0000      -0.776799       -21.1378
  17   2.0000      -0.737956       -20.0808
  18   2.0000      -0.729363       -19.8470
  19   2.0000      -0.652950       -17.7677
  20   2.0000      -0.639540       -17.4028
  21   2.0000      -0.605979       -16.4895
  22   2.0000      -0.583242       -15.8708
  23   2.0000      -0.562143       -15.2967
  24   2.0000      -0.545604       -14.8467
  25   2.0000      -0.520980       -14.1766
  26   2.0000      -0.509940       -13.8762
  27   2.0000      -0.504334       -13.7236
  28   2.0000      -0.477107       -12.9827
  29   2.0000      -0.460891       -12.5415
  30   2.0000      -0.448178       -12.1956
  31   2.0000      -0.426047       -11.5933
  32   2.0000      -0.402683       -10.9576
  33   2.0000      -0.360033        -9.7970
  34   0.0000       0.138030         3.7560
  35   0.0000       0.152993         4.1632
  36   0.0000       0.161680         4.3995
  37   0.0000       0.172566         4.6958
  38   0.0000       0.190340         5.1794

MULLIKEN ATOMIC CHARGES
-----------------------
   0 C :   -0.406129
   1 C :    0.103554
   2 C :   -0.260710
   3 C :   -0.021160
   4 C :   -0.114232
   5 N :   -0.392268
   6 C :   -0.117373
   7 C :    0.128126
   8 O :   -0.325721
   9 H :    0.139618
  10 H :    0.120357
  11 H :    0.134877
  12 H :    0.068831
  13 H :    0.124474
  14 H :    0.123119
  15 H :    0.114922
  16 H :    0.138124
  17 H :    0.214531
  18 H :    0.140699
  19 H :    0.086362
Sum of atomic charges:   -0.0000000

LOEWDIN ATOMIC CHARGES
----------------------
   0 C :   -0.295409
   1 C :   -0.319185
   2 C :   -0.217945
   3 C :   -0.182672
   4 C :   -0.217985
   5 N :    0.006464
   6 C :   -0.215104
   7 C :   -0.257917
   8 O :    0.197786
   9 H :    0.128945
  10 H :    0.125184
  11 H :    0.125488
  12 H :    0.131764
  13 H :    0.134724
  14 H :    0.147353
  15 H :    0.146423
  16 H :    0.127220
  17 H :    0.172847
  18 H :    0.127486
  19 H :    0.134533

  Mayer bond orders larger than 0.1
B(  0-C ,  1-C ) :   0.8952 B(  0-C ,  9-H ) :   0.9436 B(  0-C , 10-H ) :   0.9322
B(  0-C , 11-H ) :   0.9377 B(  1-C ,  2-C ) :   0.9431 B(  1-C ,  8-O ) :   0.9389
B(  1-C , 12-H ) :   0.9336 B(  2-C ,  3-C ) :   0.9400 B(  2-C , 13-H ) :   0.9215
B(  2-C , 14-H ) :   0.9044 B(  3-C ,  4-C ) :   0.9092 B(  3-C ,  7-C ) :   0.9838
B(  3-C , 15-H ) :   0.9232 B(  4-C ,  5-N ) :   0.8951 B(  4-C ,  6-C ) :   0.8757
B(  4-C , 16-H ) :   0.9114 B(  5-N ,  6-C ) :   0.9254 B(  5-N , 17-H ) :   0.8650
B(  6-C ,  7-C ) :   0.8978 B(  6-C , 18-H ) :   0.9209 B(  7-C ,  8-O ) :   0.9690
B(  7-C , 19-H ) :   0.9376

MP2 TOTAL ENERGY:     -402.418311085 Eh
FINAL SINGLE POINT ENERGY      -402.418311084775

DIPOLE MOMENT
-------------
                                X             Y             Z
Electronic contribution:      2.18507      -3.55211       2.48128
Nuclear contribution   :     -1.92751       2.78795      -2.94369
                        -----------------------------------------
Total Dipole Moment    :      0.25756      -0.76416      -0.46241
                        -----------------------------------------
Magnitude (a.u.)       :      0.92957
Magnitude (Debye)      :      2.36279

                             ****ORCA TERMINATED NORMALLY****
TOTAL RUN TIME: 0 days 0 hours 19 minutes 58 seconds 4 msec
