                         Program Version 3.0.3 - RELEASE   -
|  1> ! RI-MP2 RIJK def2-TZVP def2-TZVP/C def2-TZVP/JK TIGHTSCF
|  2> % maxcore 2000
|  3> % mp2 density relaxed end
|  4> *xyz 0 1
|  5>  C        0.0683589999     1.3756942309     0.1602080713
|  6>  N       -0.0206127331    -0.0436680574    -0.0722351171
|  7>  C        0.5773675894    -0.6620310330    -1.1281763921
|  8>  C        1.1425391991    -0.0466695465    -2.1985184952
|  9>  O        1.6974323488    -0.7042240833    -3.2567634705
| 10>  N        1.7305275950    -2.0687715803    -3.2919573963
| 11>  C        1.2217997969    -2.6977681329    -2.2833196101
| 12>  C        0.6061185602    -2.1202156223    -1.1004846010
| 13>  N        0.1193379359    -2.7472605223    -0.0850770160
| 14>  H        1.1085115294     1.7287314631     0.2399185344
| 15>  H       -0.4151961249     1.9374889816    -0.6497344974
| 16>  H       -0.4502049351     1.6197485472     1.0889186010
| 17>  H       -0.2193890992    -0.6722240978     0.6928808635
| 18>  H        1.2100448158     1.0219329915    -2.3455357398
| 19>  H        1.2834343534    -3.7802728573    -2.3704661225
| 20>  H        0.2130095085    -3.7580472211    -0.1929051121
| 21> *
| 22>
| 23>                          ****END OF INPUT****

CARTESIAN COORDINATES (ANGSTROEM)
---------------------------------
  C      0.068359    1.375694    0.160208
  N     -0.020613   -0.043668   -0.072235
  C      0.577368   -0.662031   -1.128176
  C      1.142539   -0.046670   -2.198518
  O      1.697432   -0.704224   -3.256763
  N      1.730528   -2.068772   -3.291957
  C      1.221800   -2.697768   -2.283320
  C      0.606119   -2.120216   -1.100485
  N      0.119338   -2.747261   -0.085077
  H      1.108512    1.728731    0.239919
  H     -0.415196    1.937489   -0.649734
  H     -0.450205    1.619749    1.088919
  H     -0.219389   -0.672224    0.692881
  H      1.210045    1.021933   -2.345536
  H      1.283434   -3.780273   -2.370466
  H      0.213010   -3.758047   -0.192905

 Total Charge           Charge          ....    0
 Multiplicity           Mult            ....    1
 Number of Electrons    NEL             ....   66
 Basis Dimension        Dim             ....  321

ORBITAL ENERGIES
----------------

  NO   OCC          E(Eh)            E(eV)
   0   2.0000     -20.645054      -561.7805
   1   2.0000     -15.663678      -426.2303
   2   2.0000     -15.567134      -423.6032
   3   2.0000     -15.559512      -423.3958
   4   2.0000     -11.312307      -307.8235
   5   2.0000     -11.303210      -307.5760
   6   2.0000     -11.297950      -307.4328
   7   2.0000     -11.287788      -307.1563
   8   2.0000     -11.265829      -306.5588
   9   2.0000      -1.490011       -40.5453
  10   2.0000      -1.268629       -34.5212
  11   2.0000      -1.220104       -33.2007
  12   2.0000      -1.180331       -32.1185
  13   2.0000      -1.059456       -28.8293
  14   2.0000      -0.955319       -25.9955
  15   2.0000      -0.888434       -24.1755
  16   2.0000      -0.875127       -23.8134
  17   2.0000      -0.763686       -20.7810
  18   2.0000      -0.736090       -20.0300
  19   2.0000      -0.692739       -18.8504
  20   2.0000      -0.664917       -18.0933
  21   2.0000      -0.662486       -18.0272
  22   2.0000      -0.639545       -17.4029
  23   2.0000      -0.616180       -16.7671
  24   2.0000      -0.605136       -16.4666
  25   2.0000      -0.554219       -15.0811
  26   2.0000      -0.527938       -14.3659
  27   2.0000      -0.522010       -14.2046
  28   2.0000      -0.508012       -13.8237
  29   2.0000      -0.467240       -12.7143
  30   2.0000      -0.436898       -11.8886
  31   2.0000      -0.396332       -10.7847
  32   2.0000      -0.301282        -8.1983
  33   0.0000       0.075936         2.0663
  34   0.0000       0.135556         3.6887
  35   0.0000       0.139149         3.7864
  36   0.0000       0.141938         3.8623
  37   0.0000       0.171121         4.6564

MULLIKEN ATOMIC CHARGES
-----------------------
   0 C :   -0.309845
   1 N :   -0.326861
   2 C :    0.133285
   3 C :   -0.067779
   4 O :   -0.111490
   5 N :   -0.071878
   6 C :   -0.088309
   7 C :    0.092913
   8 N :   -0.435384
   9 H :    0.135861
  10 H :    0.139282
  11 H :    0.148866
  12 H :    0.262647
  13 H :    0.154290
  14 H :    0.137439
  15 H :    0.206964
Sum of atomic charges:    0.0000000

LOEWDIN ATOMIC CHARGES
----------------------
   0 C :   -0.324236
   1 N :    0.084125
   2 C :   -0.237578
   3 C :   -0.237871
   4 O :    0.241761
   5 N :    0.046851
   6 C :   -0.220640
   7 C :   -0.288817
   8 N :   -0.066678
   9 H :    0.111995
  10 H :    0.117451
  11 H :    0.124218
  12 H :    0.195474
  13 H :    0.143592
  14 H :    0.151385
  15 H :    0.158969

  Mayer bond orders larger than 0.1
B(  0-C ,  1-N ) :   0.9034 B(  0-C ,  9-H ) :   0.9310 B(  0-C , 10-H ) :   0.9286
B(  0-C , 11-H ) :   0.9350 B(  1-N ,  2-C ) :   1.1717 B(  1-N , 12-H ) :   0.8445
B(  2-C ,  3-C ) :   1.4741 B(  2-C ,  7-C ) :   1.0249 B(  3-C ,  4-O ) :   1.0415
B(  3-C , 13-H ) :   0.9346 B(  4-O ,  5-N ) :   0.8780 B(  5-N ,  6-C ) :   1.6765
B(  6-C ,  7-C ) :   1.0407 B(  6-C , 14-H ) :   0.9272 B(  7-C ,  8-N ) :   1.8193
B(  8-N , 15-H ) :   0.8665

MP2 TOTAL ENERGY:     -433.296784714 Eh
FINAL SINGLE POINT ENERGY      -433.296784714219

DIPOLE MOMENT
-------------
                                X             Y             Z
Electronic contribution:      2.46105      -4.60472      -5.63043
Nuclear contribution   :     -2.62217       5.09176       6.24679
                        -----------------------------------------
Total Dipole Moment    :     -0.16112       0.48704       0.61636
                        -----------------------------------------
Magnitude (a.u.)       :      0.80191
Magnitude (Debye)      :      2.03830

                             ****ORCA TERMINATED NORMALLY****
TOTAL RUN TIME: 0 days 0 hours 17 minutes 19 seconds 732 msec
