                         Program Version 3.0.3 - RELEASE   -
|  1> ! RI-MP2 RIJK def2-TZVP def2-TZVP/C def2-TZVP/JK TIGHTSCF
|  2> % maxcore 2000
|  3> % mp2 density relaxed end
|  4> *xyz 0 1
|  5>  C        1.3663412082     0.4831804056    -0.1082390014
|  6>  O        0.4027639695    -0.1122052441    -0.9775110800
|  7>  C       -0.0521689324     0.4134204844     0.2735166448
|  8>  C       -0.5429458412    -0.5092718964     1.3586695673
|  9>  C       -1.9411457805    -1.2102880134     1.2987205570
| 10>  C       -1.3486013945    -2.2049783376     0.2566781917
| 11>  C       -0.2548593688    -2.0445509308     1.3574057651
| 12>  C       -1.4048747364    -2.1694651002     2.4003181817
| 13>  H        2.0750578779    -0.2098815040     0.3431960173
| 14>  H        1.7919315510     1.4238620137    -0.4549118066
| 15>  H       -0.6336327208     1.3327261882     0.1684249458
| 16>  H       -0.3508561300    -0.0178133972     2.3221914892
| 17>  H       -2.9163986561    -0.7209243126     1.2700418617
| 18>  H       -1.8337465783    -3.1842312747     0.2098693979
| 19>  H       -1.1123425682    -1.8235114824    -0.7337435895
| 20>  H        0.7217381744    -2.5297320553     1.3959443676
| 21>  H       -1.2270404404    -1.7396705701     3.3905104722
| 22>  H       -1.8894567934    -3.1469169229     2.4669507781
| 23> *
| 24>
| 25>                          ****END OF INPUT****

CARTESIAN COORDINATES (ANGSTROEM)
---------------------------------
  C      1.366341    0.483180   -0.108239
  O      0.402764   -0.112205   -0.977511
  C     -0.052169    0.413420    0.273517
  C     -0.542946   -0.509272    1.358670
  C     -1.941146   -1.210288    1.298721
  C     -1.348601   -2.204978    0.256678
  C     -0.254859   -2.044551    1.357406
  C     -1.404875   -2.169465    2.400318
  H      2.075058   -0.209882    0.343196
  H      1.791932    1.423862   -0.454912
  H     -0.633633    1.332726    0.168425
  H     -0.350856   -0.017813    2.322191
  H     -2.916399   -0.720924    1.270042
  H     -1.833747   -3.184231    0.209869
  H     -1.112343   -1.823511   -0.733744
  H      0.721738   -2.529732    1.395944
  H     -1.227040   -1.739671    3.390510
  H     -1.889457   -3.146917    2.466951

 Total Charge           Charge          ....    0
 Multiplicity           Mult            ....    1
 Number of Electrons    NEL             ....   60
 Basis Dimension        Dim             ....  308

ORBITAL ENERGIES
----------------

  NO   OCC          E(Eh)            E(eV)
   0   2.0000     -20.565413      -559.6133
   1   2.0000     -11.285310      -307.0889
   2   2.0000     -11.279840      -306.9400
   3   2.0000     -11.243300      -305.9457
   4   2.0000     -11.242280      -305.9180
   5   2.0000     -11.239912      -305.8535
   6   2.0000     -11.227368      -305.5122
   7   2.0000     -11.218940      -305.2829
   8   2.0000      -1.408778       -38.3348
   9   2.0000      -1.207388       -32.8547
  10   2.0000      -0.977440       -26.5975
  11   2.0000      -0.904205       -24.6047
  12   2.0000      -0.895960       -24.3803
  13   2.0000      -0.853591       -23.2274
  14   2.0000      -0.820674       -22.3317
  15   2.0000      -0.727942       -19.8083
  16   2.0000      -0.689116       -18.7518
  17   2.0000      -0.673477       -18.3262
  18   2.0000      -0.642078       -17.4718
  19   2.0000      -0.620085       -16.8734
  20   2.0000      -0.572095       -15.5675
  21   2.0000      -0.542087       -14.7509
  22   2.0000      -0.500020       -13.6062
  23   2.0000      -0.487143       -13.2558
  24   2.0000      -0.469625       -12.7791
  25   2.0000      -0.452424       -12.3111
  26   2.0000      -0.447815       -12.1857
  27   2.0000      -0.437162       -11.8958
  28   2.0000      -0.425419       -11.5762
  29   2.0000      -0.411671       -11.2021
  30   0.0000       0.151418         4.1203
  31   0.0000       0.158259         4.3064
  32   0.0000       0.164850         4.4858
  33   0.0000       0.176343         4.7985
  34   0.0000       0.192612         5.2412

MULLIKEN ATOMIC CHARGES
-----------------------
   0 C :   -0.076760
   1 O :   -0.338397
   2 C :    0.001245
   3 C :   -0.086505
   4 C :   -0.136229
   5 C :   -0.218532
   6 C :   -0.136015
   7 C :   -0.202203
   8 H :    0.115932
   9 H :    0.115318
  10 H :    0.127675
  11 H :    0.100192
  12 H :    0.129568
  13 H :    0.105987
  14 H :    0.145097
  15 H :    0.130792
  16 H :    0.108508
  17 H :    0.114326
Sum of atomic charges:   -0.0000000

LOEWDIN ATOMIC CHARGES
----------------------
   0 C :   -0.264045
   1 O :    0.144166
   2 C :   -0.273900
   3 C :   -0.181761
   4 C :   -0.166018
   5 C :   -0.190730
   6 C :   -0.161723
   7 C :   -0.199639
   8 H :    0.120719
   9 H :    0.118462
  10 H :    0.140673
  11 H :    0.154722
  12 H :    0.123002
  13 H :    0.126120
  14 H :    0.132800
  15 H :    0.123677
  16 H :    0.125557
  17 H :    0.127919

  Mayer bond orders larger than 0.1
B(  0-C ,  1-O ) :   0.9220 B(  0-C ,  2-C ) :   0.9689 B(  0-C ,  8-H ) :   0.9086
B(  0-C ,  9-H ) :   0.9228 B(  1-O ,  2-C ) :   0.8665 B(  2-C ,  3-C ) :   0.9141
B(  2-C , 10-H ) :   0.9274 B(  3-C ,  4-C ) :   0.8934 B(  3-C ,  6-C ) :   0.9013
B(  3-C , 11-H ) :   0.9190 B(  4-C ,  5-C ) :   0.9169 B(  4-C ,  7-C ) :   0.9105
B(  4-C , 12-H ) :   0.8932 B(  5-C ,  6-C ) :   0.9059 B(  5-C , 13-H ) :   0.9326
B(  5-C , 14-H ) :   0.9184 B(  6-C ,  7-C ) :   0.9126 B(  6-C , 15-H ) :   0.8917
B(  7-C , 16-H ) :   0.9310 B(  7-C , 17-H ) :   0.9288

MP2 TOTAL ENERGY:     -347.117620989 Eh
FINAL SINGLE POINT ENERGY      -347.117620988518

DIPOLE MOMENT
-------------
                                X             Y             Z
Electronic contribution:      0.97413       1.74432      -2.56564
Nuclear contribution   :     -0.84314      -1.47562       3.15903
                        -----------------------------------------
Total Dipole Moment    :      0.13100       0.26870       0.59339
                        -----------------------------------------
Magnitude (a.u.)       :      0.66443
Magnitude (Debye)      :      1.68885

                             ****ORCA TERMINATED NORMALLY****
TOTAL RUN TIME: 0 days 0 hours 12 minutes 52 seconds 669 msec
