                         Program Version 3.0.3 - RELEASE   -
|  1> ! RI-MP2 RIJK def2-TZVP def2-TZVP/C def2-TZVP/JK TIGHTSCF
|  2> % maxcore 2000
|  3> % mp2 density relaxed end
|  4> *xyz 0 1
|  5>  C       -0.1163417788     1.5195737548     0.0472951654
|  6>  C        0.0180946670    -0.0181368135     0.0100790687
|  7>  N        0.6248329183    -0.5867422373    -1.1950587649
|  8>  C       -0.1764402063    -0.4272719067    -2.4031791106
|  9>  C        0.4561193669    -1.1140558645    -3.5328212668
| 10>  N        0.9605753363    -1.6298249194    -4.4342589354
| 11>  C        0.7907982344    -0.4781070179     1.1762452008
| 12>  N        1.4035846710    -0.8024575085     2.0997950306
| 13>  H        0.8666970595     1.9925494508    -0.0328080574
| 14>  H       -0.7435809107     1.8693087759    -0.7767408875
| 15>  H       -0.5765165955     1.8431369456     0.9846865520
| 16>  H       -0.9834193107    -0.4604217393     0.0983869401
| 17>  H        1.5606034700    -0.2187035995    -1.3323005824
| 18>  H       -1.1602902670    -0.8819631131    -2.2313095170
| 19>  H       -0.3604099744     0.6163381229    -2.7094406758
| 20> *
| 21>
| 22>                          ****END OF INPUT****

CARTESIAN COORDINATES (ANGSTROEM)
---------------------------------
  C     -0.116342    1.519574    0.047295
  C      0.018095   -0.018137    0.010079
  N      0.624833   -0.586742   -1.195059
  C     -0.176440   -0.427272   -2.403179
  C      0.456119   -1.114056   -3.532821
  N      0.960575   -1.629825   -4.434259
  C      0.790798   -0.478107    1.176245
  N      1.403585   -0.802458    2.099795
  H      0.866697    1.992549   -0.032808
  H     -0.743581    1.869309   -0.776741
  H     -0.576517    1.843137    0.984687
  H     -0.983419   -0.460422    0.098387
  H      1.560603   -0.218704   -1.332301
  H     -1.160290   -0.881963   -2.231310
  H     -0.360410    0.616338   -2.709441

 Total Charge           Charge          ....    0
 Multiplicity           Mult            ....    1
 Number of Electrons    NEL             ....   58
 Basis Dimension        Dim             ....  290

ORBITAL ENERGIES
----------------

  NO   OCC          E(Eh)            E(eV)
   0   2.0000     -15.603806      -424.6011
   1   2.0000     -15.586910      -424.1414
   2   2.0000     -15.584411      -424.0734
   3   2.0000     -11.340148      -308.5811
   4   2.0000     -11.335760      -308.4617
   5   2.0000     -11.288141      -307.1659
   6   2.0000     -11.284075      -307.0553
   7   2.0000     -11.264543      -306.5238
   8   2.0000      -1.282412       -34.8962
   9   2.0000      -1.234086       -33.5812
  10   2.0000      -1.222964       -33.2785
  11   2.0000      -1.085941       -29.5500
  12   2.0000      -0.997870       -27.1534
  13   2.0000      -0.912586       -24.8327
  14   2.0000      -0.784179       -21.3386
  15   2.0000      -0.709188       -19.2980
  16   2.0000      -0.684491       -18.6260
  17   2.0000      -0.672818       -18.3083
  18   2.0000      -0.629299       -17.1241
  19   2.0000      -0.615065       -16.7368
  20   2.0000      -0.587758       -15.9937
  21   2.0000      -0.573253       -15.5990
  22   2.0000      -0.562971       -15.3192
  23   2.0000      -0.555848       -15.1254
  24   2.0000      -0.487133       -13.2556
  25   2.0000      -0.481975       -13.1152
  26   2.0000      -0.474417       -12.9095
  27   2.0000      -0.472136       -12.8475
  28   2.0000      -0.429266       -11.6809
  29   0.0000       0.097748         2.6599
  30   0.0000       0.130873         3.5612
  31   0.0000       0.132818         3.6142
  32   0.0000       0.139650         3.8001
  33   0.0000       0.159249         4.3334

MULLIKEN ATOMIC CHARGES
-----------------------
   0 C :   -0.391461
   1 C :    0.065814
   2 N :   -0.307875
   3 C :   -0.057754
   4 C :   -0.165756
   5 N :   -0.047666
   6 C :   -0.151567
   7 N :   -0.047870
   8 H :    0.141704
   9 H :    0.144147
  10 H :    0.155913
  11 H :    0.132382
  12 H :    0.226732
  13 H :    0.156268
  14 H :    0.146988
Sum of atomic charges:    0.0000000

LOEWDIN ATOMIC CHARGES
----------------------
   0 C :   -0.274965
   1 C :   -0.316584
   2 N :    0.028591
   3 C :   -0.287810
   4 C :   -0.186126
   5 N :    0.072851
   6 C :   -0.165469
   7 N :    0.074324
   8 H :    0.131083
   9 H :    0.125131
  10 H :    0.136417
  11 H :    0.172242
  12 H :    0.184824
  13 H :    0.160830
  14 H :    0.144661

  Mayer bond orders larger than 0.1
B(  0-C ,  1-C ) :   0.9122 B(  0-C ,  8-H ) :   0.9190 B(  0-C ,  9-H ) :   0.9373
B(  0-C , 10-H ) :   0.9258 B(  1-C ,  2-N ) :   0.9662 B(  1-C ,  6-C ) :   0.9208
B(  1-C , 11-H ) :   0.9075 B(  2-N ,  3-C ) :   0.9591 B(  2-N , 12-H ) :   0.8672
B(  3-C ,  4-C ) :   0.9401 B(  3-C , 13-H ) :   0.8976 B(  3-C , 14-H ) :   0.9010
B(  4-C ,  5-N ) :   2.8599 B(  6-C ,  7-N ) :   2.8645

MP2 TOTAL ENERGY:     -358.232101433 Eh
FINAL SINGLE POINT ENERGY      -358.232101432989

DIPOLE MOMENT
-------------
                                X             Y             Z
Electronic contribution:      3.10429      -5.53340      -1.14766
Nuclear contribution   :     -4.43939       7.08633       1.10667
                        -----------------------------------------
Total Dipole Moment    :     -1.33510       1.55293      -0.04099
                        -----------------------------------------
Magnitude (a.u.)       :      2.04835
Magnitude (Debye)      :      5.20650

                             ****ORCA TERMINATED NORMALLY****
TOTAL RUN TIME: 0 days 0 hours 9 minutes 47 seconds 261 msec
