                         Program Version 3.0.3 - RELEASE   -
|  1> ! RI-MP2 RIJK def2-TZVP def2-TZVP/C def2-TZVP/JK TIGHTSCF
|  2> % maxcore 2000
|  3> % mp2 density relaxed end
|  4> *xyz 0 1
|  5>  C        0.0710270610     1.4591016714    -0.2454019509
|  6>  C        0.0110518960     0.0087077033     0.2514379033
|  7>  O        0.4370835468    -0.0605049005     1.6004021736
|  8>  C       -1.3668588444    -0.5796396847     0.0914115409
|  9>  N       -2.0635627840    -0.9476523671     1.1635872844
| 10>  N       -3.2280169256    -1.4169485753     0.6938674318
| 11>  C       -3.3078034614    -1.3666448639    -0.6655428748
| 12>  C       -2.1104053055    -0.8257434065    -1.0871211973
| 13>  O       -1.6535077158    -0.5544574471    -2.3417632261
| 14>  H        1.0827227617     1.8502034808    -0.1067707383
| 15>  H       -0.1891504976     1.5166018817    -1.3065801012
| 16>  H       -0.6238660825     2.0820488354     0.3258977114
| 17>  H        0.7072770067    -0.5869958037    -0.3602315799
| 18>  H       -0.3113941537    -0.3869560072     2.1159872968
| 19>  H       -3.9167629325    -1.7623021997     1.3387538562
| 20>  H       -4.1769847896    -1.7078131831    -1.2049357265
| 21>  H       -2.3228057896    -0.7992408338    -2.9876039534
| 22> *
| 23>
| 24>                          ****END OF INPUT****

CARTESIAN COORDINATES (ANGSTROEM)
---------------------------------
  C      0.071027    1.459102   -0.245402
  C      0.011052    0.008708    0.251438
  O      0.437084   -0.060505    1.600402
  C     -1.366859   -0.579640    0.091412
  N     -2.063563   -0.947652    1.163587
  N     -3.228017   -1.416949    0.693867
  C     -3.307803   -1.366645   -0.665543
  C     -2.110405   -0.825743   -1.087121
  O     -1.653508   -0.554457   -2.341763
  H      1.082723    1.850203   -0.106771
  H     -0.189150    1.516602   -1.306580
  H     -0.623866    2.082049    0.325898
  H      0.707277   -0.586996   -0.360232
  H     -0.311394   -0.386956    2.115987
  H     -3.916763   -1.762302    1.338754
  H     -4.176985   -1.707813   -1.204936
  H     -2.322806   -0.799241   -2.987604

 Total Charge           Charge          ....    0
 Multiplicity           Mult            ....    1
 Number of Electrons    NEL             ....   68
 Basis Dimension        Dim             ....  327

ORBITAL ENERGIES
----------------

  NO   OCC          E(Eh)            E(eV)
   0   2.0000     -20.597206      -560.4785
   1   2.0000     -20.535014      -558.7861
   2   2.0000     -15.643364      -425.6776
   3   2.0000     -15.597479      -424.4290
   4   2.0000     -11.294434      -307.3372
   5   2.0000     -11.281186      -306.9767
   6   2.0000     -11.280251      -306.9512
   7   2.0000     -11.261016      -306.4278
   8   2.0000     -11.204294      -304.8843
   9   2.0000      -1.414874       -38.5007
  10   2.0000      -1.381295       -37.5869
  11   2.0000      -1.345696       -36.6183
  12   2.0000      -1.113918       -30.3113
  13   2.0000      -1.055847       -28.7310
  14   2.0000      -1.001756       -27.2592
  15   2.0000      -0.869739       -23.6668
  16   2.0000      -0.841963       -22.9110
  17   2.0000      -0.773000       -21.0344
  18   2.0000      -0.758064       -20.6280
  19   2.0000      -0.709869       -19.3165
  20   2.0000      -0.663057       -18.0427
  21   2.0000      -0.646252       -17.5854
  22   2.0000      -0.635282       -17.2869
  23   2.0000      -0.611667       -16.6443
  24   2.0000      -0.574250       -15.6261
  25   2.0000      -0.571844       -15.5607
  26   2.0000      -0.558412       -15.1952
  27   2.0000      -0.539357       -14.6767
  28   2.0000      -0.512878       -13.9561
  29   2.0000      -0.482911       -13.1407
  30   2.0000      -0.470696       -12.8083
  31   2.0000      -0.433710       -11.8019
  32   2.0000      -0.362451        -9.8628
  33   2.0000      -0.332016        -9.0346
  34   0.0000       0.122492         3.3332
  35   0.0000       0.128943         3.5087
  36   0.0000       0.142639         3.8814
  37   0.0000       0.167814         4.5664
  38   0.0000       0.182178         4.9573

MULLIKEN ATOMIC CHARGES
-----------------------
   0 C :   -0.358650
   1 C :    0.092341
   2 O :   -0.481509
   3 C :    0.070654
   4 N :   -0.281110
   5 N :   -0.128309
   6 C :   -0.135122
   7 C :    0.111866
   8 O :   -0.440278
   9 H :    0.131599
  10 H :    0.133736
  11 H :    0.112044
  12 H :    0.090492
  13 H :    0.335487
  14 H :    0.260119
  15 H :    0.154321
  16 H :    0.332319
Sum of atomic charges:   -0.0000000

LOEWDIN ATOMIC CHARGES
----------------------
   0 C :   -0.288424
   1 C :   -0.338964
   2 O :   -0.016590
   3 C :   -0.241446
   4 N :    0.031171
   5 N :    0.121263
   6 C :   -0.245446
   7 C :   -0.300087
   8 O :    0.065504
   9 H :    0.124716
  10 H :    0.126008
  11 H :    0.123151
  12 H :    0.147281
  13 H :    0.174111
  14 H :    0.188495
  15 H :    0.135700
  16 H :    0.193558

  Mayer bond orders larger than 0.1
B(  0-C ,  1-C ) :   0.8841 B(  0-C ,  9-H ) :   0.9350 B(  0-C , 10-H ) :   0.9241
B(  0-C , 11-H ) :   0.9313 B(  1-C ,  2-O ) :   1.0556 B(  1-C ,  3-C ) :   0.9547
B(  1-C , 12-H ) :   0.9302 B(  2-O , 13-H ) :   0.8155 B(  3-C ,  4-N ) :   1.4417
B(  3-C ,  7-C ) :   1.2189 B(  4-N ,  5-N ) :   1.1010 B(  4-N ,  6-C ) :   0.1138
B(  5-N ,  6-C ) :   1.1515 B(  5-N , 14-H ) :   0.8727 B(  6-C ,  7-C ) :   1.4193
B(  6-C , 15-H ) :   0.9058 B(  7-C ,  8-O ) :   1.1222 B(  8-O , 16-H ) :   0.8323

MP2 TOTAL ENERGY:     -454.427999156 Eh
FINAL SINGLE POINT ENERGY      -454.427999156169

DIPOLE MOMENT
-------------
                                X             Y             Z
Electronic contribution:     -3.50056      -4.26664       0.72060
Nuclear contribution   :      1.63628       3.61110      -1.58423
                        -----------------------------------------
Total Dipole Moment    :     -1.86428      -0.65554      -0.86363
                        -----------------------------------------
Magnitude (a.u.)       :      2.15665
Magnitude (Debye)      :      5.48176

                             ****ORCA TERMINATED NORMALLY****
TOTAL RUN TIME: 0 days 0 hours 16 minutes 1 seconds 763 msec
