                         Program Version 3.0.3 - RELEASE   -
|  1> ! RI-MP2 RIJK def2-TZVP def2-TZVP/C def2-TZVP/JK TIGHTSCF
|  2> % maxcore 2000
|  3> % mp2 density relaxed end
|  4> *xyz 0 1
|  5>  O       -0.0350718966     1.3436198514    -0.0815549532
|  6>  C        0.0430442396    -0.0483782644    -0.0393426941
|  7>  C       -0.3947965982    -0.7351869731     1.2438264646
|  8>  C       -1.2922266991    -0.7348103190     0.0043034205
|  9>  C       -1.3529179549    -2.2550876975    -0.2730712944
| 10>  N       -1.4953563933    -2.8888716103     1.0905950278
| 11>  C       -0.1565698683    -2.2555042679     1.3911238248
| 12>  C        0.1238197805    -2.6758649003    -0.0730070983
| 13>  O        0.9952218292    -3.1877616069    -0.6991157052
| 14>  H        0.7590703214     1.7001489098     0.3309005979
| 15>  H        0.8507794389    -0.4809550053    -0.6298942807
| 16>  H       -0.6017304953    -0.1240008461     2.1148707427
| 17>  H       -2.1849705841    -0.1260417009    -0.0772284245
| 18>  H       -1.9859122822    -2.6240172113    -1.0774639445
| 19>  H       -2.2447645608    -2.4516966567     1.6297320825
| 20>  H        0.4041251132    -2.6274429715     2.2463511441
| 21> *
| 22>
| 23>                          ****END OF INPUT****

CARTESIAN COORDINATES (ANGSTROEM)
---------------------------------
  O     -0.035072    1.343620   -0.081555
  C      0.043044   -0.048378   -0.039343
  C     -0.394797   -0.735187    1.243826
  C     -1.292227   -0.734810    0.004303
  C     -1.352918   -2.255088   -0.273071
  N     -1.495356   -2.888872    1.090595
  C     -0.156570   -2.255504    1.391124
  C      0.123820   -2.675865   -0.073007
  O      0.995222   -3.187762   -0.699116
  H      0.759070    1.700149    0.330901
  H      0.850779   -0.480955   -0.629894
  H     -0.601730   -0.124001    2.114871
  H     -2.184971   -0.126042   -0.077228
  H     -1.985912   -2.624017   -1.077464
  H     -2.244765   -2.451697    1.629732
  H      0.404125   -2.627443    2.246351

 Total Charge           Charge          ....    0
 Multiplicity           Mult            ....    1
 Number of Electrons    NEL             ....   66
 Basis Dimension        Dim             ....  321

ORBITAL ENERGIES
----------------

  NO   OCC          E(Eh)            E(eV)
   0   2.0000     -20.582348      -560.0742
   1   2.0000     -20.564023      -559.5755
   2   2.0000     -15.574596      -423.8063
   3   2.0000     -11.347502      -308.7812
   4   2.0000     -11.310174      -307.7655
   5   2.0000     -11.289884      -307.2134
   6   2.0000     -11.289186      -307.1944
   7   2.0000     -11.255169      -306.2687
   8   2.0000     -11.254435      -306.2488
   9   2.0000      -1.412480       -38.4355
  10   2.0000      -1.393210       -37.9112
  11   2.0000      -1.290174       -35.1074
  12   2.0000      -1.136278       -30.9197
  13   2.0000      -0.969097       -26.3705
  14   2.0000      -0.949108       -25.8265
  15   2.0000      -0.850910       -23.1544
  16   2.0000      -0.790239       -21.5035
  17   2.0000      -0.744231       -20.2516
  18   2.0000      -0.737066       -20.0566
  19   2.0000      -0.698409       -19.0047
  20   2.0000      -0.672596       -18.3023
  21   2.0000      -0.644026       -17.5248
  22   2.0000      -0.629512       -17.1299
  23   2.0000      -0.592639       -16.1265
  24   2.0000      -0.572907       -15.5896
  25   2.0000      -0.539644       -14.6845
  26   2.0000      -0.528787       -14.3890
  27   2.0000      -0.526143       -14.3171
  28   2.0000      -0.509614       -13.8673
  29   2.0000      -0.442525       -12.0417
  30   2.0000      -0.435494       -11.8504
  31   2.0000      -0.401855       -10.9350
  32   2.0000      -0.389088       -10.5876
  33   0.0000       0.130123         3.5408
  34   0.0000       0.133152         3.6233
  35   0.0000       0.144904         3.9430
  36   0.0000       0.167170         4.5489
  37   0.0000       0.172003         4.6804

MULLIKEN ATOMIC CHARGES
-----------------------
   0 O :   -0.443679
   1 C :    0.030869
   2 C :   -0.240530
   3 C :   -0.196861
   4 C :    0.048786
   5 N :   -0.322126
   6 C :    0.049760
   7 C :    0.039485
   8 O :   -0.224535
   9 H :    0.329055
  10 H :    0.127176
  11 H :    0.146756
  12 H :    0.145659
  13 H :    0.152172
  14 H :    0.206475
  15 H :    0.151538
Sum of atomic charges:   -0.0000000

LOEWDIN ATOMIC CHARGES
----------------------
   0 O :    0.009831
   1 C :   -0.297023
   2 C :   -0.171395
   3 C :   -0.158634
   4 C :   -0.191164
   5 N :    0.038520
   6 C :   -0.195168
   7 C :   -0.284366
   8 O :    0.183027
   9 H :    0.184799
  10 H :    0.141414
  11 H :    0.145216
  12 H :    0.149960
  13 H :    0.140610
  14 H :    0.164687
  15 H :    0.139686

  Mayer bond orders larger than 0.1
B(  0-O ,  1-C ) :   1.0358 B(  0-O ,  9-H ) :   0.8380 B(  1-C ,  2-C ) :   0.8597
B(  1-C ,  3-C ) :   0.8867 B(  1-C , 10-H ) :   0.9247 B(  2-C ,  3-C ) :   0.8743
B(  2-C ,  6-C ) :   0.8272 B(  2-C , 11-H ) :   0.9138 B(  3-C ,  4-C ) :   0.8647
B(  3-C , 12-H ) :   0.9217 B(  4-C ,  5-N ) :   0.9418 B(  4-C ,  6-C ) :  -0.1049
B(  4-C ,  7-C ) :   0.8185 B(  4-C , 13-H ) :   0.8990 B(  5-N ,  6-C ) :   0.9332
B(  5-N , 14-H ) :   0.8623 B(  6-C ,  7-C ) :   0.8146 B(  6-C , 15-H ) :   0.8941
B(  7-C ,  8-O ) :   2.0762

MP2 TOTAL ENERGY:     -437.112538046 Eh
FINAL SINGLE POINT ENERGY      -437.112538045959

DIPOLE MOMENT
-------------
                                X             Y             Z
Electronic contribution:      1.93320      -2.30742      -1.64086
Nuclear contribution   :     -2.20728       3.20597       2.43450
                        -----------------------------------------
Total Dipole Moment    :     -0.27409       0.89855       0.79364
                        -----------------------------------------
Magnitude (a.u.)       :      1.22979
Magnitude (Debye)      :      3.12588

                             ****ORCA TERMINATED NORMALLY****
TOTAL RUN TIME: 0 days 0 hours 15 minutes 39 seconds 973 msec
