                         Program Version 3.0.3 - RELEASE   -
|  1> ! RI-MP2 RIJK def2-TZVP def2-TZVP/C def2-TZVP/JK TIGHTSCF
|  2> % maxcore 2000
|  3> % mp2 density relaxed end
|  4> *xyz 0 1
|  5>  N        0.6756246549     0.9390809302    -0.1282751194
|  6>  C        0.2925032217    -0.2554754663    -0.0112917853
|  7>  O       -1.0276929441    -0.5430758475    -0.0261000117
|  8>  C       -1.4265222699    -1.8756837573     0.2085653668
|  9>  C       -2.2198005999    -2.1431510487     1.5104668703
| 10>  C       -3.2053902727    -3.0309380512     0.6757129962
| 11>  C       -2.6441387470    -2.3420759165    -0.6157306841
| 12>  C       -2.9181267110    -4.4552113799     0.7523427083
| 13>  N       -2.6755713904    -5.5844717965     0.8107642810
| 14>  H        1.6923404053     0.9821803017    -0.1155872948
| 15>  H        0.9300312454    -1.1438760445     0.0989561931
| 16>  H       -0.5744564920    -2.5568717927     0.1026463277
| 17>  H       -1.7012131784    -2.6109833535     2.3477389731
| 18>  H       -2.7197064503    -1.2317469696     1.8445016569
| 19>  H       -4.2668171721    -2.8712663907     0.8725156896
| 20>  H       -3.2656775177    -1.4873606413    -0.8896832082
| 21>  H       -2.4678215117    -2.9681438558    -1.4904637696
| 22> *
| 23>
| 24>                          ****END OF INPUT****

CARTESIAN COORDINATES (ANGSTROEM)
---------------------------------
  N      0.675625    0.939081   -0.128275
  C      0.292503   -0.255475   -0.011292
  O     -1.027693   -0.543076   -0.026100
  C     -1.426522   -1.875684    0.208565
  C     -2.219801   -2.143151    1.510467
  C     -3.205390   -3.030938    0.675713
  C     -2.644139   -2.342076   -0.615731
  C     -2.918127   -4.455211    0.752343
  N     -2.675571   -5.584472    0.810764
  H      1.692340    0.982180   -0.115587
  H      0.930031   -1.143876    0.098956
  H     -0.574456   -2.556872    0.102646
  H     -1.701213   -2.610983    2.347739
  H     -2.719706   -1.231747    1.844502
  H     -4.266817   -2.871266    0.872516
  H     -3.265678   -1.487361   -0.889683
  H     -2.467822   -2.968144   -1.490464

 Total Charge           Charge          ....    0
 Multiplicity           Mult            ....    1
 Number of Electrons    NEL             ....   66
 Basis Dimension        Dim             ....  327

ORBITAL ENERGIES
----------------

  NO   OCC          E(Eh)            E(eV)
   0   2.0000     -20.607146      -560.7490
   1   2.0000     -15.575516      -423.8313
   2   2.0000     -15.549738      -423.1299
   3   2.0000     -11.349946      -308.8477
   4   2.0000     -11.322106      -308.0902
   5   2.0000     -11.297153      -307.4112
   6   2.0000     -11.279132      -306.9208
   7   2.0000     -11.263992      -306.5088
   8   2.0000     -11.263968      -306.5081
   9   2.0000      -1.444946       -39.3190
  10   2.0000      -1.229381       -33.4532
  11   2.0000      -1.213082       -33.0096
  12   2.0000      -1.165860       -31.7247
  13   2.0000      -0.976483       -26.5715
  14   2.0000      -0.945462       -25.7273
  15   2.0000      -0.855637       -23.2831
  16   2.0000      -0.832262       -22.6470
  17   2.0000      -0.743207       -20.2237
  18   2.0000      -0.712006       -19.3747
  19   2.0000      -0.676914       -18.4198
  20   2.0000      -0.667651       -18.1677
  21   2.0000      -0.648594       -17.6491
  22   2.0000      -0.587095       -15.9757
  23   2.0000      -0.586378       -15.9562
  24   2.0000      -0.559865       -15.2347
  25   2.0000      -0.548174       -14.9166
  26   2.0000      -0.544637       -14.8203
  27   2.0000      -0.507796       -13.8178
  28   2.0000      -0.494877       -13.4663
  29   2.0000      -0.455383       -12.3916
  30   2.0000      -0.451072       -12.2743
  31   2.0000      -0.446741       -12.1564
  32   2.0000      -0.408353       -11.1118
  33   0.0000       0.120870         3.2890
  34   0.0000       0.127044         3.4570
  35   0.0000       0.142839         3.8868
  36   0.0000       0.150590         4.0978
  37   0.0000       0.156232         4.2513

MULLIKEN ATOMIC CHARGES
-----------------------
   0 N :   -0.336518
   1 C :    0.064267
   2 O :   -0.209152
   3 C :   -0.009556
   4 C :   -0.221333
   5 C :    0.059660
   6 C :   -0.216001
   7 C :   -0.256337
   8 N :   -0.052520
   9 H :    0.228551
  10 H :    0.081796
  11 H :    0.113656
  12 H :    0.148915
  13 H :    0.146885
  14 H :    0.158008
  15 H :    0.148844
  16 H :    0.150835
Sum of atomic charges:   -0.0000000

LOEWDIN ATOMIC CHARGES
----------------------
   0 N :   -0.076857
   1 C :   -0.395410
   2 O :    0.269790
   3 C :   -0.290076
   4 C :   -0.172816
   5 C :   -0.206467
   6 C :   -0.169832
   7 C :   -0.177982
   8 N :    0.060690
   9 H :    0.169923
  10 H :    0.106732
  11 H :    0.141341
  12 H :    0.136430
  13 H :    0.149509
  14 H :    0.167184
  15 H :    0.150526
  16 H :    0.137316

  Mayer bond orders larger than 0.1
B(  0-N ,  1-C ) :   1.9695 B(  0-N ,  9-H ) :   0.8485 B(  1-C ,  2-O ) :   1.0318
B(  1-C , 10-H ) :   0.9217 B(  2-O ,  3-C ) :   0.9349 B(  3-C ,  4-C ) :   0.9326
B(  3-C ,  6-C ) :   0.9353 B(  3-C , 11-H ) :   0.9321 B(  4-C ,  5-C ) :   0.8474
B(  4-C , 12-H ) :   0.9233 B(  4-C , 13-H ) :   0.9220 B(  5-C ,  6-C ) :   0.8424
B(  5-C ,  7-C ) :   0.9537 B(  5-C , 14-H ) :   0.9068 B(  6-C , 15-H ) :   0.9243
B(  6-C , 16-H ) :   0.9234 B(  7-C ,  8-N ) :   2.8630

MP2 TOTAL ENERGY:     -417.294286552 Eh
FINAL SINGLE POINT ENERGY      -417.294286551622

DIPOLE MOMENT
-------------
                                X             Y             Z
Electronic contribution:     -0.45921      -2.23232       0.03644
Nuclear contribution   :      0.65135       2.53657       0.04241
                        -----------------------------------------
Total Dipole Moment    :      0.19215       0.30425       0.07885
                        -----------------------------------------
Magnitude (a.u.)       :      0.36839
Magnitude (Debye)      :      0.93637

                             ****ORCA TERMINATED NORMALLY****
TOTAL RUN TIME: 0 days 0 hours 14 minutes 28 seconds 922 msec
