                         Program Version 3.0.3 - RELEASE   -
|  1> ! RI-MP2 RIJK def2-TZVP def2-TZVP/C def2-TZVP/JK TIGHTSCF
|  2> % maxcore 2000
|  3> % mp2 density relaxed end
|  4> *xyz 0 1
|  5>  C       -0.2431894334     1.1772870592    -1.3273734676
|  6>  C        0.3136791450    -0.1219081376    -0.7858594768
|  7>  O        1.6899118588    -0.3400037538    -1.1523941400
|  8>  C        2.1215167146    -0.5133204129     0.2251554423
|  9>  C        2.5760765399    -1.9461398381     0.4722427424
| 10>  C        3.1884523949     0.5050030457     0.5914815030
| 11>  C        0.6604488471    -0.2297815087     0.7330835119
| 12>  C        0.4452382926     0.9469377540     1.5533765773
| 13>  N        0.2765237138     1.8886247541     2.2033814328
| 14>  H        0.3341645735     2.0360459423    -0.9757884441
| 15>  H       -0.2077051811     1.1584903846    -2.4207548993
| 16>  H       -1.2852301711     1.3085454928    -1.0180681378
| 17>  H       -0.3107810599    -0.9649613561    -1.1099437555
| 18>  H        3.4705495528    -2.1594265029    -0.1207185773
| 19>  H        2.8173639235    -2.1025640352     1.5288548412
| 20>  H        1.7986065763    -2.6587150437     0.1819599098
| 21>  H        2.8434006093     1.5250152327     0.4099862038
| 22>  H        3.4674695038     0.4177584783     1.6462605812
| 23>  H        4.0801750905     0.3291392653    -0.0180612829
| 24>  H        0.2040375891    -1.0909456498     1.2254779453
| 25> *
| 26>
| 27>                          ****END OF INPUT****

CARTESIAN COORDINATES (ANGSTROEM)
---------------------------------
  C     -0.243189    1.177287   -1.327373
  C      0.313679   -0.121908   -0.785859
  O      1.689912   -0.340004   -1.152394
  C      2.121517   -0.513320    0.225155
  C      2.576077   -1.946140    0.472243
  C      3.188452    0.505003    0.591482
  C      0.660449   -0.229782    0.733084
  C      0.445238    0.946938    1.553377
  N      0.276524    1.888625    2.203381
  H      0.334165    2.036046   -0.975788
  H     -0.207705    1.158490   -2.420755
  H     -1.285230    1.308545   -1.018068
  H     -0.310781   -0.964961   -1.109944
  H      3.470550   -2.159427   -0.120719
  H      2.817364   -2.102564    1.528855
  H      1.798607   -2.658715    0.181960
  H      2.843401    1.525015    0.409986
  H      3.467470    0.417758    1.646261
  H      4.080175    0.329139   -0.018061
  H      0.204038   -1.090946    1.225478

 Total Charge           Charge          ....    0
 Multiplicity           Mult            ....    1
 Number of Electrons    NEL             ....   68
 Basis Dimension        Dim             ....  345

ORBITAL ENERGIES
----------------

  NO   OCC          E(Eh)            E(eV)
   0   2.0000     -20.561413      -559.5045
   1   2.0000     -15.573382      -423.7733
   2   2.0000     -11.317528      -307.9656
   3   2.0000     -11.310427      -307.7724
   4   2.0000     -11.285500      -307.0941
   5   2.0000     -11.276636      -306.8529
   6   2.0000     -11.233742      -305.6856
   7   2.0000     -11.228707      -305.5487
   8   2.0000     -11.227535      -305.5168
   9   2.0000      -1.399252       -38.0756
  10   2.0000      -1.222234       -33.2587
  11   2.0000      -1.084505       -29.5109
  12   2.0000      -1.061583       -28.8871
  13   2.0000      -0.981858       -26.7177
  14   2.0000      -0.958307       -26.0769
  15   2.0000      -0.837532       -22.7904
  16   2.0000      -0.795866       -21.6566
  17   2.0000      -0.705799       -19.2058
  18   2.0000      -0.679418       -18.4879
  19   2.0000      -0.663460       -18.0537
  20   2.0000      -0.618952       -16.8425
  21   2.0000      -0.602207       -16.3869
  22   2.0000      -0.583334       -15.8733
  23   2.0000      -0.572669       -15.5831
  24   2.0000      -0.563382       -15.3304
  25   2.0000      -0.550892       -14.9905
  26   2.0000      -0.543933       -14.8012
  27   2.0000      -0.528569       -14.3831
  28   2.0000      -0.515956       -14.0399
  29   2.0000      -0.503496       -13.7008
  30   2.0000      -0.498824       -13.5737
  31   2.0000      -0.448909       -12.2154
  32   2.0000      -0.435659       -11.8549
  33   2.0000      -0.429692       -11.6925
  34   0.0000       0.118314         3.2195
  35   0.0000       0.143518         3.9053
  36   0.0000       0.153351         4.1729
  37   0.0000       0.169613         4.6154
  38   0.0000       0.179022         4.8714

MULLIKEN ATOMIC CHARGES
-----------------------
   0 C :   -0.391576
   1 C :    0.062998
   2 O :   -0.324829
   3 C :    0.167893
   4 C :   -0.410688
   5 C :   -0.377508
   6 C :    0.080639
   7 C :   -0.283652
   8 N :   -0.042022
   9 H :    0.142921
  10 H :    0.146020
  11 H :    0.136478
  12 H :    0.093195
  13 H :    0.143080
  14 H :    0.136926
  15 H :    0.135162
  16 H :    0.146912
  17 H :    0.137671
  18 H :    0.142296
  19 H :    0.158085
Sum of atomic charges:    0.0000000

LOEWDIN ATOMIC CHARGES
----------------------
   0 C :   -0.286638
   1 C :   -0.271642
   2 O :    0.183541
   3 C :   -0.328952
   4 C :   -0.265649
   5 C :   -0.261072
   6 C :   -0.164046
   7 C :   -0.177479
   8 N :    0.066265
   9 H :    0.131611
  10 H :    0.132966
  11 H :    0.133005
  12 H :    0.138410
  13 H :    0.133660
  14 H :    0.131331
  15 H :    0.129017
  16 H :    0.133640
  17 H :    0.134364
  18 H :    0.134477
  19 H :    0.173191

  Mayer bond orders larger than 0.1
B(  0-C ,  1-C ) :   0.9248 B(  0-C ,  9-H ) :   0.9305 B(  0-C , 10-H ) :   0.9327
B(  0-C , 11-H ) :   0.9247 B(  1-C ,  2-O ) :   0.9527 B(  1-C ,  6-C ) :   0.8911
B(  1-C , 12-H ) :   0.9173 B(  2-O ,  3-C ) :   0.9193 B(  3-C ,  4-C ) :   0.9235
B(  3-C ,  5-C ) :   0.9312 B(  3-C ,  6-C ) :   0.8306 B(  4-C , 13-H ) :   0.9337
B(  4-C , 14-H ) :   0.9300 B(  4-C , 15-H ) :   0.9297 B(  5-C , 16-H ) :   0.9294
B(  5-C , 17-H ) :   0.9222 B(  5-C , 18-H ) :   0.9317 B(  6-C ,  7-C ) :   0.9361
B(  6-C , 19-H ) :   0.9032 B(  7-C ,  8-N ) :   2.8545

MP2 TOTAL ENERGY:     -402.474338411 Eh
FINAL SINGLE POINT ENERGY      -402.474338410917

DIPOLE MOMENT
-------------
                                X             Y             Z
Electronic contribution:     -3.12626       2.32899       2.67408
Nuclear contribution   :      3.19608      -3.43226      -3.05557
                        -----------------------------------------
Total Dipole Moment    :      0.06982      -1.10327      -0.38149
                        -----------------------------------------
Magnitude (a.u.)       :      1.16945
Magnitude (Debye)      :      2.97251

                             ****ORCA TERMINATED NORMALLY****
TOTAL RUN TIME: 0 days 0 hours 20 minutes 56 seconds 693 msec
