                         Program Version 3.0.3 - RELEASE   -
|  1> ! RI-MP2 RIJK def2-TZVP def2-TZVP/C def2-TZVP/JK TIGHTSCF
|  2> % maxcore 2000
|  3> % mp2 density relaxed end
|  4> *xyz 0 1
|  5>  O        0.1564127016    -0.0282076111    -0.4298134976
|  6>  C        0.0696862782     1.1366993934    -0.1409212194
|  7>  C        1.2326246332     2.0390478307    -0.1858189808
|  8>  N        2.1763561171     2.7049745111    -0.2316700698
|  9>  C       -1.2426587223     1.8076958085     0.3011440790
| 10>  O       -1.2458780093     2.9976247843     0.5295066182
| 11>  C       -2.4264209678     0.9284726521     0.4132681733
| 12>  C       -3.2175912772     1.0576068179     1.6909774187
| 13>  N       -3.7455674554     1.5793911376     0.4461497308
| 14>  H       -2.3695548061    -0.0336351254    -0.0804519788
| 15>  H       -3.7025895460     0.1648258978     2.0735424707
| 16>  H       -2.8416517764     1.7524683967     2.4367697042
| 17>  H       -3.5942744595     2.5882687864     0.4151166616
| 18> *
| 19>
| 20>                          ****END OF INPUT****

CARTESIAN COORDINATES (ANGSTROEM)
---------------------------------
  O      0.156413   -0.028208   -0.429813
  C      0.069686    1.136699   -0.140921
  C      1.232625    2.039048   -0.185819
  N      2.176356    2.704975   -0.231670
  C     -1.242659    1.807696    0.301144
  O     -1.245878    2.997625    0.529507
  C     -2.426421    0.928473    0.413268
  C     -3.217591    1.057607    1.690977
  N     -3.745567    1.579391    0.446150
  H     -2.369555   -0.033635   -0.080452
  H     -3.702590    0.164826    2.073542
  H     -2.841652    1.752468    2.436770
  H     -3.594274    2.588269    0.415117

 Total Charge           Charge          ....    0
 Multiplicity           Mult            ....    1
 Number of Electrons    NEL             ....   64
 Basis Dimension        Dim             ....  303

ORBITAL ENERGIES
----------------

  NO   OCC          E(Eh)            E(eV)
   0   2.0000     -20.642889      -561.7216
   1   2.0000     -20.613716      -560.9277
   2   2.0000     -15.623043      -425.1246
   3   2.0000     -15.599623      -424.4873
   4   2.0000     -11.427171      -310.9491
   5   2.0000     -11.394211      -310.0522
   6   2.0000     -11.310590      -307.7768
   7   2.0000     -11.303053      -307.5717
   8   2.0000     -11.301133      -307.5195
   9   2.0000      -1.483375       -40.3647
  10   2.0000      -1.452357       -39.5206
  11   2.0000      -1.304812       -35.5058
  12   2.0000      -1.256672       -34.1958
  13   2.0000      -1.038220       -28.2514
  14   2.0000      -0.969554       -26.3829
  15   2.0000      -0.911888       -24.8137
  16   2.0000      -0.826606       -22.4931
  17   2.0000      -0.777086       -21.1456
  18   2.0000      -0.746562       -20.3150
  19   2.0000      -0.711261       -19.3544
  20   2.0000      -0.673882       -18.3373
  21   2.0000      -0.641885       -17.4666
  22   2.0000      -0.612105       -16.6562
  23   2.0000      -0.607548       -16.5322
  24   2.0000      -0.573745       -15.6124
  25   2.0000      -0.564127       -15.3507
  26   2.0000      -0.536520       -14.5995
  27   2.0000      -0.515121       -14.0172
  28   2.0000      -0.508470       -13.8362
  29   2.0000      -0.502167       -13.6647
  30   2.0000      -0.469283       -12.7698
  31   2.0000      -0.426986       -11.6189
  32   0.0000       0.000097         0.0026
  33   0.0000       0.110115         2.9964
  34   0.0000       0.141436         3.8487
  35   0.0000       0.146777         3.9940
  36   0.0000       0.161415         4.3923

MULLIKEN ATOMIC CHARGES
-----------------------
   0 O :   -0.210780
   1 C :    0.298630
   2 C :   -0.112093
   3 N :   -0.020688
   4 C :    0.165439
   5 O :   -0.268468
   6 C :   -0.093363
   7 C :   -0.138838
   8 N :   -0.336025
   9 H :    0.174724
  10 H :    0.145708
  11 H :    0.151830
  12 H :    0.243924
Sum of atomic charges:    0.0000000

LOEWDIN ATOMIC CHARGES
----------------------
   0 O :    0.237163
   1 C :   -0.273377
   2 C :   -0.129792
   3 N :    0.120316
   4 C :   -0.295424
   5 O :    0.194941
   6 C :   -0.243992
   7 C :   -0.231793
   8 N :    0.021946
   9 H :    0.157614
  10 H :    0.132635
  11 H :    0.131250
  12 H :    0.178512

  Mayer bond orders larger than 0.1
B(  0-O ,  1-C ) :   1.9247 B(  1-C ,  2-C ) :   0.9195 B(  1-C ,  4-C ) :   0.8481
B(  2-C ,  3-N ) :   2.7705 B(  4-C ,  5-O ) :   1.8842 B(  4-C ,  6-C ) :   0.9991
B(  6-C ,  7-C ) :   0.8767 B(  6-C ,  8-N ) :   0.9259 B(  6-C ,  9-H ) :   0.8996
B(  7-C ,  8-N ) :   0.9246 B(  7-C , 10-H ) :   0.9253 B(  7-C , 11-H ) :   0.9120
B(  8-N , 12-H ) :   0.8611

MP2 TOTAL ENERGY:     -451.990879753 Eh
FINAL SINGLE POINT ENERGY      -451.990879752860

DIPOLE MOMENT
-------------
                                X             Y             Z
Electronic contribution:      7.19087       1.16686      -2.91476
Nuclear contribution   :     -8.11927      -1.72008       3.49509
                        -----------------------------------------
Total Dipole Moment    :     -0.92841      -0.55323       0.58033
                        -----------------------------------------
Magnitude (a.u.)       :      1.22669
Magnitude (Debye)      :      3.11801

                             ****ORCA TERMINATED NORMALLY****
TOTAL RUN TIME: 0 days 0 hours 12 minutes 27 seconds 427 msec
