                         Program Version 3.0.3 - RELEASE   -
|  1> ! RI-MP2 RIJK def2-TZVP def2-TZVP/C def2-TZVP/JK TIGHTSCF
|  2> % maxcore 2000
|  3> % mp2 density relaxed end
|  4> *xyz 0 1
|  5>  O       -0.1269540634     0.0170981122     0.2668236628
|  6>  C       -0.0891332461     1.2109494312     0.1080454157
|  7>  C       -1.3107238474     2.1049495364     0.1364487396
|  8>  C       -1.7976272810     2.4535762234    -1.2885586112
|  9>  C       -0.6480754089     2.9118617764    -2.1982246973
| 10>  O        0.2648862378     3.7397285772    -1.4872463801
| 11>  C        1.4430031141     3.0957785589    -1.0688973557
| 12>  C        1.3019990931     1.8821962669    -0.1366770044
| 13>  O        2.2775556553     1.4168145660     0.3949032826
| 14>  H       -2.0975428366     1.5890339372     0.6914320731
| 15>  H       -1.0580418685     3.0356558209     0.6555355511
| 16>  H       -2.2865335665     1.5831894918    -1.7395510696
| 17>  H       -2.5494575260     3.2445189721    -1.2095408617
| 18>  H       -0.1197686652     2.0446796960    -2.6215817691
| 19>  H       -1.0350412404     3.4957241770    -3.0397889448
| 20>  H        2.0380838775     2.7467683209    -1.9301139313
| 21>  H        2.0471563721     3.8419439555    -0.5441893597
| 22> *
| 23>
| 24>                          ****END OF INPUT****

CARTESIAN COORDINATES (ANGSTROEM)
---------------------------------
  O     -0.126954    0.017098    0.266824
  C     -0.089133    1.210949    0.108045
  C     -1.310724    2.104950    0.136449
  C     -1.797627    2.453576   -1.288559
  C     -0.648075    2.911862   -2.198225
  O      0.264886    3.739729   -1.487246
  C      1.443003    3.095779   -1.068897
  C      1.301999    1.882196   -0.136677
  O      2.277556    1.416815    0.394903
  H     -2.097543    1.589034    0.691432
  H     -1.058042    3.035656    0.655536
  H     -2.286534    1.583189   -1.739551
  H     -2.549458    3.244519   -1.209541
  H     -0.119769    2.044680   -2.621582
  H     -1.035041    3.495724   -3.039789
  H      2.038084    2.746768   -1.930114
  H      2.047156    3.841944   -0.544189

 Total Charge           Charge          ....    0
 Multiplicity           Mult            ....    1
 Number of Electrons    NEL             ....   68
 Basis Dimension        Dim             ....  327

ORBITAL ENERGIES
----------------

  NO   OCC          E(Eh)            E(eV)
   0   2.0000     -20.586088      -560.1759
   1   2.0000     -20.575175      -559.8790
   2   2.0000     -20.574329      -559.8560
   3   2.0000     -11.353045      -308.9321
   4   2.0000     -11.351350      -308.8859
   5   2.0000     -11.311413      -307.7992
   6   2.0000     -11.303792      -307.5918
   7   2.0000     -11.256507      -306.3051
   8   2.0000     -11.255603      -306.2805
   9   2.0000      -1.431189       -38.9446
  10   2.0000      -1.407638       -38.3038
  11   2.0000      -1.398689       -38.0603
  12   2.0000      -1.097885       -29.8750
  13   2.0000      -1.035524       -28.1780
  14   2.0000      -0.948290       -25.8043
  15   2.0000      -0.905447       -24.6385
  16   2.0000      -0.821701       -22.3596
  17   2.0000      -0.745591       -20.2886
  18   2.0000      -0.703569       -19.1451
  19   2.0000      -0.696637       -18.9564
  20   2.0000      -0.685115       -18.6429
  21   2.0000      -0.669623       -18.2214
  22   2.0000      -0.635341       -17.2885
  23   2.0000      -0.624261       -16.9870
  24   2.0000      -0.602552       -16.3963
  25   2.0000      -0.582791       -15.8585
  26   2.0000      -0.562382       -15.3032
  27   2.0000      -0.553265       -15.0551
  28   2.0000      -0.513841       -13.9823
  29   2.0000      -0.501755       -13.6534
  30   2.0000      -0.494893       -13.4667
  31   2.0000      -0.492342       -13.3973
  32   2.0000      -0.453778       -12.3479
  33   2.0000      -0.399623       -10.8743
  34   0.0000       0.069016         1.8780
  35   0.0000       0.127472         3.4687
  36   0.0000       0.144020         3.9190
  37   0.0000       0.154487         4.2038
  38   0.0000       0.173280         4.7152

MULLIKEN ATOMIC CHARGES
-----------------------
   0 O :   -0.236981
   1 C :    0.172729
   2 C :   -0.204659
   3 C :   -0.225414
   4 C :   -0.101308
   5 O :   -0.317125
   6 C :   -0.079190
   7 C :    0.130938
   8 O :   -0.240110
   9 H :    0.144257
  10 H :    0.138776
  11 H :    0.130421
  12 H :    0.129817
  13 H :    0.124330
  14 H :    0.138429
  15 H :    0.140825
  16 H :    0.154266
Sum of atomic charges:   -0.0000000

LOEWDIN ATOMIC CHARGES
----------------------
   0 O :    0.193915
   1 C :   -0.297337
   2 C :   -0.230336
   3 C :   -0.258046
   4 C :   -0.309232
   5 O :    0.160445
   6 C :   -0.306873
   7 C :   -0.291279
   8 O :    0.194393
   9 H :    0.151349
  10 H :    0.154664
  11 H :    0.145490
  12 H :    0.142312
  13 H :    0.128315
  14 H :    0.131383
  15 H :    0.141451
  16 H :    0.149387

  Mayer bond orders larger than 0.1
B(  0-O ,  1-C ) :   2.0002 B(  1-C ,  2-C ) :   0.8856 B(  1-C ,  7-C ) :   0.8682
B(  2-C ,  3-C ) :   0.9126 B(  2-C ,  9-H ) :   0.9170 B(  2-C , 10-H ) :   0.9096
B(  3-C ,  4-C ) :   0.9345 B(  3-C , 11-H ) :   0.9227 B(  3-C , 12-H ) :   0.9245
B(  4-C ,  5-O ) :   0.9013 B(  4-C , 13-H ) :   0.9378 B(  4-C , 14-H ) :   0.9312
B(  5-O ,  6-C ) :   0.9404 B(  6-C ,  7-C ) :   0.8478 B(  6-C , 15-H ) :   0.9323
B(  6-C , 16-H ) :   0.9160 B(  7-C ,  8-O ) :   1.9747

MP2 TOTAL ENERGY:     -458.237714214 Eh
FINAL SINGLE POINT ENERGY      -458.237714213748

DIPOLE MOMENT
-------------
                                X             Y             Z
Electronic contribution:      5.04629      -3.55982       3.87141
Nuclear contribution   :     -5.91016       4.49738      -4.64344
                        -----------------------------------------
Total Dipole Moment    :     -0.86386       0.93756      -0.77203
                        -----------------------------------------
Magnitude (a.u.)       :      1.49040
Magnitude (Debye)      :      3.78830

                             ****ORCA TERMINATED NORMALLY****
TOTAL RUN TIME: 0 days 0 hours 14 minutes 57 seconds 403 msec
