                         Program Version 3.0.3 - RELEASE   -
|  1> ! RI-MP2 RIJK def2-TZVP def2-TZVP/C def2-TZVP/JK TIGHTSCF
|  2> % maxcore 2000
|  3> % mp2 density relaxed end
|  4> *xyz 0 1
|  5>  C       -0.5952361605     1.4702594195    -0.1339426150
|  6>  O       -0.5176309600     0.0718735167    -0.2513860268
|  7>  C        0.4585965766    -0.3462071052    -1.1876213068
|  8>  C        0.4657421779    -1.8551116705    -1.1937823663
|  9>  C       -0.3679457161    -2.7416194981    -2.0730147360
| 10>  C       -0.4445470068    -2.2135432806    -3.5125891331
| 11>  C        1.1130066309    -2.3542807777    -3.6320616049
| 12>  C        1.9749366776    -1.2090077993    -4.1532986231
| 13>  C        1.1685010124    -2.7796397061    -2.1547186478
| 14>  H        0.3591539560     1.9089603863     0.2007428152
| 15>  H       -0.8717054914     1.9488989945    -1.0876867852
| 16>  H       -1.3652119871     1.6960799235     0.6081967505
| 17>  H        0.2306203193     0.0738575428    -2.1782354704
| 18>  H        1.4516164609     0.0396925130    -0.8962567777
| 19>  H        0.5226352753    -2.2361809354    -0.1752590067
| 20>  H       -1.0401488444    -3.4802770554    -1.6533488300
| 21>  H       -0.9786509452    -2.8815434256    -4.1914360235
| 22>  H       -0.8595127286    -1.2073032511    -3.6334555013
| 23>  H        1.3206025581    -3.2414816405    -4.2402541805
| 24>  H        1.8156949187    -0.2789791787    -3.6013717002
| 25>  H        3.0390726471    -1.4595833572    -4.0762744052
| 26>  H        1.7588371810    -1.0094272164    -5.2091780648
| 27>  H        1.8459085384    -3.5369888685    -1.7744348404
| 28> *
| 29>
| 30>                          ****END OF INPUT****

CARTESIAN COORDINATES (ANGSTROEM)
---------------------------------
  C     -0.595236    1.470259   -0.133943
  O     -0.517631    0.071874   -0.251386
  C      0.458597   -0.346207   -1.187621
  C      0.465742   -1.855112   -1.193782
  C     -0.367946   -2.741619   -2.073015
  C     -0.444547   -2.213543   -3.512589
  C      1.113007   -2.354281   -3.632062
  C      1.974937   -1.209008   -4.153299
  C      1.168501   -2.779640   -2.154719
  H      0.359154    1.908960    0.200743
  H     -0.871705    1.948899   -1.087687
  H     -1.365212    1.696080    0.608197
  H      0.230620    0.073858   -2.178235
  H      1.451616    0.039693   -0.896257
  H      0.522635   -2.236181   -0.175259
  H     -1.040149   -3.480277   -1.653349
  H     -0.978651   -2.881543   -4.191436
  H     -0.859513   -1.207303   -3.633456
  H      1.320603   -3.241482   -4.240254
  H      1.815695   -0.278979   -3.601372
  H      3.039073   -1.459583   -4.076274
  H      1.758837   -1.009427   -5.209178
  H      1.845909   -3.536989   -1.774435

 Total Charge           Charge          ....    0
 Multiplicity           Mult            ....    1
 Number of Electrons    NEL             ....   70
 Basis Dimension        Dim             ....  363

ORBITAL ENERGIES
----------------

  NO   OCC          E(Eh)            E(eV)
   0   2.0000     -20.550017      -559.1944
   1   2.0000     -11.270777      -306.6934
   2   2.0000     -11.267157      -306.5949
   3   2.0000     -11.230025      -305.5845
   4   2.0000     -11.227215      -305.5081
   5   2.0000     -11.226121      -305.4783
   6   2.0000     -11.225380      -305.4581
   7   2.0000     -11.220060      -305.3133
   8   2.0000     -11.211102      -305.0696
   9   2.0000      -1.371006       -37.3070
  10   2.0000      -1.184592       -32.2344
  11   2.0000      -1.027072       -27.9481
  12   2.0000      -0.977495       -26.5990
  13   2.0000      -0.931278       -25.3414
  14   2.0000      -0.879174       -23.9235
  15   2.0000      -0.847845       -23.0710
  16   2.0000      -0.755004       -20.5447
  17   2.0000      -0.719080       -19.5672
  18   2.0000      -0.695050       -18.9133
  19   2.0000      -0.656104       -17.8535
  20   2.0000      -0.638833       -17.3835
  21   2.0000      -0.631388       -17.1809
  22   2.0000      -0.592912       -16.1340
  23   2.0000      -0.575361       -15.6564
  24   2.0000      -0.570888       -15.5346
  25   2.0000      -0.542880       -14.7725
  26   2.0000      -0.537813       -14.6346
  27   2.0000      -0.514250       -13.9934
  28   2.0000      -0.488621       -13.2961
  29   2.0000      -0.476744       -12.9729
  30   2.0000      -0.453116       -12.3299
  31   2.0000      -0.439619       -11.9626
  32   2.0000      -0.421314       -11.4645
  33   2.0000      -0.396758       -10.7963
  34   2.0000      -0.368787       -10.0352
  35   0.0000       0.135769         3.6945
  36   0.0000       0.149575         4.0702
  37   0.0000       0.163377         4.4457
  38   0.0000       0.174675         4.7532
  39   0.0000       0.184402         5.0178

MULLIKEN ATOMIC CHARGES
-----------------------
   0 C :   -0.218909
   1 O :   -0.295044
   2 C :   -0.075947
   3 C :   -0.082972
   4 C :   -0.112460
   5 C :   -0.266047
   6 C :   -0.074811
   7 C :   -0.392295
   8 C :   -0.107018
   9 H :    0.108910
  10 H :    0.108127
  11 H :    0.139182
  12 H :    0.093357
  13 H :    0.097283
  14 H :    0.116152
  15 H :    0.128947
  16 H :    0.123543
  17 H :    0.118652
  18 H :    0.096226
  19 H :    0.111908
  20 H :    0.129449
  21 H :    0.128794
  22 H :    0.124973
Sum of atomic charges:    0.0000000

LOEWDIN ATOMIC CHARGES
----------------------
   0 C :   -0.366213
   1 O :    0.137309
   2 C :   -0.308866
   3 C :   -0.196015
   4 C :   -0.158064
   5 C :   -0.196359
   6 C :   -0.234770
   7 C :   -0.300651
   8 C :   -0.146348
   9 H :    0.100135
  10 H :    0.100024
  11 H :    0.113081
  12 H :    0.119467
  13 H :    0.121971
  14 H :    0.164693
  15 H :    0.134154
  16 H :    0.133232
  17 H :    0.127453
  18 H :    0.153582
  19 H :    0.119229
  20 H :    0.125145
  21 H :    0.123795
  22 H :    0.134018

  Mayer bond orders larger than 0.1
B(  0-C ,  1-O ) :   0.9244 B(  0-C ,  9-H ) :   0.9367 B(  0-C , 10-H ) :   0.9358
B(  0-C , 11-H ) :   0.9401 B(  1-O ,  2-C ) :   0.9596 B(  2-C ,  3-C ) :   0.9317
B(  2-C , 12-H ) :   0.9184 B(  2-C , 13-H ) :   0.9255 B(  3-C ,  4-C ) :   0.8844
B(  3-C ,  8-C ) :   0.8681 B(  3-C , 14-H ) :   0.9302 B(  4-C ,  5-C ) :   0.9266
B(  4-C ,  8-C ) :   0.8226 B(  4-C , 15-H ) :   0.9230 B(  5-C ,  6-C ) :   0.9567
B(  5-C , 16-H ) :   0.9261 B(  5-C , 17-H ) :   0.9241 B(  6-C ,  7-C ) :   0.9225
B(  6-C ,  8-C ) :   0.9160 B(  6-C , 18-H ) :   0.9269 B(  7-C , 19-H ) :   0.9319
B(  7-C , 20-H ) :   0.9389 B(  7-C , 21-H ) :   0.9367 B(  8-C , 22-H ) :   0.9250

MP2 TOTAL ENERGY:     -387.564983641 Eh
FINAL SINGLE POINT ENERGY      -387.564983641204

DIPOLE MOMENT
-------------
                                X             Y             Z
Electronic contribution:     -1.90815      -3.39861       3.30424
Nuclear contribution   :      2.15609       3.55114      -3.59094
                        -----------------------------------------
Total Dipole Moment    :      0.24794       0.15254      -0.28670
                        -----------------------------------------
Magnitude (a.u.)       :      0.40858
Magnitude (Debye)      :      1.03853

                             ****ORCA TERMINATED NORMALLY****
TOTAL RUN TIME: 0 days 0 hours 19 minutes 24 seconds 497 msec
