                         Program Version 3.0.3 - RELEASE   -
|  1> ! RI-MP2 RIJK def2-TZVP def2-TZVP/C def2-TZVP/JK TIGHTSCF
|  2> % maxcore 2000
|  3> % mp2 density relaxed end
|  4> *xyz 0 1
|  5>  C        0.1059678119     1.5240380427     0.1121537073
|  6>  C        0.0597629002     0.0688738802     0.0958751986
|  7>  C        0.0226541841    -1.1360412647     0.0846557273
|  8>  C       -0.0047906725    -2.5704574751     0.0565696604
|  9>  C       -0.6258643000    -3.3578802109     1.2021952575
| 10>  C       -1.3087878600    -3.3379984210    -0.1375916141
| 11>  C       -2.6224670484    -2.6162042627    -0.3313466605
| 12>  C       -3.8181261667    -3.4628431334     0.0916932077
| 13>  O       -4.9942682660    -2.7055398394    -0.1516680032
| 14>  H        1.0707033808     1.8928516380    -0.2541763149
| 15>  H       -0.6748015417     1.9578117919    -0.5228422993
| 16>  H       -0.0337969974     1.9190209117     1.1248603677
| 17>  H        0.8680027022    -3.0278936690    -0.4015974486
| 18>  H       -0.1188809330    -4.2597183493     1.5270718020
| 19>  H       -1.0718553487    -2.7760448945     2.0015728363
| 20>  H       -1.2000063069    -4.2429496213    -0.7311853368
| 21>  H       -2.6270933686    -1.6831797568     0.2411720284
| 22>  H       -2.7491582045    -2.3355080804    -1.3839278740
| 23>  H       -3.8275563356    -4.4070394154    -0.4782545904
| 24>  H       -3.7248957704    -3.7287131036     1.1568941143
| 25>  H       -5.7519298888    -3.2316826271     0.1193942744
| 26> *
| 27>
| 28>                          ****END OF INPUT****

CARTESIAN COORDINATES (ANGSTROEM)
---------------------------------
  C      0.105968    1.524038    0.112154
  C      0.059763    0.068874    0.095875
  C      0.022654   -1.136041    0.084656
  C     -0.004791   -2.570457    0.056570
  C     -0.625864   -3.357880    1.202195
  C     -1.308788   -3.337998   -0.137592
  C     -2.622467   -2.616204   -0.331347
  C     -3.818126   -3.462843    0.091693
  O     -4.994268   -2.705540   -0.151668
  H      1.070703    1.892852   -0.254176
  H     -0.674802    1.957812   -0.522842
  H     -0.033797    1.919021    1.124860
  H      0.868003   -3.027894   -0.401597
  H     -0.118881   -4.259718    1.527072
  H     -1.071855   -2.776045    2.001573
  H     -1.200006   -4.242950   -0.731185
  H     -2.627093   -1.683180    0.241172
  H     -2.749158   -2.335508   -1.383928
  H     -3.827556   -4.407039   -0.478255
  H     -3.724896   -3.728713    1.156894
  H     -5.751930   -3.231683    0.119394

 Total Charge           Charge          ....    0
 Multiplicity           Mult            ....    1
 Number of Electrons    NEL             ....   68
 Basis Dimension        Dim             ....  351

ORBITAL ENERGIES
----------------

  NO   OCC          E(Eh)            E(eV)
   0   2.0000     -20.552556      -559.2635
   1   2.0000     -11.272532      -306.7412
   2   2.0000     -11.249946      -306.1266
   3   2.0000     -11.240640      -305.8734
   4   2.0000     -11.239149      -305.8328
   5   2.0000     -11.231301      -305.6192
   6   2.0000     -11.217145      -305.2340
   7   2.0000     -11.215855      -305.1989
   8   2.0000     -11.211769      -305.0878
   9   2.0000      -1.356419       -36.9100
  10   2.0000      -1.159988       -31.5649
  11   2.0000      -1.047498       -28.5039
  12   2.0000      -1.015400       -27.6304
  13   2.0000      -0.954559       -25.9749
  14   2.0000      -0.859666       -23.3927
  15   2.0000      -0.844359       -22.9762
  16   2.0000      -0.782465       -21.2920
  17   2.0000      -0.702703       -19.1215
  18   2.0000      -0.677138       -18.4259
  19   2.0000      -0.650973       -17.7139
  20   2.0000      -0.634078       -17.2541
  21   2.0000      -0.612917       -16.6783
  22   2.0000      -0.581160       -15.8142
  23   2.0000      -0.579594       -15.7716
  24   2.0000      -0.574684       -15.6380
  25   2.0000      -0.543180       -14.7807
  26   2.0000      -0.529729       -14.4146
  27   2.0000      -0.501834       -13.6556
  28   2.0000      -0.495039       -13.4707
  29   2.0000      -0.454089       -12.3564
  30   2.0000      -0.441257       -12.0072
  31   2.0000      -0.429688       -11.6924
  32   2.0000      -0.357335        -9.7236
  33   2.0000      -0.338977        -9.2240
  34   0.0000       0.137039         3.7290
  35   0.0000       0.142268         3.8713
  36   0.0000       0.149234         4.0609
  37   0.0000       0.166760         4.5378
  38   0.0000       0.176870         4.8129

MULLIKEN ATOMIC CHARGES
-----------------------
   0 C :   -0.482748
   1 C :    0.051011
   2 C :   -0.007013
   3 C :   -0.245995
   4 C :   -0.261701
   5 C :   -0.082032
   6 C :   -0.183827
   7 C :   -0.069688
   8 O :   -0.464086
   9 H :    0.160505
  10 H :    0.162241
  11 H :    0.159739
  12 H :    0.133024
  13 H :    0.134399
  14 H :    0.134976
  15 H :    0.117349
  16 H :    0.122722
  17 H :    0.120882
  18 H :    0.088520
  19 H :    0.097496
  20 H :    0.314226
Sum of atomic charges:   -0.0000000

LOEWDIN ATOMIC CHARGES
----------------------
   0 C :   -0.297694
   1 C :   -0.102468
   2 C :   -0.074161
   3 C :   -0.194250
   4 C :   -0.188583
   5 C :   -0.196437
   6 C :   -0.245567
   7 C :   -0.347808
   8 O :   -0.052474
   9 H :    0.140625
  10 H :    0.140003
  11 H :    0.139433
  12 H :    0.162039
  13 H :    0.131595
  14 H :    0.140172
  15 H :    0.149414
  16 H :    0.150575
  17 H :    0.145875
  18 H :    0.113483
  19 H :    0.114961
  20 H :    0.171269

  Mayer bond orders larger than 0.1
B(  0-C ,  1-C ) :   0.8588 B(  0-C ,  9-H ) :   0.9492 B(  0-C , 10-H ) :   0.9467
B(  0-C , 11-H ) :   0.9474 B(  1-C ,  2-C ) :   2.6373 B(  1-C ,  3-C ) :  -0.1290
B(  2-C ,  3-C ) :   1.1322 B(  3-C ,  4-C ) :   0.8524 B(  3-C ,  5-C ) :   0.8606
B(  3-C , 12-H ) :   0.9406 B(  4-C ,  5-C ) :   0.8852 B(  4-C , 13-H ) :   0.9257
B(  4-C , 14-H ) :   0.9275 B(  5-C ,  6-C ) :   0.9214 B(  5-C , 15-H ) :   0.9223
B(  6-C ,  7-C ) :   0.9345 B(  6-C , 16-H ) :   0.9191 B(  6-C , 17-H ) :   0.9260
B(  7-C ,  8-O ) :   1.0185 B(  7-C , 18-H ) :   0.9304 B(  7-C , 19-H ) :   0.9304
B(  8-O , 20-H ) :   0.8496

MP2 TOTAL ENERGY:     -386.365027410 Eh
FINAL SINGLE POINT ENERGY      -386.365027409785

DIPOLE MOMENT
-------------
                                X             Y             Z
Electronic contribution:      0.61684      -0.38179      -0.72501
Nuclear contribution   :     -0.68809      -0.13247       0.96893
                        -----------------------------------------
Total Dipole Moment    :     -0.07125      -0.51426       0.24392
                        -----------------------------------------
Magnitude (a.u.)       :      0.57362
Magnitude (Debye)      :      1.45803

                             ****ORCA TERMINATED NORMALLY****
TOTAL RUN TIME: 0 days 0 hours 16 minutes 36 seconds 972 msec
