                         Program Version 3.0.3 - RELEASE   -
|  1> ! RI-MP2 RIJK def2-TZVP def2-TZVP/C def2-TZVP/JK TIGHTSCF
|  2> % maxcore 2000
|  3> % mp2 density relaxed end
|  4> *xyz 0 1
|  5>  C        0.0371652486     1.5570828607    -0.0541719638
|  6>  C        0.0387330269     0.0260280351    -0.0204537455
|  7>  C       -1.4078296078    -0.4995274224    -0.0217956259
|  8>  C        0.8119111313    -0.5999111759    -1.2170564872
|  9>  C        1.2978781242    -1.9618330381    -0.7201816314
| 10>  C        2.5797443424    -1.9854073778     0.0664230602
| 11>  C        1.2623781920    -1.9348333561     0.7979536877
| 12>  C        0.7637138128    -0.5617102847     1.2401081643
| 13>  O        1.8733602675     0.2195775296     1.6782112492
| 14>  H        1.0561151016     1.9545714910    -0.0516696718
| 15>  H       -0.4614523323     1.9252635398    -0.9573222981
| 16>  H       -0.5023930673     1.9790418185     0.8038310687
| 17>  H       -1.9388253172    -0.1755407639    -0.9233065027
| 18>  H       -1.4329589391    -1.5938333775     0.0055090406
| 19>  H       -1.9660946616    -0.1300985959     0.8458925479
| 20>  H        0.1676684530    -0.6924794732    -2.0971636225
| 21>  H        1.6538430248     0.0385548143    -1.5077455001
| 22>  H        1.0063314702    -2.8535443084    -1.2635404492
| 23>  H        3.1296198029    -2.9194836279     0.1127244538
| 24>  H        3.1982125687    -1.0955641299     0.0790885875
| 25>  H        0.9583910160    -2.8008557197     1.3737424385
| 26>  H        0.0452883312    -0.6657780739     2.0663886583
| 27>  H        1.5331875212     1.0612128866     1.9969568116
| 28> *
| 29>
| 30>                          ****END OF INPUT****

CARTESIAN COORDINATES (ANGSTROEM)
---------------------------------
  C      0.037165    1.557083   -0.054172
  C      0.038733    0.026028   -0.020454
  C     -1.407830   -0.499527   -0.021796
  C      0.811911   -0.599911   -1.217056
  C      1.297878   -1.961833   -0.720182
  C      2.579744   -1.985407    0.066423
  C      1.262378   -1.934833    0.797954
  C      0.763714   -0.561710    1.240108
  O      1.873360    0.219578    1.678211
  H      1.056115    1.954571   -0.051670
  H     -0.461452    1.925264   -0.957322
  H     -0.502393    1.979042    0.803831
  H     -1.938825   -0.175541   -0.923307
  H     -1.432959   -1.593833    0.005509
  H     -1.966095   -0.130099    0.845893
  H      0.167668   -0.692479   -2.097164
  H      1.653843    0.038555   -1.507746
  H      1.006331   -2.853544   -1.263540
  H      3.129620   -2.919484    0.112724
  H      3.198213   -1.095564    0.079089
  H      0.958391   -2.800856    1.373742
  H      0.045288   -0.665778    2.066389
  H      1.533188    1.061213    1.996957

 Total Charge           Charge          ....    0
 Multiplicity           Mult            ....    1
 Number of Electrons    NEL             ....   70
 Basis Dimension        Dim             ....  363

ORBITAL ENERGIES
----------------

  NO   OCC          E(Eh)            E(eV)
   0   2.0000     -20.548792      -559.1611
   1   2.0000     -11.275010      -306.8086
   2   2.0000     -11.232310      -305.6467
   3   2.0000     -11.221756      -305.3595
   4   2.0000     -11.218688      -305.2760
   5   2.0000     -11.215373      -305.1858
   6   2.0000     -11.214676      -305.1668
   7   2.0000     -11.214658      -305.1664
   8   2.0000     -11.213193      -305.1265
   9   2.0000      -1.355981       -36.8981
  10   2.0000      -1.162703       -31.6388
  11   2.0000      -1.075095       -29.2548
  12   2.0000      -0.949939       -25.8492
  13   2.0000      -0.936565       -25.4852
  14   2.0000      -0.919452       -25.0196
  15   2.0000      -0.797240       -21.6940
  16   2.0000      -0.757145       -20.6030
  17   2.0000      -0.740063       -20.1381
  18   2.0000      -0.696626       -18.9561
  19   2.0000      -0.662255       -18.0209
  20   2.0000      -0.619481       -16.8569
  21   2.0000      -0.610747       -16.6193
  22   2.0000      -0.590559       -16.0699
  23   2.0000      -0.567210       -15.4346
  24   2.0000      -0.554536       -15.0897
  25   2.0000      -0.531429       -14.4609
  26   2.0000      -0.524107       -14.2617
  27   2.0000      -0.519549       -14.1376
  28   2.0000      -0.509703       -13.8697
  29   2.0000      -0.479975       -13.0608
  30   2.0000      -0.458453       -12.4751
  31   2.0000      -0.448840       -12.2136
  32   2.0000      -0.414461       -11.2781
  33   2.0000      -0.404146       -10.9974
  34   2.0000      -0.387750       -10.5512
  35   0.0000       0.125858         3.4248
  36   0.0000       0.151936         4.1344
  37   0.0000       0.167689         4.5631
  38   0.0000       0.174539         4.7494
  39   0.0000       0.189744         5.1632

MULLIKEN ATOMIC CHARGES
-----------------------
   0 C :   -0.509239
   1 C :    0.219560
   2 C :   -0.474819
   3 C :   -0.275187
   4 C :   -0.094776
   5 C :   -0.312900
   6 C :   -0.087270
   7 C :   -0.004374
   8 O :   -0.450232
   9 H :    0.150649
  10 H :    0.136852
  11 H :    0.133660
  12 H :    0.130611
  13 H :    0.148456
  14 H :    0.127346
  15 H :    0.117815
  16 H :    0.123082
  17 H :    0.120004
  18 H :    0.126067
  19 H :    0.144011
  20 H :    0.129943
  21 H :    0.086141
  22 H :    0.314603
Sum of atomic charges:   -0.0000000

LOEWDIN ATOMIC CHARGES
----------------------
   0 C :   -0.287264
   1 C :   -0.293837
   2 C :   -0.268909
   3 C :   -0.190667
   4 C :   -0.196095
   5 C :   -0.198477
   6 C :   -0.179990
   7 C :   -0.276166
   8 O :   -0.010378
   9 H :    0.125032
  10 H :    0.129294
  11 H :    0.123357
  12 H :    0.125002
  13 H :    0.131292
  14 H :    0.123135
  15 H :    0.140267
  16 H :    0.142826
  17 H :    0.139776
  18 H :    0.133129
  19 H :    0.139077
  20 H :    0.141429
  21 H :    0.137860
  22 H :    0.170308

  Mayer bond orders larger than 0.1
B(  0-C ,  1-C ) :   0.8370 B(  0-C ,  9-H ) :   0.9426 B(  0-C , 10-H ) :   0.9336
B(  0-C , 11-H ) :   0.9408 B(  1-C ,  2-C ) :   0.8931 B(  1-C ,  3-C ) :   0.8962
B(  1-C ,  7-C ) :   0.8797 B(  2-C , 12-H ) :   0.9367 B(  2-C , 13-H ) :   0.9369
B(  2-C , 14-H ) :   0.9362 B(  3-C ,  4-C ) :   0.9263 B(  3-C , 15-H ) :   0.9282
B(  3-C , 16-H ) :   0.9165 B(  4-C ,  5-C ) :   0.9146 B(  4-C ,  6-C ) :   0.8399
B(  4-C , 17-H ) :   0.9249 B(  5-C ,  6-C ) :   0.9057 B(  5-C , 18-H ) :   0.9292
B(  5-C , 19-H ) :   0.9100 B(  6-C ,  7-C ) :   0.8919 B(  6-C , 20-H ) :   0.9220
B(  7-C ,  8-O ) :   1.0550 B(  7-C , 21-H ) :   0.9504 B(  8-O , 22-H ) :   0.8445

MP2 TOTAL ENERGY:     -387.624956313 Eh
FINAL SINGLE POINT ENERGY      -387.624956312649

DIPOLE MOMENT
-------------
                                X             Y             Z
Electronic contribution:      3.90017      -1.94851       2.40685
Nuclear contribution   :     -4.46155       2.12351      -2.45868
                        -----------------------------------------
Total Dipole Moment    :     -0.56137       0.17500      -0.05183
                        -----------------------------------------
Magnitude (a.u.)       :      0.59030
Magnitude (Debye)      :      1.50042

                             ****ORCA TERMINATED NORMALLY****
TOTAL RUN TIME: 0 days 0 hours 22 minutes 29 seconds 468 msec
