                         Program Version 3.0.3 - RELEASE   -
|  1> ! RI-MP2 RIJK def2-TZVP def2-TZVP/C def2-TZVP/JK TIGHTSCF
|  2> % maxcore 2000
|  3> % mp2 density relaxed end
|  4> *xyz 0 1
|  5>  N        0.1574637657     1.3411203191     0.1585988883
|  6>  C       -0.0551601996    -0.0072807945     0.0472545689
|  7>  C       -1.1756878453    -0.8058422300     0.0014001219
|  8>  N       -0.7791676869    -2.1158794217    -0.0281461685
|  9>  C        0.5203069370    -2.0929279444    -0.0023437723
| 10>  O        1.0286025008    -0.8012104401     0.0457629553
| 11>  C        1.5052614799    -3.1682708438    -0.0195642985
| 12>  O        1.2394881355    -4.3467079754    -0.0619171578
| 13>  H        1.0481919512     1.6627012765    -0.1926337843
| 14>  H       -0.6153028493     1.9189374245    -0.1354792042
| 15>  H       -2.2125498611    -0.5109590715    -0.0109051167
| 16>  H        2.5505346022    -2.7925324687     0.0111515079
| 17> *
| 18>
| 19>                          ****END OF INPUT****

CARTESIAN COORDINATES (ANGSTROEM)
---------------------------------
  N      0.157464    1.341120    0.158599
  C     -0.055160   -0.007281    0.047255
  C     -1.175688   -0.805842    0.001400
  N     -0.779168   -2.115879   -0.028146
  C      0.520307   -2.092928   -0.002344
  O      1.028603   -0.801210    0.045763
  C      1.505261   -3.168271   -0.019564
  O      1.239488   -4.346708   -0.061917
  H      1.048192    1.662701   -0.192634
  H     -0.615303    1.918937   -0.135479
  H     -2.212550   -0.510959   -0.010905
  H      2.550535   -2.792532    0.011152

 Total Charge           Charge          ....    0
 Multiplicity           Mult            ....    1
 Number of Electrons    NEL             ....   58
 Basis Dimension        Dim             ....  272

ORBITAL ENERGIES
----------------

  NO   OCC          E(Eh)            E(eV)
   0   2.0000     -20.659404      -562.1709
   1   2.0000     -20.561806      -559.5152
   2   2.0000     -15.608959      -424.7414
   3   2.0000     -15.595757      -424.3821
   4   2.0000     -11.367040      -309.3129
   5   2.0000     -11.345807      -308.7351
   6   2.0000     -11.332599      -308.3757
   7   2.0000     -11.261262      -306.4345
   8   2.0000      -1.512185       -41.1486
   9   2.0000      -1.397280       -38.0219
  10   2.0000      -1.262564       -34.3561
  11   2.0000      -1.245378       -33.8885
  12   2.0000      -1.044607       -28.4252
  13   2.0000      -0.919699       -25.0263
  14   2.0000      -0.849640       -23.1199
  15   2.0000      -0.808967       -22.0131
  16   2.0000      -0.746813       -20.3218
  17   2.0000      -0.713119       -19.4049
  18   2.0000      -0.696100       -18.9418
  19   2.0000      -0.688423       -18.7329
  20   2.0000      -0.639186       -17.3931
  21   2.0000      -0.625401       -17.0180
  22   2.0000      -0.597017       -16.2457
  23   2.0000      -0.550209       -14.9719
  24   2.0000      -0.511312       -13.9135
  25   2.0000      -0.480475       -13.0744
  26   2.0000      -0.470714       -12.8088
  27   2.0000      -0.443576       -12.0703
  28   2.0000      -0.316528        -8.6132
  29   0.0000       0.066462         1.8085
  30   0.0000       0.111323         3.0293
  31   0.0000       0.160601         4.3702
  32   0.0000       0.169574         4.6143
  33   0.0000       0.184724         5.0266

MULLIKEN ATOMIC CHARGES
-----------------------
   0 N :   -0.511312
   1 C :    0.296272
   2 C :   -0.143005
   3 N :   -0.246200
   4 C :    0.279997
   5 O :   -0.227209
   6 C :    0.020231
   7 O :   -0.252063
   8 H :    0.271695
   9 H :    0.268787
  10 H :    0.149863
  11 H :    0.092946
Sum of atomic charges:   -0.0000000

LOEWDIN ATOMIC CHARGES
----------------------
   0 N :   -0.049280
   1 C :   -0.362152
   2 C :   -0.243386
   3 N :    0.155654
   4 C :   -0.337393
   5 O :    0.364950
   6 C :   -0.294216
   7 O :    0.145976
   8 H :    0.180572
   9 H :    0.181814
  10 H :    0.138133
  11 H :    0.119329

  Mayer bond orders larger than 0.1
B(  0-N ,  1-C ) :   1.0825 B(  0-N ,  8-H ) :   0.8628 B(  0-N ,  9-H ) :   0.8704
B(  1-C ,  2-C ) :   1.4516 B(  1-C ,  5-O ) :   1.0899 B(  2-C ,  3-N ) :   1.2558
B(  2-C , 10-H ) :   0.9325 B(  3-N ,  4-C ) :   1.5719 B(  4-C ,  5-O ) :   0.9835
B(  4-C ,  6-C ) :   0.8232 B(  4-C , 11-H ) :  -0.1105 B(  6-C ,  7-O ) :   2.0173
B(  6-C , 11-H ) :   0.9885

MP2 TOTAL ENERGY:     -414.020770884 Eh
FINAL SINGLE POINT ENERGY      -414.020770884489

DIPOLE MOMENT
-------------
                                X             Y             Z
Electronic contribution:      0.71216      -3.31477       0.03959
Nuclear contribution   :     -0.52933       5.79469      -0.35990
                        -----------------------------------------
Total Dipole Moment    :      0.18283       2.47992      -0.32030
                        -----------------------------------------
Magnitude (a.u.)       :      2.50719
Magnitude (Debye)      :      6.37278

                             ****ORCA TERMINATED NORMALLY****
TOTAL RUN TIME: 0 days 0 hours 9 minutes 5 seconds 735 msec
