                         Program Version 3.0.3 - RELEASE   -
|  1> ! RI-MP2 RIJK def2-TZVP def2-TZVP/C def2-TZVP/JK TIGHTSCF
|  2> % maxcore 2000
|  3> % mp2 density relaxed end
|  4> *xyz 0 1
|  5>  N       -0.0128162697     1.4691260074     0.0442584156
|  6>  C        0.0254533797     0.0102342704    -0.0019668163
|  7>  C        0.7187298953    -0.5277872532    -1.1950260493
|  8>  N        1.2499233682    -0.9030071596    -2.1508260457
|  9>  C        0.6564301088    -0.5233944762     1.2920743850
| 10>  C        0.7926781391    -2.0648089076     1.4096934301
| 11>  N        2.2356728323    -2.3095331278     1.5687486938
| 12>  C        2.7878512062    -1.1743154134     1.5190168494
| 13>  O        2.0259041705    -0.0550108340     1.3694229755
| 14>  H        0.9379145845     1.8232594835     0.1035831614
| 15>  H       -0.4176710732     1.8404511319    -0.8093936649
| 16>  H       -1.0074181367    -0.3595987224    -0.0313577435
| 17>  H        0.1082494993    -0.0702454557     2.1222106902
| 18>  H        0.2474924228    -2.4623442147     2.2703622993
| 19>  H        0.4296427110    -2.5867847428     0.5172500993
| 20>  H        3.8517285320    -0.9806701159     1.5896480201
| 21> *
| 22>
| 23>                          ****END OF INPUT****

CARTESIAN COORDINATES (ANGSTROEM)
---------------------------------
  N     -0.012816    1.469126    0.044258
  C      0.025453    0.010234   -0.001967
  C      0.718730   -0.527787   -1.195026
  N      1.249923   -0.903007   -2.150826
  C      0.656430   -0.523394    1.292074
  C      0.792678   -2.064809    1.409693
  N      2.235673   -2.309533    1.568749
  C      2.787851   -1.174315    1.519017
  O      2.025904   -0.055011    1.369423
  H      0.937915    1.823259    0.103583
  H     -0.417671    1.840451   -0.809394
  H     -1.007418   -0.359599   -0.031358
  H      0.108249   -0.070245    2.122211
  H      0.247492   -2.462344    2.270362
  H      0.429643   -2.586785    0.517250
  H      3.851729   -0.980670    1.589648

 Total Charge           Charge          ....    0
 Multiplicity           Mult            ....    1
 Number of Electrons    NEL             ....   66
 Basis Dimension        Dim             ....  321

ORBITAL ENERGIES
----------------

  NO   OCC          E(Eh)            E(eV)
   0   2.0000     -20.613131      -560.9118
   1   2.0000     -15.581218      -423.9865
   2   2.0000     -15.579258      -423.9332
   3   2.0000     -15.562263      -423.4707
   4   2.0000     -11.343278      -308.6663
   5   2.0000     -11.328796      -308.2722
   6   2.0000     -11.323826      -308.1370
   7   2.0000     -11.279327      -306.9261
   8   2.0000     -11.278554      -306.9051
   9   2.0000      -1.455509       -39.6064
  10   2.0000      -1.246618       -33.9222
  11   2.0000      -1.227746       -33.4087
  12   2.0000      -1.210554       -32.9409
  13   2.0000      -1.069960       -29.1151
  14   2.0000      -0.964879       -26.2557
  15   2.0000      -0.871166       -23.7056
  16   2.0000      -0.819107       -22.2890
  17   2.0000      -0.743192       -20.2233
  18   2.0000      -0.734986       -20.0000
  19   2.0000      -0.698906       -19.0182
  20   2.0000      -0.671695       -18.2777
  21   2.0000      -0.634190       -17.2572
  22   2.0000      -0.604539       -16.4504
  23   2.0000      -0.586325       -15.9547
  24   2.0000      -0.575973       -15.6730
  25   2.0000      -0.565140       -15.3783
  26   2.0000      -0.547025       -14.8853
  27   2.0000      -0.534857       -14.5542
  28   2.0000      -0.485037       -13.1985
  29   2.0000      -0.470893       -12.8136
  30   2.0000      -0.450769       -12.2660
  31   2.0000      -0.439461       -11.9583
  32   2.0000      -0.397926       -10.8281
  33   0.0000       0.116999         3.1837
  34   0.0000       0.134985         3.6731
  35   0.0000       0.148523         4.0415
  36   0.0000       0.161037         4.3820
  37   0.0000       0.174453         4.7471

MULLIKEN ATOMIC CHARGES
-----------------------
   0 N :   -0.537891
   1 C :    0.148188
   2 C :   -0.255619
   3 N :   -0.049156
   4 C :    0.074391
   5 C :   -0.140458
   6 N :   -0.251839
   7 C :    0.109042
   8 O :   -0.297974
   9 H :    0.253038
  10 H :    0.241521
  11 H :    0.148471
  12 H :    0.130647
  13 H :    0.134079
  14 H :    0.138954
  15 H :    0.154606
Sum of atomic charges:   -0.0000000

LOEWDIN ATOMIC CHARGES
----------------------
   0 N :   -0.118828
   1 C :   -0.314067
   2 C :   -0.181629
   3 N :    0.069749
   4 C :   -0.240728
   5 C :   -0.248397
   6 N :    0.072944
   7 C :   -0.339040
   8 O :    0.228074
   9 H :    0.166949
  10 H :    0.162226
  11 H :    0.175716
  12 H :    0.152028
  13 H :    0.135832
  14 H :    0.141968
  15 H :    0.137204

  Mayer bond orders larger than 0.1
B(  0-N ,  1-C ) :   0.9365 B(  0-N ,  9-H ) :   0.8833 B(  0-N , 10-H ) :   0.8919
B(  1-C ,  2-C ) :   0.9101 B(  1-C ,  4-C ) :   0.8941 B(  1-C , 11-H ) :   0.9086
B(  2-C ,  3-N ) :   2.8520 B(  4-C ,  5-C ) :   0.9178 B(  4-C ,  8-O ) :   0.8410
B(  4-C , 12-H ) :   0.9285 B(  5-C ,  6-N ) :   0.9392 B(  5-C , 13-H ) :   0.9203
B(  5-C , 14-H ) :   0.9168 B(  6-N ,  7-C ) :   1.8373 B(  7-C ,  8-O ) :   1.0391
B(  7-C , 15-H ) :   0.9188

MP2 TOTAL ENERGY:     -433.365312735 Eh
FINAL SINGLE POINT ENERGY      -433.365312735373

DIPOLE MOMENT
-------------
                                X             Y             Z
Electronic contribution:      2.87577      -0.81881      -1.74560
Nuclear contribution   :     -3.70739       1.56018       2.44375
                        -----------------------------------------
Total Dipole Moment    :     -0.83162       0.74137       0.69815
                        -----------------------------------------
Magnitude (a.u.)       :      1.31477
Magnitude (Debye)      :      3.34189

                             ****ORCA TERMINATED NORMALLY****
TOTAL RUN TIME: 0 days 0 hours 16 minutes 57 seconds 892 msec
