                         Program Version 3.0.3 - RELEASE   -
|  1> ! RI-MP2 RIJK def2-TZVP def2-TZVP/C def2-TZVP/JK TIGHTSCF
|  2> % maxcore 2000
|  3> % mp2 density relaxed end
|  4> *xyz 0 1
|  5>  C       -0.1682295466     1.3321289619     0.0824069167
|  6>  O        0.0134692868    -0.0755447118     0.0592493233
|  7>  C        0.6983713862    -0.5944188329     1.1547074954
|  8>  O       -0.0495450175    -0.3138670462     2.3187098364
|  9>  C        0.5330964227    -0.8611910902     3.4957393210
| 10>  C        0.6360542030    -2.3832177305     3.4041030890
| 11>  C        1.4346239578    -2.7759333835     2.1540315354
| 12>  C        0.8485473016    -2.1039679849     0.9101205198
| 13>  O       -0.4102904665    -2.6883308598     0.6371862939
| 14>  H        0.7997295490     1.8504440074     0.1426895211
| 15>  H       -0.6585394869     1.6009024767    -0.8554079644
| 16>  H       -0.7906605403     1.6416795144     0.9271152936
| 17>  H        1.7012904473    -0.1266627675     1.2442767282
| 18>  H        1.5329078772    -0.4211533631     3.6589355860
| 19>  H       -0.1094500489    -0.5460264688     4.3222228277
| 20>  H        1.1088361054    -2.7784118825     4.3098673469
| 21>  H       -0.3717430606    -2.8035472768     3.3380225271
| 22>  H        2.4823746399    -2.4659919382     2.2619639736
| 23>  H        1.4312142274    -3.8598416453     2.0052590446
| 24>  H        1.5312369596    -2.2310472888     0.0541020834
| 25>  H       -0.8982299966    -2.0422212694     0.1114086212
| 26> *
| 27>
| 28>                          ****END OF INPUT****

CARTESIAN COORDINATES (ANGSTROEM)
---------------------------------
  C     -0.168230    1.332129    0.082407
  O      0.013469   -0.075545    0.059249
  C      0.698371   -0.594419    1.154707
  O     -0.049545   -0.313867    2.318710
  C      0.533096   -0.861191    3.495739
  C      0.636054   -2.383218    3.404103
  C      1.434624   -2.775933    2.154032
  C      0.848547   -2.103968    0.910121
  O     -0.410290   -2.688331    0.637186
  H      0.799730    1.850444    0.142690
  H     -0.658539    1.600902   -0.855408
  H     -0.790661    1.641680    0.927115
  H      1.701290   -0.126663    1.244277
  H      1.532908   -0.421153    3.658936
  H     -0.109450   -0.546026    4.322223
  H      1.108836   -2.778412    4.309867
  H     -0.371743   -2.803547    3.338023
  H      2.482375   -2.465992    2.261964
  H      1.431214   -3.859842    2.005259
  H      1.531237   -2.231047    0.054102
  H     -0.898230   -2.042221    0.111409

 Total Charge           Charge          ....    0
 Multiplicity           Mult            ....    1
 Number of Electrons    NEL             ....   72
 Basis Dimension        Dim             ....  351

ORBITAL ENERGIES
----------------

  NO   OCC          E(Eh)            E(eV)
   0   2.0000     -20.569413      -559.7222
   1   2.0000     -20.557713      -559.4038
   2   2.0000     -20.543610      -559.0201
   3   2.0000     -11.333395      -308.3974
   4   2.0000     -11.277524      -306.8770
   5   2.0000     -11.276212      -306.8413
   6   2.0000     -11.274096      -306.7838
   7   2.0000     -11.223755      -305.4139
   8   2.0000     -11.219922      -305.3096
   9   2.0000      -1.427680       -38.8491
  10   2.0000      -1.352115       -36.7929
  11   2.0000      -1.350442       -36.7474
  12   2.0000      -1.069950       -29.1148
  13   2.0000      -1.019921       -27.7535
  14   2.0000      -0.940689       -25.5974
  15   2.0000      -0.871340       -23.7104
  16   2.0000      -0.849406       -23.1135
  17   2.0000      -0.771972       -21.0064
  18   2.0000      -0.709362       -19.3027
  19   2.0000      -0.695601       -18.9283
  20   2.0000      -0.686957       -18.6931
  21   2.0000      -0.661924       -18.0119
  22   2.0000      -0.620651       -16.8888
  23   2.0000      -0.606048       -16.4914
  24   2.0000      -0.595281       -16.1984
  25   2.0000      -0.575646       -15.6641
  26   2.0000      -0.569188       -15.4884
  27   2.0000      -0.549141       -14.9429
  28   2.0000      -0.524398       -14.2696
  29   2.0000      -0.504634       -13.7318
  30   2.0000      -0.493434       -13.4270
  31   2.0000      -0.484253       -13.1772
  32   2.0000      -0.472457       -12.8562
  33   2.0000      -0.446134       -12.1399
  34   2.0000      -0.433580       -11.7983
  35   2.0000      -0.406488       -11.0611
  36   0.0000       0.136307         3.7091
  37   0.0000       0.158466         4.3121
  38   0.0000       0.166415         4.5284
  39   0.0000       0.173323         4.7164
  40   0.0000       0.189645         5.1605

MULLIKEN ATOMIC CHARGES
-----------------------
   0 C :   -0.221606
   1 O :   -0.318095
   2 C :    0.076624
   3 O :   -0.286850
   4 C :   -0.086496
   5 C :   -0.210863
   6 C :   -0.224858
   7 C :    0.178408
   8 O :   -0.489935
   9 H :    0.109301
  10 H :    0.139417
  11 H :    0.146472
  12 H :    0.059171
  13 H :    0.091164
  14 H :    0.131223
  15 H :    0.118370
  16 H :    0.123405
  17 H :    0.111422
  18 H :    0.132080
  19 H :    0.094177
  20 H :    0.327469
Sum of atomic charges:    0.0000000

LOEWDIN ATOMIC CHARGES
----------------------
   0 C :   -0.340812
   1 O :    0.160699
   2 C :   -0.415357
   3 O :    0.177189
   4 C :   -0.310672
   5 C :   -0.268923
   6 C :   -0.244680
   7 C :   -0.338036
   8 O :   -0.009601
   9 H :    0.104472
  10 H :    0.113492
  11 H :    0.109488
  12 H :    0.124831
  13 H :    0.119706
  14 H :    0.130183
  15 H :    0.138569
  16 H :    0.146012
  17 H :    0.141261
  18 H :    0.144706
  19 H :    0.138580
  20 H :    0.178894

  Mayer bond orders larger than 0.1
B(  0-C ,  1-O ) :   0.8883 B(  0-C ,  9-H ) :   0.9348 B(  0-C , 10-H ) :   0.9369
B(  0-C , 11-H ) :   0.9394 B(  1-O ,  2-C ) :   1.0320 B(  2-C ,  3-O ) :   0.9546
B(  2-C ,  7-C ) :   0.9195 B(  2-C , 12-H ) :   0.9507 B(  3-O ,  4-C ) :   0.9171
B(  4-C ,  5-C ) :   0.9469 B(  4-C , 13-H ) :   0.9360 B(  4-C , 14-H ) :   0.9311
B(  5-C ,  6-C ) :   0.9360 B(  5-C , 15-H ) :   0.9218 B(  5-C , 16-H ) :   0.9167
B(  6-C ,  7-C ) :   0.8860 B(  6-C , 17-H ) :   0.9319 B(  6-C , 18-H ) :   0.9219
B(  7-C ,  8-O ) :   0.9533 B(  7-C , 19-H ) :   0.9400 B(  8-O , 20-H ) :   0.8238

MP2 TOTAL ENERGY:     -460.640035165 Eh
FINAL SINGLE POINT ENERGY      -460.640035165354

DIPOLE MOMENT
-------------
                                X             Y             Z
Electronic contribution:     -2.49351      -0.76753      -2.48408
Nuclear contribution   :      3.12376       1.37459       2.74805
                        -----------------------------------------
Total Dipole Moment    :      0.63025       0.60705       0.26397
                        -----------------------------------------
Magnitude (a.u.)       :      0.91400
Magnitude (Debye)      :      2.32322

                             ****ORCA TERMINATED NORMALLY****
TOTAL RUN TIME: 0 days 0 hours 18 minutes 12 seconds 394 msec
