                         Program Version 3.0.3 - RELEASE   -
|  1> ! RI-MP2 RIJK def2-TZVP def2-TZVP/C def2-TZVP/JK TIGHTSCF
|  2> % maxcore 2000
|  3> % mp2 density relaxed end
|  4> *xyz 0 1
|  5>  C       -0.0530145753     1.5667330242    -0.0481007793
|  6>  C        1.4874771391     1.5772916319     0.0307392671
|  7>  C        2.0114279402     1.4077732523     1.4252993766
|  8>  C        1.5180634687     0.3057737479     2.0276522619
|  9>  C        2.4857050156    -0.8841719410     1.9393951853
| 10>  C        1.6604566844    -1.1146121635     0.6165627963
| 11>  C        1.3872787573     0.0284361761    -0.4619005552
| 12>  N       -0.0676098380     0.0755404031    -0.0340319298
| 13>  C        0.4097138627    -0.4751924726     1.2639665404
| 14>  H       -0.5933772262     2.0479550050     0.7713444649
| 15>  H       -0.4471161122     1.9265535281    -1.0035588920
| 16>  H        2.0398307264     2.2951530825    -0.5781213736
| 17>  H        3.0371388269     1.7120299190     1.6278824984
| 18>  H        3.5503290366    -0.6504370089     1.8908268467
| 19>  H        2.3120017102    -1.7321773073     2.6129234474
| 20>  H        1.6183918695    -2.1210182572     0.1907449123
| 21>  H        1.5921505788    -0.1733078779    -1.5154341556
| 22>  H       -0.3112198349    -1.0291902818     1.8669445482
| 23> *
| 24>
| 25>                          ****END OF INPUT****

CARTESIAN COORDINATES (ANGSTROEM)
---------------------------------
  C     -0.053015    1.566733   -0.048101
  C      1.487477    1.577292    0.030739
  C      2.011428    1.407773    1.425299
  C      1.518063    0.305774    2.027652
  C      2.485705   -0.884172    1.939395
  C      1.660457   -1.114612    0.616563
  C      1.387279    0.028436   -0.461901
  N     -0.067610    0.075540   -0.034032
  C      0.409714   -0.475192    1.263967
  H     -0.593377    2.047955    0.771344
  H     -0.447116    1.926554   -1.003559
  H      2.039831    2.295153   -0.578121
  H      3.037139    1.712030    1.627882
  H      3.550329   -0.650437    1.890827
  H      2.312002   -1.732177    2.612923
  H      1.618392   -2.121018    0.190745
  H      1.592151   -0.173308   -1.515434
  H     -0.311220   -1.029190    1.866945

 Total Charge           Charge          ....    0
 Multiplicity           Mult            ....    1
 Number of Electrons    NEL             ....   64
 Basis Dimension        Dim             ....  333

ORBITAL ENERGIES
----------------

  NO   OCC          E(Eh)            E(eV)
   0   2.0000     -15.548574      -423.0982
   1   2.0000     -11.273282      -306.7616
   2   2.0000     -11.260033      -306.4011
   3   2.0000     -11.252128      -306.1860
   4   2.0000     -11.250119      -306.1313
   5   2.0000     -11.249527      -306.1152
   6   2.0000     -11.248498      -306.0872
   7   2.0000     -11.237157      -305.7786
   8   2.0000     -11.226921      -305.5000
   9   2.0000      -1.289514       -35.0895
  10   2.0000      -1.129703       -30.7408
  11   2.0000      -1.052068       -28.6282
  12   2.0000      -0.939017       -25.5520
  13   2.0000      -0.929093       -25.2819
  14   2.0000      -0.857732       -23.3401
  15   2.0000      -0.791445       -21.5363
  16   2.0000      -0.775610       -21.1054
  17   2.0000      -0.705141       -19.1879
  18   2.0000      -0.653267       -17.7763
  19   2.0000      -0.638604       -17.3773
  20   2.0000      -0.604742       -16.4559
  21   2.0000      -0.592946       -16.1349
  22   2.0000      -0.589188       -16.0326
  23   2.0000      -0.546753       -14.8779
  24   2.0000      -0.510398       -13.8886
  25   2.0000      -0.504407       -13.7256
  26   2.0000      -0.483017       -13.1436
  27   2.0000      -0.450857       -12.2684
  28   2.0000      -0.439630       -11.9629
  29   2.0000      -0.420701       -11.4478
  30   2.0000      -0.356161        -9.6916
  31   2.0000      -0.308051        -8.3825
  32   0.0000       0.099856         2.7172
  33   0.0000       0.140646         3.8272
  34   0.0000       0.161295         4.3891
  35   0.0000       0.166580         4.5329
  36   0.0000       0.175281         4.7696

MULLIKEN ATOMIC CHARGES
-----------------------
   0 C :   -0.181507
   1 C :    0.001475
   2 C :   -0.262288
   3 C :    0.061322
   4 C :   -0.239002
   5 C :   -0.115706
   6 C :   -0.121405
   7 N :   -0.168058
   8 C :   -0.079376
   9 H :    0.122486
  10 H :    0.121530
  11 H :    0.123620
  12 H :    0.116087
  13 H :    0.124642
  14 H :    0.118165
  15 H :    0.125902
  16 H :    0.128176
  17 H :    0.123938
Sum of atomic charges:    0.0000000

LOEWDIN ATOMIC CHARGES
----------------------
   0 C :   -0.232133
   1 C :   -0.189041
   2 C :   -0.130614
   3 C :   -0.144029
   4 C :   -0.174313
   5 C :   -0.146206
   6 C :   -0.132785
   7 N :    0.116327
   8 C :   -0.181709
   9 H :    0.127881
  10 H :    0.129789
  11 H :    0.138323
  12 H :    0.139722
  13 H :    0.129193
  14 H :    0.137198
  15 H :    0.144769
  16 H :    0.131182
  17 H :    0.136445

  Mayer bond orders larger than 0.1
B(  0-C ,  1-C ) :   0.9048 B(  0-C ,  7-N ) :   0.9102 B(  0-C ,  9-H ) :   0.9264
B(  0-C , 10-H ) :   0.9234 B(  1-C ,  2-C ) :   0.9702 B(  1-C ,  6-C ) :   0.8767
B(  1-C , 11-H ) :   0.9120 B(  2-C ,  3-C ) :   1.6433 B(  2-C , 12-H ) :   0.9403
B(  3-C ,  4-C ) :   0.9190 B(  3-C ,  8-C ) :   0.8921 B(  4-C ,  5-C ) :   0.8861
B(  4-C , 13-H ) :   0.9207 B(  4-C , 14-H ) :   0.9057 B(  5-C ,  6-C ) :   0.9489
B(  5-C ,  8-C ) :   0.8932 B(  5-C , 15-H ) :   0.8897 B(  6-C ,  7-N ) :   0.9340
B(  6-C , 16-H ) :   0.8892 B(  7-N ,  8-C ) :   0.9523 B(  8-C , 17-H ) :   0.9190

MP2 TOTAL ENERGY:     -364.017028133 Eh
FINAL SINGLE POINT ENERGY      -364.017028133027

DIPOLE MOMENT
-------------
                                X             Y             Z
Electronic contribution:     -1.28836       0.13481       0.45587
Nuclear contribution   :      1.87057      -0.15643      -0.66981
                        -----------------------------------------
Total Dipole Moment    :      0.58221      -0.02162      -0.21394
                        -----------------------------------------
Magnitude (a.u.)       :      0.62065
Magnitude (Debye)      :      1.57756

                             ****ORCA TERMINATED NORMALLY****
TOTAL RUN TIME: 0 days 0 hours 22 minutes 41 seconds 864 msec
