                         Program Version 3.0.3 - RELEASE   -
|  1> ! RI-MP2 RIJK def2-TZVP def2-TZVP/C def2-TZVP/JK TIGHTSCF
|  2> % maxcore 2000
|  3> % mp2 density relaxed end
|  4> *xyz 0 1
|  5>  C       -0.3455790536     1.3425233342     0.0664669176
|  6>  C        0.0746901157    -0.1355695237    -0.0457535025
|  7>  C        0.8848719952    -0.4129737384    -1.3256235343
|  8>  O        0.1400126396    -0.1260241626    -2.4986021304
|  9>  C        0.8496554340    -0.5697183024     1.1558956468
| 10>  N        2.1093543380    -0.8631488201     1.2490276764
| 11>  C        2.3009066050    -1.1831739492     2.5886557469
| 12>  C        1.1250701408    -1.0611078940     3.2429928906
| 13>  O        0.1795156045    -0.6675736264     2.3366897729
| 14>  H        0.5326236799     1.9973748009     0.0907577260
| 15>  H       -0.9697984131     1.6213510218    -0.7873698723
| 16>  H       -0.9246774869     1.5183196367     0.9763877443
| 17>  H       -0.8387602308    -0.7421504589    -0.0939601867
| 18>  H        1.8301906594     0.1446695289    -1.2939486570
| 19>  H        1.1407295004    -1.4747309773    -1.3722272360
| 20>  H        0.1610917320     0.8239249964    -2.6434819918
| 21>  H        3.2654088814    -1.4754274892     2.9719770722
| 22>  H        0.7931150585    -1.2016719468     4.2569107773
| 23> *
| 24>
| 25>                          ****END OF INPUT****

CARTESIAN COORDINATES (ANGSTROEM)
---------------------------------
  C     -0.345579    1.342523    0.066467
  C      0.074690   -0.135570   -0.045754
  C      0.884872   -0.412974   -1.325624
  O      0.140013   -0.126024   -2.498602
  C      0.849655   -0.569718    1.155896
  N      2.109354   -0.863149    1.249028
  C      2.300907   -1.183174    2.588656
  C      1.125070   -1.061108    3.242993
  O      0.179516   -0.667574    2.336690
  H      0.532624    1.997375    0.090758
  H     -0.969798    1.621351   -0.787370
  H     -0.924677    1.518320    0.976388
  H     -0.838760   -0.742150   -0.093960
  H      1.830191    0.144670   -1.293949
  H      1.140730   -1.474731   -1.372227
  H      0.161092    0.823925   -2.643482
  H      3.265409   -1.475427    2.971977
  H      0.793115   -1.201672    4.256911

 Total Charge           Charge          ....    0
 Multiplicity           Mult            ....    1
 Number of Electrons    NEL             ....   68
 Basis Dimension        Dim             ....  333

ORBITAL ENERGIES
----------------

  NO   OCC          E(Eh)            E(eV)
   0   2.0000     -20.635233      -561.5132
   1   2.0000     -20.559134      -559.4425
   2   2.0000     -15.561298      -423.4444
   3   2.0000     -11.336371      -308.4783
   4   2.0000     -11.291595      -307.2599
   5   2.0000     -11.278205      -306.8956
   6   2.0000     -11.260819      -306.4225
   7   2.0000     -11.252653      -306.2002
   8   2.0000     -11.232140      -305.6421
   9   2.0000      -1.484541       -40.3964
  10   2.0000      -1.363961       -37.1153
  11   2.0000      -1.232000       -33.5244
  12   2.0000      -1.100493       -29.9459
  13   2.0000      -1.009619       -27.4731
  14   2.0000      -0.936021       -25.4704
  15   2.0000      -0.860230       -23.4080
  16   2.0000      -0.831172       -22.6173
  17   2.0000      -0.778761       -21.1912
  18   2.0000      -0.724654       -19.7188
  19   2.0000      -0.703065       -19.1314
  20   2.0000      -0.665641       -18.1130
  21   2.0000      -0.633666       -17.2429
  22   2.0000      -0.621914       -16.9231
  23   2.0000      -0.607362       -16.5272
  24   2.0000      -0.587323       -15.9819
  25   2.0000      -0.577463       -15.7136
  26   2.0000      -0.545752       -14.8507
  27   2.0000      -0.529849       -14.4179
  28   2.0000      -0.518597       -14.1118
  29   2.0000      -0.483374       -13.1533
  30   2.0000      -0.463829       -12.6214
  31   2.0000      -0.453681       -12.3453
  32   2.0000      -0.441665       -12.0183
  33   2.0000      -0.338863        -9.2209
  34   0.0000       0.126132         3.4322
  35   0.0000       0.144786         3.9398
  36   0.0000       0.164568         4.4781
  37   0.0000       0.177346         4.8258
  38   0.0000       0.181802         4.9471

MULLIKEN ATOMIC CHARGES
-----------------------
   0 C :   -0.461520
   1 C :    0.006254
   2 C :   -0.056852
   3 O :   -0.474021
   4 C :    0.238856
   5 N :   -0.295593
   6 C :   -0.120078
   7 C :   -0.032598
   8 O :   -0.212951
   9 H :    0.137393
  10 H :    0.135200
  11 H :    0.148469
  12 H :    0.109403
  13 H :    0.126893
  14 H :    0.128011
  15 H :    0.321456
  16 H :    0.144037
  17 H :    0.157641
Sum of atomic charges:   -0.0000000

LOEWDIN ATOMIC CHARGES
----------------------
   0 C :   -0.287471
   1 C :   -0.260433
   2 C :   -0.314779
   3 O :   -0.042118
   4 C :   -0.317341
   5 N :    0.123110
   6 C :   -0.252651
   7 C :   -0.249256
   8 O :    0.349938
   9 H :    0.127136
  10 H :    0.122831
  11 H :    0.129156
  12 H :    0.167488
  13 H :    0.125045
  14 H :    0.135543
  15 H :    0.171698
  16 H :    0.137396
  17 H :    0.134707

  Mayer bond orders larger than 0.1
B(  0-C ,  1-C ) :   0.8659 B(  0-C ,  9-H ) :   0.9311 B(  0-C , 10-H ) :   0.9395
B(  0-C , 11-H ) :   0.9353 B(  1-C ,  2-C ) :   0.9154 B(  1-C ,  4-C ) :   0.9043
B(  1-C , 12-H ) :   0.9116 B(  2-C ,  3-O ) :   0.9414 B(  2-C , 13-H ) :   0.9374
B(  2-C , 14-H ) :   0.9326 B(  3-O , 15-H ) :   0.8480 B(  4-C ,  5-N ) :   1.5999
B(  4-C ,  8-O ) :   1.0592 B(  5-N ,  6-C ) :   1.1859 B(  6-C ,  7-C ) :   1.6050
B(  6-C , 16-H ) :   0.9327 B(  7-C ,  8-O ) :   1.0355 B(  7-C , 17-H ) :   0.9234

MP2 TOTAL ENERGY:     -438.395332012 Eh
FINAL SINGLE POINT ENERGY      -438.395332012193

DIPOLE MOMENT
-------------
                                X             Y             Z
Electronic contribution:      1.71672      -3.82165       4.43261
Nuclear contribution   :     -1.86527       4.30972      -3.70765
                        -----------------------------------------
Total Dipole Moment    :     -0.14855       0.48807       0.72496
                        -----------------------------------------
Magnitude (a.u.)       :      0.88648
Magnitude (Debye)      :      2.25326

                             ****ORCA TERMINATED NORMALLY****
TOTAL RUN TIME: 0 days 0 hours 16 minutes 43 seconds 799 msec
