                         Program Version 3.0.3 - RELEASE   -
|  1> ! RI-MP2 RIJK def2-TZVP def2-TZVP/C def2-TZVP/JK TIGHTSCF
|  2> % maxcore 2000
|  3> % mp2 density relaxed end
|  4> *xyz 0 1
|  5>  O       -0.6397920353     0.7525909083     0.7744606113
|  6>  C        0.0058463238     1.0242229986    -0.2046401862
|  7>  C        1.3219292600     1.7667953707    -0.2006003895
|  8>  C        1.2710102716     3.0225425240    -1.0893650037
|  9>  C        2.6151577574     3.7346755775    -1.1908490527
| 10>  C        3.7920222905     3.0365863879    -1.9787962437
| 11>  C        3.8144774176     4.2477896304    -2.9188971263
| 12>  O        2.5105866633     4.3490244450    -3.5048751104
| 13>  C        2.7106468238     4.8982043997    -2.1970213043
| 14>  H       -0.3506815784     0.7369235275    -1.2225772866
| 15>  H        1.5816980606     2.0110811757     0.8339160700
| 16>  H        2.0879541023     1.0807229357    -0.5911699540
| 17>  H        0.9427733717     2.7535680414    -2.1000324652
| 18>  H        0.5223802099     3.7179843966    -0.6881230499
| 19>  H        2.9621212096     4.0506973906    -0.2013535617
| 20>  H        4.6970167128     2.9277004600    -1.3771845130
| 21>  H        3.5613876561     2.0861936335    -2.4678107347
| 22>  H        4.6414043158     4.6704617104    -3.4771833038
| 23>  H        2.4655456268     5.9452047864    -2.0578257557
| 24> *
| 25>
| 26>                          ****END OF INPUT****

CARTESIAN COORDINATES (ANGSTROEM)
---------------------------------
  O     -0.639792    0.752591    0.774461
  C      0.005846    1.024223   -0.204640
  C      1.321929    1.766795   -0.200600
  C      1.271010    3.022543   -1.089365
  C      2.615158    3.734676   -1.190849
  C      3.792022    3.036586   -1.978796
  C      3.814477    4.247790   -2.918897
  O      2.510587    4.349024   -3.504875
  C      2.710647    4.898204   -2.197021
  H     -0.350682    0.736924   -1.222577
  H      1.581698    2.011081    0.833916
  H      2.087954    1.080723   -0.591170
  H      0.942773    2.753568   -2.100032
  H      0.522380    3.717984   -0.688123
  H      2.962121    4.050697   -0.201354
  H      4.697017    2.927700   -1.377185
  H      3.561388    2.086194   -2.467811
  H      4.641404    4.670462   -3.477183
  H      2.465546    5.945205   -2.057826

 Total Charge           Charge          ....    0
 Multiplicity           Mult            ....    1
 Number of Electrons    NEL             ....   68
 Basis Dimension        Dim             ....  339

ORBITAL ENERGIES
----------------

  NO   OCC          E(Eh)            E(eV)
   0   2.0000     -20.574380      -559.8573
   1   2.0000     -20.555963      -559.3562
   2   2.0000     -11.330819      -308.3273
   3   2.0000     -11.294132      -307.3289
   4   2.0000     -11.292352      -307.2805
   5   2.0000     -11.252747      -306.2028
   6   2.0000     -11.243675      -305.9559
   7   2.0000     -11.243202      -305.9431
   8   2.0000     -11.240484      -305.8691
   9   2.0000      -1.425389       -38.7868
  10   2.0000      -1.394704       -37.9518
  11   2.0000      -1.115922       -30.3658
  12   2.0000      -1.054411       -28.6920
  13   2.0000      -0.948847       -25.8194
  14   2.0000      -0.894585       -24.3429
  15   2.0000      -0.841296       -22.8928
  16   2.0000      -0.792855       -21.5747
  17   2.0000      -0.758512       -20.6401
  18   2.0000      -0.727340       -19.7919
  19   2.0000      -0.675808       -18.3897
  20   2.0000      -0.642781       -17.4910
  21   2.0000      -0.639893       -17.4124
  22   2.0000      -0.613827       -16.7031
  23   2.0000      -0.599698       -16.3186
  24   2.0000      -0.572460       -15.5774
  25   2.0000      -0.559412       -15.2224
  26   2.0000      -0.524786       -14.2802
  27   2.0000      -0.513975       -13.9860
  28   2.0000      -0.500796       -13.6273
  29   2.0000      -0.490499       -13.3471
  30   2.0000      -0.474231       -12.9045
  31   2.0000      -0.443139       -12.0584
  32   2.0000      -0.424391       -11.5483
  33   2.0000      -0.403122       -10.9695
  34   0.0000       0.130440         3.5494
  35   0.0000       0.137655         3.7458
  36   0.0000       0.147942         4.0257
  37   0.0000       0.158351         4.3089
  38   0.0000       0.168177         4.5763

MULLIKEN ATOMIC CHARGES
-----------------------
   0 O :   -0.264569
   1 C :    0.096130
   2 C :   -0.142647
   3 C :   -0.367555
   4 C :    0.023646
   5 C :   -0.230090
   6 C :   -0.027905
   7 O :   -0.330481
   8 C :    0.004587
   9 H :    0.071853
  10 H :    0.119826
  11 H :    0.127368
  12 H :    0.148633
  13 H :    0.130120
  14 H :    0.113183
  15 H :    0.125027
  16 H :    0.117971
  17 H :    0.140171
  18 H :    0.144732
Sum of atomic charges:   -0.0000000

LOEWDIN ATOMIC CHARGES
----------------------
   0 O :    0.129892
   1 C :   -0.297217
   2 C :   -0.259477
   3 C :   -0.244104
   4 C :   -0.210668
   5 C :   -0.199115
   6 C :   -0.244848
   7 O :    0.171418
   8 C :   -0.227192
   9 H :    0.109928
  10 H :    0.144158
  11 H :    0.151451
  12 H :    0.147552
  13 H :    0.144995
  14 H :    0.153606
  15 H :    0.136406
  16 H :    0.133261
  17 H :    0.129514
  18 H :    0.130439

  Mayer bond orders larger than 0.1
B(  0-O ,  1-C ) :   2.0061 B(  1-C ,  2-C ) :   0.8801 B(  1-C ,  9-H ) :   0.9393
B(  2-C ,  3-C ) :   0.8940 B(  2-C , 10-H ) :   0.9040 B(  2-C , 11-H ) :   0.9163
B(  3-C ,  4-C ) :   0.8824 B(  3-C , 12-H ) :   0.9341 B(  3-C , 13-H ) :   0.9274
B(  4-C ,  5-C ) :   0.9548 B(  4-C ,  8-C ) :   0.8818 B(  4-C , 14-H ) :   0.9107
B(  5-C ,  6-C ) :   0.9215 B(  5-C , 15-H ) :   0.9118 B(  5-C , 16-H ) :   0.9101
B(  6-C ,  7-O ) :   0.9274 B(  6-C ,  8-C ) :   0.9021 B(  6-C , 17-H ) :   0.9299
B(  7-O ,  8-C ) :   0.8975 B(  8-C , 18-H ) :   0.9208

MP2 TOTAL ENERGY:     -422.280579915 Eh
FINAL SINGLE POINT ENERGY      -422.280579915080

DIPOLE MOMENT
-------------
                                X             Y             Z
Electronic contribution:     -2.65726       0.11632      -0.64237
Nuclear contribution   :      3.82315       0.38734       0.46171
                        -----------------------------------------
Total Dipole Moment    :      1.16589       0.50366      -0.18066
                        -----------------------------------------
Magnitude (a.u.)       :      1.28282
Magnitude (Debye)      :      3.26066

                             ****ORCA TERMINATED NORMALLY****
TOTAL RUN TIME: 0 days 0 hours 16 minutes 53 seconds 224 msec
