                         Program Version 3.0.3 - RELEASE   -
|  1> ! RI-MP2 RIJK def2-TZVP def2-TZVP/C def2-TZVP/JK TIGHTSCF
|  2> % maxcore 2000
|  3> % mp2 density relaxed end
|  4> *xyz 0 1
|  5>  C       -0.1676946475     1.4961516917     0.0531171429
|  6>  C       -0.0780502727    -0.0291689583     0.0183862813
|  7>  C       -1.3946430645    -0.6826686834    -0.4004461552
|  8>  C        1.1415817421    -0.5535961399    -0.7607925711
|  9>  O        1.5395832766    -0.5467367042    -1.8813995828
| 10>  O        1.7389625557    -1.1208287475     0.3397733216
| 11>  C        0.6522344787    -0.6860614860     1.1982391639
| 12>  C        0.9188071433    -0.2342576157     2.5884303989
| 13>  C        0.1804027064    -1.5433298957     2.3164013988
| 14>  H        0.7787128433     1.9483662053     0.3624320134
| 15>  H       -0.4223251556     1.8821321464    -0.9384077368
| 16>  H       -0.9459301048     1.8193714570     0.7529529845
| 17>  H       -1.6793429208    -0.3497365373    -1.4029637330
| 18>  H       -1.3170357810    -1.7733983608    -0.4125260388
| 19>  H       -2.1982465750    -0.4047199803     0.2901064545
| 20>  H        1.9398973612    -0.3027017274     2.9470198244
| 21>  H        0.3549125751     0.6081192776     2.9755739149
| 22>  H       -0.8846398162    -1.5894169069     2.5189273852
| 23>  H        0.7191748359    -2.4668551345     2.4972929935
| 24> *
| 25>
| 26>                          ****END OF INPUT****

CARTESIAN COORDINATES (ANGSTROEM)
---------------------------------
  C     -0.167695    1.496152    0.053117
  C     -0.078050   -0.029169    0.018386
  C     -1.394643   -0.682669   -0.400446
  C      1.141582   -0.553596   -0.760793
  O      1.539583   -0.546737   -1.881400
  O      1.738963   -1.120829    0.339773
  C      0.652234   -0.686061    1.198239
  C      0.918807   -0.234258    2.588430
  C      0.180403   -1.543330    2.316401
  H      0.778713    1.948366    0.362432
  H     -0.422325    1.882132   -0.938408
  H     -0.945930    1.819371    0.752953
  H     -1.679343   -0.349737   -1.402964
  H     -1.317036   -1.773398   -0.412526
  H     -2.198247   -0.404720    0.290106
  H      1.939897   -0.302702    2.947020
  H      0.354913    0.608119    2.975574
  H     -0.884640   -1.589417    2.518927
  H      0.719175   -2.466855    2.497293

 Total Charge           Charge          ....    0
 Multiplicity           Mult            ....    1
 Number of Electrons    NEL             ....   68
 Basis Dimension        Dim             ....  339

ORBITAL ENERGIES
----------------

  NO   OCC          E(Eh)            E(eV)
   0   2.0000     -20.601028      -560.5825
   1   2.0000     -20.550687      -559.2126
   2   2.0000     -11.378321      -309.6199
   3   2.0000     -11.312427      -307.8268
   4   2.0000     -11.273563      -306.7693
   5   2.0000     -11.246529      -306.0336
   6   2.0000     -11.245925      -306.0172
   7   2.0000     -11.240026      -305.8567
   8   2.0000     -11.240006      -305.8561
   9   2.0000      -1.464151       -39.8416
  10   2.0000      -1.379105       -37.5274
  11   2.0000      -1.158433       -31.5226
  12   2.0000      -1.099237       -29.9118
  13   2.0000      -0.959431       -26.1074
  14   2.0000      -0.908474       -24.7208
  15   2.0000      -0.850867       -23.1533
  16   2.0000      -0.822903       -22.3923
  17   2.0000      -0.717592       -19.5267
  18   2.0000      -0.699945       -19.0465
  19   2.0000      -0.683405       -18.5964
  20   2.0000      -0.657196       -17.8832
  21   2.0000      -0.638990       -17.3878
  22   2.0000      -0.630796       -17.1648
  23   2.0000      -0.594929       -16.1888
  24   2.0000      -0.571064       -15.5395
  25   2.0000      -0.561586       -15.2815
  26   2.0000      -0.553678       -15.0663
  27   2.0000      -0.537518       -14.6266
  28   2.0000      -0.513500       -13.9731
  29   2.0000      -0.506733       -13.7889
  30   2.0000      -0.493235       -13.4216
  31   2.0000      -0.443911       -12.0794
  32   2.0000      -0.426820       -11.6144
  33   2.0000      -0.413088       -11.2407
  34   0.0000       0.120453         3.2777
  35   0.0000       0.147894         4.0244
  36   0.0000       0.160363         4.3637
  37   0.0000       0.172794         4.7020
  38   0.0000       0.174205         4.7404

MULLIKEN ATOMIC CHARGES
-----------------------
   0 C :   -0.430280
   1 C :    0.162558
   2 C :   -0.430161
   3 C :    0.201903
   4 O :   -0.264274
   5 O :   -0.222089
   6 C :    0.069050
   7 C :   -0.264735
   8 C :   -0.264750
   9 H :    0.151463
  10 H :    0.152937
  11 H :    0.133900
  12 H :    0.152934
  13 H :    0.151511
  14 H :    0.133912
  15 H :    0.146789
  16 H :    0.136274
  17 H :    0.136268
  18 H :    0.146791
Sum of atomic charges:    0.0000000

LOEWDIN ATOMIC CHARGES
----------------------
   0 C :   -0.252053
   1 C :   -0.245852
   2 C :   -0.251974
   3 C :   -0.409610
   4 O :    0.156960
   5 O :    0.282615
   6 C :   -0.248009
   7 C :   -0.196422
   8 C :   -0.196417
   9 H :    0.134384
  10 H :    0.135737
  11 H :    0.129060
  12 H :    0.135743
  13 H :    0.134410
  14 H :    0.129078
  15 H :    0.143374
  16 H :    0.137799
  17 H :    0.137800
  18 H :    0.143376

  Mayer bond orders larger than 0.1
B(  0-C ,  1-C ) :   0.8866 B(  0-C ,  9-H ) :   0.9313 B(  0-C , 10-H ) :   0.9310
B(  0-C , 11-H ) :   0.9323 B(  1-C ,  2-C ) :   0.8867 B(  1-C ,  3-C ) :   0.8690
B(  1-C ,  6-C ) :   0.8684 B(  2-C , 12-H ) :   0.9310 B(  2-C , 13-H ) :   0.9313
B(  2-C , 14-H ) :   0.9323 B(  3-C ,  4-O ) :   2.0694 B(  3-C ,  5-O ) :   1.0866
B(  5-O ,  6-C ) :   0.9223 B(  6-C ,  7-C ) :   0.8635 B(  6-C ,  8-C ) :   0.8635
B(  7-C ,  8-C ) :   0.9194 B(  7-C , 15-H ) :   0.9161 B(  7-C , 16-H ) :   0.9126
B(  8-C , 17-H ) :   0.9126 B(  8-C , 18-H ) :   0.9161

MP2 TOTAL ENERGY:     -422.334915468 Eh
FINAL SINGLE POINT ENERGY      -422.334915467832

DIPOLE MOMENT
-------------
                                X             Y             Z
Electronic contribution:      7.04682      -3.04878      -4.43437
Nuclear contribution   :     -8.14106       3.42377       5.60138
                        -----------------------------------------
Total Dipole Moment    :     -1.09424       0.37499       1.16701
                        -----------------------------------------
Magnitude (a.u.)       :      1.64313
Magnitude (Debye)      :      4.17652

                             ****ORCA TERMINATED NORMALLY****
TOTAL RUN TIME: 0 days 0 hours 21 minutes 57 seconds 705 msec
