                         Program Version 3.0.3 - RELEASE   -
|  1> ! RI-MP2 RIJK def2-TZVP def2-TZVP/C def2-TZVP/JK TIGHTSCF
|  2> % maxcore 2000
|  3> % mp2 density relaxed end
|  4> *xyz 0 1
|  5>  C        0.0097675536     1.0862632296    -0.1239599253
|  6>  C       -0.4491940080    -0.3553041325    -0.3768081469
|  7>  C       -1.5011510348    -0.8328585899     0.6065352186
|  8>  C       -2.8541868987    -0.1180686806     0.5876831614
|  9>  C       -3.5594996510    -0.2550730724    -0.6812453697
| 10>  C       -4.1270237549    -0.3780020789    -1.7336562370
| 11>  C       -1.4471790466    -2.2002393857     1.1389515825
| 12>  O       -1.0216418794    -1.0861244715     1.9334259974
| 13>  H        0.8264507528     1.3534456621    -0.8006764759
| 14>  H       -0.7978056009     1.8067694669    -0.2875262028
| 15>  H        0.3682882742     1.2026880275     0.9033203617
| 16>  H       -0.8502554190    -0.4519552567    -1.3922834870
| 17>  H        0.4109658910    -1.0289135760    -0.3049531548
| 18>  H       -3.4634971296    -0.5181376153     1.4054690267
| 19>  H       -2.7017359312     0.9448882529     0.8126147549
| 20>  H       -4.6366469049    -0.4833806365    -2.6592102338
| 21>  H       -2.3611324680    -2.6902631013     1.4726108843
| 22>  H       -0.6535649146    -2.8730568218     0.8172970357
| 23> *
| 24>
| 25>                          ****END OF INPUT****

CARTESIAN COORDINATES (ANGSTROEM)
---------------------------------
  C      0.009768    1.086263   -0.123960
  C     -0.449194   -0.355304   -0.376808
  C     -1.501151   -0.832859    0.606535
  C     -2.854187   -0.118069    0.587683
  C     -3.559500   -0.255073   -0.681245
  C     -4.127024   -0.378002   -1.733656
  C     -1.447179   -2.200239    1.138952
  O     -1.021642   -1.086124    1.933426
  H      0.826451    1.353446   -0.800676
  H     -0.797806    1.806769   -0.287526
  H      0.368288    1.202688    0.903320
  H     -0.850255   -0.451955   -1.392283
  H      0.410966   -1.028914   -0.304953
  H     -3.463497   -0.518138    1.405469
  H     -2.701736    0.944888    0.812615
  H     -4.636647   -0.483381   -2.659210
  H     -2.361132   -2.690263    1.472611
  H     -0.653565   -2.873057    0.817297

 Total Charge           Charge          ....    0
 Multiplicity           Mult            ....    1
 Number of Electrons    NEL             ....   60
 Basis Dimension        Dim             ....  308

ORBITAL ENERGIES
----------------

  NO   OCC          E(Eh)            E(eV)
   0   2.0000     -20.567762      -559.6773
   1   2.0000     -11.298702      -307.4533
   2   2.0000     -11.282669      -307.0170
   3   2.0000     -11.259869      -306.3966
   4   2.0000     -11.240372      -305.8661
   5   2.0000     -11.229609      -305.5732
   6   2.0000     -11.226918      -305.5000
   7   2.0000     -11.217199      -305.2355
   8   2.0000      -1.413164       -38.4541
   9   2.0000      -1.090896       -29.6848
  10   2.0000      -1.040170       -28.3045
  11   2.0000      -0.980848       -26.6902
  12   2.0000      -0.921686       -25.0803
  13   2.0000      -0.873434       -23.7673
  14   2.0000      -0.782208       -21.2850
  15   2.0000      -0.723746       -19.6941
  16   2.0000      -0.686081       -18.6692
  17   2.0000      -0.663753       -18.0616
  18   2.0000      -0.640432       -17.4270
  19   2.0000      -0.610607       -16.6155
  20   2.0000      -0.584494       -15.9049
  21   2.0000      -0.563767       -15.3409
  22   2.0000      -0.541558       -14.7365
  23   2.0000      -0.528240       -14.3741
  24   2.0000      -0.499592       -13.5946
  25   2.0000      -0.489943       -13.3320
  26   2.0000      -0.450594       -12.2613
  27   2.0000      -0.430230       -11.7071
  28   2.0000      -0.391801       -10.6614
  29   2.0000      -0.390627       -10.6295
  30   0.0000       0.137565         3.7433
  31   0.0000       0.158258         4.3064
  32   0.0000       0.163034         4.4364
  33   0.0000       0.164428         4.4743
  34   0.0000       0.176577         4.8049

MULLIKEN ATOMIC CHARGES
-----------------------
   0 C :   -0.437691
   1 C :   -0.194667
   2 C :    0.226331
   3 C :   -0.308179
   4 C :   -0.058374
   5 C :   -0.186718
   6 C :   -0.097824
   7 O :   -0.342194
   8 H :    0.137352
   9 H :    0.129735
  10 H :    0.147439
  11 H :    0.132862
  12 H :    0.111796
  13 H :    0.159665
  14 H :    0.159989
  15 H :    0.190158
  16 H :    0.115770
  17 H :    0.114550
Sum of atomic charges:    0.0000000

LOEWDIN ATOMIC CHARGES
----------------------
   0 C :   -0.309786
   1 C :   -0.246959
   2 C :   -0.318907
   3 C :   -0.205681
   4 C :   -0.105243
   5 C :   -0.103077
   6 C :   -0.239381
   7 O :    0.163072
   8 H :    0.123099
   9 H :    0.120552
  10 H :    0.127460
  11 H :    0.148993
  12 H :    0.145622
  13 H :    0.166359
  14 H :    0.163523
  15 H :    0.126883
  16 H :    0.122088
  17 H :    0.121381

  Mayer bond orders larger than 0.1
B(  0-C ,  1-C ) :   0.9167 B(  0-C ,  8-H ) :   0.9391 B(  0-C ,  9-H ) :   0.9355
B(  0-C , 10-H ) :   0.9375 B(  1-C ,  2-C ) :   0.9232 B(  1-C , 11-H ) :   0.9273
B(  1-C , 12-H ) :   0.9257 B(  2-C ,  3-C ) :   0.8491 B(  2-C ,  6-C ) :   0.9850
B(  2-C ,  7-O ) :   0.8476 B(  3-C ,  4-C ) :   1.0187 B(  3-C , 13-H ) :   0.9279
B(  3-C , 14-H ) :   0.9305 B(  4-C ,  5-C ) :   2.6404 B(  5-C , 15-H ) :   0.9074
B(  6-C ,  7-O ) :   0.9133 B(  6-C , 16-H ) :   0.9088 B(  6-C , 17-H ) :   0.9038

MP2 TOTAL ENERGY:     -347.141322843 Eh
FINAL SINGLE POINT ENERGY      -347.141322843103

DIPOLE MOMENT
-------------
                                X             Y             Z
Electronic contribution:     -3.93003      -2.44211       1.52650
Nuclear contribution   :      3.83933       2.26128      -2.04165
                        -----------------------------------------
Total Dipole Moment    :     -0.09070      -0.18083      -0.51515
                        -----------------------------------------
Magnitude (a.u.)       :      0.55345
Magnitude (Debye)      :      1.40675

                             ****ORCA TERMINATED NORMALLY****
TOTAL RUN TIME: 0 days 0 hours 18 minutes 47 seconds 688 msec
