                         Program Version 3.0.3 - RELEASE   -
|  1> ! RI-MP2 RIJK def2-TZVP def2-TZVP/C def2-TZVP/JK TIGHTSCF
|  2> % maxcore 2000
|  3> % mp2 density relaxed end
|  4> *xyz 0 1
|  5>  N       -0.0512714641     1.2404046429    -0.4286914590
|  6>  C        0.0322446684     0.0152002457    -0.0753700659
|  7>  C        1.2516956895    -0.7004352145     0.3259764182
|  8>  N        1.2949479646    -1.9347057413     0.6749403007
|  9>  C        0.0775071502    -2.6068682033     0.6582328335
| 10>  N       -1.0691281468    -2.1208880411     0.3327305906
| 11>  N       -1.1111853014    -0.8139919850    -0.0361080623
| 12>  C       -2.3955758536    -0.3048066529    -0.3908791624
| 13>  O       -3.3914163283    -0.9664584262    -0.3733110463
| 14>  H        0.8663802542     1.6826726403    -0.3983245682
| 15>  H        2.1764587674    -0.1219818850     0.3198902633
| 16>  H        0.0966749009    -3.6499175240     0.9502112934
| 17>  H       -2.3239259009     0.7528999144    -0.6715152257
| 18> *
| 19>
| 20>                          ****END OF INPUT****

CARTESIAN COORDINATES (ANGSTROEM)
---------------------------------
  N     -0.051271    1.240405   -0.428691
  C      0.032245    0.015200   -0.075370
  C      1.251696   -0.700435    0.325976
  N      1.294948   -1.934706    0.674940
  C      0.077507   -2.606868    0.658233
  N     -1.069128   -2.120888    0.332731
  N     -1.111185   -0.813992   -0.036108
  C     -2.395576   -0.304807   -0.390879
  O     -3.391416   -0.966458   -0.373311
  H      0.866380    1.682673   -0.398325
  H      2.176459   -0.121982    0.319890
  H      0.096675   -3.649918    0.950211
  H     -2.323926    0.752900   -0.671515

 Total Charge           Charge          ....    0
 Multiplicity           Mult            ....    1
 Number of Electrons    NEL             ....   64
 Basis Dimension        Dim             ....  303

ORBITAL ENERGIES
----------------

  NO   OCC          E(Eh)            E(eV)
   0   2.0000     -20.562239      -559.5270
   1   2.0000     -15.671195      -426.4349
   2   2.0000     -15.641927      -425.6385
   3   2.0000     -15.625740      -425.1980
   4   2.0000     -15.573547      -423.7778
   5   2.0000     -11.372632      -309.4651
   6   2.0000     -11.370831      -309.4160
   7   2.0000     -11.342976      -308.6581
   8   2.0000     -11.330200      -308.3104
   9   2.0000      -1.437682       -39.1213
  10   2.0000      -1.389101       -37.7993
  11   2.0000      -1.285915       -34.9915
  12   2.0000      -1.258646       -34.2495
  13   2.0000      -1.139809       -31.0158
  14   2.0000      -0.988402       -26.8958
  15   2.0000      -0.926060       -25.1994
  16   2.0000      -0.868028       -23.6203
  17   2.0000      -0.787597       -21.4316
  18   2.0000      -0.750013       -20.4089
  19   2.0000      -0.704811       -19.1789
  20   2.0000      -0.685236       -18.6462
  21   2.0000      -0.670886       -18.2557
  22   2.0000      -0.652008       -17.7420
  23   2.0000      -0.626392       -17.0450
  24   2.0000      -0.561781       -15.2868
  25   2.0000      -0.539674       -14.6853
  26   2.0000      -0.510418       -13.8892
  27   2.0000      -0.508715       -13.8428
  28   2.0000      -0.493559       -13.4304
  29   2.0000      -0.464993       -12.6531
  30   2.0000      -0.432801       -11.7771
  31   2.0000      -0.355371        -9.6701
  32   0.0000       0.024234         0.6594
  33   0.0000       0.124414         3.3855
  34   0.0000       0.124920         3.3993
  35   0.0000       0.151959         4.1350
  36   0.0000       0.163350         4.4450

MULLIKEN ATOMIC CHARGES
-----------------------
   0 N :   -0.409855
   1 C :    0.147365
   2 C :   -0.065789
   3 N :   -0.202240
   4 C :    0.043659
   5 N :   -0.152135
   6 N :    0.043606
   7 C :    0.138183
   8 O :   -0.237247
   9 H :    0.220933
  10 H :    0.153097
  11 H :    0.162886
  12 H :    0.157536
Sum of atomic charges:   -0.0000000

LOEWDIN ATOMIC CHARGES
----------------------
   0 N :   -0.062633
   1 C :   -0.341643
   2 C :   -0.160118
   3 N :    0.138853
   4 C :   -0.298915
   5 N :    0.121124
   6 N :    0.181939
   7 C :   -0.328791
   8 O :    0.155225
   9 H :    0.168917
  10 H :    0.148210
  11 H :    0.143987
  12 H :    0.133845

  Mayer bond orders larger than 0.1
B(  0-N ,  1-C ) :   1.8036 B(  0-N ,  9-H ) :   0.8593 B(  1-C ,  2-C ) :   0.9997
B(  1-C ,  6-N ) :   1.0519 B(  2-C ,  3-N ) :   1.7092 B(  2-C , 10-H ) :   0.9339
B(  3-N ,  4-C ) :   1.0762 B(  4-C ,  5-N ) :   1.6554 B(  4-C , 11-H ) :   0.9270
B(  5-N ,  6-N ) :   0.8997 B(  6-N ,  7-C ) :   0.9100 B(  7-C ,  8-O ) :   2.0232
B(  7-C , 12-H ) :   0.9156

MP2 TOTAL ENERGY:     -448.182482942 Eh
FINAL SINGLE POINT ENERGY      -448.182482942159

DIPOLE MOMENT
-------------
                                X             Y             Z
Electronic contribution:     -1.74268      -1.69930       0.18019
Nuclear contribution   :      3.12145       2.09672      -0.06060
                        -----------------------------------------
Total Dipole Moment    :      1.37877       0.39742       0.11959
                        -----------------------------------------
Magnitude (a.u.)       :      1.43988
Magnitude (Debye)      :      3.65989

                             ****ORCA TERMINATED NORMALLY****
TOTAL RUN TIME: 0 days 0 hours 15 minutes 0 seconds 257 msec
