                         Program Version 3.0.3 - RELEASE   -
|  1> ! RI-MP2 RIJK def2-TZVP def2-TZVP/C def2-TZVP/JK TIGHTSCF
|  2> % maxcore 2000
|  3> % mp2 density relaxed end
|  4> *xyz 0 1
|  5>  C       -0.8429647406     1.7168156297    -1.2174414216
|  6>  C       -1.2041997975     0.2450863042    -1.3453769592
|  7>  O       -1.0699408076    -0.3507979054    -0.0671257802
|  8>  C       -1.5727636503    -1.6693345285     0.0628517870
|  9>  C       -0.7905653669    -2.6819210529    -0.7852684603
| 10>  C        0.7193680569    -2.6600600919    -0.5324757318
| 11>  C       -1.6931530691    -2.0658141113     1.5585094712
| 12>  C       -3.1146464600    -2.6197699978     1.2741620134
| 13>  C       -3.1224530933    -1.8335052036    -0.0645166799
| 14>  H       -0.9223010596     2.2168892746    -2.1875844980
| 15>  H       -1.5120304990     2.2160611581    -0.5108111923
| 16>  H        0.1821485285     1.8284343530    -0.8524277930
| 17>  H       -2.2362491363     0.1350991096    -1.7139264127
| 18>  H       -0.5448946132    -0.2422206802    -2.0800803661
| 19>  H       -1.1917426357    -3.6820269363    -0.5800902483
| 20>  H       -0.9935633829    -2.4941961284    -1.8473949924
| 21>  H        1.2338785781    -3.3832525859    -1.1724667133
| 22>  H        1.1359441677    -1.6689382401    -0.7309603526
| 23>  H        0.9547893934    -2.9101997159     0.5071331289
| 24>  H       -0.9461063478    -2.7547603516     1.9598888877
| 25>  H       -1.7160354871    -1.1654983691     2.1764705604
| 26>  H       -3.1200412613    -3.7022051280     1.1219696851
| 27>  H       -3.8954273947    -2.3733200170     1.9962808413
| 28>  H       -3.6192710033    -0.8651968437     0.0386639187
| 29>  H       -3.5083998282    -2.3416626116    -0.9524487819
| 30> *
| 31>
| 32>                          ****END OF INPUT****

CARTESIAN COORDINATES (ANGSTROEM)
---------------------------------
  C     -0.842965    1.716816   -1.217441
  C     -1.204200    0.245086   -1.345377
  O     -1.069941   -0.350798   -0.067126
  C     -1.572764   -1.669335    0.062852
  C     -0.790565   -2.681921   -0.785268
  C      0.719368   -2.660060   -0.532476
  C     -1.693153   -2.065814    1.558509
  C     -3.114646   -2.619770    1.274162
  C     -3.122453   -1.833505   -0.064517
  H     -0.922301    2.216889   -2.187584
  H     -1.512030    2.216061   -0.510811
  H      0.182149    1.828434   -0.852428
  H     -2.236249    0.135099   -1.713926
  H     -0.544895   -0.242221   -2.080080
  H     -1.191743   -3.682027   -0.580090
  H     -0.993563   -2.494196   -1.847395
  H      1.233879   -3.383253   -1.172467
  H      1.135944   -1.668938   -0.730960
  H      0.954789   -2.910200    0.507133
  H     -0.946106   -2.754760    1.959889
  H     -1.716035   -1.165498    2.176471
  H     -3.120041   -3.702205    1.121970
  H     -3.895427   -2.373320    1.996281
  H     -3.619271   -0.865197    0.038664
  H     -3.508400   -2.341663   -0.952449

 Total Charge           Charge          ....    0
 Multiplicity           Mult            ....    1
 Number of Electrons    NEL             ....   72
 Basis Dimension        Dim             ....  375

ORBITAL ENERGIES
----------------

  NO   OCC          E(Eh)            E(eV)
   0   2.0000     -20.543840      -559.0263
   1   2.0000     -11.276473      -306.8484
   2   2.0000     -11.269449      -306.6573
   3   2.0000     -11.218286      -305.2651
   4   2.0000     -11.218283      -305.2650
   5   2.0000     -11.215364      -305.1856
   6   2.0000     -11.211581      -305.0826
   7   2.0000     -11.211009      -305.0671
   8   2.0000     -11.208330      -304.9942
   9   2.0000      -1.367431       -37.2097
  10   2.0000      -1.124510       -30.5995
  11   2.0000      -1.025490       -27.9050
  12   2.0000      -1.007246       -27.4085
  13   2.0000      -0.902148       -24.5487
  14   2.0000      -0.889710       -24.2103
  15   2.0000      -0.839907       -22.8550
  16   2.0000      -0.810187       -22.0463
  17   2.0000      -0.726665       -19.7735
  18   2.0000      -0.672159       -18.2904
  19   2.0000      -0.660357       -17.9692
  20   2.0000      -0.634806       -17.2739
  21   2.0000      -0.609934       -16.5972
  22   2.0000      -0.592775       -16.1302
  23   2.0000      -0.575749       -15.6669
  24   2.0000      -0.546570       -14.8729
  25   2.0000      -0.538085       -14.6421
  26   2.0000      -0.527844       -14.3634
  27   2.0000      -0.519560       -14.1379
  28   2.0000      -0.506188       -13.7741
  29   2.0000      -0.491661       -13.3788
  30   2.0000      -0.480427       -13.0731
  31   2.0000      -0.462189       -12.5768
  32   2.0000      -0.456954       -12.4343
  33   2.0000      -0.456019       -12.4089
  34   2.0000      -0.418575       -11.3900
  35   2.0000      -0.393243       -10.7007
  36   0.0000       0.132681         3.6104
  37   0.0000       0.151926         4.1341
  38   0.0000       0.157661         4.2902
  39   0.0000       0.167580         4.5601
  40   0.0000       0.182599         4.9688

MULLIKEN ATOMIC CHARGES
-----------------------
   0 C :   -0.366197
   1 C :   -0.064628
   2 O :   -0.314045
   3 C :    0.267448
   4 C :   -0.287867
   5 C :   -0.403630
   6 C :   -0.243442
   7 C :   -0.243082
   8 C :   -0.255906
   9 H :    0.120876
  10 H :    0.127383
  11 H :    0.130168
  12 H :    0.100155
  13 H :    0.098143
  14 H :    0.120330
  15 H :    0.119699
  16 H :    0.132731
  17 H :    0.135889
  18 H :    0.122754
  19 H :    0.114017
  20 H :    0.121767
  21 H :    0.118194
  22 H :    0.115125
  23 H :    0.117712
  24 H :    0.116405
Sum of atomic charges:    0.0000000

LOEWDIN ATOMIC CHARGES
----------------------
   0 C :   -0.317745
   1 C :   -0.349139
   2 O :    0.198794
   3 C :   -0.342906
   4 C :   -0.259623
   5 C :   -0.313182
   6 C :   -0.198823
   7 C :   -0.243718
   8 C :   -0.212669
   9 H :    0.122908
  10 H :    0.122736
  11 H :    0.123799
  12 H :    0.119739
  13 H :    0.116698
  14 H :    0.145132
  15 H :    0.138315
  16 H :    0.120376
  17 H :    0.124178
  18 H :    0.121208
  19 H :    0.125566
  20 H :    0.140792
  21 H :    0.130280
  22 H :    0.123598
  23 H :    0.138667
  24 H :    0.125019

  Mayer bond orders larger than 0.1
B(  0-C ,  1-C ) :   0.9528 B(  0-C ,  9-H ) :   0.9345 B(  0-C , 10-H ) :   0.9378
B(  0-C , 11-H ) :   0.9369 B(  1-C ,  2-O ) :   0.8940 B(  1-C , 12-H ) :   0.9193
B(  1-C , 13-H ) :   0.9186 B(  2-O ,  3-C ) :   0.9763 B(  3-C ,  4-C ) :   0.9135
B(  3-C ,  6-C ) :   0.8661 B(  3-C ,  8-C ) :   0.9082 B(  4-C ,  5-C ) :   0.9271
B(  4-C , 14-H ) :   0.9202 B(  4-C , 15-H ) :   0.9300 B(  5-C , 16-H ) :   0.9404
B(  5-C , 17-H ) :   0.9375 B(  5-C , 18-H ) :   0.9379 B(  6-C ,  7-C ) :   0.9413
B(  6-C , 19-H ) :   0.9275 B(  6-C , 20-H ) :   0.9209 B(  7-C ,  8-C ) :   0.9600
B(  7-C , 21-H ) :   0.9263 B(  7-C , 22-H ) :   0.9281 B(  8-C , 23-H ) :   0.9176
B(  8-C , 24-H ) :   0.9261

MP2 TOTAL ENERGY:     -388.805988400 Eh
FINAL SINGLE POINT ENERGY      -388.805988400421

DIPOLE MOMENT
-------------
                                X             Y             Z
Electronic contribution:     -1.55879       0.26595       2.01074
Nuclear contribution   :      1.37382      -0.43825      -2.35682
                        -----------------------------------------
Total Dipole Moment    :     -0.18497      -0.17230      -0.34608
                        -----------------------------------------
Magnitude (a.u.)       :      0.42857
Magnitude (Debye)      :      1.08935

                             ****ORCA TERMINATED NORMALLY****
TOTAL RUN TIME: 0 days 0 hours 23 minutes 19 seconds 692 msec
