                         Program Version 3.0.3 - RELEASE   -
|  1> ! RI-MP2 RIJK def2-TZVP def2-TZVP/C def2-TZVP/JK TIGHTSCF
|  2> % maxcore 2000
|  3> % mp2 density relaxed end
|  4> *xyz 0 1
|  5>  C        0.2464095653     1.4963425090     0.0909536484
|  6>  O        1.1465126037     0.4297136064    -0.2085033773
|  7>  C       -0.2189318292     0.1026242548     0.0808755345
|  8>  C       -0.4677631285    -0.6645242221     1.3321175040
|  9>  C       -1.8324369916    -0.8547191469     2.0681193319
| 10>  C       -0.7872650576    -1.6480602643     2.9038922187
| 11>  C       -0.2263675609    -2.1916569180     1.5601419570
| 12>  C        0.1710631343    -0.4338909626     2.7353594110
| 13>  H        0.4171392710     1.9972467913     1.0425453273
| 14>  H        0.0011947628     2.1525203679    -0.7433225184
| 15>  H       -0.7844738294    -0.2344006928    -0.7905721522
| 16>  H       -2.2632960399     0.0365885468     2.5334249417
| 17>  H       -2.5935212086    -1.4420662786     1.5462134142
| 18>  H       -0.9715269098    -2.2147282907     3.8164506808
| 19>  H       -0.8688783118    -2.8769560361     0.9996341550
| 20>  H        0.8153347895    -2.5226601691     1.5556757702
| 21>  H        1.2420390464    -0.6330344013     2.8184330609
| 22>  H       -0.1101962256     0.4857453163     3.2569998924
| 23> *
| 24>
| 25>                          ****END OF INPUT****

CARTESIAN COORDINATES (ANGSTROEM)
---------------------------------
  C      0.246410    1.496343    0.090954
  O      1.146513    0.429714   -0.208503
  C     -0.218932    0.102624    0.080876
  C     -0.467763   -0.664524    1.332118
  C     -1.832437   -0.854719    2.068119
  C     -0.787265   -1.648060    2.903892
  C     -0.226368   -2.191657    1.560142
  C      0.171063   -0.433891    2.735359
  H      0.417139    1.997247    1.042545
  H      0.001195    2.152520   -0.743323
  H     -0.784474   -0.234401   -0.790572
  H     -2.263296    0.036589    2.533425
  H     -2.593521   -1.442066    1.546213
  H     -0.971527   -2.214728    3.816451
  H     -0.868878   -2.876956    0.999634
  H      0.815335   -2.522660    1.555676
  H      1.242039   -0.633034    2.818433
  H     -0.110196    0.485745    3.257000

 Total Charge           Charge          ....    0
 Multiplicity           Mult            ....    1
 Number of Electrons    NEL             ....   60
 Basis Dimension        Dim             ....  308

ORBITAL ENERGIES
----------------

  NO   OCC          E(Eh)            E(eV)
   0   2.0000     -20.564958      -559.6010
   1   2.0000     -11.284519      -307.0674
   2   2.0000     -11.280793      -306.9660
   3   2.0000     -11.252420      -306.1939
   4   2.0000     -11.244910      -305.9896
   5   2.0000     -11.232361      -305.6481
   6   2.0000     -11.228847      -305.5525
   7   2.0000     -11.228462      -305.5420
   8   2.0000      -1.407292       -38.2944
   9   2.0000      -1.212539       -32.9949
  10   2.0000      -0.958079       -26.0706
  11   2.0000      -0.909485       -24.7484
  12   2.0000      -0.908459       -24.7204
  13   2.0000      -0.889428       -24.2026
  14   2.0000      -0.800677       -21.7875
  15   2.0000      -0.731501       -19.9051
  16   2.0000      -0.704534       -19.1714
  17   2.0000      -0.668949       -18.2030
  18   2.0000      -0.617955       -16.8154
  19   2.0000      -0.617370       -16.7995
  20   2.0000      -0.579429       -15.7671
  21   2.0000      -0.551703       -15.0126
  22   2.0000      -0.502899       -13.6846
  23   2.0000      -0.492739       -13.4081
  24   2.0000      -0.470312       -12.7978
  25   2.0000      -0.454578       -12.3697
  26   2.0000      -0.453078       -12.3289
  27   2.0000      -0.449218       -12.2239
  28   2.0000      -0.423893       -11.5347
  29   2.0000      -0.412882       -11.2351
  30   0.0000       0.145814         3.9678
  31   0.0000       0.161605         4.3975
  32   0.0000       0.164174         4.4674
  33   0.0000       0.174477         4.7477
  34   0.0000       0.184526         5.0212

MULLIKEN ATOMIC CHARGES
-----------------------
   0 C :   -0.060975
   1 O :   -0.329908
   2 C :   -0.016186
   3 C :   -0.046755
   4 C :   -0.193084
   5 C :   -0.132466
   6 C :   -0.193406
   7 C :   -0.202931
   8 H :    0.115935
   9 H :    0.115496
  10 H :    0.119939
  11 H :    0.110708
  12 H :    0.113701
  13 H :    0.136624
  14 H :    0.111458
  15 H :    0.119392
  16 H :    0.122349
  17 H :    0.110110
Sum of atomic charges:    0.0000000

LOEWDIN ATOMIC CHARGES
----------------------
   0 C :   -0.260941
   1 O :    0.147893
   2 C :   -0.260320
   3 C :   -0.211485
   4 C :   -0.171640
   5 C :   -0.185140
   6 C :   -0.169423
   7 C :   -0.171371
   8 H :    0.120839
   9 H :    0.118432
  10 H :    0.142415
  11 H :    0.128534
  12 H :    0.128735
  13 H :    0.122956
  14 H :    0.128384
  15 H :    0.131779
  16 H :    0.132648
  17 H :    0.127706

  Mayer bond orders larger than 0.1
B(  0-C ,  1-O ) :   0.9083 B(  0-C ,  2-C ) :   0.9835 B(  0-C ,  8-H ) :   0.9155
B(  0-C ,  9-H ) :   0.9173 B(  1-O ,  2-C ) :   0.9263 B(  2-C ,  3-C ) :   0.8586
B(  2-C , 10-H ) :   0.9276 B(  3-C ,  4-C ) :   0.8726 B(  3-C ,  6-C ) :   0.8896
B(  3-C ,  7-C ) :   0.8997 B(  4-C ,  5-C ) :   0.9103 B(  4-C , 11-H ) :   0.9302
B(  4-C , 12-H ) :   0.9292 B(  5-C ,  6-C ) :   0.9066 B(  5-C ,  7-C ) :   0.9026
B(  5-C , 13-H ) :   0.8998 B(  6-C , 14-H ) :   0.9290 B(  6-C , 15-H ) :   0.9286
B(  7-C , 16-H ) :   0.9302 B(  7-C , 17-H ) :   0.9293

MP2 TOTAL ENERGY:     -347.125281012 Eh
FINAL SINGLE POINT ENERGY      -347.125281011976

DIPOLE MOMENT
-------------
                                X             Y             Z
Electronic contribution:      2.07140       0.91688      -2.67267
Nuclear contribution   :     -2.71590      -0.75868       2.91071
                        -----------------------------------------
Total Dipole Moment    :     -0.64450       0.15820       0.23805
                        -----------------------------------------
Magnitude (a.u.)       :      0.70503
Magnitude (Debye)      :      1.79205

                             ****ORCA TERMINATED NORMALLY****
TOTAL RUN TIME: 0 days 0 hours 12 minutes 5 seconds 275 msec
