                         Program Version 3.0.3 - RELEASE   -
|  1> ! RI-MP2 RIJK def2-TZVP def2-TZVP/C def2-TZVP/JK TIGHTSCF
|  2> % maxcore 2000
|  3> % mp2 density relaxed end
|  4> *xyz 0 1
|  5>  C        0.0994212760     1.4393001700    -0.0257460144
|  6>  C       -0.0517263424    -0.1047756522    -0.0316720214
|  7>  C       -1.4508609572    -0.5028584653     0.0368287735
|  8>  C       -2.6092367207    -0.8104219351     0.1147720892
|  9>  C        0.6620028570    -0.6648087690    -1.2807285985
| 10>  O        0.0593445743    -1.0130614296    -2.2699931924
| 11>  C        2.1512276382    -0.7146732150    -1.2013236795
| 12>  C        2.8424273350    -1.8499348233    -1.9466548227
| 13>  C        2.9285046629    -0.4663068305    -2.4873920613
| 14>  H        1.1540151660     1.7274618211    -0.0543567842
| 15>  H       -0.4050142360     1.8687638492    -0.8948093756
| 16>  H       -0.3517121124     1.8558609839     0.8775299109
| 17>  H        0.4756778085    -0.4970961799     0.8486098086
| 18>  H       -3.6305242113    -1.0951406320     0.1720846260
| 19>  H        2.6031940613    -0.3838339322    -0.2732568334
| 20>  H        3.7148703904    -2.2875592769    -1.4756016016
| 21>  H        2.1808666653    -2.5439790718    -2.4519937121
| 22>  H        2.3253933023    -0.2319741872    -3.3569544016
| 23>  H        3.8628066128     0.0763392358    -2.4013422893
| 24> *
| 25>
| 26>                          ****END OF INPUT****

CARTESIAN COORDINATES (ANGSTROEM)
---------------------------------
  C      0.099421    1.439300   -0.025746
  C     -0.051726   -0.104776   -0.031672
  C     -1.450861   -0.502858    0.036829
  C     -2.609237   -0.810422    0.114772
  C      0.662003   -0.664809   -1.280729
  O      0.059345   -1.013061   -2.269993
  C      2.151228   -0.714673   -1.201324
  C      2.842427   -1.849935   -1.946655
  C      2.928505   -0.466307   -2.487392
  H      1.154015    1.727462   -0.054357
  H     -0.405014    1.868764   -0.894809
  H     -0.351712    1.855861    0.877530
  H      0.475678   -0.497096    0.848610
  H     -3.630524   -1.095141    0.172085
  H      2.603194   -0.383834   -0.273257
  H      3.714870   -2.287559   -1.475602
  H      2.180867   -2.543979   -2.451994
  H      2.325393   -0.231974   -3.356954
  H      3.862807    0.076339   -2.401342

 Total Charge           Charge          ....    0
 Multiplicity           Mult            ....    1
 Number of Electrons    NEL             ....   66
 Basis Dimension        Dim             ....  339

ORBITAL ENERGIES
----------------

  NO   OCC          E(Eh)            E(eV)
   0   2.0000     -20.541517      -558.9631
   1   2.0000     -11.335071      -308.4430
   2   2.0000     -11.273001      -306.7540
   3   2.0000     -11.248263      -306.0808
   4   2.0000     -11.244004      -305.9649
   5   2.0000     -11.243301      -305.9458
   6   2.0000     -11.239962      -305.8549
   7   2.0000     -11.231059      -305.6127
   8   2.0000     -11.220126      -305.3152
   9   2.0000      -1.389594       -37.8128
  10   2.0000      -1.156974       -31.4829
  11   2.0000      -1.101699       -29.9788
  12   2.0000      -1.003484       -27.3062
  13   2.0000      -0.925998       -25.1977
  14   2.0000      -0.873616       -23.7723
  15   2.0000      -0.834735       -22.7143
  16   2.0000      -0.747936       -20.3524
  17   2.0000      -0.718889       -19.5620
  18   2.0000      -0.698724       -19.0132
  19   2.0000      -0.671448       -18.2710
  20   2.0000      -0.634251       -17.2588
  21   2.0000      -0.628723       -17.1084
  22   2.0000      -0.588969       -16.0267
  23   2.0000      -0.564712       -15.3666
  24   2.0000      -0.555620       -15.1192
  25   2.0000      -0.537669       -14.6307
  26   2.0000      -0.530958       -14.4481
  27   2.0000      -0.506162       -13.7734
  28   2.0000      -0.454594       -12.3701
  29   2.0000      -0.422255       -11.4901
  30   2.0000      -0.418733       -11.3943
  31   2.0000      -0.385887       -10.5005
  32   2.0000      -0.380877       -10.3642
  33   0.0000       0.122718         3.3393
  34   0.0000       0.134743         3.6665
  35   0.0000       0.160540         4.3685
  36   0.0000       0.165188         4.4950
  37   0.0000       0.168133         4.5751

MULLIKEN ATOMIC CHARGES
-----------------------
   0 C :   -0.409086
   1 C :   -0.161748
   2 C :   -0.013385
   3 C :   -0.140230
   4 C :    0.177889
   5 O :   -0.291472
   6 C :   -0.141059
   7 C :   -0.249188
   8 C :   -0.246384
   9 H :    0.137966
  10 H :    0.149407
  11 H :    0.148258
  12 H :    0.128202
  13 H :    0.191262
  14 H :    0.134665
  15 H :    0.139605
  16 H :    0.154407
  17 H :    0.152436
  18 H :    0.138454
Sum of atomic charges:   -0.0000000

LOEWDIN ATOMIC CHARGES
----------------------
   0 C :   -0.258057
   1 C :   -0.235100
   2 C :   -0.082963
   3 C :   -0.089202
   4 C :   -0.288098
   5 O :    0.167194
   6 C :   -0.200676
   7 C :   -0.204147
   8 C :   -0.206884
   9 H :    0.125493
  10 H :    0.133715
  11 H :    0.130409
  12 H :    0.175803
  13 H :    0.126844
  14 H :    0.150446
  15 H :    0.134278
  16 H :    0.143820
  17 H :    0.143224
  18 H :    0.133903

  Mayer bond orders larger than 0.1
B(  0-C ,  1-C ) :   0.8632 B(  0-C ,  9-H ) :   0.9293 B(  0-C , 10-H ) :   0.9327
B(  0-C , 11-H ) :   0.9332 B(  1-C ,  2-C ) :   1.1516 B(  1-C ,  3-C ) :  -0.1019
B(  1-C ,  4-C ) :   0.8762 B(  1-C , 12-H ) :   0.9160 B(  2-C ,  3-C ) :   2.6036
B(  3-C , 13-H ) :   0.8884 B(  4-C ,  5-O ) :   1.9740 B(  4-C ,  6-C ) :   0.9549
B(  6-C ,  7-C ) :   0.8394 B(  6-C ,  8-C ) :   0.8273 B(  6-C , 14-H ) :   0.9155
B(  7-C ,  8-C ) :   0.9391 B(  7-C , 15-H ) :   0.9292 B(  7-C , 16-H ) :   0.9225
B(  8-C , 17-H ) :   0.9244 B(  8-C , 18-H ) :   0.9298

MP2 TOTAL ENERGY:     -385.173184810 Eh
FINAL SINGLE POINT ENERGY      -385.173184809899

DIPOLE MOMENT
-------------
                                X             Y             Z
Electronic contribution:     -5.09937      -2.97015      -0.65192
Nuclear contribution   :      5.97144       3.32570       1.30764
                        -----------------------------------------
Total Dipole Moment    :      0.87207       0.35556       0.65572
                        -----------------------------------------
Magnitude (a.u.)       :      1.14756
Magnitude (Debye)      :      2.91686

                             ****ORCA TERMINATED NORMALLY****
TOTAL RUN TIME: 0 days 0 hours 18 minutes 51 seconds 402 msec
