                         Program Version 3.0.3 - RELEASE   -
|  1> ! RI-MP2 RIJK def2-TZVP def2-TZVP/C def2-TZVP/JK TIGHTSCF
|  2> % maxcore 2000
|  3> % mp2 density relaxed end
|  4> *xyz 0 1
|  5>  C        0.0994197221     1.3657700838     0.0902496859
|  6>  O       -0.1982314260     0.0100549622    -0.1453750028
|  7>  C        0.5628206315    -0.5704003778    -1.1828662604
|  8>  C        2.0658025674    -0.8129087093    -0.8409145809
|  9>  C        2.3561031137    -2.1772335586    -1.4560815086
| 10>  C        1.5671193513    -3.3851180840    -0.9734862893
| 11>  C        0.2646754715    -2.9456983379    -0.3015663786
| 12>  C        0.0285372948    -1.9697673999    -1.5006768986
| 13>  C        1.1830564696    -2.6742291177    -2.2615184282
| 14>  H        1.1349713473     1.5130997070     0.4318220834
| 15>  H       -0.0533564993     1.9780371804    -0.8132352767
| 16>  H       -0.5788811556     1.7175676101     0.8717717983
| 17>  H        0.4917789501     0.0607501268    -2.0859111565
| 18>  H        2.7146812016    -0.0407923088    -1.2648390006
| 19>  H        2.2068233882    -0.8008615770     0.2458059380
| 20>  H        3.3548767399    -2.3962053153    -1.8176119277
| 21>  H        2.0525256216    -4.3474018208    -0.8555761266
| 22>  H       -0.4721924167    -3.7524773867    -0.2990434786
| 23>  H        0.3107074780    -2.5009096723     0.6970106072
| 24>  H       -0.9702651521    -1.9704888203    -1.9352303647
| 25>  H        1.2078102911    -3.0055081942    -3.2909143140
| 26> *
| 27>
| 28>                          ****END OF INPUT****

CARTESIAN COORDINATES (ANGSTROEM)
---------------------------------
  C      0.099420    1.365770    0.090250
  O     -0.198231    0.010055   -0.145375
  C      0.562821   -0.570400   -1.182866
  C      2.065803   -0.812909   -0.840915
  C      2.356103   -2.177234   -1.456082
  C      1.567119   -3.385118   -0.973486
  C      0.264675   -2.945698   -0.301566
  C      0.028537   -1.969767   -1.500677
  C      1.183056   -2.674229   -2.261518
  H      1.134971    1.513100    0.431822
  H     -0.053356    1.978037   -0.813235
  H     -0.578881    1.717568    0.871772
  H      0.491779    0.060750   -2.085911
  H      2.714681   -0.040792   -1.264839
  H      2.206823   -0.800862    0.245806
  H      3.354877   -2.396205   -1.817612
  H      2.052526   -4.347402   -0.855576
  H     -0.472192   -3.752477   -0.299043
  H      0.310707   -2.500910    0.697011
  H     -0.970265   -1.970489   -1.935230
  H      1.207810   -3.005508   -3.290914

 Total Charge           Charge          ....    0
 Multiplicity           Mult            ....    1
 Number of Electrons    NEL             ....   68
 Basis Dimension        Dim             ....  351

ORBITAL ENERGIES
----------------

  NO   OCC          E(Eh)            E(eV)
   0   2.0000     -20.549095      -559.1693
   1   2.0000     -11.272301      -306.7349
   2   2.0000     -11.267121      -306.5939
   3   2.0000     -11.227920      -305.5272
   4   2.0000     -11.226548      -305.4899
   5   2.0000     -11.224106      -305.4234
   6   2.0000     -11.223011      -305.3937
   7   2.0000     -11.216868      -305.2265
   8   2.0000     -11.215577      -305.1914
   9   2.0000      -1.371792       -37.3284
  10   2.0000      -1.204076       -32.7646
  11   2.0000      -1.016454       -27.6591
  12   2.0000      -0.992806       -27.0156
  13   2.0000      -0.916916       -24.9506
  14   2.0000      -0.891523       -24.2596
  15   2.0000      -0.796094       -21.6628
  16   2.0000      -0.757123       -20.6024
  17   2.0000      -0.715197       -19.4615
  18   2.0000      -0.699814       -19.0429
  19   2.0000      -0.665040       -18.0967
  20   2.0000      -0.639475       -17.4010
  21   2.0000      -0.618596       -16.8329
  22   2.0000      -0.582186       -15.8421
  23   2.0000      -0.567591       -15.4449
  24   2.0000      -0.543022       -14.7764
  25   2.0000      -0.534947       -14.5567
  26   2.0000      -0.532339       -14.4857
  27   2.0000      -0.491491       -13.3742
  28   2.0000      -0.465526       -12.6676
  29   2.0000      -0.461455       -12.5568
  30   2.0000      -0.435788       -11.8584
  31   2.0000      -0.406909       -11.0726
  32   2.0000      -0.386634       -10.5208
  33   2.0000      -0.372005       -10.1228
  34   0.0000       0.140775         3.8307
  35   0.0000       0.163406         4.4465
  36   0.0000       0.165854         4.5131
  37   0.0000       0.174584         4.7507
  38   0.0000       0.187005         5.0887

MULLIKEN ATOMIC CHARGES
-----------------------
   0 C :   -0.224172
   1 O :   -0.303862
   2 C :   -0.003946
   3 C :   -0.220175
   4 C :   -0.131458
   5 C :   -0.116673
   6 C :   -0.269408
   7 C :    0.103534
   8 C :   -0.243878
   9 H :    0.114075
  10 H :    0.110153
  11 H :    0.140542
  12 H :    0.066368
  13 H :    0.123163
  14 H :    0.113040
  15 H :    0.122552
  16 H :    0.124063
  17 H :    0.115936
  18 H :    0.118621
  19 H :    0.125083
  20 H :    0.136442
Sum of atomic charges:   -0.0000000

LOEWDIN ATOMIC CHARGES
----------------------
   0 C :   -0.359071
   1 O :    0.160155
   2 C :   -0.295276
   3 C :   -0.216466
   4 C :   -0.180720
   5 C :   -0.165542
   6 C :   -0.189845
   7 C :   -0.166012
   8 C :   -0.139245
   9 H :    0.101651
  10 H :    0.101545
  11 H :    0.113062
  12 H :    0.136217
  13 H :    0.135515
  14 H :    0.142027
  15 H :    0.147656
  16 H :    0.133097
  17 H :    0.137555
  18 H :    0.128577
  19 H :    0.142969
  20 H :    0.132150

  Mayer bond orders larger than 0.1
B(  0-C ,  1-O ) :   0.9187 B(  0-C ,  9-H ) :   0.9348 B(  0-C , 10-H ) :   0.9347
B(  0-C , 11-H ) :   0.9414 B(  1-O ,  2-C ) :   1.0144 B(  2-C ,  3-C ) :   0.9657
B(  2-C ,  7-C ) :   0.8800 B(  2-C , 12-H ) :   0.9350 B(  3-C ,  4-C ) :   0.9376
B(  3-C , 13-H ) :   0.9204 B(  3-C , 14-H ) :   0.9076 B(  4-C ,  5-C ) :   0.8552
B(  4-C ,  8-C ) :   0.8957 B(  4-C , 15-H ) :   0.9318 B(  5-C ,  6-C ) :   0.9752
B(  5-C ,  8-C ) :   0.8513 B(  5-C , 16-H ) :   0.9293 B(  6-C ,  7-C ) :   0.9427
B(  6-C , 17-H ) :   0.9319 B(  6-C , 18-H ) :   0.9135 B(  7-C ,  8-C ) :   0.8698
B(  7-C , 19-H ) :   0.9200 B(  8-C , 20-H ) :   0.9145

MP2 TOTAL ENERGY:     -386.383680358 Eh
FINAL SINGLE POINT ENERGY      -386.383680358048

DIPOLE MOMENT
-------------
                                X             Y             Z
Electronic contribution:     -0.77017      -2.66786      -1.08469
Nuclear contribution   :      1.07501       2.87622       0.83203
                        -----------------------------------------
Total Dipole Moment    :      0.30484       0.20836      -0.25266
                        -----------------------------------------
Magnitude (a.u.)       :      0.44741
Magnitude (Debye)      :      1.13724

                             ****ORCA TERMINATED NORMALLY****
TOTAL RUN TIME: 0 days 0 hours 31 minutes 4 seconds 117 msec
