                         Program Version 3.0.3 - RELEASE   -
|  1> ! RI-MP2 RIJK def2-TZVP def2-TZVP/C def2-TZVP/JK TIGHTSCF
|  2> % maxcore 2000
|  3> % mp2 density relaxed end
|  4> *xyz 0 1
|  5>  C        0.1111404274     1.4242352857    -0.3991906460
|  6>  C       -0.0520134489     0.0250098495     0.2094402951
|  7>  C       -1.4777889299    -0.5053612996     0.1538840061
|  8>  C       -2.4719740545     0.2402041215     1.0254634070
|  9>  C       -1.9753935414    -1.0814792365    -1.1458418872
| 10>  C       -1.6517980485    -2.0391096134    -0.0126490949
| 11>  N       -0.5582327264    -2.9650122308    -0.1684251967
| 12>  C       -2.7746940948    -2.6447867363     0.6767475645
| 13>  N       -3.6604772645    -3.1182636175     1.2510916169
| 14>  H        1.1587433472     1.7382363617    -0.3669102580
| 15>  H       -0.2121602007     1.4395226650    -1.4454027300
| 16>  H       -0.4741072542     2.1739723056     0.1410017732
| 17>  H        0.6194987945    -0.6674987105    -0.3082817470
| 18>  H        0.2773483279     0.0427777228     1.2570045040
| 19>  H       -2.5862901614     1.2745967100     0.6851272729
| 20>  H       -3.4595549638    -0.2256498613     1.0081920500
| 21>  H       -2.1352737681     0.2650522761     2.0678428424
| 22>  H       -3.0171226860    -0.9486450503    -1.4149399536
| 23>  H       -1.2982654670    -1.1129036373    -1.9948088634
| 24>  H       -0.0150210609    -2.7782618022    -0.9999933656
| 25>  H        0.0608712441    -2.9663324222     0.6345473203
| 26> *
| 27>
| 28>                          ****END OF INPUT****

CARTESIAN COORDINATES (ANGSTROEM)
---------------------------------
  C      0.111140    1.424235   -0.399191
  C     -0.052013    0.025010    0.209440
  C     -1.477789   -0.505361    0.153884
  C     -2.471974    0.240204    1.025463
  C     -1.975394   -1.081479   -1.145842
  C     -1.651798   -2.039110   -0.012649
  N     -0.558233   -2.965012   -0.168425
  C     -2.774694   -2.644787    0.676748
  N     -3.660477   -3.118264    1.251092
  H      1.158743    1.738236   -0.366910
  H     -0.212160    1.439523   -1.445403
  H     -0.474107    2.173972    0.141002
  H      0.619499   -0.667499   -0.308282
  H      0.277348    0.042778    1.257005
  H     -2.586290    1.274597    0.685127
  H     -3.459555   -0.225650    1.008192
  H     -2.135274    0.265052    2.067843
  H     -3.017123   -0.948645   -1.414940
  H     -1.298265   -1.112904   -1.994809
  H     -0.015021   -2.778262   -0.999993
  H      0.060871   -2.966332    0.634547

 Total Charge           Charge          ....    0
 Multiplicity           Mult            ....    1
 Number of Electrons    NEL             ....   68
 Basis Dimension        Dim             ....  351

ORBITAL ENERGIES
----------------

  NO   OCC          E(Eh)            E(eV)
   0   2.0000     -15.567980      -423.6263
   1   2.0000     -15.558553      -423.3697
   2   2.0000     -11.312256      -307.8221
   3   2.0000     -11.266772      -306.5844
   4   2.0000     -11.263557      -306.4970
   5   2.0000     -11.254349      -306.2464
   6   2.0000     -11.243286      -305.9454
   7   2.0000     -11.229632      -305.5738
   8   2.0000     -11.229215      -305.5625
   9   2.0000      -1.249149       -33.9911
  10   2.0000      -1.197988       -32.5989
  11   2.0000      -1.139049       -30.9951
  12   2.0000      -1.042676       -28.3726
  13   2.0000      -0.973879       -26.5006
  14   2.0000      -0.898694       -24.4547
  15   2.0000      -0.878005       -23.8917
  16   2.0000      -0.772507       -21.0210
  17   2.0000      -0.708276       -19.2732
  18   2.0000      -0.679421       -18.4880
  19   2.0000      -0.663155       -18.0454
  20   2.0000      -0.631848       -17.1935
  21   2.0000      -0.603937       -16.4339
  22   2.0000      -0.588219       -16.0062
  23   2.0000      -0.563828       -15.3425
  24   2.0000      -0.555224       -15.1084
  25   2.0000      -0.545690       -14.8490
  26   2.0000      -0.539825       -14.6894
  27   2.0000      -0.511378       -13.9153
  28   2.0000      -0.500369       -13.6157
  29   2.0000      -0.485831       -13.2201
  30   2.0000      -0.481385       -13.0991
  31   2.0000      -0.445707       -12.1283
  32   2.0000      -0.422389       -11.4938
  33   2.0000      -0.378192       -10.2911
  34   0.0000       0.114151         3.1062
  35   0.0000       0.135756         3.6941
  36   0.0000       0.148413         4.0385
  37   0.0000       0.164192         4.4679
  38   0.0000       0.177387         4.8270

MULLIKEN ATOMIC CHARGES
-----------------------
   0 C :   -0.417812
   1 C :   -0.178046
   2 C :    0.060111
   3 C :   -0.432681
   4 C :   -0.296333
   5 C :    0.207092
   6 N :   -0.505200
   7 C :   -0.208520
   8 N :   -0.054351
   9 H :    0.140416
  10 H :    0.130203
  11 H :    0.133525
  12 H :    0.082836
  13 H :    0.122458
  14 H :    0.141782
  15 H :    0.157047
  16 H :    0.139067
  17 H :    0.154118
  18 H :    0.143087
  19 H :    0.237325
  20 H :    0.243873
Sum of atomic charges:   -0.0000000

LOEWDIN ATOMIC CHARGES
----------------------
   0 C :   -0.307990
   1 C :   -0.250474
   2 C :   -0.230024
   3 C :   -0.254671
   4 C :   -0.146503
   5 C :   -0.289109
   6 N :   -0.081346
   7 C :   -0.154715
   8 N :    0.059550
   9 H :    0.123205
  10 H :    0.122943
  11 H :    0.121999
  12 H :    0.135400
  13 H :    0.143537
  14 H :    0.129199
  15 H :    0.138109
  16 H :    0.132444
  17 H :    0.146379
  18 H :    0.141259
  19 H :    0.157226
  20 H :    0.163579

  Mayer bond orders larger than 0.1
B(  0-C ,  1-C ) :   0.9197 B(  0-C ,  9-H ) :   0.9407 B(  0-C , 10-H ) :   0.9394
B(  0-C , 11-H ) :   0.9373 B(  1-C ,  2-C ) :   0.8841 B(  1-C , 12-H ) :   0.9223
B(  1-C , 13-H ) :   0.9309 B(  2-C ,  3-C ) :   0.9238 B(  2-C ,  4-C ) :   0.8705
B(  2-C ,  5-C ) :   0.8147 B(  3-C , 14-H ) :   0.9349 B(  3-C , 15-H ) :   0.9209
B(  3-C , 16-H ) :   0.9365 B(  4-C ,  5-C ) :   0.8457 B(  4-C , 17-H ) :   0.9229
B(  4-C , 18-H ) :   0.9191 B(  5-C ,  6-N ) :   0.9743 B(  5-C ,  7-C ) :   0.9588
B(  6-N , 19-H ) :   0.8915 B(  6-N , 20-H ) :   0.8905 B(  7-C ,  8-N ) :   2.8674

MP2 TOTAL ENERGY:     -382.598649900 Eh
FINAL SINGLE POINT ENERGY      -382.598649899584

DIPOLE MOMENT
-------------
                                X             Y             Z
Electronic contribution:     -5.71126      -9.90543       1.84459
Nuclear contribution   :      7.17427      11.19726      -2.54737
                        -----------------------------------------
Total Dipole Moment    :      1.46301       1.29184      -0.70278
                        -----------------------------------------
Magnitude (a.u.)       :      2.07440
Magnitude (Debye)      :      5.27270

                             ****ORCA TERMINATED NORMALLY****
TOTAL RUN TIME: 0 days 0 hours 21 minutes 11 seconds 539 msec
