                         Program Version 3.0.3 - RELEASE   -
|  1> ! RI-MP2 RIJK def2-TZVP def2-TZVP/C def2-TZVP/JK TIGHTSCF
|  2> % maxcore 2000
|  3> % mp2 density relaxed end
|  4> *xyz 0 1
|  5>  O       -0.2795099619     1.6070854116    -0.3447265618
|  6>  C        0.0113981880     0.2335934699    -0.2529347234
|  7>  C       -1.2272504405    -0.6030207922     0.1027042308
|  8>  C       -1.0205990955    -2.1261633836     0.1569746062
|  9>  C       -1.9494627806    -2.6535372851     1.2582468338
| 10>  O       -2.2340192810    -3.8069144132     1.4376147967
| 11>  C       -2.4500217077    -1.4705866208     2.0918320322
| 12>  C       -1.7874693065    -0.2441636216     1.4850490615
| 13>  O       -1.6825653143     0.8381055762     2.0145165348
| 14>  H       -0.6529288958     1.8582636688     0.5115585207
| 15>  H        0.3972281058    -0.0796224680    -1.2289805369
| 16>  H        0.8015812917     0.0273059958     0.4898956895
| 17>  H       -2.0180209370    -0.3566039972    -0.6206332942
| 18>  H       -1.2041674440    -2.6486614878    -0.7840836229
| 19>  H        0.0086866540    -2.3674974703     0.4593038310
| 20>  H       -3.5406585486    -1.3906783028     1.9970184447
| 21>  H       -2.2369102160    -1.5834746797     3.1583637674
| 22> *
| 23>
| 24>                          ****END OF INPUT****

CARTESIAN COORDINATES (ANGSTROEM)
---------------------------------
  O     -0.279510    1.607085   -0.344727
  C      0.011398    0.233593   -0.252935
  C     -1.227250   -0.603021    0.102704
  C     -1.020599   -2.126163    0.156975
  C     -1.949463   -2.653537    1.258247
  O     -2.234019   -3.806914    1.437615
  C     -2.450022   -1.470587    2.091832
  C     -1.787469   -0.244164    1.485049
  O     -1.682565    0.838106    2.014517
  H     -0.652929    1.858264    0.511559
  H      0.397228   -0.079622   -1.228981
  H      0.801581    0.027306    0.489896
  H     -2.018021   -0.356604   -0.620633
  H     -1.204167   -2.648661   -0.784084
  H      0.008687   -2.367497    0.459304
  H     -3.540659   -1.390678    1.997018
  H     -2.236910   -1.583475    3.158364

 Total Charge           Charge          ....    0
 Multiplicity           Mult            ....    1
 Number of Electrons    NEL             ....   68
 Basis Dimension        Dim             ....  327

ORBITAL ENERGIES
----------------

  NO   OCC          E(Eh)            E(eV)
   0   2.0000     -20.579355      -559.9927
   1   2.0000     -20.570002      -559.7382
   2   2.0000     -20.556212      -559.3630
   3   2.0000     -11.362659      -309.1937
   4   2.0000     -11.358142      -309.0707
   5   2.0000     -11.295652      -307.3703
   6   2.0000     -11.269081      -306.6473
   7   2.0000     -11.268294      -306.6259
   8   2.0000     -11.266332      -306.5725
   9   2.0000      -1.424300       -38.7572
  10   2.0000      -1.414880       -38.5008
  11   2.0000      -1.365946       -37.1693
  12   2.0000      -1.151033       -31.3212
  13   2.0000      -1.038811       -28.2675
  14   2.0000      -0.970665       -26.4131
  15   2.0000      -0.888233       -24.1700
  16   2.0000      -0.780693       -21.2437
  17   2.0000      -0.768567       -20.9138
  18   2.0000      -0.721634       -19.6367
  19   2.0000      -0.693243       -18.8641
  20   2.0000      -0.663768       -18.0620
  21   2.0000      -0.651079       -17.7168
  22   2.0000      -0.641416       -17.4538
  23   2.0000      -0.621339       -16.9075
  24   2.0000      -0.610275       -16.6064
  25   2.0000      -0.596043       -16.2192
  26   2.0000      -0.579260       -15.7625
  27   2.0000      -0.576220       -15.6797
  28   2.0000      -0.517459       -14.0808
  29   2.0000      -0.512668       -13.9504
  30   2.0000      -0.506509       -13.7828
  31   2.0000      -0.457291       -12.4435
  32   2.0000      -0.444061       -12.0835
  33   2.0000      -0.413004       -11.2384
  34   0.0000       0.084020         2.2863
  35   0.0000       0.115650         3.1470
  36   0.0000       0.138665         3.7733
  37   0.0000       0.151980         4.1356
  38   0.0000       0.160564         4.3692

MULLIKEN ATOMIC CHARGES
-----------------------
   0 O :   -0.472215
   1 C :   -0.035158
   2 C :   -0.088774
   3 C :   -0.246488
   4 C :    0.130356
   5 O :   -0.252406
   6 C :   -0.199683
   7 C :    0.151583
   8 O :   -0.311711
   9 H :    0.334642
  10 H :    0.123099
  11 H :    0.097502
  12 H :    0.130137
  13 H :    0.155430
  14 H :    0.145736
  15 H :    0.167512
  16 H :    0.170438
Sum of atomic charges:   -0.0000000

LOEWDIN ATOMIC CHARGES
----------------------
   0 O :   -0.036823
   1 C :   -0.329802
   2 C :   -0.229185
   3 C :   -0.194896
   4 C :   -0.310899
   5 O :    0.165514
   6 C :   -0.188038
   7 C :   -0.285465
   8 O :    0.149899
   9 H :    0.175664
  10 H :    0.132367
  11 H :    0.121543
  12 H :    0.174714
  13 H :    0.152434
  14 H :    0.162550
  15 H :    0.174693
  16 H :    0.165732

  Mayer bond orders larger than 0.1
B(  0-O ,  1-C ) :   0.9587 B(  0-O ,  9-H ) :   0.8170 B(  1-C ,  2-C ) :   0.9175
B(  1-C , 10-H ) :   0.9321 B(  1-C , 11-H ) :   0.9171 B(  2-C ,  3-C ) :   0.8779
B(  2-C ,  7-C ) :   0.8686 B(  2-C , 12-H ) :   0.8778 B(  3-C ,  4-C ) :   0.8900
B(  3-C ,  6-C ) :  -0.1035 B(  3-C , 13-H ) :   0.9088 B(  3-C , 14-H ) :   0.8967
B(  4-C ,  5-O ) :   2.0492 B(  4-C ,  6-C ) :   0.8886 B(  6-C ,  7-C ) :   0.9194
B(  6-C , 15-H ) :   0.8843 B(  6-C , 16-H ) :   0.8911 B(  7-C ,  8-O ) :   1.9061

MP2 TOTAL ENERGY:     -458.270693985 Eh
FINAL SINGLE POINT ENERGY      -458.270693985059

DIPOLE MOMENT
-------------
                                X             Y             Z
Electronic contribution:     -2.46567      -0.72012       2.72809
Nuclear contribution   :      2.43381       0.37335      -2.81057
                        -----------------------------------------
Total Dipole Moment    :     -0.03186      -0.34677      -0.08248
                        -----------------------------------------
Magnitude (a.u.)       :      0.35787
Magnitude (Debye)      :      0.90963

                             ****ORCA TERMINATED NORMALLY****
TOTAL RUN TIME: 0 days 0 hours 24 minutes 37 seconds 193 msec
