                         Program Version 3.0.3 - RELEASE   -
|  1> ! RI-MP2 RIJK def2-TZVP def2-TZVP/C def2-TZVP/JK TIGHTSCF
|  2> % maxcore 2000
|  3> % mp2 density relaxed end
|  4> *xyz 0 1
|  5>  C        0.0184098920    -1.1891678665    -0.0290374495
|  6>  C        0.0381579474     0.0113538380    -0.0077151680
|  7>  C        0.0069858454     1.4658762529     0.0473436371
|  8>  C       -0.7884240237     1.9598731989     1.2638569846
|  9>  O       -0.8841936700     3.3738992020     1.2687032807
| 10>  C        0.2753018588     4.0624768223     0.8993131679
| 11>  C        1.5964294099     3.9291238691     1.6184379381
| 12>  C        1.4147174024     3.3500987331     0.2269116973
| 13>  O        1.3502144999     1.9516807154     0.1320069107
| 14>  H        0.0119745511    -2.2509239286    -0.0596668330
| 15>  H       -0.4740474315     1.8611369009    -0.8617674686
| 16>  H       -1.8132269500     1.5821364502     1.2335864964
| 17>  H       -0.3014947247     1.5832750336     2.1749246323
| 18>  H        0.0046416403     5.0478218120     0.5351245979
| 19>  H        2.1977140703     4.8224068327     1.7474824190
| 20>  H        1.6824934889     3.1988012246     2.4148325419
| 21>  H        1.9178779436     3.8097888593    -0.6208854348
| 22> *
| 23>
| 24>                          ****END OF INPUT****

CARTESIAN COORDINATES (ANGSTROEM)
---------------------------------
  C      0.018410   -1.189168   -0.029037
  C      0.038158    0.011354   -0.007715
  C      0.006986    1.465876    0.047344
  C     -0.788424    1.959873    1.263857
  O     -0.884194    3.373899    1.268703
  C      0.275302    4.062477    0.899313
  C      1.596429    3.929124    1.618438
  C      1.414717    3.350099    0.226912
  O      1.350214    1.951681    0.132007
  H      0.011975   -2.250924   -0.059667
  H     -0.474047    1.861137   -0.861767
  H     -1.813227    1.582136    1.233586
  H     -0.301495    1.583275    2.174925
  H      0.004642    5.047822    0.535125
  H      2.197714    4.822407    1.747482
  H      1.682493    3.198801    2.414833
  H      1.917878    3.809789   -0.620885

 Total Charge           Charge          ....    0
 Multiplicity           Mult            ....    1
 Number of Electrons    NEL             ....   66
 Basis Dimension        Dim             ....  327

ORBITAL ENERGIES
----------------

  NO   OCC          E(Eh)            E(eV)
   0   2.0000     -20.574630      -559.8641
   1   2.0000     -20.572956      -559.8186
   2   2.0000     -11.318037      -307.9794
   3   2.0000     -11.294520      -307.3395
   4   2.0000     -11.290769      -307.2374
   5   2.0000     -11.290655      -307.2343
   6   2.0000     -11.241172      -305.8878
   7   2.0000     -11.235161      -305.7243
   8   2.0000     -11.230508      -305.5976
   9   2.0000      -1.416842       -38.5542
  10   2.0000      -1.375332       -37.4247
  11   2.0000      -1.140136       -31.0247
  12   2.0000      -1.063774       -28.9468
  13   2.0000      -0.992547       -27.0086
  14   2.0000      -0.914258       -24.8782
  15   2.0000      -0.834611       -22.7109
  16   2.0000      -0.781208       -21.2578
  17   2.0000      -0.741072       -20.1656
  18   2.0000      -0.720494       -19.6056
  19   2.0000      -0.697139       -18.9701
  20   2.0000      -0.680639       -18.5211
  21   2.0000      -0.645277       -17.5589
  22   2.0000      -0.631881       -17.1944
  23   2.0000      -0.579549       -15.7703
  24   2.0000      -0.569139       -15.4871
  25   2.0000      -0.552942       -15.0463
  26   2.0000      -0.537159       -14.6168
  27   2.0000      -0.507522       -13.8104
  28   2.0000      -0.470549       -12.8043
  29   2.0000      -0.414177       -11.2703
  30   2.0000      -0.402078       -10.9411
  31   2.0000      -0.399158       -10.8616
  32   2.0000      -0.377416       -10.2700
  33   0.0000       0.146643         3.9904
  34   0.0000       0.156425         4.2566
  35   0.0000       0.159733         4.3465
  36   0.0000       0.164461         4.4752
  37   0.0000       0.166069         4.5190

MULLIKEN ATOMIC CHARGES
-----------------------
   0 C :   -0.091008
   1 C :    0.000420
   2 C :   -0.122563
   3 C :   -0.043688
   4 O :   -0.294881
   5 C :    0.038794
   6 C :   -0.282722
   7 C :    0.005732
   8 O :   -0.271595
   9 H :    0.196157
  10 H :    0.104176
  11 H :    0.132125
  12 H :    0.107994
  13 H :    0.128662
  14 H :    0.131514
  15 H :    0.143042
  16 H :    0.117843
Sum of atomic charges:   -0.0000000

LOEWDIN ATOMIC CHARGES
----------------------
   0 C :   -0.073748
   1 C :   -0.078231
   2 C :   -0.304248
   3 C :   -0.275342
   4 O :    0.193064
   5 C :   -0.293012
   6 C :   -0.211739
   7 C :   -0.285568
   8 O :    0.215612
   9 H :    0.129431
  10 H :    0.159252
  11 H :    0.139458
  12 H :    0.130439
  13 H :    0.143386
  14 H :    0.134670
  15 H :    0.142154
  16 H :    0.134419

  Mayer bond orders larger than 0.1
B(  0-C ,  1-C ) :   2.6175 B(  0-C ,  2-C ) :  -0.1137 B(  0-C ,  9-H ) :   0.8878
B(  1-C ,  2-C ) :   1.0929 B(  2-C ,  3-C ) :   0.9486 B(  2-C ,  8-O ) :   1.0383
B(  2-C , 10-H ) :   0.9201 B(  3-C ,  4-O ) :   0.9333 B(  3-C , 11-H ) :   0.9093
B(  3-C , 12-H ) :   0.9307 B(  4-O ,  5-C ) :   0.9638 B(  5-C ,  6-C ) :   0.8766
B(  5-C ,  7-C ) :   0.8945 B(  5-C , 13-H ) :   0.9395 B(  6-C ,  7-C ) :   0.8482
B(  6-C , 14-H ) :   0.9168 B(  6-C , 15-H ) :   0.9105 B(  7-C ,  8-O ) :   0.9706
B(  7-C , 16-H ) :   0.9336

MP2 TOTAL ENERGY:     -421.035451035 Eh
FINAL SINGLE POINT ENERGY      -421.035451035205

DIPOLE MOMENT
-------------
                                X             Y             Z
Electronic contribution:     -0.58925      -2.14741      -1.56721
Nuclear contribution   :      0.51595       2.23642       1.48663
                        -----------------------------------------
Total Dipole Moment    :     -0.07330       0.08901      -0.08059
                        -----------------------------------------
Magnitude (a.u.)       :      0.14068
Magnitude (Debye)      :      0.35757

                             ****ORCA TERMINATED NORMALLY****
TOTAL RUN TIME: 0 days 0 hours 17 minutes 6 seconds 503 msec
