                         Program Version 3.0.3 - RELEASE   -
|  1> ! RI-MP2 RIJK def2-TZVP def2-TZVP/C def2-TZVP/JK TIGHTSCF
|  2> % maxcore 2000
|  3> % mp2 density relaxed end
|  4> *xyz 0 1
|  5>  O       -0.0261204821     1.4518212651     0.0264431587
|  6>  C        0.0298579302     0.0325369725    -0.0041229983
|  7>  C       -1.4006272706    -0.4973833333     0.0429641963
|  8>  C       -1.4805466196    -2.0453309145    -0.0397472635
|  9>  C       -2.6231464782    -2.4624975162     0.9227526537
| 10>  C       -2.7805808008    -1.2492400266     1.8094248245
| 11>  C       -2.1283616502    -0.1907312668     1.3334517172
| 12>  H        0.8737673375     1.7894735442     0.0484253649
| 13>  H        0.5272604042    -0.3264691733    -0.9202410040
| 14>  H        0.5930222002    -0.3643033335     0.8563650061
| 15>  H       -1.9342235671    -0.0306011916    -0.7983575030
| 16>  H       -1.6317138394    -2.4052684568    -1.0605200099
| 17>  H       -0.5347164120    -2.4727431099     0.3143938036
| 18>  H       -3.5567363178    -2.6706869143     0.3809216915
| 19>  H       -2.3873175977    -3.3752097451     1.4820588715
| 20>  H       -3.3925540956    -1.2573472569     2.7052039997
| 21>  H       -2.1157283911     0.8004775069     1.7707536111
| 22> *
| 23>
| 24>                          ****END OF INPUT****

CARTESIAN COORDINATES (ANGSTROEM)
---------------------------------
  O     -0.026120    1.451821    0.026443
  C      0.029858    0.032537   -0.004123
  C     -1.400627   -0.497383    0.042964
  C     -1.480547   -2.045331   -0.039747
  C     -2.623146   -2.462498    0.922753
  C     -2.780581   -1.249240    1.809425
  C     -2.128362   -0.190731    1.333452
  H      0.873767    1.789474    0.048425
  H      0.527260   -0.326469   -0.920241
  H      0.593022   -0.364303    0.856365
  H     -1.934224   -0.030601   -0.798358
  H     -1.631714   -2.405268   -1.060520
  H     -0.534716   -2.472743    0.314394
  H     -3.556736   -2.670687    0.380922
  H     -2.387318   -3.375210    1.482059
  H     -3.392554   -1.257347    2.705204
  H     -2.115728    0.800478    1.770754

 Total Charge           Charge          ....    0
 Multiplicity           Mult            ....    1
 Number of Electrons    NEL             ....   54
 Basis Dimension        Dim             ....  277

ORBITAL ENERGIES
----------------

  NO   OCC          E(Eh)            E(eV)
   0   2.0000     -20.554539      -559.3174
   1   2.0000     -11.273037      -306.7549
   2   2.0000     -11.224342      -305.4299
   3   2.0000     -11.221494      -305.3524
   4   2.0000     -11.220154      -305.3159
   5   2.0000     -11.217449      -305.2423
   6   2.0000     -11.213523      -305.1355
   7   2.0000      -1.358621       -36.9700
   8   2.0000      -1.130734       -30.7688
   9   2.0000      -0.997728       -27.1495
  10   2.0000      -0.960239       -26.1294
  11   2.0000      -0.871699       -23.7201
  12   2.0000      -0.777760       -21.1639
  13   2.0000      -0.720388       -19.6027
  14   2.0000      -0.694699       -18.9037
  15   2.0000      -0.660596       -17.9757
  16   2.0000      -0.642893       -17.4940
  17   2.0000      -0.609724       -16.5914
  18   2.0000      -0.563956       -15.3460
  19   2.0000      -0.528686       -14.3863
  20   2.0000      -0.509514       -13.8646
  21   2.0000      -0.487051       -13.2533
  22   2.0000      -0.483575       -13.1587
  23   2.0000      -0.478027       -13.0078
  24   2.0000      -0.469130       -12.7657
  25   2.0000      -0.438950       -11.9444
  26   2.0000      -0.339725        -9.2444
  27   0.0000       0.135099         3.6762
  28   0.0000       0.148204         4.0328
  29   0.0000       0.166074         4.5191
  30   0.0000       0.173590         4.7236
  31   0.0000       0.177076         4.8185

MULLIKEN ATOMIC CHARGES
-----------------------
   0 O :   -0.473031
   1 C :   -0.095575
   2 C :    0.065892
   3 C :   -0.294882
   4 C :   -0.146383
   5 C :   -0.164557
   6 C :   -0.218521
   7 H :    0.315068
   8 H :    0.100499
   9 H :    0.095724
  10 H :    0.093158
  11 H :    0.125178
  12 H :    0.109649
  13 H :    0.112030
  14 H :    0.116426
  15 H :    0.124434
  16 H :    0.134893
Sum of atomic charges:   -0.0000000

LOEWDIN ATOMIC CHARGES
----------------------
   0 O :   -0.048335
   1 C :   -0.332247
   2 C :   -0.239715
   3 C :   -0.214036
   4 C :   -0.243786
   5 C :   -0.165035
   6 C :   -0.140532
   7 H :    0.171891
   8 H :    0.116870
   9 H :    0.116956
  10 H :    0.157673
  11 H :    0.131861
  12 H :    0.139212
  13 H :    0.138475
  14 H :    0.134192
  15 H :    0.134747
  16 H :    0.141809

  Mayer bond orders larger than 0.1
B(  0-O ,  1-C ) :   1.0161 B(  0-O ,  7-H ) :   0.8483 B(  1-C ,  2-C ) :   0.9116
B(  1-C ,  8-H ) :   0.9342 B(  1-C ,  9-H ) :   0.9186 B(  2-C ,  3-C ) :   0.9112
B(  2-C ,  6-C ) :   0.9133 B(  2-C , 10-H ) :   0.9123 B(  3-C ,  4-C ) :   0.9468
B(  3-C , 11-H ) :   0.9338 B(  3-C , 12-H ) :   0.9283 B(  4-C ,  5-C ) :   0.9259
B(  4-C , 13-H ) :   0.9114 B(  4-C , 14-H ) :   0.9296 B(  5-C ,  6-C ) :   1.7801
B(  5-C , 15-H ) :   0.9289 B(  6-C , 16-H ) :   0.9304

MP2 TOTAL ENERGY:     -309.190985691 Eh
FINAL SINGLE POINT ENERGY      -309.190985690931

DIPOLE MOMENT
-------------
                                X             Y             Z
Electronic contribution:     -0.05795       3.18931       0.62867
Nuclear contribution   :      0.56790      -3.50801      -0.69201
                        -----------------------------------------
Total Dipole Moment    :      0.50995      -0.31870      -0.06334
                        -----------------------------------------
Magnitude (a.u.)       :      0.60468
Magnitude (Debye)      :      1.53696

                             ****ORCA TERMINATED NORMALLY****
TOTAL RUN TIME: 0 days 0 hours 8 minutes 19 seconds 302 msec
