                         Program Version 3.0.3 - RELEASE   -
|  1> ! RI-MP2 RIJK def2-TZVP def2-TZVP/C def2-TZVP/JK TIGHTSCF
|  2> % maxcore 2000
|  3> % mp2 density relaxed end
|  4> *xyz 0 1
|  5>  C        0.0343582262     1.5652096084     0.0535753163
|  6>  C       -0.0104983152     0.0595853581    -0.0095677522
|  7>  C        0.6866231645    -0.5758589296    -1.2311015744
|  8>  C        0.6636838926    -2.0834008892    -1.0960553142
|  9>  C        0.1008313302    -2.6470863494    -0.0251240116
| 10>  C       -0.4388945888    -1.6993065308     1.0254667129
| 11>  O        0.5033510323    -0.6000731938     1.1980768587
| 12>  C       -1.3349904968    -0.6872442581     0.2858135762
| 13>  O       -2.4973179423    -0.4694182742     0.1415836962
| 14>  H        1.0703959345     1.9191194064     0.0413166802
| 15>  H       -0.4845311994     1.9900967048    -0.8111650641
| 16>  H       -0.4495640710     1.9283031836     0.9631592448
| 17>  H        0.1701748622    -0.2657887338    -2.1496218017
| 18>  H        1.7165469850    -0.2009746378    -1.3124775062
| 19>  H        1.1118667658    -2.6782573969    -1.8862674028
| 20>  H        0.0151599683    -3.7195212698     0.1078742384
| 21>  H       -0.7489210481    -2.1524142981     1.9674392534
| 22> *
| 23>
| 24>                          ****END OF INPUT****

CARTESIAN COORDINATES (ANGSTROEM)
---------------------------------
  C      0.034358    1.565210    0.053575
  C     -0.010498    0.059585   -0.009568
  C      0.686623   -0.575859   -1.231102
  C      0.663684   -2.083401   -1.096055
  C      0.100831   -2.647086   -0.025124
  C     -0.438895   -1.699307    1.025467
  O      0.503351   -0.600073    1.198077
  C     -1.334990   -0.687244    0.285814
  O     -2.497318   -0.469418    0.141584
  H      1.070396    1.919119    0.041317
  H     -0.484531    1.990097   -0.811165
  H     -0.449564    1.928303    0.963159
  H      0.170175   -0.265789   -2.149622
  H      1.716547   -0.200975   -1.312478
  H      1.111867   -2.678257   -1.886267
  H      0.015160   -3.719521    0.107874
  H     -0.748921   -2.152414    1.967439

 Total Charge           Charge          ....    0
 Multiplicity           Mult            ....    1
 Number of Electrons    NEL             ....   66
 Basis Dimension        Dim             ....  327

ORBITAL ENERGIES
----------------

  NO   OCC          E(Eh)            E(eV)
   0   2.0000     -20.569506      -559.7247
   1   2.0000     -20.566299      -559.6374
   2   2.0000     -11.342529      -308.6459
   3   2.0000     -11.310251      -307.7676
   4   2.0000     -11.306006      -307.6521
   5   2.0000     -11.253344      -306.2191
   6   2.0000     -11.252579      -306.1982
   7   2.0000     -11.246793      -306.0408
   8   2.0000     -11.232424      -305.6498
   9   2.0000      -1.422836       -38.7173
  10   2.0000      -1.390140       -37.8276
  11   2.0000      -1.112099       -30.2618
  12   2.0000      -1.061353       -28.8809
  13   2.0000      -0.980675       -26.6855
  14   2.0000      -0.941437       -25.6178
  15   2.0000      -0.857370       -23.3302
  16   2.0000      -0.791462       -21.5368
  17   2.0000      -0.708974       -19.2922
  18   2.0000      -0.687224       -18.7003
  19   2.0000      -0.670231       -18.2379
  20   2.0000      -0.650004       -17.6875
  21   2.0000      -0.618939       -16.8422
  22   2.0000      -0.604255       -16.4426
  23   2.0000      -0.595932       -16.2161
  24   2.0000      -0.563992       -15.3470
  25   2.0000      -0.557274       -15.1642
  26   2.0000      -0.543244       -14.7824
  27   2.0000      -0.536009       -14.5856
  28   2.0000      -0.513847       -13.9825
  29   2.0000      -0.499748       -13.5988
  30   2.0000      -0.434283       -11.8174
  31   2.0000      -0.416230       -11.3262
  32   2.0000      -0.361002        -9.8234
  33   0.0000       0.120340         3.2746
  34   0.0000       0.132021         3.5925
  35   0.0000       0.144198         3.9238
  36   0.0000       0.167109         4.5473
  37   0.0000       0.170207         4.6316

MULLIKEN ATOMIC CHARGES
-----------------------
   0 C :   -0.399947
   1 C :    0.166130
   2 C :   -0.185250
   3 C :   -0.163397
   4 C :   -0.267529
   5 C :    0.153486
   6 O :   -0.310230
   7 C :    0.135902
   8 O :   -0.237081
   9 H :    0.144489
  10 H :    0.141409
  11 H :    0.148350
  12 H :    0.129449
  13 H :    0.124438
  14 H :    0.135857
  15 H :    0.135277
  16 H :    0.148646
Sum of atomic charges:   -0.0000000

LOEWDIN ATOMIC CHARGES
----------------------
   0 C :   -0.260210
   1 C :   -0.295945
   2 C :   -0.199478
   3 C :   -0.138944
   4 C :   -0.141447
   5 C :   -0.226826
   6 O :    0.194354
   7 C :   -0.251235
   8 O :    0.178567
   9 H :    0.134674
  10 H :    0.138677
  11 H :    0.135937
  12 H :    0.153289
  13 H :    0.149261
  14 H :    0.143604
  15 H :    0.143429
  16 H :    0.142294

  Mayer bond orders larger than 0.1
B(  0-C ,  1-C ) :   0.8823 B(  0-C ,  9-H ) :   0.9371 B(  0-C , 10-H ) :   0.9279
B(  0-C , 11-H ) :   0.9378 B(  1-C ,  2-C ) :   0.9495 B(  1-C ,  5-C ) :  -0.1111
B(  1-C ,  6-O ) :   0.9258 B(  1-C ,  7-C ) :   0.8590 B(  2-C ,  3-C ) :   0.9452
B(  2-C , 12-H ) :   0.8990 B(  2-C , 13-H ) :   0.8980 B(  3-C ,  4-C ) :   1.7913
B(  3-C , 14-H ) :   0.9261 B(  4-C ,  5-C ) :   0.9092 B(  4-C , 15-H ) :   0.9206
B(  5-C ,  6-O ) :   0.9366 B(  5-C ,  7-C ) :   0.8982 B(  5-C , 16-H ) :   0.9018
B(  7-C ,  8-O ) :   2.0907

MP2 TOTAL ENERGY:     -421.117416722 Eh
FINAL SINGLE POINT ENERGY      -421.117416721647

DIPOLE MOMENT
-------------
                                X             Y             Z
Electronic contribution:     -3.60784      -2.84069       2.76170
Nuclear contribution   :      4.23054       2.65834      -3.25520
                        -----------------------------------------
Total Dipole Moment    :      0.62270      -0.18235      -0.49350
                        -----------------------------------------
Magnitude (a.u.)       :      0.81521
Magnitude (Debye)      :      2.07209

                             ****ORCA TERMINATED NORMALLY****
TOTAL RUN TIME: 0 days 0 hours 19 minutes 31 seconds 686 msec
