                         Program Version 3.0.3 - RELEASE   -
|  1> ! RI-MP2 RIJK def2-TZVP def2-TZVP/C def2-TZVP/JK TIGHTSCF
|  2> % maxcore 2000
|  3> % mp2 density relaxed end
|  4> *xyz 0 1
|  5>  C       -0.0393528214     1.5339958149    -0.3049176061
|  6>  C       -0.0085701723     0.0528616331     0.0937836496
|  7>  C       -1.3693299101    -0.5467168719     0.2222934185
|  8>  C       -1.9782195865    -1.8731445550     0.0671033829
|  9>  C       -2.9215660507    -1.6730754394     1.2558674483
| 10>  C       -2.6763774029    -0.1513677220     1.0410965395
| 11>  C       -3.2485851622     0.0502016978    -0.3526784262
| 12>  O       -4.0494334831     0.7672962068    -0.8649849318
| 13>  N       -2.2718021996    -0.8267444764    -0.9905947228
| 14>  H        0.9759615971     1.9303370274    -0.3920007205
| 15>  H       -0.5425266233     1.6654433547    -1.2669249375
| 16>  H       -0.5705485042     2.1352579078     0.4400371938
| 17>  H        0.5447207248    -0.5271010116    -0.6536463126
| 18>  H        0.5237854991    -0.0704317910     1.0455678911
| 19>  H       -1.5499263808    -2.7916055336    -0.3140875110
| 20>  H       -3.9539181527    -2.0292849512     1.1806691244
| 21>  H       -2.4647684913    -2.0372710347     2.1791822082
| 22>  H       -2.7964765298     0.5800477044     1.8353637621
| 23> *
| 24>
| 25>                          ****END OF INPUT****

CARTESIAN COORDINATES (ANGSTROEM)
---------------------------------
  C     -0.039353    1.533996   -0.304918
  C     -0.008570    0.052862    0.093784
  C     -1.369330   -0.546717    0.222293
  C     -1.978220   -1.873145    0.067103
  C     -2.921566   -1.673075    1.255867
  C     -2.676377   -0.151368    1.041097
  C     -3.248585    0.050202   -0.352678
  O     -4.049433    0.767296   -0.864985
  N     -2.271802   -0.826744   -0.990595
  H      0.975962    1.930337   -0.392001
  H     -0.542527    1.665443   -1.266925
  H     -0.570549    2.135258    0.440037
  H      0.544721   -0.527101   -0.653646
  H      0.523785   -0.070432    1.045568
  H     -1.549926   -2.791606   -0.314088
  H     -3.953918   -2.029285    1.180669
  H     -2.464768   -2.037271    2.179182
  H     -2.796477    0.580048    1.835364

 Total Charge           Charge          ....    0
 Multiplicity           Mult            ....    1
 Number of Electrons    NEL             ....   66
 Basis Dimension        Dim             ....  333

ORBITAL ENERGIES
----------------

  NO   OCC          E(Eh)            E(eV)
   0   2.0000     -20.546340      -559.0943
   1   2.0000     -15.582537      -424.0224
   2   2.0000     -11.356596      -309.0287
   3   2.0000     -11.298307      -307.4426
   4   2.0000     -11.290324      -307.2253
   5   2.0000     -11.268875      -306.6417
   6   2.0000     -11.260971      -306.4266
   7   2.0000     -11.249784      -306.1222
   8   2.0000     -11.226900      -305.4995
   9   2.0000      -1.408401       -38.3245
  10   2.0000      -1.329612       -36.1806
  11   2.0000      -1.063366       -28.9357
  12   2.0000      -1.057533       -28.7769
  13   2.0000      -0.974466       -26.5166
  14   2.0000      -0.913346       -24.8534
  15   2.0000      -0.840967       -22.8839
  16   2.0000      -0.757724       -20.6187
  17   2.0000      -0.724898       -19.7255
  18   2.0000      -0.693748       -18.8778
  19   2.0000      -0.667512       -18.1639
  20   2.0000      -0.647176       -17.6105
  21   2.0000      -0.622982       -16.9522
  22   2.0000      -0.603692       -16.4273
  23   2.0000      -0.564806       -15.3691
  24   2.0000      -0.553220       -15.0539
  25   2.0000      -0.533062       -14.5053
  26   2.0000      -0.519024       -14.1234
  27   2.0000      -0.508496       -13.8369
  28   2.0000      -0.507760       -13.8168
  29   2.0000      -0.459128       -12.4935
  30   2.0000      -0.443727       -12.0744
  31   2.0000      -0.413662       -11.2563
  32   2.0000      -0.394479       -10.7343
  33   0.0000       0.123752         3.3675
  34   0.0000       0.141290         3.8447
  35   0.0000       0.157914         4.2971
  36   0.0000       0.172413         4.6916
  37   0.0000       0.178884         4.8677

MULLIKEN ATOMIC CHARGES
-----------------------
   0 C :   -0.415335
   1 C :   -0.200587
   2 C :    0.109271
   3 C :   -0.107960
   4 C :   -0.216788
   5 C :   -0.114277
   6 C :    0.178129
   7 O :   -0.240340
   8 N :   -0.225475
   9 H :    0.140549
  10 H :    0.154138
  11 H :    0.130299
  12 H :    0.129502
  13 H :    0.121343
  14 H :    0.142632
  15 H :    0.131971
  16 H :    0.133137
  17 H :    0.149790
Sum of atomic charges:   -0.0000000

LOEWDIN ATOMIC CHARGES
----------------------
   0 C :   -0.302174
   1 C :   -0.255688
   2 C :   -0.160074
   3 C :   -0.174929
   4 C :   -0.190665
   5 C :   -0.123564
   6 C :   -0.378062
   7 O :    0.167995
   8 N :    0.178071
   9 H :    0.124174
  10 H :    0.131052
  11 H :    0.123839
  12 H :    0.153488
  13 H :    0.147379
  14 H :    0.140497
  15 H :    0.132413
  16 H :    0.144866
  17 H :    0.141379

  Mayer bond orders larger than 0.1
B(  0-C ,  1-C ) :   0.9323 B(  0-C ,  9-H ) :   0.9343 B(  0-C , 10-H ) :   0.9327
B(  0-C , 11-H ) :   0.9381 B(  1-C ,  2-C ) :   0.8494 B(  1-C , 12-H ) :   0.9303
B(  1-C , 13-H ) :   0.9345 B(  2-C ,  3-C ) :   0.8611 B(  2-C ,  5-C ) :   0.8061
B(  2-C ,  8-N ) :   0.7264 B(  3-C ,  4-C ) :   0.9339 B(  3-C ,  8-N ) :   0.9012
B(  3-C , 14-H ) :   0.9192 B(  4-C ,  5-C ) :   0.9166 B(  4-C , 15-H ) :   0.9196
B(  4-C , 16-H ) :   0.9138 B(  5-C ,  6-C ) :   0.8902 B(  5-C , 17-H ) :   0.8989
B(  6-C ,  7-O ) :   2.0843 B(  6-C ,  8-N ) :   0.9675

MP2 TOTAL ENERGY:     -401.223105959 Eh
FINAL SINGLE POINT ENERGY      -401.223105959398

DIPOLE MOMENT
-------------
                                X             Y             Z
Electronic contribution:     -7.07481      -1.71736      -2.45748
Nuclear contribution   :      8.12782       1.11661       3.73955
                        -----------------------------------------
Total Dipole Moment    :      1.05301      -0.60075       1.28207
                        -----------------------------------------
Magnitude (a.u.)       :      1.76449
Magnitude (Debye)      :      4.48499

                             ****ORCA TERMINATED NORMALLY****
TOTAL RUN TIME: 0 days 0 hours 17 minutes 32 seconds 488 msec
