                         Program Version 3.0.3 - RELEASE   -
|  1> ! RI-MP2 RIJK def2-TZVP def2-TZVP/C def2-TZVP/JK TIGHTSCF
|  2> % maxcore 2000
|  3> % mp2 density relaxed end
|  4> *xyz 0 1
|  5>  O        0.4222932506     1.0361945366     0.6746332838
|  6>  C        0.1293697326    -0.1987606971     0.0932121611
|  7>  C       -1.3393680797    -0.7652452076     0.1464126434
|  8>  C       -2.3764699836     0.3472711336     0.3526629459
|  9>  C       -3.7447943344    -0.1502035305     0.2313332695
| 10>  N       -4.8186273479    -0.5641339516     0.1271153617
| 11>  C       -1.1927935621    -1.2311186475    -1.3403662153
| 12>  C       -0.0167453097    -0.2512065000    -1.4300544777
| 13>  O        0.4330502199     0.4630555509    -2.2808682452
| 14>  H        0.6820025187     1.6317625813    -0.0403738155
| 15>  H        0.8235482328    -0.9741245911     0.4481035152
| 16>  H       -1.4923270038    -1.5643483652     0.8717060886
| 17>  H       -2.2404550671     0.8023079620     1.3387460540
| 18>  H       -2.2309469744     1.1518526687    -0.3780709610
| 19>  H       -0.8762181646    -2.2740821188    -1.4264529104
| 20>  H       -2.0286081172    -1.0552944036    -2.0206041381
| 21> *
| 22>
| 23>                          ****END OF INPUT****

CARTESIAN COORDINATES (ANGSTROEM)
---------------------------------
  O      0.422293    1.036195    0.674633
  C      0.129370   -0.198761    0.093212
  C     -1.339368   -0.765245    0.146413
  C     -2.376470    0.347271    0.352663
  C     -3.744794   -0.150204    0.231333
  N     -4.818627   -0.564134    0.127115
  C     -1.192794   -1.231119   -1.340366
  C     -0.016745   -0.251206   -1.430054
  O      0.433050    0.463056   -2.280868
  H      0.682003    1.631763   -0.040374
  H      0.823548   -0.974125    0.448104
  H     -1.492327   -1.564348    0.871706
  H     -2.240455    0.802308    1.338746
  H     -2.230947    1.151853   -0.378071
  H     -0.876218   -2.274082   -1.426453
  H     -2.028608   -1.055294   -2.020604

 Total Charge           Charge          ....    0
 Multiplicity           Mult            ....    1
 Number of Electrons    NEL             ....   66
 Basis Dimension        Dim             ....  321

ORBITAL ENERGIES
----------------

  NO   OCC          E(Eh)            E(eV)
   0   2.0000     -20.593179      -560.3689
   1   2.0000     -20.584609      -560.1357
   2   2.0000     -15.577501      -423.8854
   3   2.0000     -11.359471      -309.1069
   4   2.0000     -11.321260      -308.0672
   5   2.0000     -11.295892      -307.3769
   6   2.0000     -11.284665      -307.0713
   7   2.0000     -11.281602      -306.9880
   8   2.0000     -11.269774      -306.6662
   9   2.0000      -1.431298       -38.9476
  10   2.0000      -1.398701       -38.0606
  11   2.0000      -1.228182       -33.4205
  12   2.0000      -1.173152       -31.9231
  13   2.0000      -1.051129       -28.6027
  14   2.0000      -0.942202       -25.6386
  15   2.0000      -0.865866       -23.5614
  16   2.0000      -0.787020       -21.4159
  17   2.0000      -0.736585       -20.0435
  18   2.0000      -0.710240       -19.3266
  19   2.0000      -0.687829       -18.7168
  20   2.0000      -0.675896       -18.3921
  21   2.0000      -0.645869       -17.5750
  22   2.0000      -0.621076       -16.9003
  23   2.0000      -0.591480       -16.0950
  24   2.0000      -0.587441       -15.9851
  25   2.0000      -0.567028       -15.4296
  26   2.0000      -0.556912       -15.1543
  27   2.0000      -0.529398       -14.4057
  28   2.0000      -0.518563       -14.1108
  29   2.0000      -0.478559       -13.0222
  30   2.0000      -0.465433       -12.6651
  31   2.0000      -0.453338       -12.3360
  32   2.0000      -0.426988       -11.6189
  33   0.0000       0.095438         2.5970
  34   0.0000       0.122559         3.3350
  35   0.0000       0.137222         3.7340
  36   0.0000       0.153982         4.1901
  37   0.0000       0.162972         4.4347

MULLIKEN ATOMIC CHARGES
-----------------------
   0 O :   -0.478445
   1 C :    0.093577
   2 C :   -0.049597
   3 C :   -0.207212
   4 C :   -0.169797
   5 N :   -0.052538
   6 C :   -0.233602
   7 C :    0.063545
   8 O :   -0.248946
   9 H :    0.343302
  10 H :    0.132835
  11 H :    0.145509
  12 H :    0.180917
  13 H :    0.166146
  14 H :    0.156279
  15 H :    0.158027
Sum of atomic charges:    0.0000000

LOEWDIN ATOMIC CHARGES
----------------------
   0 O :    0.004892
   1 C :   -0.285165
   2 C :   -0.186073
   3 C :   -0.222760
   4 C :   -0.190693
   5 N :    0.060054
   6 C :   -0.176869
   7 C :   -0.314487
   8 O :    0.167346
   9 H :    0.192130
  10 H :    0.153587
  11 H :    0.151834
  12 H :    0.172529
  13 H :    0.169969
  14 H :    0.154187
  15 H :    0.149517

  Mayer bond orders larger than 0.1
B(  0-O ,  1-C ) :   1.0236 B(  0-O ,  9-H ) :   0.8212 B(  1-C ,  2-C ) :   0.8356
B(  1-C ,  7-C ) :   0.8747 B(  1-C , 10-H ) :   0.9230 B(  2-C ,  3-C ) :   0.9044
B(  2-C ,  6-C ) :   0.9051 B(  2-C , 11-H ) :   0.9162 B(  3-C ,  4-C ) :   0.9275
B(  3-C , 12-H ) :   0.9095 B(  3-C , 13-H ) :   0.9051 B(  4-C ,  5-N ) :   2.8760
B(  6-C ,  7-C ) :   0.9045 B(  6-C , 14-H ) :   0.9020 B(  6-C , 15-H ) :   0.9010
B(  7-C ,  8-O ) :   2.0146

MP2 TOTAL ENERGY:     -437.179182649 Eh
FINAL SINGLE POINT ENERGY      -437.179182649384

DIPOLE MOMENT
-------------
                                X             Y             Z
Electronic contribution:     -0.65654       1.21229      -1.17127
Nuclear contribution   :      1.72203      -1.42363       1.40463
                        -----------------------------------------
Total Dipole Moment    :      1.06549      -0.21134       0.23336
                        -----------------------------------------
Magnitude (a.u.)       :      1.11103
Magnitude (Debye)      :      2.82401

                             ****ORCA TERMINATED NORMALLY****
TOTAL RUN TIME: 0 days 0 hours 14 minutes 47 seconds 18 msec
