                         Program Version 3.0.3 - RELEASE   -
|  1> ! RI-MP2 RIJK def2-TZVP def2-TZVP/C def2-TZVP/JK TIGHTSCF
|  2> % maxcore 2000
|  3> % mp2 density relaxed end
|  4> *xyz 0 1
|  5>  C       -0.0707175776     1.4477145729    -0.0434072568
|  6>  N       -0.1073980584    -0.0020658148    -0.0813666064
|  7>  C        0.5733626359    -0.6304329637    -0.9253200418
|  8>  O        1.4035729688    -0.0879809787    -1.8809370786
|  9>  C        1.9882142220    -1.1323710672    -2.6330956797
| 10>  O        1.4998300841    -2.3608762829    -2.1223867483
| 11>  C        0.6384908902    -2.1118865549    -1.0859136275
| 12>  N        0.0254405831    -2.9747966280    -0.4066614816
| 13>  H        0.5862806947     1.9091273201    -0.7891593038
| 14>  H       -1.0892222970     1.8270621264    -0.1824700172
| 15>  H        0.2476734372     1.7633245120     0.9563359434
| 16>  H        1.7025528523    -1.0338351194    -3.6870603649
| 17>  H        3.0789945231    -1.0988093265    -2.5270865816
| 18>  H        0.2510621018    -3.9178037755    -0.7274698752
| 19> *
| 20>
| 21>                          ****END OF INPUT****

CARTESIAN COORDINATES (ANGSTROEM)
---------------------------------
  C     -0.070718    1.447715   -0.043407
  N     -0.107398   -0.002066   -0.081367
  C      0.573363   -0.630433   -0.925320
  O      1.403573   -0.087981   -1.880937
  C      1.988214   -1.132371   -2.633096
  O      1.499830   -2.360876   -2.122387
  C      0.638491   -2.111887   -1.085914
  N      0.025441   -2.974797   -0.406661
  H      0.586281    1.909127   -0.789159
  H     -1.089222    1.827062   -0.182470
  H      0.247673    1.763325    0.956336
  H      1.702553   -1.033835   -3.687060
  H      3.078995   -1.098809   -2.527087
  H      0.251062   -3.917804   -0.727470

 Total Charge           Charge          ....    0
 Multiplicity           Mult            ....    1
 Number of Electrons    NEL             ....   60
 Basis Dimension        Dim             ....  284

ORBITAL ENERGIES
----------------

  NO   OCC          E(Eh)            E(eV)
   0   2.0000     -20.624555      -561.2227
   1   2.0000     -20.621937      -561.1514
   2   2.0000     -15.565230      -423.5514
   3   2.0000     -15.557292      -423.3354
   4   2.0000     -11.375565      -309.5449
   5   2.0000     -11.360667      -309.1395
   6   2.0000     -11.353928      -308.9561
   7   2.0000     -11.252718      -306.2020
   8   2.0000      -1.508260       -41.0418
   9   2.0000      -1.408317       -38.3222
  10   2.0000      -1.248820       -33.9821
  11   2.0000      -1.205931       -32.8151
  12   2.0000      -1.008486       -27.4423
  13   2.0000      -0.951401       -25.8889
  14   2.0000      -0.879112       -23.9219
  15   2.0000      -0.800746       -21.7894
  16   2.0000      -0.741095       -20.1662
  17   2.0000      -0.724940       -19.7266
  18   2.0000      -0.686020       -18.6676
  19   2.0000      -0.660619       -17.9764
  20   2.0000      -0.611074       -16.6282
  21   2.0000      -0.610040       -16.6000
  22   2.0000      -0.588951       -16.0262
  23   2.0000      -0.581008       -15.8100
  24   2.0000      -0.549512       -14.9530
  25   2.0000      -0.548093       -14.9144
  26   2.0000      -0.459899       -12.5145
  27   2.0000      -0.428570       -11.6620
  28   2.0000      -0.426660       -11.6100
  29   2.0000      -0.391877       -10.6635
  30   0.0000       0.101747         2.7687
  31   0.0000       0.139644         3.7999
  32   0.0000       0.158770         4.3204
  33   0.0000       0.167271         4.5517
  34   0.0000       0.199326         5.4239

MULLIKEN ATOMIC CHARGES
-----------------------
   0 C :   -0.271496
   1 N :   -0.204527
   2 C :    0.209670
   3 O :   -0.283695
   4 C :    0.131557
   5 O :   -0.261073
   6 C :    0.117487
   7 N :   -0.331641
   8 H :    0.127213
   9 H :    0.143902
  10 H :    0.143969
  11 H :    0.123587
  12 H :    0.123561
  13 H :    0.231487
Sum of atomic charges:   -0.0000000

LOEWDIN ATOMIC CHARGES
----------------------
   0 C :   -0.323482
   1 N :    0.117663
   2 C :   -0.341393
   3 O :    0.236010
   4 C :   -0.310106
   5 O :    0.236459
   6 C :   -0.374694
   7 N :   -0.011857
   8 H :    0.109362
   9 H :    0.123922
  10 H :    0.123849
  11 H :    0.119949
  12 H :    0.119939
  13 H :    0.174379

  Mayer bond orders larger than 0.1
B(  0-C ,  1-N ) :   0.8472 B(  0-C ,  8-H ) :   0.9301 B(  0-C ,  9-H ) :   0.9315
B(  0-C , 10-H ) :   0.9317 B(  1-N ,  2-C ) :   1.9514 B(  2-C ,  3-O ) :   1.0254
B(  2-C ,  6-C ) :   0.9203 B(  3-O ,  4-C ) :   0.9351 B(  4-C ,  5-O ) :   0.9263
B(  4-C , 11-H ) :   0.9249 B(  4-C , 12-H ) :   0.9249 B(  5-O ,  6-C ) :   1.0733
B(  6-C ,  7-N ) :   2.0445 B(  7-N , 13-H ) :   0.8460

MP2 TOTAL ENERGY:     -415.195551058 Eh
FINAL SINGLE POINT ENERGY      -415.195551057617

DIPOLE MOMENT
-------------
                                X             Y             Z
Electronic contribution:      0.75662      -4.55043      -1.15469
Nuclear contribution   :      0.16651       4.92516       0.07958
                        -----------------------------------------
Total Dipole Moment    :      0.92314       0.37473      -1.07511
                        -----------------------------------------
Magnitude (a.u.)       :      1.46576
Magnitude (Debye)      :      3.72568

                             ****ORCA TERMINATED NORMALLY****
TOTAL RUN TIME: 0 days 0 hours 16 minutes 13 seconds 508 msec
