                         Program Version 3.0.3 - RELEASE   -
|  1> ! RI-MP2 RIJK def2-TZVP def2-TZVP/C def2-TZVP/JK TIGHTSCF
|  2> % maxcore 2000
|  3> % mp2 density relaxed end
|  4> *xyz 0 1
|  5>  C       -0.0967427983     1.5055425863    -0.0247335975
|  6>  C        0.0042899126    -0.0161166142    -0.0095725911
|  7>  O       -1.2779041724    -0.5859007602    -0.2071953287
|  8>  C        1.1942218116    -0.5995695050    -0.8439576476
|  9>  C        2.0746080300    -0.4275600887     0.4263864171
| 10>  C        0.7473953039    -0.6108562863     1.2175365573
| 11>  C        0.4510078784    -2.1153334551     1.2986908278
| 12>  O        0.9763770722    -2.8127938085     0.1731656759
| 13>  C        0.9507602997    -2.0991599448    -1.0573934969
| 14>  H        0.8623502954     1.9920192876     0.1671489505
| 15>  H       -0.4485561925     1.8551175940    -1.0044550675
| 16>  H       -0.8120844884     1.8411804066     0.7329423330
| 17>  H       -1.7065238390    -0.1267471674    -0.9368743602
| 18>  H        1.4750501655    -0.1001289672    -1.7762925173
| 19>  H        2.8487940545    -1.1785302116     0.5914345568
| 20>  H        2.5015633182     0.5707909496     0.5238610752
| 21>  H        0.6122864214    -0.1242769498     2.1876700035
| 22>  H        0.9474202830    -2.5513976627     2.1729995454
| 23>  H       -0.6300213999    -2.2798911914     1.3946881480
| 24>  H       -0.0060741232    -2.2496387142    -1.5774512223
| 25>  H        1.7488783370    -2.5349221970    -1.6688853216
| 26> *
| 27>
| 28>                          ****END OF INPUT****

CARTESIAN COORDINATES (ANGSTROEM)
---------------------------------
  C     -0.096743    1.505543   -0.024734
  C      0.004290   -0.016117   -0.009573
  O     -1.277904   -0.585901   -0.207195
  C      1.194222   -0.599570   -0.843958
  C      2.074608   -0.427560    0.426386
  C      0.747395   -0.610856    1.217537
  C      0.451008   -2.115333    1.298691
  O      0.976377   -2.812794    0.173166
  C      0.950760   -2.099160   -1.057393
  H      0.862350    1.992019    0.167149
  H     -0.448556    1.855118   -1.004455
  H     -0.812084    1.841180    0.732942
  H     -1.706524   -0.126747   -0.936874
  H      1.475050   -0.100129   -1.776293
  H      2.848794   -1.178530    0.591435
  H      2.501563    0.570791    0.523861
  H      0.612286   -0.124277    2.187670
  H      0.947420   -2.551398    2.173000
  H     -0.630021   -2.279891    1.394688
  H     -0.006074   -2.249639   -1.577451
  H      1.748878   -2.534922   -1.668885

 Total Charge           Charge          ....    0
 Multiplicity           Mult            ....    1
 Number of Electrons    NEL             ....   70
 Basis Dimension        Dim             ....  351

ORBITAL ENERGIES
----------------

  NO   OCC          E(Eh)            E(eV)
   0   2.0000     -20.557717      -559.4039
   1   2.0000     -20.539622      -558.9115
   2   2.0000     -11.286624      -307.1247
   3   2.0000     -11.265167      -306.5408
   4   2.0000     -11.262748      -306.4750
   5   2.0000     -11.229409      -305.5677
   6   2.0000     -11.228941      -305.5550
   7   2.0000     -11.224773      -305.4416
   8   2.0000     -11.222231      -305.3724
   9   2.0000      -1.374072       -37.3904
  10   2.0000      -1.355711       -36.8908
  11   2.0000      -1.140002       -31.0210
  12   2.0000      -1.009617       -27.4731
  13   2.0000      -0.985704       -26.8224
  14   2.0000      -0.885711       -24.1014
  15   2.0000      -0.841302       -22.8930
  16   2.0000      -0.834908       -22.7190
  17   2.0000      -0.722376       -19.6569
  18   2.0000      -0.685408       -18.6509
  19   2.0000      -0.670978       -18.2582
  20   2.0000      -0.654059       -17.7978
  21   2.0000      -0.620426       -16.8826
  22   2.0000      -0.611015       -16.6266
  23   2.0000      -0.601920       -16.3791
  24   2.0000      -0.560234       -15.2447
  25   2.0000      -0.551462       -15.0061
  26   2.0000      -0.531524       -14.4635
  27   2.0000      -0.530560       -14.4373
  28   2.0000      -0.521255       -14.1841
  29   2.0000      -0.497371       -13.5341
  30   2.0000      -0.467850       -12.7308
  31   2.0000      -0.446660       -12.1542
  32   2.0000      -0.420590       -11.4448
  33   2.0000      -0.404587       -11.0094
  34   2.0000      -0.399788       -10.8788
  35   0.0000       0.124351         3.3838
  36   0.0000       0.157737         4.2922
  37   0.0000       0.169041         4.5998
  38   0.0000       0.173040         4.7087
  39   0.0000       0.184050         5.0082

MULLIKEN ATOMIC CHARGES
-----------------------
   0 C :   -0.444654
   1 C :    0.117621
   2 O :   -0.470705
   3 C :   -0.028375
   4 C :   -0.353626
   5 C :   -0.008631
   6 C :   -0.077430
   7 O :   -0.330558
   8 C :   -0.036116
   9 H :    0.132231
  10 H :    0.122933
  11 H :    0.146803
  12 H :    0.312857
  13 H :    0.116431
  14 H :    0.134248
  15 H :    0.126727
  16 H :    0.116060
  17 H :    0.111988
  18 H :    0.115169
  19 H :    0.083215
  20 H :    0.113811
Sum of atomic charges:    0.0000000

LOEWDIN ATOMIC CHARGES
----------------------
   0 C :   -0.276994
   1 C :   -0.352058
   2 O :    0.017513
   3 C :   -0.200130
   4 C :   -0.192457
   5 C :   -0.191238
   6 C :   -0.282822
   7 O :    0.148895
   8 C :   -0.287842
   9 H :    0.130175
  10 H :    0.123567
  11 H :    0.129516
  12 H :    0.176421
  13 H :    0.139290
  14 H :    0.135865
  15 H :    0.131304
  16 H :    0.141976
  17 H :    0.129050
  18 H :    0.128406
  19 H :    0.122809
  20 H :    0.128755

  Mayer bond orders larger than 0.1
B(  0-C ,  1-C ) :   0.9134 B(  0-C ,  9-H ) :   0.9314 B(  0-C , 10-H ) :   0.9239
B(  0-C , 11-H ) :   0.9477 B(  1-C ,  2-O ) :   1.0329 B(  1-C ,  3-C ) :   0.8801
B(  1-C ,  5-C ) :   0.8665 B(  2-O , 12-H ) :   0.8387 B(  3-C ,  4-C ) :   0.9007
B(  3-C ,  8-C ) :   0.9050 B(  3-C , 13-H ) :   0.9131 B(  4-C ,  5-C ) :   0.9051
B(  4-C , 14-H ) :   0.9096 B(  4-C , 15-H ) :   0.9274 B(  5-C ,  6-C ) :   0.9070
B(  5-C , 16-H ) :   0.9118 B(  6-C ,  7-O ) :   0.9394 B(  6-C , 17-H ) :   0.9254
B(  6-C , 18-H ) :   0.9286 B(  7-O ,  8-C ) :   0.9476 B(  8-C , 19-H ) :   0.9206
B(  8-C , 20-H ) :   0.9266

MP2 TOTAL ENERGY:     -423.520902481 Eh
FINAL SINGLE POINT ENERGY      -423.520902480553

DIPOLE MOMENT
-------------
                                X             Y             Z
Electronic contribution:     -1.07632      -4.18053      -0.00669
Nuclear contribution   :      1.06687       5.20306      -0.33240
                        -----------------------------------------
Total Dipole Moment    :     -0.00945       1.02253      -0.33910
                        -----------------------------------------
Magnitude (a.u.)       :      1.07734
Magnitude (Debye)      :      2.73837

                             ****ORCA TERMINATED NORMALLY****
TOTAL RUN TIME: 0 days 0 hours 22 minutes 18 seconds 817 msec
