                         Program Version 3.0.3 - RELEASE   -
|  1> ! RI-MP2 RIJK def2-TZVP def2-TZVP/C def2-TZVP/JK TIGHTSCF
|  2> % maxcore 2000
|  3> % mp2 density relaxed end
|  4> *xyz 0 1
|  5>  O        0.7302315151    -0.2195843479     0.2123426802
|  6>  C        0.3736645196     0.9111778322    -0.0067659071
|  7>  C        1.3033362617     2.0944678642    -0.1109757605
|  8>  C        0.8760332951     3.1463240084    -1.1697581779
|  9>  C        1.0426101868     4.4703606379    -0.4603967329
| 10>  C        1.3058258662     4.3196486352     0.8350747931
| 11>  C        1.3646920975     2.8858225659     1.2257679416
| 12>  C        0.8064874223     2.3703252838     2.5143179557
| 13>  N        2.2591983028     2.4744437464     2.3143502665
| 14>  H       -0.7076381344     1.1634297025    -0.1109934270
| 15>  H        2.3055936531     1.7120389930    -0.3279864216
| 16>  H        1.4788432348     3.0719223020    -2.0810839969
| 17>  H       -0.1684109755     2.9986648515    -1.4823256510
| 18>  H        0.9294359312     5.4181128571    -0.9737389673
| 19>  H        1.4510468336     5.1087158216     1.5628785255
| 20>  H        0.3897416802     3.0679566517     3.2361549338
| 21>  H        0.3526045456     1.3831934373     2.5250812045
| 22>  H        2.6459411943     1.5536978770     2.1146078614
| 23> *
| 24>
| 25>                          ****END OF INPUT****

CARTESIAN COORDINATES (ANGSTROEM)
---------------------------------
  O      0.730232   -0.219584    0.212343
  C      0.373665    0.911178   -0.006766
  C      1.303336    2.094468   -0.110976
  C      0.876033    3.146324   -1.169758
  C      1.042610    4.470361   -0.460397
  C      1.305826    4.319649    0.835075
  C      1.364692    2.885823    1.225768
  C      0.806487    2.370325    2.514318
  N      2.259198    2.474444    2.314350
  H     -0.707638    1.163430   -0.110993
  H      2.305594    1.712039   -0.327986
  H      1.478843    3.071922   -2.081084
  H     -0.168411    2.998665   -1.482326
  H      0.929436    5.418113   -0.973739
  H      1.451047    5.108716    1.562879
  H      0.389742    3.067957    3.236155
  H      0.352605    1.383193    2.525081
  H      2.645941    1.553698    2.114608

 Total Charge           Charge          ....    0
 Multiplicity           Mult            ....    1
 Number of Electrons    NEL             ....   66
 Basis Dimension        Dim             ....  333

ORBITAL ENERGIES
----------------

  NO   OCC          E(Eh)            E(eV)
   0   2.0000     -20.564162      -559.5793
   1   2.0000     -15.565129      -423.5487
   2   2.0000     -11.338668      -308.5408
   3   2.0000     -11.285584      -307.0964
   4   2.0000     -11.263830      -306.5044
   5   2.0000     -11.255804      -306.2860
   6   2.0000     -11.250175      -306.1328
   7   2.0000     -11.241644      -305.9007
   8   2.0000     -11.237549      -305.7893
   9   2.0000      -1.403173       -38.1823
  10   2.0000      -1.276683       -34.7403
  11   2.0000      -1.138980       -30.9932
  12   2.0000      -1.017661       -27.6920
  13   2.0000      -0.944580       -25.7033
  14   2.0000      -0.888211       -24.1695
  15   2.0000      -0.843357       -22.9489
  16   2.0000      -0.786071       -21.3901
  17   2.0000      -0.741035       -20.1646
  18   2.0000      -0.713537       -19.4163
  19   2.0000      -0.664310       -18.0768
  20   2.0000      -0.654410       -17.8074
  21   2.0000      -0.642365       -17.4796
  22   2.0000      -0.610225       -16.6051
  23   2.0000      -0.567923       -15.4540
  24   2.0000      -0.543794       -14.7974
  25   2.0000      -0.538755       -14.6603
  26   2.0000      -0.526514       -14.3272
  27   2.0000      -0.508038       -13.8244
  28   2.0000      -0.491353       -13.3704
  29   2.0000      -0.471019       -12.8171
  30   2.0000      -0.432952       -11.7812
  31   2.0000      -0.405537       -11.0352
  32   2.0000      -0.349209        -9.5025
  33   0.0000       0.122832         3.3424
  34   0.0000       0.138187         3.7603
  35   0.0000       0.143154         3.8954
  36   0.0000       0.152136         4.1398
  37   0.0000       0.165630         4.5070

MULLIKEN ATOMIC CHARGES
-----------------------
   0 O :   -0.260877
   1 C :    0.028176
   2 C :    0.072855
   3 C :   -0.219681
   4 C :   -0.164406
   5 C :   -0.206622
   6 C :    0.113769
   7 C :   -0.209515
   8 N :   -0.388982
   9 H :    0.087963
  10 H :    0.114614
  11 H :    0.134826
  12 H :    0.120579
  13 H :    0.137051
  14 H :    0.142369
  15 H :    0.127188
  16 H :    0.142340
  17 H :    0.228355
Sum of atomic charges:   -0.0000000

LOEWDIN ATOMIC CHARGES
----------------------
   0 O :    0.131236
   1 C :   -0.282148
   2 C :   -0.186050
   3 C :   -0.206776
   4 C :   -0.145627
   5 C :   -0.114219
   6 C :   -0.255593
   7 C :   -0.236062
   8 N :    0.015861
   9 H :    0.114564
  10 H :    0.165663
  11 H :    0.142317
  12 H :    0.143923
  13 H :    0.139196
  14 H :    0.147457
  15 H :    0.127086
  16 H :    0.127144
  17 H :    0.172028

  Mayer bond orders larger than 0.1
B(  0-O ,  1-C ) :   1.9836 B(  1-C ,  2-C ) :   0.8262 B(  1-C ,  9-H ) :   0.9453
B(  2-C ,  3-C ) :   0.9330 B(  2-C ,  6-C ) :   0.8778 B(  2-C , 10-H ) :   0.8907
B(  3-C ,  4-C ) :   0.9236 B(  3-C , 11-H ) :   0.9247 B(  3-C , 12-H ) :   0.9096
B(  4-C ,  5-C ) :   1.7873 B(  4-C , 13-H ) :   0.9254 B(  5-C ,  6-C ) :   0.9145
B(  5-C , 14-H ) :   0.9180 B(  6-C ,  7-C ) :   0.9336 B(  6-C ,  8-N ) :   0.8650
B(  7-C ,  8-N ) :   0.9466 B(  7-C , 15-H ) :   0.9136 B(  7-C , 16-H ) :   0.9031
B(  8-N , 17-H ) :   0.8640

MP2 TOTAL ENERGY:     -401.240603436 Eh
FINAL SINGLE POINT ENERGY      -401.240603435815

DIPOLE MOMENT
-------------
                                X             Y             Z
Electronic contribution:      0.77476      -2.67158       0.42200
Nuclear contribution   :     -1.25307       3.33468      -0.90172
                        -----------------------------------------
Total Dipole Moment    :     -0.47831       0.66310      -0.47972
                        -----------------------------------------
Magnitude (a.u.)       :      0.94796
Magnitude (Debye)      :      2.40952

                             ****ORCA TERMINATED NORMALLY****
TOTAL RUN TIME: 0 days 0 hours 23 minutes 41 seconds 952 msec
