                         Program Version 3.0.3 - RELEASE   -
|  1> ! RI-MP2 RIJK def2-TZVP def2-TZVP/C def2-TZVP/JK TIGHTSCF
|  2> % maxcore 2000
|  3> % mp2 density relaxed end
|  4> *xyz 0 1
|  5>  C       -0.0587115591     1.4021205522    -0.0923786371
|  6>  N        0.1278424418    -0.0331568364    -0.0501632378
|  7>  C        0.6944173724    -0.5698473132     0.9552556823
|  8>  N        0.8797783779    -1.9566753938     0.9460974869
|  9>  N        1.3778700077    -2.7112583715     1.9394916483
| 10>  C        1.8023059964    -2.0689855415     2.9848994328
| 11>  N        2.4363362514    -2.7588900733     4.0181213891
| 12>  C        1.6972676638    -0.6245890918     3.0378741446
| 13>  N        1.1768635911     0.0852756776     2.1007845539
| 14>  H        0.4353251238     1.8085730872    -0.9842250899
| 15>  H       -1.1273492182     1.6284937615    -0.1995665090
| 16>  H        0.3227585064     1.9309842990     0.7883955352
| 17>  H        0.5489799732    -2.4607137371     0.1375475452
| 18>  H        2.3341232969    -3.7615462166     3.9234531508
| 19>  H        2.1721364074    -2.4518349644     4.9452134264
| 20>  H        2.0810207772    -0.1040971879     3.9181376983
| 21> *
| 22>
| 23>                          ****END OF INPUT****

CARTESIAN COORDINATES (ANGSTROEM)
---------------------------------
  C     -0.058712    1.402121   -0.092379
  N      0.127842   -0.033157   -0.050163
  C      0.694417   -0.569847    0.955256
  N      0.879778   -1.956675    0.946097
  N      1.377870   -2.711258    1.939492
  C      1.802306   -2.068986    2.984899
  N      2.436336   -2.758890    4.018121
  C      1.697268   -0.624589    3.037874
  N      1.176864    0.085276    2.100785
  H      0.435325    1.808573   -0.984225
  H     -1.127349    1.628494   -0.199567
  H      0.322759    1.930984    0.788396
  H      0.548980   -2.460714    0.137548
  H      2.334123   -3.761546    3.923453
  H      2.172136   -2.451835    4.945213
  H      2.081021   -0.104097    3.918138

 Total Charge           Charge          ....    0
 Multiplicity           Mult            ....    1
 Number of Electrons    NEL             ....   66
 Basis Dimension        Dim             ....  321

ORBITAL ENERGIES
----------------

  NO   OCC          E(Eh)            E(eV)
   0   2.0000     -15.627529      -425.2467
   1   2.0000     -15.621906      -425.0937
   2   2.0000     -15.596078      -424.3908
   3   2.0000     -15.588056      -424.1726
   4   2.0000     -15.517310      -422.2475
   5   2.0000     -11.342663      -308.6496
   6   2.0000     -11.325830      -308.1915
   7   2.0000     -11.324221      -308.1477
   8   2.0000     -11.224898      -305.4450
   9   2.0000      -1.386952       -37.7409
  10   2.0000      -1.270974       -34.5850
  11   2.0000      -1.245986       -33.9050
  12   2.0000      -1.194549       -32.5053
  13   2.0000      -1.089455       -29.6456
  14   2.0000      -0.946453       -25.7543
  15   2.0000      -0.932933       -25.3864
  16   2.0000      -0.848856       -23.0986
  17   2.0000      -0.772766       -21.0280
  18   2.0000      -0.753522       -20.5044
  19   2.0000      -0.684664       -18.6307
  20   2.0000      -0.670739       -18.2517
  21   2.0000      -0.655592       -17.8396
  22   2.0000      -0.635101       -17.2820
  23   2.0000      -0.608563       -16.5599
  24   2.0000      -0.566258       -15.4087
  25   2.0000      -0.552551       -15.0357
  26   2.0000      -0.517414       -14.0795
  27   2.0000      -0.509624       -13.8676
  28   2.0000      -0.487601       -13.2683
  29   2.0000      -0.443038       -12.0557
  30   2.0000      -0.411776       -11.2050
  31   2.0000      -0.392573       -10.6825
  32   2.0000      -0.297024        -8.0824
  33   0.0000       0.058684         1.5969
  34   0.0000       0.121018         3.2931
  35   0.0000       0.158753         4.3199
  36   0.0000       0.164311         4.4711
  37   0.0000       0.169073         4.6007

MULLIKEN ATOMIC CHARGES
-----------------------
   0 C :   -0.269260
   1 N :   -0.285806
   2 C :    0.204806
   3 N :   -0.140734
   4 N :   -0.178098
   5 C :    0.192744
   6 N :   -0.511204
   7 C :   -0.071362
   8 N :   -0.231463
   9 H :    0.125576
  10 H :    0.125049
  11 H :    0.126243
  12 H :    0.263484
  13 H :    0.257018
  14 H :    0.254917
  15 H :    0.138090
Sum of atomic charges:   -0.0000000

LOEWDIN ATOMIC CHARGES
----------------------
   0 C :   -0.345734
   1 N :    0.038866
   2 C :   -0.421338
   3 N :    0.108101
   4 N :    0.073887
   5 C :   -0.382856
   6 N :   -0.074013
   7 C :   -0.180258
   8 N :    0.163898
   9 H :    0.114264
  10 H :    0.114134
  11 H :    0.107599
  12 H :    0.194476
  13 H :    0.173626
  14 H :    0.170885
  15 H :    0.144462

  Mayer bond orders larger than 0.1
B(  0-C ,  1-N ) :   0.8915 B(  0-C ,  9-H ) :   0.9344 B(  0-C , 10-H ) :   0.9340
B(  0-C , 11-H ) :   0.9301 B(  1-N ,  2-C ) :   1.8685 B(  2-C ,  3-N ) :   1.0479
B(  2-C ,  8-N ) :   1.0373 B(  3-N ,  4-N ) :   0.9956 B(  3-N , 12-H ) :   0.8602
B(  4-N ,  5-C ) :   1.6508 B(  5-C ,  6-N ) :   1.0271 B(  5-C ,  7-C ) :   1.0589
B(  6-N , 13-H ) :   0.8670 B(  6-N , 14-H ) :   0.8691 B(  7-C ,  8-N ) :   1.7280
B(  7-C , 15-H ) :   0.9250

MP2 TOTAL ENERGY:     -429.512845246 Eh
FINAL SINGLE POINT ENERGY      -429.512845246088

DIPOLE MOMENT
-------------
                                X             Y             Z
Electronic contribution:      1.21886      -4.14075       1.09476
Nuclear contribution   :     -1.02357       3.56333       0.16956
                        -----------------------------------------
Total Dipole Moment    :      0.19529      -0.57742       1.26432
                        -----------------------------------------
Magnitude (a.u.)       :      1.40359
Magnitude (Debye)      :      3.56764

                             ****ORCA TERMINATED NORMALLY****
TOTAL RUN TIME: 0 days 0 hours 16 minutes 28 seconds 784 msec
