                         Program Version 3.0.3 - RELEASE   -
|  1> ! RI-MP2 RIJK def2-TZVP def2-TZVP/C def2-TZVP/JK TIGHTSCF
|  2> % maxcore 2000
|  3> % mp2 density relaxed end
|  4> *xyz 0 1
|  5>  C       -0.0125168597     1.5223396837     0.1711920273
|  6>  N       -0.0528400493     0.0747098920    -0.0233232350
|  7>  C        0.6815592284    -0.4495839757    -1.1735650911
|  8>  C       -0.0523728266    -0.1127741193    -2.5003264108
|  9>  C       -1.4106384736    -0.6484891524    -2.5372218240
| 10>  N       -2.4791628484    -1.0840348019    -2.5910563703
| 11>  C        2.0845830834    -0.0114799854    -1.2652192863
| 12>  C        3.2240521309     0.3699963779    -1.3137264842
| 13>  H        1.0034598458     1.9441548791     0.2075633683
| 14>  H       -0.5639622953     2.0275247990    -0.6282441118
| 15>  H       -0.5223890227     1.7570203376     1.1088264002
| 16>  H        0.2810528932    -0.3895847691     0.8129647430
| 17>  H        0.6706616721    -1.5411166356    -1.0720311498
| 18>  H       -0.0866894433     0.9713231487    -2.6440097719
| 19>  H        0.5177131477    -0.5234145898    -3.3392182108
| 20>  H        4.2355569073     0.6924570511    -1.3548483227
| 21> *
| 22>
| 23>                          ****END OF INPUT****

CARTESIAN COORDINATES (ANGSTROEM)
---------------------------------
  C     -0.012517    1.522340    0.171192
  N     -0.052840    0.074710   -0.023323
  C      0.681559   -0.449584   -1.173565
  C     -0.052373   -0.112774   -2.500326
  C     -1.410638   -0.648489   -2.537222
  N     -2.479163   -1.084035   -2.591056
  C      2.084583   -0.011480   -1.265219
  C      3.224052    0.369996   -1.313726
  H      1.003460    1.944155    0.207563
  H     -0.563962    2.027525   -0.628244
  H     -0.522389    1.757020    1.108826
  H      0.281053   -0.389585    0.812965
  H      0.670662   -1.541117   -1.072031
  H     -0.086689    0.971323   -2.644010
  H      0.517713   -0.523415   -3.339218
  H      4.235557    0.692457   -1.354848

 Total Charge           Charge          ....    0
 Multiplicity           Mult            ....    1
 Number of Electrons    NEL             ....   58
 Basis Dimension        Dim             ....  296

ORBITAL ENERGIES
----------------

  NO   OCC          E(Eh)            E(eV)
   0   2.0000     -15.567550      -423.6146
   1   2.0000     -15.565693      -423.5640
   2   2.0000     -11.315901      -307.9213
   3   2.0000     -11.288847      -307.1852
   4   2.0000     -11.270481      -306.6854
   5   2.0000     -11.256289      -306.2992
   6   2.0000     -11.251336      -306.1644
   7   2.0000     -11.244858      -305.9881
   8   2.0000      -1.240534       -33.7567
   9   2.0000      -1.212326       -32.9891
  10   2.0000      -1.086469       -29.5643
  11   2.0000      -1.035329       -28.1727
  12   2.0000      -0.952287       -25.9130
  13   2.0000      -0.876387       -23.8477
  14   2.0000      -0.744341       -20.2545
  15   2.0000      -0.715724       -19.4759
  16   2.0000      -0.706795       -19.2329
  17   2.0000      -0.659175       -17.9371
  18   2.0000      -0.627177       -17.0663
  19   2.0000      -0.608825       -16.5670
  20   2.0000      -0.586303       -15.9541
  21   2.0000      -0.551912       -15.0183
  22   2.0000      -0.539370       -14.6770
  23   2.0000      -0.532444       -14.4885
  24   2.0000      -0.460444       -12.5293
  25   2.0000      -0.456485       -12.4216
  26   2.0000      -0.420087       -11.4311
  27   2.0000      -0.408608       -11.1188
  28   2.0000      -0.395728       -10.7683
  29   0.0000       0.117122         3.1870
  30   0.0000       0.141323         3.8456
  31   0.0000       0.149178         4.0594
  32   0.0000       0.154547         4.2054
  33   0.0000       0.161759         4.4017

MULLIKEN ATOMIC CHARGES
-----------------------
   0 C :   -0.308231
   1 N :   -0.337102
   2 C :   -0.109673
   3 C :   -0.141785
   4 C :   -0.173987
   5 N :   -0.050685
   6 C :   -0.045787
   7 C :   -0.136976
   8 H :    0.130287
   9 H :    0.130373
  10 H :    0.145069
  11 H :    0.214568
  12 H :    0.150337
  13 H :    0.166933
  14 H :    0.170406
  15 H :    0.196253
Sum of atomic charges:    0.0000000

LOEWDIN ATOMIC CHARGES
----------------------
   0 C :   -0.339268
   1 N :   -0.004927
   2 C :   -0.291048
   3 C :   -0.210394
   4 C :   -0.188560
   5 N :    0.061173
   6 C :   -0.096581
   7 C :   -0.088762
   8 H :    0.107544
   9 H :    0.115799
  10 H :    0.120588
  11 H :    0.175814
  12 H :    0.172723
  13 H :    0.166219
  14 H :    0.170246
  15 H :    0.129434

  Mayer bond orders larger than 0.1
B(  0-C ,  1-N ) :   0.9231 B(  0-C ,  8-H ) :   0.9248 B(  0-C ,  9-H ) :   0.9350
B(  0-C , 10-H ) :   0.9363 B(  1-N ,  2-C ) :   0.9369 B(  1-N , 11-H ) :   0.8827
B(  2-C ,  3-C ) :   0.9144 B(  2-C ,  6-C ) :   1.0334 B(  2-C , 12-H ) :   0.9595
B(  3-C ,  4-C ) :   0.9314 B(  3-C , 13-H ) :   0.8991 B(  3-C , 14-H ) :   0.9150
B(  4-C ,  5-N ) :   2.8828 B(  6-C ,  7-C ) :   2.6408 B(  7-C , 15-H ) :   0.8920

MP2 TOTAL ENERGY:     -342.138302613 Eh
FINAL SINGLE POINT ENERGY      -342.138302612506

DIPOLE MOMENT
-------------
                                X             Y             Z
Electronic contribution:     -1.81342      -4.05357      -3.33044
Nuclear contribution   :      3.48755       4.70481       3.72812
                        -----------------------------------------
Total Dipole Moment    :      1.67412       0.65123       0.39768
                        -----------------------------------------
Magnitude (a.u.)       :      1.83982
Magnitude (Debye)      :      4.67646

                             ****ORCA TERMINATED NORMALLY****
TOTAL RUN TIME: 0 days 0 hours 11 minutes 14 seconds 535 msec
