                         Program Version 3.0.3 - RELEASE   -
|  1> ! RI-MP2 RIJK def2-TZVP def2-TZVP/C def2-TZVP/JK TIGHTSCF
|  2> % maxcore 2000
|  3> % mp2 density relaxed end
|  4> *xyz 0 1
|  5>  C        0.0034664036     1.6425299870    -0.0867862899
|  6>  C        0.0063480580     0.1159727906     0.0592478100
|  7>  C       -1.3957459672    -0.5104394013     0.0369927958
|  8>  O       -2.2046764351     0.0027554768     1.0820619924
|  9>  C       -2.0345604774    -0.5535540878    -1.3900136548
| 10>  C       -1.6004963292    -2.0394112395    -1.5018389800
| 11>  C       -1.4219990282    -2.0663165137     0.0384334677
| 12>  C       -0.2903420987    -2.8679865196     0.6480299634
| 13>  O       -0.5888912360    -4.2433213588     0.4388214311
| 14>  H        1.0250952843     2.0314308935    -0.1252636159
| 15>  H       -0.5060146229     1.9632400215    -1.0019722745
| 16>  H       -0.4881071934     2.1277928190     0.7639216279
| 17>  H        0.6060162009    -0.3223965605    -0.7472184030
| 18>  H        0.4967422706    -0.1531189003     1.0022395353
| 19>  H       -2.2812236238     0.9556776076     0.9664213442
| 20>  H       -3.1199312054    -0.4482097445    -1.3175546259
| 21>  H       -1.6558664763     0.1459011397    -2.1403801669
| 22>  H       -2.3153955801    -2.7424400057    -1.9309823237
| 23>  H       -0.6467223625    -2.1548414382    -2.0260109537
| 24>  H       -2.3589983749    -2.3728070683     0.5133277703
| 25>  H        0.6682633987    -2.6000459580     0.1759048661
| 26>  H       -0.2054764515    -2.6377007926     1.7225741195
| 27>  H        0.1309725966    -4.7651736266     0.8050237345
| 28> *
| 29>
| 30>                          ****END OF INPUT****

CARTESIAN COORDINATES (ANGSTROEM)
---------------------------------
  C      0.003466    1.642530   -0.086786
  C      0.006348    0.115973    0.059248
  C     -1.395746   -0.510439    0.036993
  O     -2.204676    0.002755    1.082062
  C     -2.034560   -0.553554   -1.390014
  C     -1.600496   -2.039411   -1.501839
  C     -1.421999   -2.066317    0.038433
  C     -0.290342   -2.867987    0.648030
  O     -0.588891   -4.243321    0.438821
  H      1.025095    2.031431   -0.125264
  H     -0.506015    1.963240   -1.001972
  H     -0.488107    2.127793    0.763922
  H      0.606016   -0.322397   -0.747218
  H      0.496742   -0.153119    1.002240
  H     -2.281224    0.955678    0.966421
  H     -3.119931   -0.448210   -1.317555
  H     -1.655866    0.145901   -2.140380
  H     -2.315396   -2.742440   -1.930982
  H     -0.646722   -2.154841   -2.026011
  H     -2.358998   -2.372807    0.513328
  H      0.668263   -2.600046    0.175905
  H     -0.205476   -2.637701    1.722574
  H      0.130973   -4.765174    0.805024

 Total Charge           Charge          ....    0
 Multiplicity           Mult            ....    1
 Number of Electrons    NEL             ....   72
 Basis Dimension        Dim             ....  363

ORBITAL ENERGIES
----------------

  NO   OCC          E(Eh)            E(eV)
   0   2.0000     -20.551658      -559.2390
   1   2.0000     -20.550260      -559.2010
   2   2.0000     -11.281020      -306.9722
   3   2.0000     -11.270120      -306.6756
   4   2.0000     -11.225464      -305.4604
   5   2.0000     -11.223366      -305.4033
   6   2.0000     -11.216676      -305.2213
   7   2.0000     -11.215717      -305.1952
   8   2.0000     -11.214917      -305.1734
   9   2.0000      -1.360352       -37.0171
  10   2.0000      -1.354408       -36.8553
  11   2.0000      -1.126931       -30.6653
  12   2.0000      -1.033851       -28.1325
  13   2.0000      -0.966770       -26.3072
  14   2.0000      -0.899029       -24.4638
  15   2.0000      -0.843487       -22.9525
  16   2.0000      -0.827122       -22.5071
  17   2.0000      -0.725431       -19.7400
  18   2.0000      -0.694580       -18.9005
  19   2.0000      -0.686010       -18.6673
  20   2.0000      -0.643139       -17.5007
  21   2.0000      -0.626376       -17.0446
  22   2.0000      -0.621746       -16.9186
  23   2.0000      -0.603986       -16.4353
  24   2.0000      -0.568422       -15.4675
  25   2.0000      -0.554276       -15.0826
  26   2.0000      -0.538613       -14.6564
  27   2.0000      -0.519868       -14.1463
  28   2.0000      -0.510505       -13.8915
  29   2.0000      -0.500843       -13.6286
  30   2.0000      -0.486592       -13.2409
  31   2.0000      -0.469953       -12.7881
  32   2.0000      -0.455268       -12.3885
  33   2.0000      -0.435287       -11.8448
  34   2.0000      -0.423888       -11.5346
  35   2.0000      -0.403136       -10.9699
  36   0.0000       0.130516         3.5515
  37   0.0000       0.139140         3.7862
  38   0.0000       0.158476         4.3123
  39   0.0000       0.168379         4.5818
  40   0.0000       0.174942         4.7604

MULLIKEN ATOMIC CHARGES
-----------------------
   0 C :   -0.434294
   1 C :   -0.283611
   2 C :    0.242104
   3 O :   -0.465977
   4 C :   -0.255368
   5 C :   -0.261388
   6 C :   -0.000059
   7 C :   -0.107979
   8 O :   -0.463405
   9 H :    0.141614
  10 H :    0.135269
  11 H :    0.121626
  12 H :    0.118669
  13 H :    0.121821
  14 H :    0.312267
  15 H :    0.115940
  16 H :    0.111195
  17 H :    0.122779
  18 H :    0.111518
  19 H :    0.103485
  20 H :    0.092246
  21 H :    0.108049
  22 H :    0.313496
Sum of atomic charges:    0.0000000

LOEWDIN ATOMIC CHARGES
----------------------
   0 C :   -0.321602
   1 C :   -0.259205
   2 C :   -0.338958
   3 O :    0.008446
   4 C :   -0.208919
   5 C :   -0.213814
   6 C :   -0.198888
   7 C :   -0.334616
   8 O :   -0.046833
   9 H :    0.124877
  10 H :    0.121767
  11 H :    0.117305
  12 H :    0.143876
  13 H :    0.142151
  14 H :    0.171755
  15 H :    0.137786
  16 H :    0.123190
  17 H :    0.127419
  18 H :    0.133579
  19 H :    0.164305
  20 H :    0.115543
  21 H :    0.120082
  22 H :    0.170755

  Mayer bond orders larger than 0.1
B(  0-C ,  1-C ) :   0.9017 B(  0-C ,  9-H ) :   0.9413 B(  0-C , 10-H ) :   0.9386
B(  0-C , 11-H ) :   0.9414 B(  1-C ,  2-C ) :   0.9067 B(  1-C , 12-H ) :   0.9233
B(  1-C , 13-H ) :   0.9331 B(  2-C ,  3-O ) :   0.9556 B(  2-C ,  4-C ) :   0.9078
B(  2-C ,  6-C ) :   0.8687 B(  3-O , 14-H ) :   0.8423 B(  4-C ,  5-C ) :   0.9483
B(  4-C , 15-H ) :   0.9148 B(  4-C , 16-H ) :   0.9222 B(  5-C ,  6-C ) :   0.9367
B(  5-C , 17-H ) :   0.9254 B(  5-C , 18-H ) :   0.9194 B(  6-C ,  7-C ) :   0.9212
B(  6-C ,  8-O ) :  -0.1121 B(  6-C , 19-H ) :   0.9100 B(  7-C ,  8-O ) :   1.0352
B(  7-C , 20-H ) :   0.9127 B(  7-C , 21-H ) :   0.9447 B(  8-O , 22-H ) :   0.8496

MP2 TOTAL ENERGY:     -424.718169603 Eh
FINAL SINGLE POINT ENERGY      -424.718169602883

DIPOLE MOMENT
-------------
                                X             Y             Z
Electronic contribution:     -2.96186      -4.72090       2.43375
Nuclear contribution   :      3.74909       5.24774      -2.56400
                        -----------------------------------------
Total Dipole Moment    :      0.78724       0.52684      -0.13025
                        -----------------------------------------
Magnitude (a.u.)       :      0.95618
Magnitude (Debye)      :      2.43041

                             ****ORCA TERMINATED NORMALLY****
TOTAL RUN TIME: 0 days 0 hours 19 minutes 41 seconds 984 msec
