                         Program Version 3.0.3 - RELEASE   -
|  1> ! RI-MP2 RIJK def2-TZVP def2-TZVP/C def2-TZVP/JK TIGHTSCF
|  2> % maxcore 2000
|  3> % mp2 density relaxed end
|  4> *xyz 0 1
|  5>  O        0.0659431413    -0.0105094595     0.1653587829
|  6>  C       -0.0070340897     1.1785903165     0.0017169113
|  7>  N       -1.2023374079     1.8730000336     0.0079114763
|  8>  C       -1.2778151148     3.2660599355     0.0127962419
|  9>  C       -0.2029442554     3.9921654248    -0.2881411495
| 10>  C        1.0420595102     3.2812442786    -0.6388070871
| 11>  C        1.7521149826     3.5056321963    -1.9561748356
| 12>  C        2.3825416324     3.9510219724    -0.6543295052
| 13>  O        1.1054786189     1.9350603505    -0.1540396297
| 14>  H       -2.0042762426     1.3121822376     0.2419215996
| 15>  H       -2.2413746867     3.6833710728     0.2754524316
| 16>  H       -0.2236874943     5.0730636691    -0.2902518245
| 17>  H        2.1676005954     2.6250893503    -2.4327178043
| 18>  H        1.3508147310     4.2532897226    -2.6312931445
| 19>  H        2.4219675662     5.0099409259    -0.4231357654
| 20>  H        3.2144105433     3.3679513230    -0.2769872478
| 21> *
| 22>
| 23>                          ****END OF INPUT****

CARTESIAN COORDINATES (ANGSTROEM)
---------------------------------
  O      0.065943   -0.010509    0.165359
  C     -0.007034    1.178590    0.001717
  N     -1.202337    1.873000    0.007911
  C     -1.277815    3.266060    0.012796
  C     -0.202944    3.992165   -0.288141
  C      1.042060    3.281244   -0.638807
  C      1.752115    3.505632   -1.956175
  C      2.382542    3.951022   -0.654330
  O      1.105479    1.935060   -0.154040
  H     -2.004276    1.312182    0.241922
  H     -2.241375    3.683371    0.275452
  H     -0.223687    5.073064   -0.290252
  H      2.167601    2.625089   -2.432718
  H      1.350815    4.253290   -2.631293
  H      2.421968    5.009941   -0.423136
  H      3.214411    3.367951   -0.276987

 Total Charge           Charge          ....    0
 Multiplicity           Mult            ....    1
 Number of Electrons    NEL             ....   66
 Basis Dimension        Dim             ....  321

ORBITAL ENERGIES
----------------

  NO   OCC          E(Eh)            E(eV)
   0   2.0000     -20.605049      -560.6919
   1   2.0000     -20.525966      -558.5399
   2   2.0000     -15.609636      -424.7598
   3   2.0000     -11.409691      -310.4735
   4   2.0000     -11.318022      -307.9790
   5   2.0000     -11.296308      -307.3882
   6   2.0000     -11.243300      -305.9458
   7   2.0000     -11.242062      -305.9121
   8   2.0000     -11.240293      -305.8639
   9   2.0000      -1.467723       -39.9388
  10   2.0000      -1.365606       -37.1600
  11   2.0000      -1.264894       -34.4195
  12   2.0000      -1.161163       -31.5969
  13   2.0000      -1.051015       -28.5996
  14   2.0000      -0.892116       -24.2757
  15   2.0000      -0.876033       -23.8381
  16   2.0000      -0.844611       -22.9830
  17   2.0000      -0.768214       -20.9042
  18   2.0000      -0.743591       -20.2341
  19   2.0000      -0.696394       -18.9498
  20   2.0000      -0.665855       -18.1188
  21   2.0000      -0.644261       -17.5312
  22   2.0000      -0.639224       -17.3942
  23   2.0000      -0.614646       -16.7254
  24   2.0000      -0.609579       -16.5875
  25   2.0000      -0.547239       -14.8911
  26   2.0000      -0.528549       -14.3825
  27   2.0000      -0.525745       -14.3062
  28   2.0000      -0.505581       -13.7576
  29   2.0000      -0.472474       -12.8567
  30   2.0000      -0.438108       -11.9215
  31   2.0000      -0.421974       -11.4825
  32   2.0000      -0.329165        -8.9570
  33   0.0000       0.129933         3.5357
  34   0.0000       0.132192         3.5971
  35   0.0000       0.150420         4.0931
  36   0.0000       0.170526         4.6403
  37   0.0000       0.179861         4.8943

MULLIKEN ATOMIC CHARGES
-----------------------
   0 O :   -0.323836
   1 C :    0.334383
   2 N :   -0.313546
   3 C :   -0.040928
   4 C :   -0.240303
   5 C :    0.270633
   6 C :   -0.285598
   7 C :   -0.303050
   8 O :   -0.214880
   9 H :    0.258583
  10 H :    0.149344
  11 H :    0.143651
  12 H :    0.146788
  13 H :    0.133803
  14 H :    0.134467
  15 H :    0.150489
Sum of atomic charges:    0.0000000

LOEWDIN ATOMIC CHARGES
----------------------
   0 O :    0.101964
   1 C :   -0.560139
   2 N :    0.133262
   3 C :   -0.207309
   4 C :   -0.161306
   5 C :   -0.288557
   6 C :   -0.195227
   7 C :   -0.194045
   8 O :    0.311590
   9 H :    0.202348
  10 H :    0.144855
  11 H :    0.154670
  12 H :    0.142599
  13 H :    0.135086
  14 H :    0.136126
  15 H :    0.144081

  Mayer bond orders larger than 0.1
B(  0-O ,  1-C ) :   2.0225 B(  1-C ,  2-N ) :   1.0732 B(  1-C ,  8-O ) :   1.1077
B(  2-N ,  3-C ) :   1.0029 B(  2-N ,  9-H ) :   0.8656 B(  3-C ,  4-C ) :   1.7724
B(  3-C , 10-H ) :   0.9124 B(  4-C ,  5-C ) :   0.9380 B(  4-C , 11-H ) :   0.9081
B(  5-C ,  6-C ) :   0.8501 B(  5-C ,  7-C ) :   0.8666 B(  5-C ,  8-O ) :   0.9023
B(  6-C ,  7-C ) :   0.9222 B(  6-C , 12-H ) :   0.9209 B(  6-C , 13-H ) :   0.9178
B(  7-C , 14-H ) :   0.9210 B(  7-C , 15-H ) :   0.9213

MP2 TOTAL ENERGY:     -437.189775668 Eh
FINAL SINGLE POINT ENERGY      -437.189775668123

DIPOLE MOMENT
-------------
                                X             Y             Z
Electronic contribution:     -2.44992      -5.75062       2.46608
Nuclear contribution   :      1.71911       7.28990      -2.68269
                        -----------------------------------------
Total Dipole Moment    :     -0.73081       1.53927      -0.21661
                        -----------------------------------------
Magnitude (a.u.)       :      1.71766
Magnitude (Debye)      :      4.36595

                             ****ORCA TERMINATED NORMALLY****
TOTAL RUN TIME: 0 days 0 hours 14 minutes 48 seconds 157 msec
