                         Program Version 3.0.3 - RELEASE   -
|  1> ! RI-MP2 RIJK def2-TZVP def2-TZVP/C def2-TZVP/JK TIGHTSCF
|  2> % maxcore 2000
|  3> % mp2 density relaxed end
|  4> *xyz 0 1
|  5>  C        0.0143277936     1.5492404647     0.0972341959
|  6>  C       -0.0402100326     0.0474079300    -0.0304769857
|  7>  C        0.7299507165    -0.5872494800    -1.2155752934
|  8>  C       -0.0132563636    -1.9342056962    -1.3969531266
|  9>  C        0.0552657786    -2.7026972785    -0.0536203528
| 10>  C       -0.5790367081    -1.6791513330     0.9100531825
| 11>  O        0.3764689637    -0.6296485869     1.1913392051
| 12>  C       -1.3901817014    -0.7467252888    -0.0378546324
| 13>  C       -1.4846172665    -1.4581875829    -1.3866735138
| 14>  H        1.0502229705     1.8874132947     0.2117332214
| 15>  H       -0.4026396412     2.0298453554    -0.7939356658
| 16>  H       -0.5506053714     1.8818271889     0.9726277535
| 17>  H        0.6401590616     0.0245083142    -2.1208600443
| 18>  H        1.7905931773    -0.6915929854    -0.9710399633
| 19>  H        0.2992775191    -2.5117650534    -2.2686282896
| 20>  H       -0.5383288233    -3.6228704452    -0.1052181445
| 21>  H        1.0690951022    -2.9602650490     0.2641140295
| 22>  H       -1.0196595763    -2.0910736680     1.8204640771
| 23>  H       -2.2637900221    -0.2432266169     0.3724563301
| 24>  H       -1.7251583256    -0.7823678649    -2.2139885195
| 25>  H       -2.2052546910    -2.2825608589    -1.3900772534
| 26> *
| 27>
| 28>                          ****END OF INPUT****

CARTESIAN COORDINATES (ANGSTROEM)
---------------------------------
  C      0.014328    1.549240    0.097234
  C     -0.040210    0.047408   -0.030477
  C      0.729951   -0.587249   -1.215575
  C     -0.013256   -1.934206   -1.396953
  C      0.055266   -2.702697   -0.053620
  C     -0.579037   -1.679151    0.910053
  O      0.376469   -0.629649    1.191339
  C     -1.390182   -0.746725   -0.037855
  C     -1.484617   -1.458188   -1.386674
  H      1.050223    1.887413    0.211733
  H     -0.402640    2.029845   -0.793936
  H     -0.550605    1.881827    0.972628
  H      0.640159    0.024508   -2.120860
  H      1.790593   -0.691593   -0.971040
  H      0.299278   -2.511765   -2.268628
  H     -0.538329   -3.622870   -0.105218
  H      1.069095   -2.960265    0.264114
  H     -1.019660   -2.091074    1.820464
  H     -2.263790   -0.243227    0.372456
  H     -1.725158   -0.782368   -2.213989
  H     -2.205255   -2.282561   -1.390077

 Total Charge           Charge          ....    0
 Multiplicity           Mult            ....    1
 Number of Electrons    NEL             ....   68
 Basis Dimension        Dim             ....  351

ORBITAL ENERGIES
----------------

  NO   OCC          E(Eh)            E(eV)
   0   2.0000     -20.534177      -558.7634
   1   2.0000     -11.280854      -306.9676
   2   2.0000     -11.274276      -306.7886
   3   2.0000     -11.228906      -305.5541
   4   2.0000     -11.225316      -305.4564
   5   2.0000     -11.221323      -305.3477
   6   2.0000     -11.217526      -305.2444
   7   2.0000     -11.217210      -305.2358
   8   2.0000     -11.213659      -305.1392
   9   2.0000      -1.374189       -37.3936
  10   2.0000      -1.139771       -31.0147
  11   2.0000      -1.032905       -28.1068
  12   2.0000      -0.976715       -26.5778
  13   2.0000      -0.949922       -25.8487
  14   2.0000      -0.904415       -24.6104
  15   2.0000      -0.803649       -21.8684
  16   2.0000      -0.770772       -20.9738
  17   2.0000      -0.713028       -19.4025
  18   2.0000      -0.675700       -18.3867
  19   2.0000      -0.650350       -17.6969
  20   2.0000      -0.618772       -16.8377
  21   2.0000      -0.597043       -16.2464
  22   2.0000      -0.584975       -15.9180
  23   2.0000      -0.560219       -15.2443
  24   2.0000      -0.536244       -14.5919
  25   2.0000      -0.535283       -14.5658
  26   2.0000      -0.512733       -13.9522
  27   2.0000      -0.505003       -13.7418
  28   2.0000      -0.496812       -13.5189
  29   2.0000      -0.456743       -12.4286
  30   2.0000      -0.452434       -12.3113
  31   2.0000      -0.436938       -11.8897
  32   2.0000      -0.413741       -11.2585
  33   2.0000      -0.386904       -10.5282
  34   0.0000       0.132454         3.6043
  35   0.0000       0.157362         4.2820
  36   0.0000       0.170808         4.6479
  37   0.0000       0.179834         4.8935
  38   0.0000       0.188790         5.1372

MULLIKEN ATOMIC CHARGES
-----------------------
   0 C :   -0.418685
   1 C :    0.200292
   2 C :   -0.318460
   3 C :    0.050032
   4 C :   -0.307642
   5 C :    0.063575
   6 O :   -0.329942
   7 C :   -0.101414
   8 C :   -0.301187
   9 H :    0.138754
  10 H :    0.125659
  11 H :    0.136051
  12 H :    0.115431
  13 H :    0.121765
  14 H :    0.122480
  15 H :    0.113946
  16 H :    0.122480
  17 H :    0.108716
  18 H :    0.121441
  19 H :    0.118162
  20 H :    0.118546
Sum of atomic charges:   -0.0000000

LOEWDIN ATOMIC CHARGES
----------------------
   0 C :   -0.272076
   1 C :   -0.302446
   2 C :   -0.187523
   3 C :   -0.224907
   4 C :   -0.212466
   5 C :   -0.238111
   6 O :    0.169529
   7 C :   -0.158195
   8 C :   -0.212589
   9 H :    0.132441
  10 H :    0.129471
  11 H :    0.129533
  12 H :    0.140671
  13 H :    0.141796
  14 H :    0.139915
  15 H :    0.138953
  16 H :    0.140242
  17 H :    0.128547
  18 H :    0.141446
  19 H :    0.138052
  20 H :    0.137717

  Mayer bond orders larger than 0.1
B(  0-C ,  1-C ) :   0.8589 B(  0-C ,  9-H ) :   0.9404 B(  0-C , 10-H ) :   0.9344
B(  0-C , 11-H ) :   0.9457 B(  1-C ,  2-C ) :   0.9599 B(  1-C ,  6-O ) :   0.9472
B(  1-C ,  7-C ) :   0.8865 B(  2-C ,  3-C ) :   0.9045 B(  2-C , 12-H ) :   0.9193
B(  2-C , 13-H ) :   0.9181 B(  3-C ,  4-C ) :   0.9032 B(  3-C ,  8-C ) :   0.9095
B(  3-C , 14-H ) :   0.9266 B(  4-C ,  5-C ) :   0.9459 B(  4-C , 15-H ) :   0.9171
B(  4-C , 16-H ) :   0.9216 B(  5-C ,  6-O ) :   0.9367 B(  5-C ,  7-C ) :   0.9319
B(  5-C , 17-H ) :   0.9236 B(  7-C ,  8-C ) :   0.9719 B(  7-C , 18-H ) :   0.9169
B(  8-C , 19-H ) :   0.9213 B(  8-C , 20-H ) :   0.9226

MP2 TOTAL ENERGY:     -386.440952573 Eh
FINAL SINGLE POINT ENERGY      -386.440952572800

DIPOLE MOMENT
-------------
                                X             Y             Z
Electronic contribution:      0.41815      -1.27460       3.00951
Nuclear contribution   :     -0.85372       1.16847      -3.58580
                        -----------------------------------------
Total Dipole Moment    :     -0.43558      -0.10613      -0.57629
                        -----------------------------------------
Magnitude (a.u.)       :      0.73014
Magnitude (Debye)      :      1.85586

                             ****ORCA TERMINATED NORMALLY****
TOTAL RUN TIME: 0 days 0 hours 21 minutes 19 seconds 538 msec
