                         Program Version 3.0.3 - RELEASE   -
|  1> ! RI-MP2 RIJK def2-TZVP def2-TZVP/C def2-TZVP/JK TIGHTSCF
|  2> % maxcore 2000
|  3> % mp2 density relaxed end
|  4> *xyz 0 1
|  5>  O        0.1074226086     1.3573627773     0.0506291481
|  6>  C        0.0208991372    -0.0211145579     0.0373092586
|  7>  C        0.6503293711    -0.7450697246     1.2610063386
|  8>  O        0.1646261854    -2.0984112410     1.1261774859
|  9>  C       -0.6501946286    -2.0890810907    -0.0154794343
| 10>  C       -1.3582448107    -0.7354708687     0.0146220091
| 11>  O        0.2024856452    -1.9729009038    -1.2015193134
| 12>  C        0.6325088104    -0.6805133460    -1.1841818558
| 13>  N        1.3762928537    -0.0766666025    -2.0020043862
| 14>  H        0.6515175578     1.5960443201    -0.7167151138
| 15>  H        1.7436179129    -0.7389478422     1.2454147285
| 16>  H        0.2929401996    -0.3029432341     2.1973322788
| 17>  H       -1.2017452031    -3.0217723047    -0.0920094442
| 18>  H       -1.9503816091    -0.5833640144     0.9182496896
| 19>  H       -1.9451739746    -0.5242197554    -0.8800712566
| 20>  H        1.6857352143    -0.6697655713    -2.7712416727
| 21> *
| 22>
| 23>                          ****END OF INPUT****

CARTESIAN COORDINATES (ANGSTROEM)
---------------------------------
  O      0.107423    1.357363    0.050629
  C      0.020899   -0.021115    0.037309
  C      0.650329   -0.745070    1.261006
  O      0.164626   -2.098411    1.126177
  C     -0.650195   -2.089081   -0.015479
  C     -1.358245   -0.735471    0.014622
  O      0.202486   -1.972901   -1.201519
  C      0.632509   -0.680513   -1.184182
  N      1.376293   -0.076667   -2.002004
  H      0.651518    1.596044   -0.716715
  H      1.743618   -0.738948    1.245415
  H      0.292940   -0.302943    2.197332
  H     -1.201745   -3.021772   -0.092009
  H     -1.950382   -0.583364    0.918250
  H     -1.945174   -0.524220   -0.880071
  H      1.685735   -0.669766   -2.771242

 Total Charge           Charge          ....    0
 Multiplicity           Mult            ....    1
 Number of Electrons    NEL             ....   68
 Basis Dimension        Dim             ....  321

ORBITAL ENERGIES
----------------

  NO   OCC          E(Eh)            E(eV)
   0   2.0000     -20.609861      -560.8228
   1   2.0000     -20.584725      -560.1388
   2   2.0000     -20.576472      -559.9143
   3   2.0000     -15.552798      -423.2132
   4   2.0000     -11.365854      -309.2806
   5   2.0000     -11.351073      -308.8784
   6   2.0000     -11.319892      -308.0299
   7   2.0000     -11.297645      -307.4246
   8   2.0000     -11.253873      -306.2335
   9   2.0000      -1.475982       -40.1635
  10   2.0000      -1.393411       -37.9166
  11   2.0000      -1.386200       -37.7204
  12   2.0000      -1.211641       -32.9704
  13   2.0000      -1.089685       -29.6518
  14   2.0000      -1.012617       -27.5547
  15   2.0000      -0.884729       -24.0747
  16   2.0000      -0.856702       -23.3120
  17   2.0000      -0.783071       -21.3084
  18   2.0000      -0.746178       -20.3045
  19   2.0000      -0.732567       -19.9342
  20   2.0000      -0.684541       -18.6273
  21   2.0000      -0.675212       -18.3734
  22   2.0000      -0.647758       -17.6264
  23   2.0000      -0.610078       -16.6011
  24   2.0000      -0.589492       -16.0409
  25   2.0000      -0.582782       -15.8583
  26   2.0000      -0.576923       -15.6989
  27   2.0000      -0.559356       -15.2209
  28   2.0000      -0.533270       -14.5110
  29   2.0000      -0.514977       -14.0132
  30   2.0000      -0.463556       -12.6140
  31   2.0000      -0.454435       -12.3658
  32   2.0000      -0.438488       -11.9319
  33   2.0000      -0.413190       -11.2435
  34   0.0000       0.140330         3.8186
  35   0.0000       0.156208         4.2506
  36   0.0000       0.163599         4.4517
  37   0.0000       0.175783         4.7833
  38   0.0000       0.188171         5.1204

MULLIKEN ATOMIC CHARGES
-----------------------
   0 O :   -0.466882
   1 C :    0.247774
   2 C :   -0.054326
   3 O :   -0.296486
   4 C :    0.165828
   5 C :   -0.267149
   6 O :   -0.248671
   7 C :    0.100172
   8 N :   -0.434518
   9 H :    0.349343
  10 H :    0.122581
  11 H :    0.121352
  12 H :    0.143410
  13 H :    0.144838
  14 H :    0.140182
  15 H :    0.232554
Sum of atomic charges:    0.0000000

LOEWDIN ATOMIC CHARGES
----------------------
   0 O :    0.046194
   1 C :   -0.368535
   2 C :   -0.220204
   3 O :    0.180494
   4 C :   -0.332116
   5 C :   -0.180539
   6 O :    0.249599
   7 C :   -0.386225
   8 N :   -0.058969
   9 H :    0.197232
  10 H :    0.132604
  11 H :    0.131214
  12 H :    0.139913
  13 H :    0.148187
  14 H :    0.148050
  15 H :    0.173102

  Mayer bond orders larger than 0.1
B(  0-O ,  1-C ) :   1.1211 B(  0-O ,  9-H ) :   0.8006 B(  1-C ,  2-C ) :   0.9171
B(  1-C ,  5-C ) :   0.8818 B(  1-C ,  7-C ) :   0.8648 B(  2-C ,  3-O ) :   0.9010
B(  2-C , 10-H ) :   0.9140 B(  2-C , 11-H ) :   0.9203 B(  3-O ,  4-C ) :   1.0220
B(  4-C ,  5-C ) :   0.9513 B(  4-C ,  6-O ) :   0.8703 B(  4-C , 12-H ) :   0.9218
B(  5-C , 13-H ) :   0.9287 B(  5-C , 14-H ) :   0.9122 B(  6-O ,  7-C ) :   1.1121
B(  7-C ,  8-N ) :   1.9725 B(  8-N , 15-H ) :   0.8535

MP2 TOTAL ENERGY:     -474.300429976 Eh
FINAL SINGLE POINT ENERGY      -474.300429976302

DIPOLE MOMENT
-------------
                                X             Y             Z
Electronic contribution:      1.07705      -1.40258      -1.34618
Nuclear contribution   :     -1.57007       1.10574       1.28849
                        -----------------------------------------
Total Dipole Moment    :     -0.49303      -0.29684      -0.05769
                        -----------------------------------------
Magnitude (a.u.)       :      0.57837
Magnitude (Debye)      :      1.47011

                             ****ORCA TERMINATED NORMALLY****
TOTAL RUN TIME: 0 days 0 hours 16 minutes 8 seconds 154 msec
