                         Program Version 3.0.3 - RELEASE   -
|  1> ! RI-MP2 RIJK def2-TZVP def2-TZVP/C def2-TZVP/JK TIGHTSCF
|  2> % maxcore 2000
|  3> % mp2 density relaxed end
|  4> *xyz 0 1
|  5>  C       -0.1953632625     1.6346409059    -0.4300119946
|  6>  C       -0.0401583881     0.1577270119    -0.1016383962
|  7>  C        1.0032763703    -0.6273419876    -0.9392895270
|  8>  C        1.7560942657    -0.7809035338     0.3940008231
|  9>  O        0.7440534344    -0.0363077367     1.1083807780
| 10>  C       -1.3901717257    -0.5312230989     0.0212408364
| 11>  O       -2.0383727843    -0.4632328449    -1.2255907289
| 12>  C       -1.5537370906    -1.7455155431     0.8901034854
| 13>  C       -2.1709761561    -0.4138014223     1.2986276014
| 14>  H        0.7845492490     2.1091951682    -0.5323573765
| 15>  H       -0.7525709464     1.7563541373    -1.3624944229
| 16>  H       -0.7432451425     2.1429848209     0.3695618942
| 17>  H        0.6277999575    -1.5500884805    -1.3815443986
| 18>  H        1.5150948922    -0.0399113960    -1.7030243801
| 19>  H        1.8516807650    -1.8057230708     0.7727515783
| 20>  H        2.7344431155    -0.2897636782     0.4549558727
| 21>  H       -2.9126349572    -0.8552754926    -1.1426471448
| 22>  H       -2.2194426745    -2.5264216684     0.5344065061
| 23>  H       -0.7045844097    -2.0954208648     1.4647239156
| 24>  H       -1.7159054810     0.1100185440     2.1317371051
| 25>  H       -3.2489044211    -0.3033556698     1.2257911133
| 26> *
| 27>
| 28>                          ****END OF INPUT****

CARTESIAN COORDINATES (ANGSTROEM)
---------------------------------
  C     -0.195363    1.634641   -0.430012
  C     -0.040158    0.157727   -0.101638
  C      1.003276   -0.627342   -0.939290
  C      1.756094   -0.780904    0.394001
  O      0.744053   -0.036308    1.108381
  C     -1.390172   -0.531223    0.021241
  O     -2.038373   -0.463233   -1.225591
  C     -1.553737   -1.745516    0.890103
  C     -2.170976   -0.413801    1.298628
  H      0.784549    2.109195   -0.532357
  H     -0.752571    1.756354   -1.362494
  H     -0.743245    2.142985    0.369562
  H      0.627800   -1.550088   -1.381544
  H      1.515095   -0.039911   -1.703024
  H      1.851681   -1.805723    0.772752
  H      2.734443   -0.289764    0.454956
  H     -2.912635   -0.855275   -1.142647
  H     -2.219443   -2.526422    0.534407
  H     -0.704584   -2.095421    1.464724
  H     -1.715905    0.110019    2.131737
  H     -3.248904   -0.303356    1.225791

 Total Charge           Charge          ....    0
 Multiplicity           Mult            ....    1
 Number of Electrons    NEL             ....   70
 Basis Dimension        Dim             ....  351

ORBITAL ENERGIES
----------------

  NO   OCC          E(Eh)            E(eV)
   0   2.0000     -20.565520      -559.6163
   1   2.0000     -20.543022      -559.0040
   2   2.0000     -11.287523      -307.1491
   3   2.0000     -11.286872      -307.1314
   4   2.0000     -11.275397      -306.8192
   5   2.0000     -11.223468      -305.4061
   6   2.0000     -11.222779      -305.3873
   7   2.0000     -11.222601      -305.3825
   8   2.0000     -11.207330      -304.9669
   9   2.0000      -1.383126       -37.6368
  10   2.0000      -1.368247       -37.2319
  11   2.0000      -1.126999       -30.6672
  12   2.0000      -1.030888       -28.0519
  13   2.0000      -0.987094       -26.8602
  14   2.0000      -0.885522       -24.0963
  15   2.0000      -0.829496       -22.5717
  16   2.0000      -0.824177       -22.4270
  17   2.0000      -0.724014       -19.7014
  18   2.0000      -0.695341       -18.9212
  19   2.0000      -0.687561       -18.7095
  20   2.0000      -0.654305       -17.8046
  21   2.0000      -0.625205       -17.0127
  22   2.0000      -0.599606       -16.3161
  23   2.0000      -0.579021       -15.7560
  24   2.0000      -0.566183       -15.4066
  25   2.0000      -0.562744       -15.3130
  26   2.0000      -0.537329       -14.6215
  27   2.0000      -0.526192       -14.3184
  28   2.0000      -0.518759       -14.1162
  29   2.0000      -0.509182       -13.8556
  30   2.0000      -0.459201       -12.4955
  31   2.0000      -0.456512       -12.4223
  32   2.0000      -0.429744       -11.6939
  33   2.0000      -0.400569       -10.9000
  34   2.0000      -0.381118       -10.3707
  35   0.0000       0.136223         3.7068
  36   0.0000       0.151098         4.1116
  37   0.0000       0.160180         4.3587
  38   0.0000       0.178597         4.8599
  39   0.0000       0.193433         5.2636

MULLIKEN ATOMIC CHARGES
-----------------------
   0 C :   -0.441691
   1 C :    0.343246
   2 C :   -0.320248
   3 C :   -0.037942
   4 O :   -0.368723
   5 C :    0.129530
   6 O :   -0.456913
   7 C :   -0.290530
   8 C :   -0.296064
   9 H :    0.129459
  10 H :    0.151494
  11 H :    0.132542
  12 H :    0.135609
  13 H :    0.127059
  14 H :    0.097577
  15 H :    0.102039
  16 H :    0.316754
  17 H :    0.131664
  18 H :    0.137041
  19 H :    0.144955
  20 H :    0.133143
Sum of atomic charges:    0.0000000

LOEWDIN ATOMIC CHARGES
----------------------
   0 C :   -0.261941
   1 C :   -0.304614
   2 C :   -0.198022
   3 C :   -0.273059
   4 O :    0.157061
   5 C :   -0.337851
   6 O :    0.031213
   7 C :   -0.213964
   8 C :   -0.212454
   9 H :    0.126430
  10 H :    0.134968
  11 H :    0.130790
  12 H :    0.138000
  13 H :    0.133147
  14 H :    0.114192
  15 H :    0.116228
  16 H :    0.178847
  17 H :    0.130242
  18 H :    0.138902
  19 H :    0.141160
  20 H :    0.130723

  Mayer bond orders larger than 0.1
B(  0-C ,  1-C ) :   0.8997 B(  0-C ,  9-H ) :   0.9344 B(  0-C , 10-H ) :   0.9335
B(  0-C , 11-H ) :   0.9363 B(  1-C ,  2-C ) :   0.8557 B(  1-C ,  4-O ) :   0.8665
B(  1-C ,  5-C ) :   0.9689 B(  2-C ,  3-C ) :   0.9912 B(  2-C , 12-H ) :   0.9260
B(  2-C , 13-H ) :   0.9289 B(  3-C ,  4-O ) :   0.9379 B(  3-C , 14-H ) :   0.9222
B(  3-C , 15-H ) :   0.9149 B(  5-C ,  6-O ) :   1.0302 B(  5-C ,  7-C ) :   0.8610
B(  5-C ,  8-C ) :   0.8756 B(  6-O , 16-H ) :   0.8375 B(  7-C ,  8-C ) :   0.8763
B(  7-C , 17-H ) :   0.9256 B(  7-C , 18-H ) :   0.9104 B(  8-C , 19-H ) :   0.9123
B(  8-C , 20-H ) :   0.9266

MP2 TOTAL ENERGY:     -423.490572168 Eh
FINAL SINGLE POINT ENERGY      -423.490572168489

DIPOLE MOMENT
-------------
                                X             Y             Z
Electronic contribution:     -0.69877      -0.67937       0.08795
Nuclear contribution   :      0.48197       0.29284      -0.32850
                        -----------------------------------------
Total Dipole Moment    :     -0.21680      -0.38653      -0.24055
                        -----------------------------------------
Magnitude (a.u.)       :      0.50426
Magnitude (Debye)      :      1.28172

                             ****ORCA TERMINATED NORMALLY****
TOTAL RUN TIME: 0 days 0 hours 18 minutes 44 seconds 379 msec
