                         Program Version 3.0.3 - RELEASE   -
|  1> ! RI-MP2 RIJK def2-TZVP def2-TZVP/C def2-TZVP/JK TIGHTSCF
|  2> % maxcore 2000
|  3> % mp2 density relaxed end
|  4> *xyz 0 1
|  5>  O       -0.0869867572     1.3668938589     0.0198157681
|  6>  C        0.0256307632    -0.0335597238     0.0112844207
|  7>  C       -0.4642163292    -0.7823774633    -1.2146922766
|  8>  C       -1.2981902042    -0.7361157972     0.0402098322
|  9>  O       -1.4351733247    -1.9145833775     0.7785819270
| 10>  C       -1.3260367778    -1.7225606576     2.1763540303
| 11>  O       -0.0154380152    -1.7690290952     2.6558359486
| 12>  C        0.8051436861    -0.6504221173     2.3419899293
| 13>  C        1.1647894223    -0.5867646371     0.8526075690
| 14>  H        0.6242008203     1.7247968980    -0.5239757444
| 15>  H       -0.8142451536    -0.2017791346    -2.0608524953
| 16>  H        0.0136329325    -1.7255714157    -1.4549617591
| 17>  H       -2.1806502670    -0.0970819711     0.0264391993
| 18>  H       -1.8096394744    -0.7716430825     2.4586631836
| 19>  H       -1.8429875832    -2.5659916532     2.6395722207
| 20>  H        0.3140110940     0.2863683607     2.6484174400
| 21>  H        1.7067062833    -0.7771372990     2.9487749766
| 22>  H        1.4416594296    -1.5928494658     0.5249681160
| 23>  H        2.0449163450     0.0546421535     0.7141588741
| 24> *
| 25>
| 26>                          ****END OF INPUT****

CARTESIAN COORDINATES (ANGSTROEM)
---------------------------------
  O     -0.086987    1.366894    0.019816
  C      0.025631   -0.033560    0.011284
  C     -0.464216   -0.782377   -1.214692
  C     -1.298190   -0.736116    0.040210
  O     -1.435173   -1.914583    0.778582
  C     -1.326037   -1.722561    2.176354
  O     -0.015438   -1.769029    2.655836
  C      0.805144   -0.650422    2.341990
  C      1.164789   -0.586765    0.852608
  H      0.624201    1.724797   -0.523976
  H     -0.814245   -0.201779   -2.060852
  H      0.013633   -1.725571   -1.454962
  H     -2.180650   -0.097082    0.026439
  H     -1.809639   -0.771643    2.458663
  H     -1.842988   -2.565992    2.639572
  H      0.314011    0.286368    2.648417
  H      1.706706   -0.777137    2.948775
  H      1.441659   -1.592849    0.524968
  H      2.044916    0.054642    0.714159

 Total Charge           Charge          ....    0
 Multiplicity           Mult            ....    1
 Number of Electrons    NEL             ....   70
 Basis Dimension        Dim             ....  339

ORBITAL ENERGIES
----------------

  NO   OCC          E(Eh)            E(eV)
   0   2.0000     -20.570566      -559.7536
   1   2.0000     -20.565104      -559.6049
   2   2.0000     -20.559084      -559.4411
   3   2.0000     -11.327250      -308.2301
   4   2.0000     -11.292137      -307.2747
   5   2.0000     -11.282394      -307.0096
   6   2.0000     -11.278382      -306.9004
   7   2.0000     -11.231985      -305.6379
   8   2.0000     -11.230423      -305.5953
   9   2.0000      -1.418817       -38.6080
  10   2.0000      -1.380380       -37.5620
  11   2.0000      -1.352119       -36.7930
  12   2.0000      -1.134311       -30.8662
  13   2.0000      -1.026633       -27.9361
  14   2.0000      -0.940728       -25.5985
  15   2.0000      -0.843115       -22.9423
  16   2.0000      -0.830876       -22.6093
  17   2.0000      -0.777226       -21.1494
  18   2.0000      -0.712361       -19.3843
  19   2.0000      -0.698201       -18.9990
  20   2.0000      -0.679390       -18.4871
  21   2.0000      -0.674090       -18.3429
  22   2.0000      -0.637279       -17.3412
  23   2.0000      -0.609314       -16.5803
  24   2.0000      -0.595101       -16.1935
  25   2.0000      -0.578979       -15.7548
  26   2.0000      -0.549558       -14.9542
  27   2.0000      -0.543526       -14.7901
  28   2.0000      -0.520749       -14.1703
  29   2.0000      -0.497343       -13.5334
  30   2.0000      -0.476746       -12.9729
  31   2.0000      -0.473426       -12.8826
  32   2.0000      -0.447801       -12.1853
  33   2.0000      -0.408950       -11.1281
  34   2.0000      -0.382951       -10.4206
  35   0.0000       0.134436         3.6582
  36   0.0000       0.160479         4.3669
  37   0.0000       0.170238         4.6324
  38   0.0000       0.173060         4.7092
  39   0.0000       0.189953         5.1689

MULLIKEN ATOMIC CHARGES
-----------------------
   0 O :   -0.460642
   1 C :    0.162212
   2 C :   -0.324580
   3 C :    0.034397
   4 O :   -0.293569
   5 C :    0.042553
   6 O :   -0.297549
   7 C :   -0.063464
   8 C :   -0.197528
   9 H :    0.323144
  10 H :    0.140600
  11 H :    0.139324
  12 H :    0.111837
  13 H :    0.099587
  14 H :    0.126673
  15 H :    0.109392
  16 H :    0.130657
  17 H :    0.114878
  18 H :    0.102079
Sum of atomic charges:   -0.0000000

LOEWDIN ATOMIC CHARGES
----------------------
   0 O :    0.021540
   1 C :   -0.359197
   2 C :   -0.189203
   3 C :   -0.282043
   4 O :    0.189076
   5 C :   -0.389424
   6 O :    0.161786
   7 C :   -0.306774
   8 C :   -0.232627
   9 H :    0.180411
  10 H :    0.137938
  11 H :    0.141879
  12 H :    0.140749
  13 H :    0.110227
  14 H :    0.123128
  15 H :    0.127329
  16 H :    0.129848
  17 H :    0.151387
  18 H :    0.143969

  Mayer bond orders larger than 0.1
B(  0-O ,  1-C ) :   1.0049 B(  0-O ,  9-H ) :   0.8390 B(  1-C ,  2-C ) :   0.9010
B(  1-C ,  3-C ) :   0.8548 B(  1-C ,  8-C ) :   0.9363 B(  2-C ,  3-C ) :   0.8888
B(  2-C , 10-H ) :   0.9178 B(  2-C , 11-H ) :   0.9026 B(  3-C ,  4-O ) :   0.9873
B(  3-C , 12-H ) :   0.9380 B(  4-O ,  5-C ) :   0.9477 B(  5-C ,  6-O ) :   1.0003
B(  5-C , 13-H ) :   0.9422 B(  5-C , 14-H ) :   0.9309 B(  6-O ,  7-C ) :   0.9096
B(  7-C ,  8-C ) :   0.9259 B(  7-C , 15-H ) :   0.9365 B(  7-C , 16-H ) :   0.9313
B(  8-C , 17-H ) :   0.9064 B(  8-C , 18-H ) :   0.9065

MP2 TOTAL ENERGY:     -459.409688373 Eh
FINAL SINGLE POINT ENERGY      -459.409688373417

DIPOLE MOMENT
-------------
                                X             Y             Z
Electronic contribution:     -1.78463      -1.08438       0.38193
Nuclear contribution   :      2.27511       1.67310      -0.75900
                        -----------------------------------------
Total Dipole Moment    :      0.49048       0.58872      -0.37707
                        -----------------------------------------
Magnitude (a.u.)       :      0.85401
Magnitude (Debye)      :      2.17072

                             ****ORCA TERMINATED NORMALLY****
TOTAL RUN TIME: 0 days 0 hours 16 minutes 36 seconds 526 msec
