                         Program Version 3.0.3 - RELEASE   -
|  1> ! RI-MP2 RIJK def2-TZVP def2-TZVP/C def2-TZVP/JK TIGHTSCF
|  2> % maxcore 2000
|  3> % mp2 density relaxed end
|  4> *xyz 0 1
|  5>  N       -0.1900578843     1.2821750081     0.0089220696
|  6>  C        0.0055198240     0.0385706415     0.0011814858
|  7>  O       -1.1671753771    -0.7493922242     0.0030981582
|  8>  C       -1.0483780825    -2.0825812899    -0.0054150048
|  9>  N        0.0664655579    -2.7345776210    -0.0149371668
| 10>  C        1.1872928309    -1.9245549895    -0.0162752672
| 11>  N        1.2187137108    -0.6356047681    -0.0091433307
| 12>  C       -2.3036330131    -2.7553881643    -0.0019229520
| 13>  C       -3.3630751716    -3.3219416265     0.0010236047
| 14>  H        0.7144430546     1.7510335239     0.0065408279
| 15>  H        2.1357122072    -2.4570308089    -0.0242725777
| 16>  H       -4.2983599668    -3.8278828012     0.0035426630
| 17> *
| 18>
| 19>                          ****END OF INPUT****

CARTESIAN COORDINATES (ANGSTROEM)
---------------------------------
  N     -0.190058    1.282175    0.008922
  C      0.005520    0.038571    0.001181
  O     -1.167175   -0.749392    0.003098
  C     -1.048378   -2.082581   -0.005415
  N      0.066466   -2.734578   -0.014937
  C      1.187293   -1.924555   -0.016275
  N      1.218714   -0.635605   -0.009143
  C     -2.303633   -2.755388   -0.001923
  C     -3.363075   -3.321942    0.001024
  H      0.714443    1.751034    0.006541
  H      2.135712   -2.457031   -0.024273
  H     -4.298360   -3.827883    0.003543

 Total Charge           Charge          ....    0
 Multiplicity           Mult            ....    1
 Number of Electrons    NEL             ....   62
 Basis Dimension        Dim             ....  297

ORBITAL ENERGIES
----------------

  NO   OCC          E(Eh)            E(eV)
   0   2.0000     -20.659886      -562.1841
   1   2.0000     -15.596446      -424.4009
   2   2.0000     -15.590797      -424.2472
   3   2.0000     -15.546031      -423.0290
   4   2.0000     -11.427593      -310.9606
   5   2.0000     -11.388244      -309.8899
   6   2.0000     -11.358069      -309.0688
   7   2.0000     -11.289206      -307.1949
   8   2.0000     -11.278217      -306.8959
   9   2.0000      -1.509497       -41.0755
  10   2.0000      -1.312357       -35.7110
  11   2.0000      -1.272319       -34.6216
  12   2.0000      -1.182278       -32.1714
  13   2.0000      -1.089734       -29.6532
  14   2.0000      -0.977026       -26.5862
  15   2.0000      -0.929835       -25.3021
  16   2.0000      -0.824667       -22.4403
  17   2.0000      -0.780125       -21.2283
  18   2.0000      -0.743698       -20.2370
  19   2.0000      -0.697409       -18.9775
  20   2.0000      -0.685088       -18.6422
  21   2.0000      -0.664851       -18.0915
  22   2.0000      -0.661616       -18.0035
  23   2.0000      -0.539265       -14.6742
  24   2.0000      -0.530704       -14.4412
  25   2.0000      -0.508133       -13.8270
  26   2.0000      -0.463848       -12.6219
  27   2.0000      -0.460694       -12.5361
  28   2.0000      -0.446451       -12.1485
  29   2.0000      -0.441769       -12.0211
  30   2.0000      -0.372560       -10.1379
  31   0.0000       0.031598         0.8598
  32   0.0000       0.120569         3.2809
  33   0.0000       0.137748         3.7483
  34   0.0000       0.142482         3.8771
  35   0.0000       0.157165         4.2767

MULLIKEN ATOMIC CHARGES
-----------------------
   0 N :   -0.328447
   1 C :    0.201133
   2 O :   -0.154089
   3 C :    0.082702
   4 N :   -0.278017
   5 C :    0.075739
   6 N :   -0.244610
   7 C :    0.067365
   8 C :   -0.030224
   9 H :    0.242871
  10 H :    0.151250
  11 H :    0.214326
Sum of atomic charges:   -0.0000000

LOEWDIN ATOMIC CHARGES
----------------------
   0 N :   -0.033282
   1 C :   -0.437921
   2 O :    0.364936
   3 C :   -0.315178
   4 N :    0.133531
   5 C :   -0.249218
   6 N :    0.125966
   7 C :   -0.040187
   8 C :   -0.008182
   9 H :    0.180282
  10 H :    0.142267
  11 H :    0.136987

  Mayer bond orders larger than 0.1
B(  0-N ,  1-C ) :   2.0109 B(  0-N ,  9-H ) :   0.8438 B(  1-C ,  2-O ) :   0.9334
B(  1-C ,  6-N ) :   1.1105 B(  2-O ,  3-C ) :   1.1463 B(  3-C ,  4-N ) :   1.6647
B(  3-C ,  7-C ) :   1.1949 B(  3-C ,  8-C ) :  -0.1559 B(  4-N ,  5-C ) :   1.1109
B(  5-C ,  6-N ) :   1.6640 B(  5-C , 10-H ) :   0.9297 B(  7-C ,  8-C ) :   2.5991
B(  8-C , 11-H ) :   0.8672

MP2 TOTAL ENERGY:     -430.911105207 Eh
FINAL SINGLE POINT ENERGY      -430.911105207498

DIPOLE MOMENT
-------------
                                X             Y             Z
Electronic contribution:     -0.44454      -0.53704      -0.00102
Nuclear contribution   :      0.30147      -0.36415      -0.00315
                        -----------------------------------------
Total Dipole Moment    :     -0.14307      -0.90119      -0.00417
                        -----------------------------------------
Magnitude (a.u.)       :      0.91249
Magnitude (Debye)      :      2.31936

                             ****ORCA TERMINATED NORMALLY****
TOTAL RUN TIME: 0 days 0 hours 13 minutes 8 seconds 685 msec
