                         Program Version 3.0.3 - RELEASE   -
|  1> ! RI-MP2 RIJK def2-TZVP def2-TZVP/C def2-TZVP/JK TIGHTSCF
|  2> % maxcore 2000
|  3> % mp2 density relaxed end
|  4> *xyz 0 1
|  5>  C        0.6097399640     1.4700601620    -0.0010367377
|  6>  C       -0.0178167294     0.0696811330    -0.0328361107
|  7>  C        0.4794497039    -0.8322408023    -1.2051485863
|  8>  N        1.3083430676    -1.9300283688    -0.6725453829
|  9>  C        2.4741122061    -1.4713072559     0.1021220015
| 10>  C        1.2318796281    -1.8755698645     0.8069234777
| 11>  C        1.1328765593    -3.2230879148     1.4864250940
| 12>  O       -0.1189152233    -3.8388634361     1.2291502377
| 13>  C        0.2619358796    -0.7823609177     1.2354493066
| 14>  H        1.6963979323     1.4405948693     0.1293488177
| 15>  H        0.4052683252     2.0102783211    -0.9317434807
| 16>  H        0.1972898476     2.0623810302     0.8228476273
| 17>  H       -1.0986350425     0.2095628825    -0.1368483999
| 18>  H       -0.3702139215    -1.2916687701    -1.7209516555
| 19>  H        1.0441361829    -0.2668387614    -1.9548733594
| 20>  H        3.3262730059    -2.1461896217     0.0774273875
| 21>  H        2.7392688373    -0.4184687694     0.0712253550
| 22>  H        1.9665768973    -3.8613920504     1.1582194160
| 23>  H        1.2042884112    -3.1133056817     2.5742958918
| 24>  H       -0.1860032122    -3.8995007887     0.2685579268
| 25>  H        0.6558788488    -0.1760785739     2.0580103847
| 26>  H       -0.6528658583    -1.2655032208     1.5916427587
| 27> *
| 28>
| 29>                          ****END OF INPUT****

CARTESIAN COORDINATES (ANGSTROEM)
---------------------------------
  C      0.609740    1.470060   -0.001037
  C     -0.017817    0.069681   -0.032836
  C      0.479450   -0.832241   -1.205149
  N      1.308343   -1.930028   -0.672545
  C      2.474112   -1.471307    0.102122
  C      1.231880   -1.875570    0.806923
  C      1.132877   -3.223088    1.486425
  O     -0.118915   -3.838863    1.229150
  C      0.261936   -0.782361    1.235449
  H      1.696398    1.440595    0.129349
  H      0.405268    2.010278   -0.931743
  H      0.197290    2.062381    0.822848
  H     -1.098635    0.209563   -0.136848
  H     -0.370214   -1.291669   -1.720952
  H      1.044136   -0.266839   -1.954873
  H      3.326273   -2.146190    0.077427
  H      2.739269   -0.418469    0.071225
  H      1.966577   -3.861392    1.158219
  H      1.204288   -3.113306    2.574296
  H     -0.186003   -3.899501    0.268558
  H      0.655879   -0.176079    2.058010
  H     -0.652866   -1.265503    1.591643

 Total Charge           Charge          ....    0
 Multiplicity           Mult            ....    1
 Number of Electrons    NEL             ....   70
 Basis Dimension        Dim             ....  357

ORBITAL ENERGIES
----------------

  NO   OCC          E(Eh)            E(eV)
   0   2.0000     -20.549854      -559.1900
   1   2.0000     -15.557854      -423.3507
   2   2.0000     -11.273062      -306.7556
   3   2.0000     -11.259688      -306.3917
   4   2.0000     -11.254364      -306.2468
   5   2.0000     -11.249385      -306.1113
   6   2.0000     -11.233272      -305.6729
   7   2.0000     -11.224034      -305.4215
   8   2.0000     -11.220404      -305.3227
   9   2.0000      -1.356959       -36.9247
  10   2.0000      -1.280418       -34.8419
  11   2.0000      -1.072496       -29.1841
  12   2.0000      -1.014191       -27.5975
  13   2.0000      -0.948746       -25.8167
  14   2.0000      -0.919754       -25.0278
  15   2.0000      -0.842401       -22.9229
  16   2.0000      -0.779348       -21.2071
  17   2.0000      -0.753735       -20.5102
  18   2.0000      -0.699059       -19.0224
  19   2.0000      -0.660827       -17.9820
  20   2.0000      -0.634067       -17.2538
  21   2.0000      -0.610852       -16.6221
  22   2.0000      -0.602651       -16.3990
  23   2.0000      -0.590260       -16.0618
  24   2.0000      -0.583485       -15.8774
  25   2.0000      -0.552555       -15.0358
  26   2.0000      -0.542309       -14.7570
  27   2.0000      -0.513664       -13.9775
  28   2.0000      -0.492529       -13.4024
  29   2.0000      -0.475637       -12.9427
  30   2.0000      -0.469438       -12.7741
  31   2.0000      -0.454903       -12.3786
  32   2.0000      -0.438442       -11.9306
  33   2.0000      -0.427988       -11.6461
  34   2.0000      -0.371101       -10.0982
  35   0.0000       0.133899         3.6436
  36   0.0000       0.153568         4.1788
  37   0.0000       0.163050         4.4368
  38   0.0000       0.176411         4.8004
  39   0.0000       0.182013         4.9528

MULLIKEN ATOMIC CHARGES
-----------------------
   0 C :   -0.426365
   1 C :   -0.056859
   2 C :   -0.143731
   3 N :   -0.261391
   4 C :   -0.225111
   5 C :    0.045023
   6 C :   -0.010257
   7 O :   -0.477239
   8 C :   -0.218419
   9 H :    0.116403
  10 H :    0.134294
  11 H :    0.135682
  12 H :    0.100988
  13 H :    0.123801
  14 H :    0.119665
  15 H :    0.125178
  16 H :    0.119540
  17 H :    0.104950
  18 H :    0.107832
  19 H :    0.322441
  20 H :    0.121600
  21 H :    0.141974
Sum of atomic charges:   -0.0000000

LOEWDIN ATOMIC CHARGES
----------------------
   0 C :   -0.302182
   1 C :   -0.261634
   2 C :   -0.252523
   3 N :    0.113848
   4 C :   -0.219991
   5 C :   -0.293484
   6 C :   -0.305883
   7 O :   -0.045493
   8 C :   -0.194322
   9 H :    0.117186
  10 H :    0.123333
  11 H :    0.123784
  12 H :    0.150544
  13 H :    0.131282
  14 H :    0.132668
  15 H :    0.127433
  16 H :    0.126081
  17 H :    0.124856
  18 H :    0.133175
  19 H :    0.178779
  20 H :    0.143207
  21 H :    0.149338

  Mayer bond orders larger than 0.1
B(  0-C ,  1-C ) :   0.9182 B(  0-C ,  9-H ) :   0.9313 B(  0-C , 10-H ) :   0.9405
B(  0-C , 11-H ) :   0.9410 B(  1-C ,  2-C ) :   0.9054 B(  1-C ,  8-C ) :   0.8943
B(  1-C , 12-H ) :   0.9245 B(  2-C ,  3-N ) :   0.8987 B(  2-C , 13-H ) :   0.9327
B(  2-C , 14-H ) :   0.9403 B(  3-N ,  4-C ) :   0.9358 B(  3-N ,  5-C ) :   0.7854
B(  4-C ,  5-C ) :   0.9358 B(  4-C , 15-H ) :   0.9051 B(  4-C , 16-H ) :   0.9161
B(  5-C ,  6-C ) :   0.9356 B(  5-C ,  8-C ) :   0.9260 B(  6-C ,  7-O ) :   0.8937
B(  6-C , 17-H ) :   0.9179 B(  6-C , 18-H ) :   0.9274 B(  7-O , 19-H ) :   0.8357
B(  8-C , 20-H ) :   0.9255 B(  8-C , 21-H ) :   0.9166

MP2 TOTAL ENERGY:     -403.649739060 Eh
FINAL SINGLE POINT ENERGY      -403.649739060193

DIPOLE MOMENT
-------------
                                X             Y             Z
Electronic contribution:     -0.23857      -6.27976       0.23344
Nuclear contribution   :      0.50125       7.07854      -0.35761
                        -----------------------------------------
Total Dipole Moment    :      0.26269       0.79878      -0.12416
                        -----------------------------------------
Magnitude (a.u.)       :      0.84998
Magnitude (Debye)      :      2.16048

                             ****ORCA TERMINATED NORMALLY****
TOTAL RUN TIME: 0 days 0 hours 19 minutes 35 seconds 366 msec
