                         Program Version 3.0.3 - RELEASE   -
|  1> ! RI-MP2 RIJK def2-TZVP def2-TZVP/C def2-TZVP/JK TIGHTSCF
|  2> % maxcore 2000
|  3> % mp2 density relaxed end
|  4> *xyz 0 1
|  5>  C       -0.0377373263     1.4049130821     0.0924545853
|  6>  N        0.0058261800    -0.0382528435     0.0681594485
|  7>  C       -1.1809256087    -0.8312304257    -0.2421895332
|  8>  C       -0.7244795592    -2.2740471895     0.0361803542
|  9>  O       -1.3482370981    -3.2372555750    -0.7645675415
| 10>  C        0.7783211458    -2.1846338467    -0.1941367156
| 11>  O        1.4891363651    -3.1061477878    -0.5068712848
| 12>  C        1.1822336094    -0.7371846140    -0.0421324989
| 13>  N        2.3575444965    -0.2403053836    -0.0313796601
| 14>  H        0.9192341568     1.7716085348     0.4662847187
| 15>  H       -0.2046382707     1.8265783458    -0.9090138475
| 16>  H       -0.8458769889     1.7441032083     0.7492337768
| 17>  H       -2.0218271982    -0.5170563038     0.3832736229
| 18>  H       -1.4836355601    -0.7429029514    -1.2957023914
| 19>  H       -0.8671661361    -2.4847653854     1.1114482810
| 20>  H       -0.6784050784    -3.9094887178    -0.9533572927
| 21>  H        3.0349812211    -1.0009190369    -0.1008564017
| 22> *
| 23>
| 24>                          ****END OF INPUT****

CARTESIAN COORDINATES (ANGSTROEM)
---------------------------------
  C     -0.037737    1.404913    0.092455
  N      0.005826   -0.038253    0.068159
  C     -1.180926   -0.831230   -0.242190
  C     -0.724480   -2.274047    0.036180
  O     -1.348237   -3.237256   -0.764568
  C      0.778321   -2.184634   -0.194137
  O      1.489136   -3.106148   -0.506871
  C      1.182234   -0.737185   -0.042132
  N      2.357544   -0.240305   -0.031380
  H      0.919234    1.771609    0.466285
  H     -0.204638    1.826578   -0.909014
  H     -0.845877    1.744103    0.749234
  H     -2.021827   -0.517056    0.383274
  H     -1.483636   -0.742903   -1.295702
  H     -0.867166   -2.484765    1.111448
  H     -0.678405   -3.909489   -0.953357
  H      3.034981   -1.000919   -0.100856

 Total Charge           Charge          ....    0
 Multiplicity           Mult            ....    1
 Number of Electrons    NEL             ....   68
 Basis Dimension        Dim             ....  327

ORBITAL ENERGIES
----------------

  NO   OCC          E(Eh)            E(eV)
   0   2.0000     -20.589841      -560.2781
   1   2.0000     -20.583871      -560.1156
   2   2.0000     -15.598879      -424.4671
   3   2.0000     -15.542664      -422.9374
   4   2.0000     -11.360059      -309.1229
   5   2.0000     -11.329004      -308.2779
   6   2.0000     -11.317755      -307.9718
   7   2.0000     -11.290239      -307.2230
   8   2.0000     -11.267657      -306.6085
   9   2.0000      -1.435762       -39.0691
  10   2.0000      -1.390184       -37.8288
  11   2.0000      -1.310153       -35.6511
  12   2.0000      -1.185741       -32.2656
  13   2.0000      -1.067837       -29.0573
  14   2.0000      -0.966358       -26.2959
  15   2.0000      -0.932364       -25.3709
  16   2.0000      -0.822961       -22.3939
  17   2.0000      -0.771074       -20.9820
  18   2.0000      -0.720839       -19.6150
  19   2.0000      -0.715103       -19.4589
  20   2.0000      -0.703014       -19.1300
  21   2.0000      -0.646939       -17.6041
  22   2.0000      -0.636898       -17.3309
  23   2.0000      -0.616193       -16.7675
  24   2.0000      -0.597888       -16.2694
  25   2.0000      -0.586384       -15.9563
  26   2.0000      -0.568367       -15.4661
  27   2.0000      -0.555677       -15.1207
  28   2.0000      -0.546262       -14.8645
  29   2.0000      -0.492860       -13.4114
  30   2.0000      -0.484786       -13.1917
  31   2.0000      -0.474159       -12.9025
  32   2.0000      -0.412527       -11.2254
  33   2.0000      -0.357416        -9.7258
  34   0.0000       0.069317         1.8862
  35   0.0000       0.131658         3.5826
  36   0.0000       0.149162         4.0589
  37   0.0000       0.166558         4.5323
  38   0.0000       0.173701         4.7266

MULLIKEN ATOMIC CHARGES
-----------------------
   0 C :   -0.322391
   1 N :   -0.084328
   2 C :   -0.144272
   3 C :    0.108993
   4 O :   -0.469870
   5 C :    0.154277
   6 O :   -0.279846
   7 C :    0.038728
   8 N :   -0.399348
   9 H :    0.180501
  10 H :    0.136469
  11 H :    0.138265
  12 H :    0.135823
  13 H :    0.121879
  14 H :    0.113971
  15 H :    0.338063
  16 H :    0.233086
Sum of atomic charges:   -0.0000000

LOEWDIN ATOMIC CHARGES
----------------------
   0 C :   -0.287764
   1 N :    0.179636
   2 C :   -0.213858
   3 C :   -0.318444
   4 O :    0.001674
   5 C :   -0.275101
   6 O :    0.170139
   7 C :   -0.357654
   8 N :   -0.066233
   9 H :    0.137122
  10 H :    0.119184
  11 H :    0.120940
  12 H :    0.134780
  13 H :    0.136966
  14 H :    0.156120
  15 H :    0.189350
  16 H :    0.173142

  Mayer bond orders larger than 0.1
B(  0-C ,  1-N ) :   0.8799 B(  0-C ,  9-H ) :   0.9218 B(  0-C , 10-H ) :   0.9283
B(  0-C , 11-H ) :   0.9311 B(  1-N ,  2-C ) :   0.8848 B(  1-N ,  7-C ) :   1.1615
B(  2-C ,  3-C ) :   0.8952 B(  2-C , 12-H ) :   0.9233 B(  2-C , 13-H ) :   0.8980
B(  3-C ,  4-O ) :   1.0311 B(  3-C ,  5-C ) :   0.9126 B(  3-C , 14-H ) :   0.9066
B(  4-O , 15-H ) :   0.8192 B(  5-C ,  6-O ) :   1.9708 B(  5-C ,  7-C ) :   0.8878
B(  7-C ,  8-N ) :   1.8947 B(  8-N , 16-H ) :   0.8525

MP2 TOTAL ENERGY:     -454.432661180 Eh
FINAL SINGLE POINT ENERGY      -454.432661180382

DIPOLE MOMENT
-------------
                                X             Y             Z
Electronic contribution:      3.05747      -6.13559      -0.62476
Nuclear contribution   :     -3.96666       6.46956       0.91430
                        -----------------------------------------
Total Dipole Moment    :     -0.90918       0.33397       0.28954
                        -----------------------------------------
Magnitude (a.u.)       :      1.01093
Magnitude (Debye)      :      2.56958

                             ****ORCA TERMINATED NORMALLY****
TOTAL RUN TIME: 0 days 0 hours 16 minutes 19 seconds 823 msec
