                         Program Version 3.0.3 - RELEASE   -
|  1> ! RI-MP2 RIJK def2-TZVP def2-TZVP/C def2-TZVP/JK TIGHTSCF
|  2> % maxcore 2000
|  3> % mp2 density relaxed end
|  4> *xyz 0 1
|  5>  C       -0.1717452330     1.4682345024    -0.0758800280
|  6>  N        0.1138223936     0.0456858029     0.0505585296
|  7>  C        1.4275330582    -0.5149931201    -0.1601616675
|  8>  C        2.5710505645     0.3223040404     0.3880782313
|  9>  C        3.2236593395    -0.3891907295     1.5343713949
| 10>  C        1.8947806829     0.3036000068     1.7808747516
| 11>  C        1.7627136725     1.3750537263     2.7152053566
| 12>  N        1.6426252638     2.2381350943     3.4776448716
| 13>  C        0.7566219631    -0.5352456258     1.2030999207
| 14>  H        0.6186325206     2.1301002807     0.3013542235
| 15>  H       -0.3388426984     1.6940037212    -1.1332714649
| 16>  H       -1.0929917627     1.6889102853     0.4704670049
| 17>  H        1.5406712306    -1.3288471394    -0.8677521578
| 18>  H        3.0299510367     1.1824502769    -0.0834278069
| 19>  H        3.2508511802    -1.4747933449     1.5585160828
| 20>  H        4.0907909960     0.0966520592     1.9712885024
| 21>  H        0.2705252420    -1.3525257765     1.7239533854
| 22> *
| 23>
| 24>                          ****END OF INPUT****

CARTESIAN COORDINATES (ANGSTROEM)
---------------------------------
  C     -0.171745    1.468235   -0.075880
  N      0.113822    0.045686    0.050559
  C      1.427533   -0.514993   -0.160162
  C      2.571051    0.322304    0.388078
  C      3.223659   -0.389191    1.534371
  C      1.894781    0.303600    1.780875
  C      1.762714    1.375054    2.715205
  N      1.642625    2.238135    3.477645
  C      0.756622   -0.535246    1.203100
  H      0.618633    2.130100    0.301354
  H     -0.338843    1.694004   -1.133271
  H     -1.092992    1.688910    0.470467
  H      1.540671   -1.328847   -0.867752
  H      3.029951    1.182450   -0.083428
  H      3.250851   -1.474793    1.558516
  H      4.090791    0.096652    1.971289
  H      0.270525   -1.352526    1.723953

 Total Charge           Charge          ....    0
 Multiplicity           Mult            ....    1
 Number of Electrons    NEL             ....   64
 Basis Dimension        Dim             ....  327

ORBITAL ENERGIES
----------------

  NO   OCC          E(Eh)            E(eV)
   0   2.0000     -15.579796      -423.9478
   1   2.0000     -15.570031      -423.6821
   2   2.0000     -11.295604      -307.3690
   3   2.0000     -11.288908      -307.1868
   4   2.0000     -11.285395      -307.0912
   5   2.0000     -11.278007      -306.8902
   6   2.0000     -11.276124      -306.8389
   7   2.0000     -11.272099      -306.7294
   8   2.0000     -11.253771      -306.2307
   9   2.0000      -1.325045       -36.0563
  10   2.0000      -1.220492       -33.2113
  11   2.0000      -1.178536       -32.0696
  12   2.0000      -1.007167       -27.4064
  13   2.0000      -0.948604       -25.8128
  14   2.0000      -0.885988       -24.1090
  15   2.0000      -0.837739       -22.7960
  16   2.0000      -0.790911       -21.5218
  17   2.0000      -0.734192       -19.9784
  18   2.0000      -0.682199       -18.5636
  19   2.0000      -0.670566       -18.2470
  20   2.0000      -0.612712       -16.6727
  21   2.0000      -0.590431       -16.0664
  22   2.0000      -0.573643       -15.6096
  23   2.0000      -0.565105       -15.3773
  24   2.0000      -0.536835       -14.6080
  25   2.0000      -0.528165       -14.3721
  26   2.0000      -0.504448       -13.7267
  27   2.0000      -0.478732       -13.0270
  28   2.0000      -0.445145       -12.1130
  29   2.0000      -0.424452       -11.5499
  30   2.0000      -0.405203       -11.0261
  31   2.0000      -0.401737       -10.9318
  32   0.0000       0.134301         3.6545
  33   0.0000       0.141058         3.8384
  34   0.0000       0.148309         4.0357
  35   0.0000       0.163804         4.4573
  36   0.0000       0.175001         4.7620

MULLIKEN ATOMIC CHARGES
-----------------------
   0 C :   -0.302763
   1 N :   -0.186838
   2 C :   -0.095652
   3 C :   -0.099170
   4 C :   -0.259218
   5 C :    0.145410
   6 C :   -0.264414
   7 N :   -0.045228
   8 C :   -0.062847
   9 H :    0.129337
  10 H :    0.143253
  11 H :    0.146458
  12 H :    0.141428
  13 H :    0.158340
  14 H :    0.152653
  15 H :    0.153340
  16 H :    0.145913
Sum of atomic charges:    0.0000000

LOEWDIN ATOMIC CHARGES
----------------------
   0 C :   -0.310386
   1 N :    0.137071
   2 C :   -0.193197
   3 C :   -0.127914
   4 C :   -0.139338
   5 C :   -0.186267
   6 C :   -0.164775
   7 N :    0.066706
   8 C :   -0.161318
   9 H :    0.114472
  10 H :    0.121170
  11 H :    0.124198
  12 H :    0.139951
  13 H :    0.146691
  14 H :    0.142798
  15 H :    0.148079
  16 H :    0.142058

  Mayer bond orders larger than 0.1
B(  0-C ,  1-N ) :   0.8672 B(  0-C ,  9-H ) :   0.9218 B(  0-C , 10-H ) :   0.9350
B(  0-C , 11-H ) :   0.9363 B(  1-N ,  2-C ) :   0.9593 B(  1-N ,  8-C ) :   0.9632
B(  2-C ,  3-C ) :   0.8739 B(  2-C ,  8-C ) :   0.8607 B(  2-C , 12-H ) :   0.9274
B(  3-C ,  4-C ) :   0.8991 B(  3-C ,  5-C ) :   0.8206 B(  3-C , 13-H ) :   0.9115
B(  4-C ,  5-C ) :   0.8287 B(  4-C , 14-H ) :   0.9169 B(  4-C , 15-H ) :   0.9237
B(  5-C ,  6-C ) :   0.9496 B(  5-C ,  8-C ) :   0.8409 B(  6-C ,  7-N ) :   2.8755
B(  8-C , 16-H ) :   0.9293

MP2 TOTAL ENERGY:     -380.139427548 Eh
FINAL SINGLE POINT ENERGY      -380.139427547587

DIPOLE MOMENT
-------------
                                X             Y             Z
Electronic contribution:      0.74359       0.35562       4.15914
Nuclear contribution   :     -0.19368      -1.20687      -5.17235
                        -----------------------------------------
Total Dipole Moment    :      0.54991      -0.85125      -1.01320
                        -----------------------------------------
Magnitude (a.u.)       :      1.43304
Magnitude (Debye)      :      3.64251

                             ****ORCA TERMINATED NORMALLY****
TOTAL RUN TIME: 0 days 0 hours 17 minutes 58 seconds 618 msec
