                         Program Version 3.0.3 - RELEASE   -
|  1> ! RI-MP2 RIJK def2-TZVP def2-TZVP/C def2-TZVP/JK TIGHTSCF
|  2> % maxcore 2000
|  3> % mp2 density relaxed end
|  4> *xyz 0 1
|  5>  C       -0.1004561224     1.5096550259     0.1112388102
|  6>  C       -0.0112563726     0.0251819424    -0.0320603703
|  7>  C        0.0208817309    -0.7931861580    -1.1455649919
|  8>  C       -0.0287387293    -0.3726669526    -2.5846836269
|  9>  C        0.1112179578    -2.1397311081    -0.6738900981
| 10>  C        0.1314262335    -2.1061412081     0.6972683207
| 11>  N        0.0566139566    -0.7899517667     1.0777718542
| 12>  H        0.7672484170     1.9281342485     0.6376193885
| 13>  H       -0.1446507858     1.9862824355    -0.8701871568
| 14>  H       -0.9966799573     1.8195659847     0.6642809748
| 15>  H        0.8628500883    -0.6994212488    -3.1333373134
| 16>  H       -0.8952330095    -0.8011285794    -3.1027581089
| 17>  H       -0.0934600815     0.7140472706    -2.6903485256
| 18>  H        0.1558525654    -3.0280088299    -1.2865890842
| 19>  H        0.1918645099    -2.8954996235     1.4292301018
| 20>  H        0.0530606090    -0.4618582926     2.0275012359
| 21> *
| 22>
| 23>                          ****END OF INPUT****

CARTESIAN COORDINATES (ANGSTROEM)
---------------------------------
  C     -0.100456    1.509655    0.111239
  C     -0.011256    0.025182   -0.032060
  C      0.020882   -0.793186   -1.145565
  C     -0.028739   -0.372667   -2.584684
  C      0.111218   -2.139731   -0.673890
  C      0.131426   -2.106141    0.697268
  N      0.056614   -0.789952    1.077772
  H      0.767248    1.928134    0.637619
  H     -0.144651    1.986282   -0.870187
  H     -0.996680    1.819566    0.664281
  H      0.862850   -0.699421   -3.133337
  H     -0.895233   -0.801129   -3.102758
  H     -0.093460    0.714047   -2.690349
  H      0.155853   -3.028009   -1.286589
  H      0.191865   -2.895500    1.429230
  H      0.053061   -0.461858    2.027501

 Total Charge           Charge          ....    0
 Multiplicity           Mult            ....    1
 Number of Electrons    NEL             ....   52
 Basis Dimension        Dim             ....  271

ORBITAL ENERGIES
----------------

  NO   OCC          E(Eh)            E(eV)
   0   2.0000     -15.590494      -424.2389
   1   2.0000     -11.246403      -306.0302
   2   2.0000     -11.243240      -305.9441
   3   2.0000     -11.227418      -305.5136
   4   2.0000     -11.211289      -305.0747
   5   2.0000     -11.204919      -304.9013
   6   2.0000     -11.197352      -304.6954
   7   2.0000      -1.281118       -34.8610
   8   2.0000      -1.055380       -28.7183
   9   2.0000      -1.022165       -27.8145
  10   2.0000      -0.947421       -25.7806
  11   2.0000      -0.893583       -24.3156
  12   2.0000      -0.779862       -21.2211
  13   2.0000      -0.725850       -19.7514
  14   2.0000      -0.693241       -18.8640
  15   2.0000      -0.600241       -16.3334
  16   2.0000      -0.597085       -16.2475
  17   2.0000      -0.572750       -15.5853
  18   2.0000      -0.552226       -15.0268
  19   2.0000      -0.546342       -14.8667
  20   2.0000      -0.535066       -14.5599
  21   2.0000      -0.524422       -14.2702
  22   2.0000      -0.513078       -13.9616
  23   2.0000      -0.485904       -13.2221
  24   2.0000      -0.330613        -8.9964
  25   2.0000      -0.280539        -7.6339
  26   0.0000       0.131957         3.5907
  27   0.0000       0.154738         4.2106
  28   0.0000       0.171891         4.6774
  29   0.0000       0.172641         4.6978
  30   0.0000       0.198798         5.4096

MULLIKEN ATOMIC CHARGES
-----------------------
   0 C :   -0.439646
   1 C :    0.077281
   2 C :    0.054478
   3 C :   -0.421088
   4 C :   -0.246602
   5 C :   -0.069964
   6 N :   -0.267796
   7 H :    0.140958
   8 H :    0.137548
   9 H :    0.141039
  10 H :    0.139041
  11 H :    0.139068
  12 H :    0.119577
  13 H :    0.120358
  14 H :    0.139378
  15 H :    0.236372
Sum of atomic charges:    0.0000000

LOEWDIN ATOMIC CHARGES
----------------------
   0 C :   -0.283634
   1 C :   -0.237067
   2 C :   -0.196195
   3 C :   -0.276474
   4 C :   -0.182183
   5 C :   -0.243743
   6 N :    0.191125
   7 H :    0.128083
   8 H :    0.133699
   9 H :    0.128101
  10 H :    0.128401
  11 H :    0.128377
  12 H :    0.124224
  13 H :    0.138178
  14 H :    0.129988
  15 H :    0.189119

  Mayer bond orders larger than 0.1
B(  0-C ,  1-C ) :   0.8414 B(  0-C ,  7-H ) :   0.9390 B(  0-C ,  8-H ) :   0.9547
B(  0-C ,  9-H ) :   0.9389 B(  1-C ,  2-C ) :   1.4856 B(  1-C ,  6-N ) :   1.1417
B(  2-C ,  3-C ) :   0.8414 B(  2-C ,  4-C ) :   1.2596 B(  3-C , 10-H ) :   0.9396
B(  3-C , 11-H ) :   0.9394 B(  3-C , 12-H ) :   0.9594 B(  4-C ,  5-C ) :   1.4982
B(  4-C , 13-H ) :   0.9399 B(  5-C ,  6-N ) :   1.1141 B(  5-C , 14-H ) :   0.9210
B(  6-N , 15-H ) :   0.8777

MP2 TOTAL ENERGY:     -288.161813572 Eh
FINAL SINGLE POINT ENERGY      -288.161813571838

DIPOLE MOMENT
-------------
                                X             Y             Z
Electronic contribution:      0.27260      -3.51405       3.44647
Nuclear contribution   :     -0.28552       3.89306      -2.83279
                        -----------------------------------------
Total Dipole Moment    :     -0.01293       0.37901       0.61368
                        -----------------------------------------
Magnitude (a.u.)       :      0.72140
Magnitude (Debye)      :      1.83366

                             ****ORCA TERMINATED NORMALLY****
TOTAL RUN TIME: 0 days 0 hours 8 minutes 35 seconds 8 msec
