                         Program Version 3.0.3 - RELEASE   -
|  1> ! RI-MP2 RIJK def2-TZVP def2-TZVP/C def2-TZVP/JK TIGHTSCF
|  2> % maxcore 2000
|  3> % mp2 density relaxed end
|  4> *xyz 0 1
|  5>  C        0.0253556370     1.4876415805    -0.0490498273
|  6>  C       -0.3055648804     0.7186578461    -1.3097919797
|  7>  C       -0.0384374471    -0.0223593755    -0.0037353770
|  8>  C        1.3843242382    -0.3639561206    -0.4838845111
|  9>  C        1.1141467618     0.3668002648    -1.8291484788
| 10>  C        2.1156088807     1.4360842854    -1.3365236128
| 11>  C        1.4842860086     1.9052543026    -0.0828426523
| 12>  N        2.3743716828     0.7091256230    -0.0370219104
| 13>  H       -0.7280448944     2.0821891503     0.4499084764
| 14>  H       -1.2236594195     0.8277282634    -1.8741742136
| 15>  H       -0.6976079895    -0.5946918993     0.6366805304
| 16>  H        1.7697955816    -1.3781533353    -0.4160224065
| 17>  H        1.2405253118    -0.1159553304    -2.7941014174
| 18>  H        2.9047704348     1.9342221620    -1.8897035289
| 19>  H        1.8416279436     2.7722112431     0.4592584489
| 20> *
| 21>
| 22>                          ****END OF INPUT****

CARTESIAN COORDINATES (ANGSTROEM)
---------------------------------
  C      0.025356    1.487642   -0.049050
  C     -0.305565    0.718658   -1.309792
  C     -0.038437   -0.022359   -0.003735
  C      1.384324   -0.363956   -0.483885
  C      1.114147    0.366800   -1.829148
  C      2.115609    1.436084   -1.336524
  C      1.484286    1.905254   -0.082843
  N      2.374372    0.709126   -0.037022
  H     -0.728045    2.082189    0.449908
  H     -1.223659    0.827728   -1.874174
  H     -0.697608   -0.594692    0.636681
  H      1.769796   -1.378153   -0.416022
  H      1.240525   -0.115955   -2.794101
  H      2.904770    1.934222   -1.889704
  H      1.841628    2.772211    0.459258

 Total Charge           Charge          ....    0
 Multiplicity           Mult            ....    1
 Number of Electrons    NEL             ....   56
 Basis Dimension        Dim             ....  290

ORBITAL ENERGIES
----------------

  NO   OCC          E(Eh)            E(eV)
   0   2.0000     -15.551647      -423.1818
   1   2.0000     -11.259187      -306.3780
   2   2.0000     -11.255871      -306.2878
   3   2.0000     -11.254360      -306.2467
   4   2.0000     -11.239509      -305.8426
   5   2.0000     -11.237952      -305.8002
   6   2.0000     -11.237741      -305.7945
   7   2.0000     -11.235734      -305.7399
   8   2.0000      -1.313978       -35.7552
   9   2.0000      -1.153621       -31.3916
  10   2.0000      -1.001931       -27.2639
  11   2.0000      -0.944783       -25.7089
  12   2.0000      -0.828650       -22.5487
  13   2.0000      -0.801851       -21.8195
  14   2.0000      -0.773873       -21.0582
  15   2.0000      -0.728729       -19.8297
  16   2.0000      -0.703262       -19.1367
  17   2.0000      -0.633153       -17.2290
  18   2.0000      -0.599404       -16.3106
  19   2.0000      -0.571111       -15.5407
  20   2.0000      -0.559581       -15.2270
  21   2.0000      -0.528889       -14.3918
  22   2.0000      -0.479770       -13.0552
  23   2.0000      -0.441341       -12.0095
  24   2.0000      -0.421180       -11.4609
  25   2.0000      -0.406703       -11.0670
  26   2.0000      -0.388480       -10.5711
  27   2.0000      -0.349786        -9.5182
  28   0.0000       0.151409         4.1201
  29   0.0000       0.162889         4.4324
  30   0.0000       0.175700         4.7810
  31   0.0000       0.182728         4.9723
  32   0.0000       0.195639         5.3236

MULLIKEN ATOMIC CHARGES
-----------------------
   0 C :   -0.102383
   1 C :   -0.187063
   2 C :   -0.197003
   3 C :    0.018688
   4 C :   -0.041837
   5 C :   -0.115860
   6 C :   -0.108604
   7 N :   -0.219123
   8 H :    0.140995
   9 H :    0.134464
  10 H :    0.137715
  11 H :    0.132487
  12 H :    0.141775
  13 H :    0.130051
  14 H :    0.135699
Sum of atomic charges:    0.0000000

LOEWDIN ATOMIC CHARGES
----------------------
   0 C :   -0.157817
   1 C :   -0.129248
   2 C :   -0.135632
   3 C :   -0.159050
   4 C :   -0.142179
   5 C :   -0.173295
   6 C :   -0.205046
   7 N :    0.129678
   8 H :    0.151091
   9 H :    0.133802
  10 H :    0.134950
  11 H :    0.137237
  12 H :    0.141391
  13 H :    0.129201
  14 H :    0.144917

  Mayer bond orders larger than 0.1
B(  0-C ,  1-C ) :   0.9036 B(  0-C ,  2-C ) :   0.8636 B(  0-C ,  6-C ) :   0.9106
B(  0-C ,  8-H ) :   0.9254 B(  1-C ,  2-C ) :   0.8499 B(  1-C ,  4-C ) :   0.9177
B(  1-C ,  9-H ) :   0.9184 B(  2-C ,  3-C ) :   0.9432 B(  2-C , 10-H ) :   0.9245
B(  3-C ,  4-C ) :   0.9732 B(  3-C ,  7-N ) :   0.9371 B(  3-C , 11-H ) :   0.9283
B(  4-C ,  5-C ) :   0.8904 B(  4-C , 12-H ) :   0.9237 B(  5-C ,  6-C ) :   0.9606
B(  5-C ,  7-N ) :   0.8630 B(  5-C , 13-H ) :   0.9070 B(  6-C ,  7-N ) :   0.9513
B(  6-C , 14-H ) :   0.9193

MP2 TOTAL ENERGY:     -324.858848613 Eh
FINAL SINGLE POINT ENERGY      -324.858848613373

DIPOLE MOMENT
-------------
                                X             Y             Z
Electronic contribution:      1.24833      -0.00556       0.49028
Nuclear contribution   :     -1.93595       0.06964      -0.89270
                        -----------------------------------------
Total Dipole Moment    :     -0.68762       0.06408      -0.40241
                        -----------------------------------------
Magnitude (a.u.)       :      0.79929
Magnitude (Debye)      :      2.03164

                             ****ORCA TERMINATED NORMALLY****
TOTAL RUN TIME: 0 days 0 hours 13 minutes 7 seconds 713 msec
