                         Program Version 3.0.3 - RELEASE   -
|  1> ! RI-MP2 RIJK def2-TZVP def2-TZVP/C def2-TZVP/JK TIGHTSCF
|  2> % maxcore 2000
|  3> % mp2 density relaxed end
|  4> *xyz 0 1
|  5>  C        0.0519858214    -1.1776764183    -0.0046275445
|  6>  C       -0.0096793797     0.0216810950     0.0029137142
|  7>  C       -0.0556586664     1.4306188153     0.0114126603
|  8>  N       -1.1493940140     2.1522889903     0.0295581413
|  9>  O       -0.7177572703     3.4244417063     0.0309662628
| 10>  N        0.6848465740     3.4327045306     0.0125232305
| 11>  N        1.0754344796     2.2436899945     0.0007873829
| 12>  H        0.1013065354    -2.2397030037    -0.0112331475
| 13> *
| 14>
| 15>                          ****END OF INPUT****

CARTESIAN COORDINATES (ANGSTROEM)
---------------------------------
  C      0.051986   -1.177676   -0.004628
  C     -0.009679    0.021681    0.002914
  C     -0.055659    1.430619    0.011413
  N     -1.149394    2.152289    0.029558
  O     -0.717757    3.424442    0.030966
  N      0.684847    3.432705    0.012523
  N      1.075434    2.243690    0.000787
  H      0.101307   -2.239703   -0.011233

 Total Charge           Charge          ....    0
 Multiplicity           Mult            ....    1
 Number of Electrons    NEL             ....   48
 Basis Dimension        Dim             ....  223

ORBITAL ENERGIES
----------------

  NO   OCC          E(Eh)            E(eV)
   0   2.0000     -20.717886      -563.7623
   1   2.0000     -15.741469      -428.3471
   2   2.0000     -15.691879      -426.9977
   3   2.0000     -15.671865      -426.4531
   4   2.0000     -11.368065      -309.3408
   5   2.0000     -11.282361      -307.0086
   6   2.0000     -11.277906      -306.8874
   7   2.0000      -1.603431       -43.6316
   8   2.0000      -1.364560       -37.1316
   9   2.0000      -1.242458       -33.8090
  10   2.0000      -1.077572       -29.3222
  11   2.0000      -0.956480       -26.0271
  12   2.0000      -0.931108       -25.3367
  13   2.0000      -0.820299       -22.3215
  14   2.0000      -0.745801       -20.2943
  15   2.0000      -0.735674       -20.0187
  16   2.0000      -0.680848       -18.5268
  17   2.0000      -0.616414       -16.7735
  18   2.0000      -0.540805       -14.7161
  19   2.0000      -0.538998       -14.6669
  20   2.0000      -0.517814       -14.0904
  21   2.0000      -0.506004       -13.7691
  22   2.0000      -0.444765       -12.1027
  23   2.0000      -0.405178       -11.0255
  24   0.0000       0.049816         1.3556
  25   0.0000       0.109600         2.9824
  26   0.0000       0.138553         3.7702
  27   0.0000       0.144764         3.9392
  28   0.0000       0.178321         4.8524

MULLIKEN ATOMIC CHARGES
-----------------------
   0 C :   -0.034397
   1 C :    0.068982
   2 C :   -0.071484
   3 N :   -0.087391
   4 O :    0.009282
   5 N :    0.009064
   6 N :   -0.108359
   7 H :    0.214303
Sum of atomic charges:   -0.0000000

LOEWDIN ATOMIC CHARGES
----------------------
   0 C :   -0.014177
   1 C :   -0.067461
   2 C :   -0.353468
   3 N :    0.061126
   4 O :    0.197422
   5 N :   -0.021263
   6 N :    0.061183
   7 H :    0.136636

  Mayer bond orders larger than 0.1
B(  0-C ,  1-C ) :   2.6135 B(  0-C ,  2-C ) :  -0.1653 B(  0-C ,  7-H ) :   0.8638
B(  1-C ,  2-C ) :   1.2300 B(  2-C ,  3-N ) :   1.5503 B(  2-C ,  6-N ) :   1.2252
B(  3-N ,  4-O ) :   0.9782 B(  3-N ,  5-N ) :   0.1243 B(  4-O ,  5-N ) :   0.9094
B(  5-N ,  6-N ) :   1.4464

MP2 TOTAL ENERGY:     -353.607556761 Eh
FINAL SINGLE POINT ENERGY      -353.607556760759

DIPOLE MOMENT
-------------
                                X             Y             Z
Electronic contribution:     -0.16807       2.68669       0.01723
Nuclear contribution   :      0.11823      -3.69519      -0.02209
                        -----------------------------------------
Total Dipole Moment    :     -0.04984      -1.00850      -0.00486
                        -----------------------------------------
Magnitude (a.u.)       :      1.00974
Magnitude (Debye)      :      2.56655

                             ****ORCA TERMINATED NORMALLY****
TOTAL RUN TIME: 0 days 0 hours 5 minutes 27 seconds 121 msec
