                         Program Version 3.0.3 - RELEASE   -
|  1> ! RI-MP2 RIJK def2-TZVP def2-TZVP/C def2-TZVP/JK TIGHTSCF
|  2> % maxcore 2000
|  3> % mp2 density relaxed end
|  4> *xyz 0 1
|  5>  C        0.0015097838     1.4791230001    -0.0812518157
|  6>  C       -0.0214678518     0.0268617497    -0.0031095322
|  7>  C       -0.0401465963    -1.1776195964     0.0615652163
|  8>  C       -0.0300027877    -2.5925447727     0.1720004246
|  9>  N       -0.2256634692    -3.4907079151    -1.0124590952
| 10>  C       -1.1396700428    -3.6037617950     0.1439063676
| 11>  C       -0.4326090878    -4.5022918460     1.1536216066
| 12>  C        0.7761894520    -3.4861845792     1.1502140255
| 13>  O        2.0176021891    -3.9302184933     0.6965106392
| 14>  H        0.7824759550     1.8936612697     0.5657589305
| 15>  H        0.2037313956     1.8204728776    -1.1026538811
| 16>  H       -0.9542556996     1.9137707669     0.2324741991
| 17>  H       -0.6861729536    -2.9312708675    -1.7290190482
| 18>  H       -2.2014250585    -3.4249435638     0.0288616762
| 19>  H       -0.9332439028    -4.5477973208     2.1232064757
| 20>  H       -0.1979873533    -5.5115444259     0.8067601867
| 21>  H        0.9279349598    -3.0140870833     2.1224192537
| 22>  H        1.8760181181    -4.1953271249    -0.2230456795
| 23> *
| 24>
| 25>                          ****END OF INPUT****

CARTESIAN COORDINATES (ANGSTROEM)
---------------------------------
  C      0.001510    1.479123   -0.081252
  C     -0.021468    0.026862   -0.003110
  C     -0.040147   -1.177620    0.061565
  C     -0.030003   -2.592545    0.172000
  N     -0.225663   -3.490708   -1.012459
  C     -1.139670   -3.603762    0.143906
  C     -0.432609   -4.502292    1.153622
  C      0.776189   -3.486185    1.150214
  O      2.017602   -3.930218    0.696511
  H      0.782476    1.893661    0.565759
  H      0.203731    1.820473   -1.102654
  H     -0.954256    1.913771    0.232474
  H     -0.686173   -2.931271   -1.729019
  H     -2.201425   -3.424944    0.028862
  H     -0.933244   -4.547797    2.123206
  H     -0.197987   -5.511544    0.806760
  H      0.927935   -3.014087    2.122419
  H      1.876018   -4.195327   -0.223046

 Total Charge           Charge          ....    0
 Multiplicity           Mult            ....    1
 Number of Electrons    NEL             ....   66
 Basis Dimension        Dim             ....  333

ORBITAL ENERGIES
----------------

  NO   OCC          E(Eh)            E(eV)
   0   2.0000     -20.548889      -559.1637
   1   2.0000     -15.575798      -423.8390
   2   2.0000     -11.289522      -307.2035
   3   2.0000     -11.285215      -307.0863
   4   2.0000     -11.276046      -306.8368
   5   2.0000     -11.253212      -306.2155
   6   2.0000     -11.237518      -305.7884
   7   2.0000     -11.230822      -305.6062
   8   2.0000     -11.228086      -305.5317
   9   2.0000      -1.366834       -37.1935
  10   2.0000      -1.286603       -35.0103
  11   2.0000      -1.067295       -29.0426
  12   2.0000      -1.044264       -28.4159
  13   2.0000      -0.983047       -26.7501
  14   2.0000      -0.901680       -24.5360
  15   2.0000      -0.852887       -23.2082
  16   2.0000      -0.786946       -21.4139
  17   2.0000      -0.761242       -20.7145
  18   2.0000      -0.659756       -17.9529
  19   2.0000      -0.639713       -17.4075
  20   2.0000      -0.627717       -17.0811
  21   2.0000      -0.597842       -16.2681
  22   2.0000      -0.593772       -16.1574
  23   2.0000      -0.589363       -16.0374
  24   2.0000      -0.573564       -15.6075
  25   2.0000      -0.562543       -15.3076
  26   2.0000      -0.518768       -14.1164
  27   2.0000      -0.498340       -13.5605
  28   2.0000      -0.466617       -12.6973
  29   2.0000      -0.433342       -11.7918
  30   2.0000      -0.423170       -11.5150
  31   2.0000      -0.371420       -10.1069
  32   2.0000      -0.340673        -9.2702
  33   0.0000       0.130781         3.5587
  34   0.0000       0.146468         3.9856
  35   0.0000       0.158216         4.3053
  36   0.0000       0.166372         4.5272
  37   0.0000       0.177006         4.8166

MULLIKEN ATOMIC CHARGES
-----------------------
   0 C :   -0.473389
   1 C :    0.095299
   2 C :    0.021640
   3 C :   -0.152197
   4 N :   -0.391050
   5 C :   -0.085223
   6 C :   -0.163526
   7 C :    0.065275
   8 O :   -0.458159
   9 H :    0.167369
  10 H :    0.164099
  11 H :    0.163297
  12 H :    0.225126
  13 H :    0.145829
  14 H :    0.118659
  15 H :    0.111393
  16 H :    0.113245
  17 H :    0.332312
Sum of atomic charges:   -0.0000000

LOEWDIN ATOMIC CHARGES
----------------------
   0 C :   -0.292795
   1 C :   -0.080364
   2 C :   -0.062466
   3 C :   -0.241513
   4 N :    0.025495
   5 C :   -0.203686
   6 C :   -0.202258
   7 C :   -0.274766
   8 O :   -0.002164
   9 H :    0.144046
  10 H :    0.142231
  11 H :    0.141408
  12 H :    0.176597
  13 H :    0.132524
  14 H :    0.136544
  15 H :    0.132948
  16 H :    0.144344
  17 H :    0.183875

  Mayer bond orders larger than 0.1
B(  0-C ,  1-C ) :   0.8475 B(  0-C ,  9-H ) :   0.9468 B(  0-C , 10-H ) :   0.9429
B(  0-C , 11-H ) :   0.9453 B(  1-C ,  2-C ) :   2.6176 B(  1-C ,  3-C ) :  -0.1800
B(  2-C ,  3-C ) :   1.0894 B(  3-C ,  4-N ) :   0.9095 B(  3-C ,  5-C ) :   0.8380
B(  3-C ,  7-C ) :   0.9292 B(  4-N ,  5-C ) :   0.9474 B(  4-N , 12-H ) :   0.8733
B(  5-C ,  6-C ) :   0.9757 B(  5-C , 13-H ) :   0.8971 B(  6-C ,  7-C ) :   0.9518
B(  6-C , 14-H ) :   0.9203 B(  6-C , 15-H ) :   0.8980 B(  7-C ,  8-O ) :   1.0058
B(  7-C , 16-H ) :   0.9419 B(  8-O , 17-H ) :   0.8197

MP2 TOTAL ENERGY:     -401.184502672 Eh
FINAL SINGLE POINT ENERGY      -401.184502672215

DIPOLE MOMENT
-------------
                                X             Y             Z
Electronic contribution:      1.28670      -2.71739      -0.67358
Nuclear contribution   :     -2.26893       3.40463       0.52428
                        -----------------------------------------
Total Dipole Moment    :     -0.98223       0.68724      -0.14930
                        -----------------------------------------
Magnitude (a.u.)       :      1.20804
Magnitude (Debye)      :      3.07059

                             ****ORCA TERMINATED NORMALLY****
TOTAL RUN TIME: 0 days 0 hours 16 minutes 11 seconds 336 msec
