                         Program Version 3.0.3 - RELEASE   -
|  1> ! RI-MP2 RIJK def2-TZVP def2-TZVP/C def2-TZVP/JK TIGHTSCF
|  2> % maxcore 2000
|  3> % mp2 density relaxed end
|  4> *xyz 0 1
|  5>  C       -0.1424373140     1.5587681373     0.0182996827
|  6>  C        0.0703218988     0.0341894131     0.0342084112
|  7>  C        0.7662927840    -0.4843452996    -1.1962353235
|  8>  C        2.0603643790    -0.8843440556    -1.2062741100
|  9>  C        2.6889385549    -1.3585531163    -2.4090362338
| 10>  C        1.9531180238    -1.4015702487    -3.5303068337
| 11>  O        0.6571676884    -1.0225751051    -3.5688754399
| 12>  C       -0.0082997526    -0.5533500029    -2.4345279080
| 13>  N       -1.2328738737    -0.2194027428    -2.5183655552
| 14>  H        0.8137296974     2.0883312458    -0.0459601477
| 15>  H       -0.7593878563     1.8475985699    -0.8349460033
| 16>  H       -0.6478844650     1.8813339053     0.9337951766
| 17>  H        0.6595462999    -0.2470805920     0.9141345679
| 18>  H       -0.9054982842    -0.4555938082     0.1174773431
| 19>  H        2.6386727254    -0.8472851109    -0.2878454065
| 20>  H        3.7232213183    -1.6744648507    -2.4245902500
| 21>  H        2.2984857626    -1.7341186274    -4.5012400297
| 22>  H       -1.5797693667    -0.3534489115    -3.4679802904
| 23> *
| 24>
| 25>                          ****END OF INPUT****

CARTESIAN COORDINATES (ANGSTROEM)
---------------------------------
  C     -0.142437    1.558768    0.018300
  C      0.070322    0.034189    0.034208
  C      0.766293   -0.484345   -1.196235
  C      2.060364   -0.884344   -1.206274
  C      2.688939   -1.358553   -2.409036
  C      1.953118   -1.401570   -3.530307
  O      0.657168   -1.022575   -3.568875
  C     -0.008300   -0.553350   -2.434528
  N     -1.232874   -0.219403   -2.518366
  H      0.813730    2.088331   -0.045960
  H     -0.759388    1.847599   -0.834946
  H     -0.647884    1.881334    0.933795
  H      0.659546   -0.247081    0.914135
  H     -0.905498   -0.455594    0.117477
  H      2.638673   -0.847285   -0.287845
  H      3.723221   -1.674465   -2.424590
  H      2.298486   -1.734119   -4.501240
  H     -1.579769   -0.353449   -3.467980

 Total Charge           Charge          ....    0
 Multiplicity           Mult            ....    1
 Number of Electrons    NEL             ....   66
 Basis Dimension        Dim             ....  333

ORBITAL ENERGIES
----------------

  NO   OCC          E(Eh)            E(eV)
   0   2.0000     -20.623997      -561.2075
   1   2.0000     -15.528733      -422.5583
   2   2.0000     -11.346580      -308.7561
   3   2.0000     -11.318189      -307.9836
   4   2.0000     -11.259179      -306.3778
   5   2.0000     -11.249579      -306.1166
   6   2.0000     -11.240183      -305.8609
   7   2.0000     -11.226143      -305.4789
   8   2.0000     -11.207009      -304.9582
   9   2.0000      -1.456744       -39.6400
  10   2.0000      -1.204231       -32.7688
  11   2.0000      -1.127390       -30.6778
  12   2.0000      -1.050972       -28.5984
  13   2.0000      -0.992726       -27.0134
  14   2.0000      -0.890896       -24.2425
  15   2.0000      -0.866345       -23.5745
  16   2.0000      -0.822046       -22.3690
  17   2.0000      -0.722444       -19.6587
  18   2.0000      -0.715694       -19.4750
  19   2.0000      -0.659682       -17.9509
  20   2.0000      -0.646298       -17.5867
  21   2.0000      -0.619934       -16.8692
  22   2.0000      -0.611305       -16.6345
  23   2.0000      -0.594582       -16.1794
  24   2.0000      -0.570174       -15.5152
  25   2.0000      -0.529456       -14.4072
  26   2.0000      -0.515901       -14.0384
  27   2.0000      -0.487902       -13.2765
  28   2.0000      -0.484574       -13.1859
  29   2.0000      -0.446512       -12.1502
  30   2.0000      -0.439201       -11.9513
  31   2.0000      -0.436303       -11.8724
  32   2.0000      -0.302837        -8.2406
  33   0.0000       0.083489         2.2718
  34   0.0000       0.145394         3.9564
  35   0.0000       0.157421         4.2836
  36   0.0000       0.164895         4.4870
  37   0.0000       0.170784         4.6473

MULLIKEN ATOMIC CHARGES
-----------------------
   0 C :   -0.409921
   1 C :   -0.171949
   2 C :    0.047772
   3 C :   -0.148683
   4 C :   -0.166092
   5 C :    0.022510
   6 O :   -0.214316
   7 C :    0.161626
   8 N :   -0.409526
   9 H :    0.118079
  10 H :    0.159306
  11 H :    0.127716
  12 H :    0.113918
  13 H :    0.129529
  14 H :    0.133215
  15 H :    0.144579
  16 H :    0.145016
  17 H :    0.217222
Sum of atomic charges:   -0.0000000

LOEWDIN ATOMIC CHARGES
----------------------
   0 C :   -0.306443
   1 C :   -0.240280
   2 C :   -0.124789
   3 C :   -0.106222
   4 C :   -0.189471
   5 C :   -0.224025
   6 O :    0.315464
   7 C :   -0.333078
   8 N :   -0.063507
   9 H :    0.118641
  10 H :    0.128310
  11 H :    0.120883
  12 H :    0.140648
  13 H :    0.152504
  14 H :    0.153061
  15 H :    0.153086
  16 H :    0.140721
  17 H :    0.164499

  Mayer bond orders larger than 0.1
B(  0-C ,  1-C ) :   0.9034 B(  0-C ,  9-H ) :   0.9358 B(  0-C , 10-H ) :   0.9349
B(  0-C , 11-H ) :   0.9355 B(  1-C ,  2-C ) :   0.9010 B(  1-C , 12-H ) :   0.9392
B(  1-C , 13-H ) :   0.9143 B(  2-C ,  3-C ) :   1.6072 B(  2-C ,  7-C ) :   1.0323
B(  2-C ,  8-N ) :  -0.1003 B(  3-C ,  4-C ) :   1.0597 B(  3-C , 14-H ) :   0.9229
B(  4-C ,  5-C ) :   1.6193 B(  4-C , 15-H ) :   0.9147 B(  5-C ,  6-O ) :   1.0667
B(  5-C , 16-H ) :   0.9390 B(  6-O ,  7-C ) :   0.9997 B(  7-C ,  8-N ) :   1.9727
B(  8-N , 17-H ) :   0.8544

MP2 TOTAL ENERGY:     -401.281348846 Eh
FINAL SINGLE POINT ENERGY      -401.281348845637

DIPOLE MOMENT
-------------
                                X             Y             Z
Electronic contribution:      1.22532      -4.62185      -6.87204
Nuclear contribution   :     -0.20868       4.30829       6.79490
                        -----------------------------------------
Total Dipole Moment    :      1.01664      -0.31357      -0.07713
                        -----------------------------------------
Magnitude (a.u.)       :      1.06669
Magnitude (Debye)      :      2.71132

                             ****ORCA TERMINATED NORMALLY****
TOTAL RUN TIME: 0 days 0 hours 17 minutes 35 seconds 123 msec
