                         Program Version 3.0.3 - RELEASE   -
|  1> ! RI-MP2 RIJK def2-TZVP def2-TZVP/C def2-TZVP/JK TIGHTSCF
|  2> % maxcore 2000
|  3> % mp2 density relaxed end
|  4> *xyz 0 1
|  5>  C        0.3077665744     1.2712920715     0.8549658361
|  6>  C        0.0543577235    -0.0757175317     0.1432372945
|  7>  N        0.6211526992    -1.2747085033     0.7674413959
|  8>  C        2.0701089186    -1.3211465328     0.8172169913
|  9>  C        2.6546261660    -0.7631091137     2.1274173898
| 10>  N        4.0042961971    -0.5878530365     2.1324151291
| 11>  O        1.9493803255    -0.5240801999     3.0892231108
| 12>  C       -1.3955506980    -0.2863431216    -0.0199516630
| 13>  N       -2.5365981124    -0.4229390052    -0.1370566595
| 14>  H        1.3792747113     1.4844612061     0.8863843463
| 15>  H       -0.1890834726     2.0859561716     0.3201599841
| 16>  H       -0.0644468615     1.2400038589     1.8811289971
| 17>  H        0.4718363582    -0.0174256112    -0.8710679015
| 18>  H        0.2759803633    -1.3506344690     1.7218597835
| 19>  H        2.4065281352    -2.3654331553     0.7374877002
| 20>  H        2.4980358925    -0.7955039676    -0.0442640395
| 21>  H        4.5818912682    -0.8766043894     1.3617465347
| 22>  H        4.4525681413    -0.3415673709     3.0003375001
| 23> *
| 24>
| 25>                          ****END OF INPUT****

CARTESIAN COORDINATES (ANGSTROEM)
---------------------------------
  C      0.307767    1.271292    0.854966
  C      0.054358   -0.075718    0.143237
  N      0.621153   -1.274709    0.767441
  C      2.070109   -1.321147    0.817217
  C      2.654626   -0.763109    2.127417
  N      4.004296   -0.587853    2.132415
  O      1.949380   -0.524080    3.089223
  C     -1.395551   -0.286343   -0.019952
  N     -2.536598   -0.422939   -0.137057
  H      1.379275    1.484461    0.886384
  H     -0.189083    2.085956    0.320160
  H     -0.064447    1.240004    1.881129
  H      0.471836   -0.017426   -0.871068
  H      0.275980   -1.350634    1.721860
  H      2.406528   -2.365433    0.737488
  H      2.498036   -0.795504   -0.044264
  H      4.581891   -0.876604    1.361747
  H      4.452568   -0.341567    3.000338

 Total Charge           Charge          ....    0
 Multiplicity           Mult            ....    1
 Number of Electrons    NEL             ....   68
 Basis Dimension        Dim             ....  333

ORBITAL ENERGIES
----------------

  NO   OCC          E(Eh)            E(eV)
   0   2.0000     -20.539037      -558.8956
   1   2.0000     -15.603785      -424.6006
   2   2.0000     -15.570261      -423.6884
   3   2.0000     -15.564841      -423.5408
   4   2.0000     -11.370051      -309.3948
   5   2.0000     -11.315420      -307.9082
   6   2.0000     -11.290964      -307.2428
   7   2.0000     -11.265713      -306.5556
   8   2.0000     -11.238614      -305.8182
   9   2.0000      -1.404312       -38.2133
  10   2.0000      -1.248764       -33.9806
  11   2.0000      -1.232498       -33.5380
  12   2.0000      -1.206243       -32.8235
  13   2.0000      -1.057775       -28.7835
  14   2.0000      -0.969464       -26.3805
  15   2.0000      -0.889699       -24.2099
  16   2.0000      -0.814022       -22.1507
  17   2.0000      -0.758528       -20.6406
  18   2.0000      -0.729851       -19.8603
  19   2.0000      -0.691319       -18.8117
  20   2.0000      -0.660113       -17.9626
  21   2.0000      -0.631192       -17.1756
  22   2.0000      -0.620347       -16.8805
  23   2.0000      -0.600465       -16.3395
  24   2.0000      -0.580976       -15.8091
  25   2.0000      -0.567749       -15.4492
  26   2.0000      -0.558882       -15.2080
  27   2.0000      -0.530418       -14.4334
  28   2.0000      -0.529580       -14.4106
  29   2.0000      -0.461447       -12.5566
  30   2.0000      -0.460004       -12.5174
  31   2.0000      -0.448660       -12.2087
  32   2.0000      -0.437771       -11.9123
  33   2.0000      -0.399896       -10.8817
  34   0.0000       0.104232         2.8363
  35   0.0000       0.129882         3.5343
  36   0.0000       0.152536         4.1507
  37   0.0000       0.158869         4.3231
  38   0.0000       0.170866         4.6495

MULLIKEN ATOMIC CHARGES
-----------------------
   0 C :   -0.359580
   1 C :    0.035022
   2 N :   -0.310666
   3 C :   -0.185422
   4 C :    0.272935
   5 N :   -0.486363
   6 O :   -0.357787
   7 C :   -0.163041
   8 N :   -0.058139
   9 H :    0.132844
  10 H :    0.146571
  11 H :    0.150657
  12 H :    0.125901
  13 H :    0.232139
  14 H :    0.160588
  15 H :    0.134380
  16 H :    0.262588
  17 H :    0.267372
Sum of atomic charges:    0.0000000

LOEWDIN ATOMIC CHARGES
----------------------
   0 C :   -0.274534
   1 C :   -0.321062
   2 N :    0.025810
   3 C :   -0.287595
   4 C :   -0.491159
   5 N :   -0.017312
   6 O :    0.082878
   7 C :   -0.165667
   8 N :    0.062708
   9 H :    0.126204
  10 H :    0.131617
  11 H :    0.133934
  12 H :    0.168147
  13 H :    0.185677
  14 H :    0.147972
  15 H :    0.142282
  16 H :    0.173357
  17 H :    0.176742

  Mayer bond orders larger than 0.1
B(  0-C ,  1-C ) :   0.9141 B(  0-C ,  9-H ) :   0.9329 B(  0-C , 10-H ) :   0.9218
B(  0-C , 11-H ) :   0.9175 B(  1-C ,  2-N ) :   0.9948 B(  1-C ,  7-C ) :   0.9260
B(  1-C , 12-H ) :   0.9097 B(  2-N ,  3-C ) :   0.9823 B(  2-N , 13-H ) :   0.8612
B(  3-C ,  4-C ) :   0.9069 B(  3-C , 14-H ) :   0.8999 B(  3-C , 15-H ) :   0.9246
B(  4-C ,  5-N ) :   1.1463 B(  4-C ,  6-O ) :   1.9459 B(  5-N , 16-H ) :   0.8699
B(  5-N , 17-H ) :   0.8541 B(  7-C ,  8-N ) :   2.8784

MP2 TOTAL ENERGY:     -434.584427178 Eh
FINAL SINGLE POINT ENERGY      -434.584427178023

DIPOLE MOMENT
-------------
                                X             Y             Z
Electronic contribution:     -4.01746      -2.54301       0.82524
Nuclear contribution   :      6.82868       2.79716      -1.12001
                        -----------------------------------------
Total Dipole Moment    :      2.81122       0.25415      -0.29477
                        -----------------------------------------
Magnitude (a.u.)       :      2.83803
Magnitude (Debye)      :      7.21371

                             ****ORCA TERMINATED NORMALLY****
TOTAL RUN TIME: 0 days 0 hours 16 minutes 32 seconds 716 msec
