                         Program Version 3.0.3 - RELEASE   -
|  1> ! RI-MP2 RIJK def2-TZVP def2-TZVP/C def2-TZVP/JK TIGHTSCF
|  2> % maxcore 2000
|  3> % mp2 density relaxed end
|  4> *xyz 0 1
|  5>  C       -1.4038290844     0.5086331332    -1.3482656352
|  6>  C       -0.0826611089     0.5083323915    -0.5655547476
|  7>  C       -0.2611052895    -0.0717311829     0.8472003914
|  8>  O       -1.1332783375     0.6917977464     1.6640383035
|  9>  C        0.9749348311    -0.2818348041    -1.3282173442
| 10>  O        1.1201077945     0.1492886672    -2.7039140223
| 11>  C        2.5573055242     0.0983161479    -2.6095043519
| 12>  C        2.5020014198    -0.0837872772    -1.0769673972
| 13>  C        2.9540664977     1.1304583524    -0.2736637129
| 14>  H       -1.2473049767     0.8875719197    -2.3603400517
| 15>  H       -1.8164564227    -0.5050371111    -1.4284127090
| 16>  H       -2.1506666520     1.1460627955    -0.8634660597
| 17>  H        0.2539331288     1.5460709427    -0.4592638930
| 18>  H       -0.6004767801    -1.1188679943     0.7723603341
| 19>  H        0.6969072992    -0.0830214317     1.3772702298
| 20>  H       -2.0187891408     0.6245066200     1.2947743542
| 21>  H        0.7050275313    -1.3513345144    -1.3048853387
| 22>  H        2.9725173323    -0.7553111444    -3.1622591126
| 23>  H        3.0250221691     1.0209602436    -2.9742940360
| 24>  H        3.0031115961    -0.9832180956    -0.7099743294
| 25>  H        2.4947008645     2.0522539917    -0.6440118449
| 26>  H        2.7107599903     1.0347532689     0.7890694177
| 27>  H        4.0402147837     1.2487911450    -0.3533445647
| 28> *
| 29>
| 30>                          ****END OF INPUT****

CARTESIAN COORDINATES (ANGSTROEM)
---------------------------------
  C     -1.403829    0.508633   -1.348266
  C     -0.082661    0.508332   -0.565555
  C     -0.261105   -0.071731    0.847200
  O     -1.133278    0.691798    1.664038
  C      0.974935   -0.281835   -1.328217
  O      1.120108    0.149289   -2.703914
  C      2.557306    0.098316   -2.609504
  C      2.502001   -0.083787   -1.076967
  C      2.954066    1.130458   -0.273664
  H     -1.247305    0.887572   -2.360340
  H     -1.816456   -0.505037   -1.428413
  H     -2.150667    1.146063   -0.863466
  H      0.253933    1.546071   -0.459264
  H     -0.600477   -1.118868    0.772360
  H      0.696907   -0.083021    1.377270
  H     -2.018789    0.624507    1.294774
  H      0.705028   -1.351335   -1.304885
  H      2.972517   -0.755311   -3.162259
  H      3.025022    1.020960   -2.974294
  H      3.003112   -0.983218   -0.709974
  H      2.494701    2.052254   -0.644012
  H      2.710760    1.034753    0.789069
  H      4.040215    1.248791   -0.353345

 Total Charge           Charge          ....    0
 Multiplicity           Mult            ....    1
 Number of Electrons    NEL             ....   72
 Basis Dimension        Dim             ....  363

ORBITAL ENERGIES
----------------

  NO   OCC          E(Eh)            E(eV)
   0   2.0000     -20.555855      -559.3532
   1   2.0000     -20.546146      -559.0891
   2   2.0000     -11.282413      -307.0101
   3   2.0000     -11.276132      -306.8391
   4   2.0000     -11.276067      -306.8374
   5   2.0000     -11.237628      -305.7914
   6   2.0000     -11.227574      -305.5178
   7   2.0000     -11.223013      -305.3937
   8   2.0000     -11.214930      -305.1738
   9   2.0000      -1.377562       -37.4854
  10   2.0000      -1.360466       -37.0202
  11   2.0000      -1.079601       -29.3774
  12   2.0000      -1.047656       -28.5082
  13   2.0000      -0.930180       -25.3115
  14   2.0000      -0.918551       -24.9950
  15   2.0000      -0.909436       -24.7470
  16   2.0000      -0.806362       -21.9422
  17   2.0000      -0.738115       -20.0851
  18   2.0000      -0.702230       -19.1086
  19   2.0000      -0.680472       -18.5166
  20   2.0000      -0.657937       -17.9034
  21   2.0000      -0.628007       -17.0889
  22   2.0000      -0.606763       -16.5108
  23   2.0000      -0.582380       -15.8474
  24   2.0000      -0.577871       -15.7247
  25   2.0000      -0.560914       -15.2632
  26   2.0000      -0.559092       -15.2137
  27   2.0000      -0.536324       -14.5941
  28   2.0000      -0.521916       -14.2021
  29   2.0000      -0.513705       -13.9786
  30   2.0000      -0.498473       -13.5641
  31   2.0000      -0.474143       -12.9021
  32   2.0000      -0.454468       -12.3667
  33   2.0000      -0.438916       -11.9435
  34   2.0000      -0.432053       -11.7568
  35   2.0000      -0.406452       -11.0601
  36   0.0000       0.134312         3.6548
  37   0.0000       0.140683         3.8282
  38   0.0000       0.154321         4.1993
  39   0.0000       0.173803         4.7294
  40   0.0000       0.183443         4.9917

MULLIKEN ATOMIC CHARGES
-----------------------
   0 C :   -0.435275
   1 C :    0.012935
   2 C :   -0.073922
   3 O :   -0.468544
   4 C :   -0.000978
   5 O :   -0.327639
   6 C :   -0.035372
   7 C :   -0.033835
   8 C :   -0.457617
   9 H :    0.163190
  10 H :    0.123183
  11 H :    0.124368
  12 H :    0.074984
  13 H :    0.104411
  14 H :    0.114572
  15 H :    0.317504
  16 H :    0.074516
  17 H :    0.091348
  18 H :    0.099933
  19 H :    0.113814
  20 H :    0.145175
  21 H :    0.131432
  22 H :    0.141817
Sum of atomic charges:    0.0000000

LOEWDIN ATOMIC CHARGES
----------------------
   0 C :   -0.294861
   1 C :   -0.281023
   2 C :   -0.322441
   3 O :   -0.043150
   4 C :   -0.243471
   5 O :    0.134827
   6 C :   -0.254731
   7 C :   -0.242419
   8 C :   -0.298370
   9 H :    0.133590
  10 H :    0.124289
  11 H :    0.118321
  12 H :    0.156104
  13 H :    0.118203
  14 H :    0.128904
  15 H :    0.171519
  16 H :    0.138768
  17 H :    0.116301
  18 H :    0.118329
  19 H :    0.142874
  20 H :    0.127727
  21 H :    0.123751
  22 H :    0.126960

  Mayer bond orders larger than 0.1
B(  0-C ,  1-C ) :   0.8892 B(  0-C ,  9-H ) :   0.9337 B(  0-C , 10-H ) :   0.9308
B(  0-C , 11-H ) :   0.9408 B(  1-C ,  2-C ) :   0.9208 B(  1-C ,  4-C ) :   0.9116
B(  1-C , 12-H ) :   0.8978 B(  2-C ,  3-O ) :   0.9438 B(  2-C , 13-H ) :   0.9341
B(  2-C , 14-H ) :   0.9278 B(  3-O , 15-H ) :   0.8474 B(  4-C ,  5-O ) :   0.9435
B(  4-C ,  7-C ) :   0.9272 B(  4-C , 16-H ) :   0.9097 B(  5-O ,  6-C ) :   0.9476
B(  6-C ,  7-C ) :   0.9622 B(  6-C , 17-H ) :   0.9145 B(  6-C , 18-H ) :   0.9106
B(  7-C ,  8-C ) :   0.8924 B(  7-C , 19-H ) :   0.9235 B(  8-C , 20-H ) :   0.9410
B(  8-C , 21-H ) :   0.9344 B(  8-C , 22-H ) :   0.9333

MP2 TOTAL ENERGY:     -424.705291761 Eh
FINAL SINGLE POINT ENERGY      -424.705291760928

DIPOLE MOMENT
-------------
                                X             Y             Z
Electronic contribution:     -0.99740      -0.80562      -1.03734
Nuclear contribution   :      1.31949       0.43951       1.00017
                        -----------------------------------------
Total Dipole Moment    :      0.32209      -0.36611      -0.03718
                        -----------------------------------------
Magnitude (a.u.)       :      0.48904
Magnitude (Debye)      :      1.24304

                             ****ORCA TERMINATED NORMALLY****
TOTAL RUN TIME: 0 days 0 hours 18 minutes 37 seconds 28 msec
