                         Program Version 3.0.3 - RELEASE   -
|  1> ! RI-MP2 RIJK def2-TZVP def2-TZVP/C def2-TZVP/JK TIGHTSCF
|  2> % maxcore 2000
|  3> % mp2 density relaxed end
|  4> *xyz 0 1
|  5>  C       -0.7323765547     0.6274270032     0.8668697542
|  6>  O       -0.1776643628    -0.6702379014     0.8830892366
|  7>  C        1.2447973970    -0.6825561429     0.8330964100
|  8>  C        1.7474423010    -2.1190447052     0.9344529701
|  9>  C        1.5334376506    -2.7697533601     2.2867752957
| 10>  C        0.1551902400    -3.2013513443     2.7644676039
| 11>  O       -0.9330317995    -3.1279898271     1.8910089430
| 12>  C        1.1685178561    -4.2466781277     2.3802567728
| 13>  O        0.9056734672    -4.9566030882     1.2116903137
| 14>  H       -0.4572406674     1.1668015557    -0.0512325220
| 15>  H       -1.8186218321     0.5209492668     0.9050708652
| 16>  H       -0.3984022833     1.2190328614     1.7320373387
| 17>  H        1.5770627293    -0.2274064630    -0.1133895140
| 18>  H        1.6468172851    -0.0679781695     1.6551202879
| 19>  H        1.2783284888    -2.7204641350     0.1507603404
| 20>  H        2.8209709608    -2.1116117532     0.7098828696
| 21>  H        2.1854050249    -2.4006900227     3.0756630477
| 22>  H       -0.0952522230    -3.0531734542     3.8137593083
| 23>  H       -0.9148053568    -2.2435456449     1.4861883102
| 24>  H        1.6428156829    -4.8527043546     3.1470126547
| 25>  H        0.0026821059    -4.7029176031     0.9633726032
| 26> *
| 27>
| 28>                          ****END OF INPUT****

CARTESIAN COORDINATES (ANGSTROEM)
---------------------------------
  C     -0.732377    0.627427    0.866870
  O     -0.177664   -0.670238    0.883089
  C      1.244797   -0.682556    0.833096
  C      1.747442   -2.119045    0.934453
  C      1.533438   -2.769753    2.286775
  C      0.155190   -3.201351    2.764468
  O     -0.933032   -3.127990    1.891009
  C      1.168518   -4.246678    2.380257
  O      0.905673   -4.956603    1.211690
  H     -0.457241    1.166802   -0.051233
  H     -1.818622    0.520949    0.905071
  H     -0.398402    1.219033    1.732037
  H      1.577063   -0.227406   -0.113390
  H      1.646817   -0.067978    1.655120
  H      1.278328   -2.720464    0.150760
  H      2.820971   -2.111612    0.709883
  H      2.185405   -2.400690    3.075663
  H     -0.095252   -3.053173    3.813759
  H     -0.914805   -2.243546    1.486188
  H      1.642816   -4.852704    3.147013
  H      0.002682   -4.702918    0.963373

 Total Charge           Charge          ....    0
 Multiplicity           Mult            ....    1
 Number of Electrons    NEL             ....   72
 Basis Dimension        Dim             ....  351

ORBITAL ENERGIES
----------------

  NO   OCC          E(Eh)            E(eV)
   0   2.0000     -20.577624      -559.9456
   1   2.0000     -20.551037      -559.2221
   2   2.0000     -20.544906      -559.0553
   3   2.0000     -11.287993      -307.1619
   4   2.0000     -11.286522      -307.1219
   5   2.0000     -11.274747      -306.8015
   6   2.0000     -11.272363      -306.7366
   7   2.0000     -11.230196      -305.5892
   8   2.0000     -11.228192      -305.5346
   9   2.0000      -1.397074       -38.0163
  10   2.0000      -1.378485       -37.5105
  11   2.0000      -1.341765       -36.5113
  12   2.0000      -1.117958       -30.4212
  13   2.0000      -1.033433       -28.1212
  14   2.0000      -0.936387       -25.4804
  15   2.0000      -0.869225       -23.6528
  16   2.0000      -0.809941       -22.0396
  17   2.0000      -0.775634       -21.1061
  18   2.0000      -0.712545       -19.3893
  19   2.0000      -0.691052       -18.8045
  20   2.0000      -0.683275       -18.5929
  21   2.0000      -0.671546       -18.2737
  22   2.0000      -0.651111       -17.7176
  23   2.0000      -0.634163       -17.2565
  24   2.0000      -0.587456       -15.9855
  25   2.0000      -0.570011       -15.5108
  26   2.0000      -0.562622       -15.3097
  27   2.0000      -0.545918       -14.8552
  28   2.0000      -0.537975       -14.6391
  29   2.0000      -0.511978       -13.9316
  30   2.0000      -0.500981       -13.6324
  31   2.0000      -0.492015       -13.3884
  32   2.0000      -0.477955       -13.0058
  33   2.0000      -0.443441       -12.0666
  34   2.0000      -0.394847       -10.7443
  35   2.0000      -0.371516       -10.1095
  36   0.0000       0.129919         3.5353
  37   0.0000       0.151821         4.1313
  38   0.0000       0.164420         4.4741
  39   0.0000       0.175422         4.7735
  40   0.0000       0.193801         5.2736

MULLIKEN ATOMIC CHARGES
-----------------------
   0 C :   -0.212559
   1 O :   -0.350173
   2 C :   -0.040000
   3 C :   -0.223933
   4 C :   -0.162871
   5 C :    0.027569
   6 O :   -0.525094
   7 C :    0.075228
   8 O :   -0.490772
   9 H :    0.120653
  10 H :    0.144174
  11 H :    0.119370
  12 H :    0.112549
  13 H :    0.096495
  14 H :    0.135479
  15 H :    0.128454
  16 H :    0.115915
  17 H :    0.110550
  18 H :    0.355426
  19 H :    0.120968
  20 H :    0.342570
Sum of atomic charges:   -0.0000000

LOEWDIN ATOMIC CHARGES
----------------------
   0 C :   -0.353214
   1 O :    0.119593
   2 C :   -0.313913
   3 C :   -0.249952
   4 C :   -0.210674
   5 C :   -0.316957
   6 O :   -0.011876
   7 C :   -0.303579
   8 O :   -0.002560
   9 H :    0.106400
  10 H :    0.115731
  11 H :    0.104545
  12 H :    0.122944
  13 H :    0.122033
  14 H :    0.149743
  15 H :    0.151113
  16 H :    0.148994
  17 H :    0.129569
  18 H :    0.174088
  19 H :    0.133311
  20 H :    0.184662

  Mayer bond orders larger than 0.1
B(  0-C ,  1-O ) :   0.8936 B(  0-C ,  9-H ) :   0.9355 B(  0-C , 10-H ) :   0.9379
B(  0-C , 11-H ) :   0.9363 B(  1-O ,  2-C ) :   0.8914 B(  2-C ,  3-C ) :   0.9468
B(  2-C , 12-H ) :   0.9293 B(  2-C , 13-H ) :   0.9236 B(  3-C ,  4-C ) :   0.9098
B(  3-C , 14-H ) :   0.9258 B(  3-C , 15-H ) :   0.9221 B(  4-C ,  5-C ) :   0.8812
B(  4-C ,  7-C ) :   0.8467 B(  4-C , 16-H ) :   0.9057 B(  5-C ,  6-O ) :   0.9469
B(  5-C ,  7-C ) :   0.8838 B(  5-C , 17-H ) :   0.9551 B(  6-O , 18-H ) :   0.7879
B(  7-C ,  8-O ) :   0.9791 B(  7-C , 19-H ) :   0.9468 B(  8-O , 20-H ) :   0.8075

MP2 TOTAL ENERGY:     -460.598417404 Eh
FINAL SINGLE POINT ENERGY      -460.598417403670

DIPOLE MOMENT
-------------
                                X             Y             Z
Electronic contribution:     -1.14589      -6.40132       0.97612
Nuclear contribution   :      1.38530       7.98748      -0.84687
                        -----------------------------------------
Total Dipole Moment    :      0.23941       1.58616       0.12925
                        -----------------------------------------
Magnitude (a.u.)       :      1.60933
Magnitude (Debye)      :      4.09059

                             ****ORCA TERMINATED NORMALLY****
TOTAL RUN TIME: 0 days 0 hours 15 minutes 58 seconds 138 msec
