                         Program Version 3.0.3 - RELEASE   -
|  1> ! RI-MP2 RIJK def2-TZVP def2-TZVP/C def2-TZVP/JK TIGHTSCF
|  2> % maxcore 2000
|  3> % mp2 density relaxed end
|  4> *xyz 0 1
|  5>  C       -0.3717552105     0.9522078893     1.3028499185
|  6>  C        0.6017034459     1.2460193008     0.1923670729
|  7>  O        1.8585564173     0.6228461132     0.4602821468
|  8>  C        1.2434437862    -0.6930888075     0.4474019610
|  9>  C       -0.1474869344    -0.0960807287     0.2438423079
| 10>  N       -1.1621037727    -0.7455071214    -0.4840037084
| 11>  C       -1.0268690267    -1.0037190734    -1.9353316275
| 12>  C       -2.5623337658    -0.8552200766    -2.0602206465
| 13>  C       -2.5054399934    -0.1671570180    -0.6737032947
| 14>  H       -0.0119446221     0.8129732829     2.3206760714
| 15>  H       -1.3201523301     1.4762095462     1.2227525404
| 16>  H        0.5907556479     2.1226693951    -0.4445845787
| 17>  H        1.5985001348    -1.2723803904    -0.4132594306
| 18>  H        1.4236283300    -1.2543922387     1.3720905063
| 19>  H       -0.4802515883    -0.2058411042    -2.4620827752
| 20>  H       -0.5819416878    -1.9699108065    -2.1927694938
| 21>  H       -2.9378365397    -0.2602139038    -2.8925108712
| 22>  H       -3.0817429503    -1.8144510806    -2.0327261334
| 23>  H       -3.2419616035    -0.4568375044     0.0825672447
| 24>  H       -2.5062287968     0.9309144568    -0.7648692701
| 25> *
| 26>
| 27>                          ****END OF INPUT****

CARTESIAN COORDINATES (ANGSTROEM)
---------------------------------
  C     -0.371755    0.952208    1.302850
  C      0.601703    1.246019    0.192367
  O      1.858556    0.622846    0.460282
  C      1.243444   -0.693089    0.447402
  C     -0.147487   -0.096081    0.243842
  N     -1.162104   -0.745507   -0.484004
  C     -1.026869   -1.003719   -1.935332
  C     -2.562334   -0.855220   -2.060221
  C     -2.505440   -0.167157   -0.673703
  H     -0.011945    0.812973    2.320676
  H     -1.320152    1.476210    1.222753
  H      0.590756    2.122669   -0.444585
  H      1.598500   -1.272380   -0.413259
  H      1.423628   -1.254392    1.372091
  H     -0.480252   -0.205841   -2.462083
  H     -0.581942   -1.969911   -2.192769
  H     -2.937837   -0.260214   -2.892511
  H     -3.081743   -1.814451   -2.032726
  H     -3.241962   -0.456838    0.082567
  H     -2.506229    0.930914   -0.764869

 Total Charge           Charge          ....    0
 Multiplicity           Mult            ....    1
 Number of Electrons    NEL             ....   68
 Basis Dimension        Dim             ....  345

ORBITAL ENERGIES
----------------

  NO   OCC          E(Eh)            E(eV)
   0   2.0000     -20.548720      -559.1591
   1   2.0000     -15.555593      -423.2892
   2   2.0000     -11.279056      -306.9187
   3   2.0000     -11.276774      -306.8566
   4   2.0000     -11.268222      -306.6239
   5   2.0000     -11.260419      -306.4116
   6   2.0000     -11.257322      -306.3273
   7   2.0000     -11.231153      -305.6152
   8   2.0000     -11.230238      -305.5903
   9   2.0000      -1.386756       -37.7355
  10   2.0000      -1.258214       -34.2378
  11   2.0000      -1.111356       -30.2415
  12   2.0000      -0.999108       -27.1871
  13   2.0000      -0.936943       -25.4955
  14   2.0000      -0.920562       -25.0498
  15   2.0000      -0.821009       -22.3408
  16   2.0000      -0.791224       -21.5303
  17   2.0000      -0.734912       -19.9980
  18   2.0000      -0.717138       -19.5143
  19   2.0000      -0.673198       -18.3187
  20   2.0000      -0.646397       -17.5894
  21   2.0000      -0.638197       -17.3662
  22   2.0000      -0.572012       -15.5652
  23   2.0000      -0.563106       -15.3229
  24   2.0000      -0.554621       -15.0920
  25   2.0000      -0.549814       -14.9612
  26   2.0000      -0.536178       -14.5901
  27   2.0000      -0.525338       -14.2952
  28   2.0000      -0.487824       -13.2744
  29   2.0000      -0.468467       -12.7476
  30   2.0000      -0.458463       -12.4754
  31   2.0000      -0.424369       -11.5477
  32   2.0000      -0.395972       -10.7750
  33   2.0000      -0.326772        -8.8919
  34   0.0000       0.135559         3.6887
  35   0.0000       0.156473         4.2578
  36   0.0000       0.160495         4.3673
  37   0.0000       0.166013         4.5174
  38   0.0000       0.187122         5.0918

MULLIKEN ATOMIC CHARGES
-----------------------
   0 C :   -0.243662
   1 C :    0.016786
   2 O :   -0.331127
   3 C :    0.006997
   4 C :   -0.089550
   5 N :   -0.092487
   6 C :   -0.154350
   7 C :   -0.217761
   8 C :   -0.168503
   9 H :    0.132414
  10 H :    0.130964
  11 H :    0.131017
  12 H :    0.100801
  13 H :    0.105822
  14 H :    0.097389
  15 H :    0.117984
  16 H :    0.123865
  17 H :    0.119809
  18 H :    0.121906
  19 H :    0.091687
Sum of atomic charges:    0.0000000

LOEWDIN ATOMIC CHARGES
----------------------
   0 C :   -0.189701
   1 C :   -0.243620
   2 O :    0.141573
   3 C :   -0.214873
   4 C :   -0.291300
   5 N :    0.140131
   6 C :   -0.242318
   7 C :   -0.240664
   8 C :   -0.247174
   9 H :    0.134170
  10 H :    0.143224
  11 H :    0.127568
  12 H :    0.125653
  13 H :    0.119814
  14 H :    0.120242
  15 H :    0.118671
  16 H :    0.125324
  17 H :    0.134049
  18 H :    0.120417
  19 H :    0.118814

  Mayer bond orders larger than 0.1
B(  0-C ,  1-C ) :   0.8581 B(  0-C ,  4-C ) :   0.8810 B(  0-C ,  9-H ) :   0.9072
B(  0-C , 10-H ) :   0.9204 B(  1-C ,  2-O ) :   0.9556 B(  1-C ,  4-C ) :   0.8960
B(  1-C , 11-H ) :   0.9074 B(  2-O ,  3-C ) :   0.9376 B(  3-C ,  4-C ) :   0.9754
B(  3-C , 12-H ) :   0.9091 B(  3-C , 13-H ) :   0.9117 B(  4-C ,  5-N ) :   1.0721
B(  5-N ,  6-C ) :   0.8998 B(  5-N ,  8-C ) :   0.9036 B(  6-C ,  7-C ) :   0.9490
B(  6-C , 14-H ) :   0.9106 B(  6-C , 15-H ) :   0.9272 B(  7-C ,  8-C ) :   0.9498
B(  7-C , 16-H ) :   0.9323 B(  7-C , 17-H ) :   0.9217 B(  8-C , 18-H ) :   0.9252
B(  8-C , 19-H ) :   0.9125

MP2 TOTAL ENERGY:     -402.370022853 Eh
FINAL SINGLE POINT ENERGY      -402.370022853234

DIPOLE MOMENT
-------------
                                X             Y             Z
Electronic contribution:      4.52834       0.89079       2.45570
Nuclear contribution   :     -5.37756      -0.96007      -2.88514
                        -----------------------------------------
Total Dipole Moment    :     -0.84922      -0.06928      -0.42944
                        -----------------------------------------
Magnitude (a.u.)       :      0.95415
Magnitude (Debye)      :      2.42525

                             ****ORCA TERMINATED NORMALLY****
TOTAL RUN TIME: 0 days 0 hours 16 minutes 58 seconds 118 msec
