                         Program Version 3.0.3 - RELEASE   -
|  1> ! RI-MP2 RIJK def2-TZVP def2-TZVP/C def2-TZVP/JK TIGHTSCF
|  2> % maxcore 2000
|  3> % mp2 density relaxed end
|  4> *xyz 0 1
|  5>  C       -0.0252429605     1.5000235814     0.0632432387
|  6>  C        0.0024511414    -0.0151980540     0.0119384160
|  7>  O        0.6627239925    -0.4768916696     1.1998177794
|  8>  C        0.7770305711    -1.8160827691     1.3213707582
|  9>  C        1.3775377169    -2.4572529183     2.3852122380
| 10>  O        1.9756436967    -2.0320882837     3.5157196450
| 11>  N        1.2584302469    -3.7654679465     2.0785107810
| 12>  N        0.6228035574    -3.9416616426     0.8958471405
| 13>  N        0.3348952346    -2.7440682876     0.4452091886
| 14>  H        0.9892926641     1.9072013700     0.1003781897
| 15>  H       -0.5222564821     1.8927324489    -0.8285179253
| 16>  H       -0.5703756987     1.8501543477     0.9445419124
| 17>  H       -1.0079821945    -0.4386341919    -0.0274300432
| 18>  H        0.5439705668    -0.3817689480    -0.8679728074
| 19>  H        1.9423815247    -1.0680657532     3.5170810067
| 20>  H        1.5749900527    -4.5613117735     2.6085810918
| 21> *
| 22>
| 23>                          ****END OF INPUT****

CARTESIAN COORDINATES (ANGSTROEM)
---------------------------------
  C     -0.025243    1.500024    0.063243
  C      0.002451   -0.015198    0.011938
  O      0.662724   -0.476892    1.199818
  C      0.777031   -1.816083    1.321371
  C      1.377538   -2.457253    2.385212
  O      1.975644   -2.032088    3.515720
  N      1.258430   -3.765468    2.078511
  N      0.622804   -3.941662    0.895847
  N      0.334895   -2.744068    0.445209
  H      0.989293    1.907201    0.100378
  H     -0.522256    1.892732   -0.828518
  H     -0.570376    1.850154    0.944542
  H     -1.007982   -0.438634   -0.027430
  H      0.543971   -0.381769   -0.867973
  H      1.942382   -1.068066    3.517081
  H      1.574990   -4.561312    2.608581

 Total Charge           Charge          ....    0
 Multiplicity           Mult            ....    1
 Number of Electrons    NEL             ....   68
 Basis Dimension        Dim             ....  321

ORBITAL ENERGIES
----------------

  NO   OCC          E(Eh)            E(eV)
   0   2.0000     -20.623441      -561.1924
   1   2.0000     -20.589106      -560.2580
   2   2.0000     -15.656768      -426.0423
   3   2.0000     -15.632666      -425.3865
   4   2.0000     -15.597649      -424.4336
   5   2.0000     -11.344708      -308.7052
   6   2.0000     -11.308137      -307.7101
   7   2.0000     -11.286885      -307.1317
   8   2.0000     -11.224170      -305.4252
   9   2.0000      -1.463127       -39.8137
  10   2.0000      -1.422911       -38.7194
  11   2.0000      -1.404373       -38.2149
  12   2.0000      -1.198916       -32.6242
  13   2.0000      -1.076495       -29.2929
  14   2.0000      -1.020706       -27.7748
  15   2.0000      -0.894407       -24.3381
  16   2.0000      -0.862713       -23.4756
  17   2.0000      -0.831625       -22.6297
  18   2.0000      -0.771945       -21.0057
  19   2.0000      -0.721309       -19.6278
  20   2.0000      -0.693807       -18.8795
  21   2.0000      -0.689165       -18.7531
  22   2.0000      -0.652539       -17.7565
  23   2.0000      -0.620067       -16.8729
  24   2.0000      -0.582596       -15.8533
  25   2.0000      -0.581602       -15.8262
  26   2.0000      -0.556659       -15.1475
  27   2.0000      -0.545915       -14.8551
  28   2.0000      -0.520675       -14.1683
  29   2.0000      -0.512387       -13.9428
  30   2.0000      -0.484068       -13.1722
  31   2.0000      -0.438008       -11.9188
  32   2.0000      -0.413231       -11.2446
  33   2.0000      -0.315448        -8.5838
  34   0.0000       0.126322         3.4374
  35   0.0000       0.140526         3.8239
  36   0.0000       0.145997         3.9728
  37   0.0000       0.147057         4.0016
  38   0.0000       0.188376         5.1260

MULLIKEN ATOMIC CHARGES
-----------------------
   0 C :   -0.361413
   1 C :   -0.048676
   2 O :   -0.321500
   3 C :    0.204928
   4 C :    0.136341
   5 O :   -0.425648
   6 N :   -0.076842
   7 N :   -0.185928
   8 N :   -0.180776
   9 H :    0.130025
  10 H :    0.132777
  11 H :    0.130045
  12 H :    0.120959
  13 H :    0.120860
  14 H :    0.356299
  15 H :    0.268548
Sum of atomic charges:   -0.0000000

LOEWDIN ATOMIC CHARGES
----------------------
   0 C :   -0.316424
   1 C :   -0.310646
   2 O :    0.222993
   3 C :   -0.408107
   4 C :   -0.375655
   5 O :    0.076907
   6 N :    0.138463
   7 N :   -0.068798
   8 N :    0.003521
   9 H :    0.124043
  10 H :    0.128856
  11 H :    0.124046
  12 H :    0.127896
  13 H :    0.127878
  14 H :    0.210467
  15 H :    0.194560

  Mayer bond orders larger than 0.1
B(  0-C ,  1-C ) :   0.9362 B(  0-C ,  9-H ) :   0.9343 B(  0-C , 10-H ) :   0.9350
B(  0-C , 11-H ) :   0.9343 B(  1-C ,  2-O ) :   0.8389 B(  1-C , 12-H ) :   0.9306
B(  1-C , 13-H ) :   0.9306 B(  2-O ,  3-C ) :   1.0641 B(  3-C ,  4-C ) :   1.3151
B(  3-C ,  8-N ) :   1.3356 B(  4-C ,  5-O ) :   1.1466 B(  4-C ,  6-N ) :   1.2118
B(  4-C ,  7-N ) :   0.1630 B(  5-O , 14-H ) :   0.8153 B(  6-N ,  7-N ) :   1.0198
B(  6-N , 15-H ) :   0.8589 B(  7-N ,  8-N ) :   1.2412

MP2 TOTAL ENERGY:     -470.440871638 Eh
FINAL SINGLE POINT ENERGY      -470.440871637598

DIPOLE MOMENT
-------------
                                X             Y             Z
Electronic contribution:      2.83159      -9.67884       4.57807
Nuclear contribution   :     -2.39681      10.46576      -3.72664
                        -----------------------------------------
Total Dipole Moment    :      0.43478       0.78692       0.85143
                        -----------------------------------------
Magnitude (a.u.)       :      1.23823
Magnitude (Debye)      :      3.14733

                             ****ORCA TERMINATED NORMALLY****
TOTAL RUN TIME: 0 days 0 hours 14 minutes 22 seconds 280 msec
