                         Program Version 3.0.3 - RELEASE   -
|  1> ! RI-MP2 RIJK def2-TZVP def2-TZVP/C def2-TZVP/JK TIGHTSCF
|  2> % maxcore 2000
|  3> % mp2 density relaxed end
|  4> *xyz 0 1
|  5>  C        0.2699775212     1.6906340386    -0.3696815136
|  6>  C        0.0786397014     0.2665101086    -0.1404033406
|  7>  C       -0.0914659176    -0.9101080125     0.0464230302
|  8>  C       -0.2453178671    -2.3356895331     0.2735027921
|  9>  C        0.4592649440    -2.8743167249     1.5489853486
| 10>  O       -0.4228338140    -3.8738736022     2.0369949529
| 11>  C       -1.5479440756    -3.9317186076     1.1672879586
| 12>  C       -2.8158329846    -4.1819388209     1.9508481538
| 13>  O       -1.6087807625    -2.6860817831     0.5133527379
| 14>  H        1.2693013625     1.8938296572    -0.7698499632
| 15>  H       -0.4599707662     2.0756720886    -1.0899184755
| 16>  H        0.1593508923     2.2632228856     0.5574242462
| 17>  H        0.1211003645    -2.8931520754    -0.6043960691
| 18>  H        1.4424447484    -3.3002416823     1.3187412610
| 19>  H        0.5759210688    -2.0845663061     2.2987302387
| 20>  H       -1.3764956588    -4.7320030027     0.4216144713
| 21>  H       -2.9698593977    -3.3726643890     2.6683848014
| 22>  H       -3.6718426218    -4.2324161026     1.2730564138
| 23>  H       -2.7358509473    -5.1294928361     2.4893179155
| 24> *
| 25>
| 26>                          ****END OF INPUT****

CARTESIAN COORDINATES (ANGSTROEM)
---------------------------------
  C      0.269978    1.690634   -0.369682
  C      0.078640    0.266510   -0.140403
  C     -0.091466   -0.910108    0.046423
  C     -0.245318   -2.335690    0.273503
  C      0.459265   -2.874317    1.548985
  O     -0.422834   -3.873874    2.036995
  C     -1.547944   -3.931719    1.167288
  C     -2.815833   -4.181939    1.950848
  O     -1.608781   -2.686082    0.513353
  H      1.269301    1.893830   -0.769850
  H     -0.459971    2.075672   -1.089918
  H      0.159351    2.263223    0.557424
  H      0.121100   -2.893152   -0.604396
  H      1.442445   -3.300242    1.318741
  H      0.575921   -2.084566    2.298730
  H     -1.376496   -4.732003    0.421614
  H     -2.969859   -3.372664    2.668385
  H     -3.671843   -4.232416    1.273056
  H     -2.735851   -5.129493    2.489318

 Total Charge           Charge          ....    0
 Multiplicity           Mult            ....    1
 Number of Electrons    NEL             ....   68
 Basis Dimension        Dim             ....  339

ORBITAL ENERGIES
----------------

  NO   OCC          E(Eh)            E(eV)
   0   2.0000     -20.569531      -559.7254
   1   2.0000     -20.560511      -559.4800
   2   2.0000     -11.333436      -308.3985
   3   2.0000     -11.312802      -307.8370
   4   2.0000     -11.284823      -307.0756
   5   2.0000     -11.251553      -306.1703
   6   2.0000     -11.235237      -305.7263
   7   2.0000     -11.223063      -305.3951
   8   2.0000     -11.215954      -305.2016
   9   2.0000      -1.442170       -39.2434
  10   2.0000      -1.335106       -36.3301
  11   2.0000      -1.086886       -29.5757
  12   2.0000      -1.046744       -28.4833
  13   2.0000      -0.984043       -26.7772
  14   2.0000      -0.940117       -25.5819
  15   2.0000      -0.866672       -23.5833
  16   2.0000      -0.826527       -22.4909
  17   2.0000      -0.722378       -19.6569
  18   2.0000      -0.708173       -19.2704
  19   2.0000      -0.660826       -17.9820
  20   2.0000      -0.641934       -17.4679
  21   2.0000      -0.624601       -16.9963
  22   2.0000      -0.603814       -16.4306
  23   2.0000      -0.591884       -16.1060
  24   2.0000      -0.590971       -16.0811
  25   2.0000      -0.550093       -14.9688
  26   2.0000      -0.540663       -14.7122
  27   2.0000      -0.536653       -14.6031
  28   2.0000      -0.517928       -14.0936
  29   2.0000      -0.508066       -13.8252
  30   2.0000      -0.454361       -12.3638
  31   2.0000      -0.423669       -11.5286
  32   2.0000      -0.383501       -10.4356
  33   2.0000      -0.374126       -10.1805
  34   0.0000       0.135295         3.6816
  35   0.0000       0.146504         3.9866
  36   0.0000       0.160192         4.3590
  37   0.0000       0.173938         4.7331
  38   0.0000       0.179909         4.8956

MULLIKEN ATOMIC CHARGES
-----------------------
   0 C :   -0.476176
   1 C :    0.105239
   2 C :   -0.010775
   3 C :   -0.142562
   4 C :    0.004949
   5 O :   -0.316183
   6 C :    0.213210
   7 C :   -0.357183
   8 O :   -0.283321
   9 H :    0.163420
  10 H :    0.166533
  11 H :    0.164811
  12 H :    0.105972
  13 H :    0.100377
  14 H :    0.105227
  15 H :    0.058143
  16 H :    0.129884
  17 H :    0.133421
  18 H :    0.135014
Sum of atomic charges:    0.0000000

LOEWDIN ATOMIC CHARGES
----------------------
   0 C :   -0.290793
   1 C :   -0.084142
   2 C :   -0.061426
   3 C :   -0.304835
   4 C :   -0.267420
   5 O :    0.163054
   6 C :   -0.419979
   7 C :   -0.286570
   8 O :    0.207959
   9 H :    0.142692
  10 H :    0.143540
  11 H :    0.142175
  12 H :    0.152356
  13 H :    0.123612
  14 H :    0.127322
  15 H :    0.121909
  16 H :    0.129921
  17 H :    0.129907
  18 H :    0.130718

  Mayer bond orders larger than 0.1
B(  0-C ,  1-C ) :   0.8560 B(  0-C ,  9-H ) :   0.9471 B(  0-C , 10-H ) :   0.9444
B(  0-C , 11-H ) :   0.9437 B(  1-C ,  2-C ) :   2.6766 B(  1-C ,  3-C ) :  -0.1281
B(  2-C ,  3-C ) :   1.0870 B(  3-C ,  4-C ) :   0.9706 B(  3-C ,  8-O ) :   1.0348
B(  3-C , 12-H ) :   0.9239 B(  4-C ,  5-O ) :   0.9522 B(  4-C , 13-H ) :   0.9069
B(  4-C , 14-H ) :   0.9215 B(  5-O ,  6-C ) :   0.9563 B(  6-C ,  7-C ) :   0.9139
B(  6-C ,  8-O ) :   0.9761 B(  6-C , 15-H ) :   0.9253 B(  7-C , 16-H ) :   0.9323
B(  7-C , 17-H ) :   0.9329 B(  7-C , 18-H ) :   0.9335

MP2 TOTAL ENERGY:     -422.290141195 Eh
FINAL SINGLE POINT ENERGY      -422.290141195209

DIPOLE MOMENT
-------------
                                X             Y             Z
Electronic contribution:      1.07631      -1.52910      -0.68558
Nuclear contribution   :     -0.71548       1.89466       0.37200
                        -----------------------------------------
Total Dipole Moment    :      0.36084       0.36556      -0.31358
                        -----------------------------------------
Magnitude (a.u.)       :      0.60180
Magnitude (Debye)      :      1.52966

                             ****ORCA TERMINATED NORMALLY****
TOTAL RUN TIME: 0 days 0 hours 17 minutes 24 seconds 14 msec
