                         Program Version 3.0.3 - RELEASE   -
|  1> ! RI-MP2 RIJK def2-TZVP def2-TZVP/C def2-TZVP/JK TIGHTSCF
|  2> % maxcore 2000
|  3> % mp2 density relaxed end
|  4> *xyz 0 1
|  5>  C       -0.0133107482     1.5264502946     0.0633222935
|  6>  C        0.0286361366     0.0075284562    -0.0116883452
|  7>  C        0.7104296899    -0.5172493564    -1.2825360949
|  8>  C        0.8301250545    -2.0475381067    -1.2468563779
|  9>  C        1.4855941768    -2.4941222478     0.0668823083
| 10>  C        0.7578635514    -1.8596419017     1.2536300433
| 11>  O        0.7136066105    -0.4470067773     1.1523028893
| 12>  H        1.0014691005     1.9364121828     0.0459538538
| 13>  H       -0.5692972607     1.9390556772    -0.7840719383
| 14>  H       -0.4964869284     1.8498063281     0.9891944470
| 15>  H       -1.0051078881    -0.3860198457     0.0135650538
| 16>  H        0.1459940562    -0.1910656173    -2.1639019695
| 17>  H        1.7092494125    -0.0664286719    -1.3510451805
| 18>  H       -0.1725038568    -2.4913158311    -1.3203354052
| 19>  H        1.3974003101    -2.4116128238    -2.1100621387
| 20>  H        1.4727848992    -3.5858553686     0.1643696968
| 21>  H        2.5353505022    -2.1759749552     0.0856949978
| 22>  H       -0.2678214069    -2.2651338502     1.3200582820
| 23>  H        1.2647995687    -2.0811261551     2.1978274345
| 24> *
| 25>
| 26>                          ****END OF INPUT****

CARTESIAN COORDINATES (ANGSTROEM)
---------------------------------
  C     -0.013311    1.526450    0.063322
  C      0.028636    0.007528   -0.011688
  C      0.710430   -0.517249   -1.282536
  C      0.830125   -2.047538   -1.246856
  C      1.485594   -2.494122    0.066882
  C      0.757864   -1.859642    1.253630
  O      0.713607   -0.447007    1.152303
  H      1.001469    1.936412    0.045954
  H     -0.569297    1.939056   -0.784072
  H     -0.496487    1.849806    0.989194
  H     -1.005108   -0.386020    0.013565
  H      0.145994   -0.191066   -2.163902
  H      1.709249   -0.066429   -1.351045
  H     -0.172504   -2.491316   -1.320335
  H      1.397400   -2.411613   -2.110062
  H      1.472785   -3.585855    0.164370
  H      2.535351   -2.175975    0.085695
  H     -0.267821   -2.265134    1.320058
  H      1.264800   -2.081126    2.197827

 Total Charge           Charge          ....    0
 Multiplicity           Mult            ....    1
 Number of Electrons    NEL             ....   56
 Basis Dimension        Dim             ....  289

ORBITAL ENERGIES
----------------

  NO   OCC          E(Eh)            E(eV)
   0   2.0000     -20.543967      -559.0298
   1   2.0000     -11.272825      -306.7492
   2   2.0000     -11.267088      -306.5930
   3   2.0000     -11.221414      -305.3502
   4   2.0000     -11.218202      -305.2628
   5   2.0000     -11.217126      -305.2335
   6   2.0000     -11.208483      -304.9983
   7   2.0000      -1.367323       -37.2068
   8   2.0000      -1.073635       -29.2151
   9   2.0000      -1.046796       -28.4848
  10   2.0000      -0.942687       -25.6518
  11   2.0000      -0.867138       -23.5960
  12   2.0000      -0.823024       -22.3956
  13   2.0000      -0.766935       -20.8694
  14   2.0000      -0.657920       -17.9029
  15   2.0000      -0.648210       -17.6387
  16   2.0000      -0.618429       -16.8283
  17   2.0000      -0.610214       -16.6048
  18   2.0000      -0.584008       -15.8917
  19   2.0000      -0.542912       -14.7734
  20   2.0000      -0.536214       -14.5911
  21   2.0000      -0.522207       -14.2100
  22   2.0000      -0.518150       -14.0996
  23   2.0000      -0.481420       -13.1001
  24   2.0000      -0.477664       -12.9979
  25   2.0000      -0.453560       -12.3420
  26   2.0000      -0.442816       -12.0496
  27   2.0000      -0.399169       -10.8619
  28   0.0000       0.139229         3.7886
  29   0.0000       0.157000         4.2722
  30   0.0000       0.159133         4.3302
  31   0.0000       0.175355         4.7717
  32   0.0000       0.203119         5.5272

MULLIKEN ATOMIC CHARGES
-----------------------
   0 C :   -0.366213
   1 C :    0.051547
   2 C :   -0.219763
   3 C :   -0.201218
   4 C :   -0.208880
   5 C :   -0.084044
   6 O :   -0.303488
   7 H :    0.125819
   8 H :    0.120003
   9 H :    0.137220
  10 H :    0.066794
  11 H :    0.117468
  12 H :    0.103745
  13 H :    0.104889
  14 H :    0.122609
  15 H :    0.116038
  16 H :    0.103743
  17 H :    0.089330
  18 H :    0.124402
Sum of atomic charges:    0.0000000

LOEWDIN ATOMIC CHARGES
----------------------
   0 C :   -0.292229
   1 C :   -0.349904
   2 C :   -0.250129
   3 C :   -0.269441
   4 C :   -0.274426
   5 C :   -0.321613
   6 O :    0.171689
   7 H :    0.125920
   8 H :    0.125077
   9 H :    0.126078
  10 H :    0.134192
  11 H :    0.139214
  12 H :    0.141004
  13 H :    0.136789
  14 H :    0.134964
  15 H :    0.137340
  16 H :    0.138434
  17 H :    0.118922
  18 H :    0.128119

  Mayer bond orders larger than 0.1
B(  0-C ,  1-C ) :   0.9151 B(  0-C ,  7-H ) :   0.9365 B(  0-C ,  8-H ) :   0.9345
B(  0-C ,  9-H ) :   0.9400 B(  1-C ,  2-C ) :   0.9293 B(  1-C ,  6-O ) :   0.9428
B(  1-C , 10-H ) :   0.9341 B(  2-C ,  3-C ) :   0.9227 B(  2-C , 11-H ) :   0.9242
B(  2-C , 12-H ) :   0.9201 B(  3-C ,  4-C ) :   0.9271 B(  3-C , 13-H ) :   0.9350
B(  3-C , 14-H ) :   0.9334 B(  4-C ,  5-C ) :   0.9394 B(  4-C , 15-H ) :   0.9251
B(  4-C , 16-H ) :   0.9227 B(  5-C ,  6-O ) :   0.9386 B(  5-C , 17-H ) :   0.9378
B(  5-C , 18-H ) :   0.9308

MP2 TOTAL ENERGY:     -310.407139055 Eh
FINAL SINGLE POINT ENERGY      -310.407139055225

DIPOLE MOMENT
-------------
                                X             Y             Z
Electronic contribution:      0.47926      -0.21413       2.49168
Nuclear contribution   :     -0.62424      -0.11171      -2.89571
                        -----------------------------------------
Total Dipole Moment    :     -0.14498      -0.32584      -0.40403
                        -----------------------------------------
Magnitude (a.u.)       :      0.53892
Magnitude (Debye)      :      1.36983

                             ****ORCA TERMINATED NORMALLY****
TOTAL RUN TIME: 0 days 0 hours 9 minutes 53 seconds 161 msec
