                         Program Version 3.0.3 - RELEASE   -
|  1> ! RI-MP2 RIJK def2-TZVP def2-TZVP/C def2-TZVP/JK TIGHTSCF
|  2> % maxcore 2000
|  3> % mp2 density relaxed end
|  4> *xyz 0 1
|  5>  O       -0.0697082214     1.2822448785     0.2162577505
|  6>  C        0.0050979829    -0.0329151289     0.0507052374
|  7>  N        1.1519591327    -0.6162537503    -0.0555694819
|  8>  C        1.1489157317    -1.9818086430    -0.2250730775
|  9>  N        0.1075294632    -2.7458949326    -0.2891577358
| 10>  N       -1.0810599384    -2.1033377691    -0.1741653871
| 11>  C       -1.2903428687    -0.7408665590     0.0009916403
| 12>  N       -2.4060247231    -0.1263064190     0.1100259351
| 13>  H        0.8434905037     1.6083579810     0.2297990345
| 14>  H        2.1139118296    -2.4652072696    -0.3136579313
| 15>  H       -1.8843255285    -2.7120013899    -0.2261217833
| 16>  H       -3.1979876037    -0.7700530981     0.0533956291
| 17> *
| 18>
| 19>                          ****END OF INPUT****

CARTESIAN COORDINATES (ANGSTROEM)
---------------------------------
  O     -0.069708    1.282245    0.216258
  C      0.005098   -0.032915    0.050705
  N      1.151959   -0.616254   -0.055569
  C      1.148916   -1.981809   -0.225073
  N      0.107529   -2.745895   -0.289158
  N     -1.081060   -2.103338   -0.174165
  C     -1.290343   -0.740867    0.000992
  N     -2.406025   -0.126306    0.110026
  H      0.843491    1.608358    0.229799
  H      2.113912   -2.465207   -0.313658
  H     -1.884326   -2.712001   -0.226122
  H     -3.197988   -0.770053    0.053396

 Total Charge           Charge          ....    0
 Multiplicity           Mult            ....    1
 Number of Electrons    NEL             ....   58
 Basis Dimension        Dim             ....  272

ORBITAL ENERGIES
----------------

  NO   OCC          E(Eh)            E(eV)
   0   2.0000     -20.625728      -561.2546
   1   2.0000     -15.644155      -425.6991
   2   2.0000     -15.622272      -425.1036
   3   2.0000     -15.588542      -424.1858
   4   2.0000     -15.546561      -423.0434
   5   2.0000     -11.387234      -309.8624
   6   2.0000     -11.350617      -308.8660
   7   2.0000     -11.316125      -307.9274
   8   2.0000      -1.465712       -39.8840
   9   2.0000      -1.384754       -37.6811
  10   2.0000      -1.256579       -34.1933
  11   2.0000      -1.226290       -33.3690
  12   2.0000      -1.106976       -30.1224
  13   2.0000      -0.957134       -26.0449
  14   2.0000      -0.901952       -24.5434
  15   2.0000      -0.814447       -22.1622
  16   2.0000      -0.775750       -21.1092
  17   2.0000      -0.714460       -19.4414
  18   2.0000      -0.663290       -18.0490
  19   2.0000      -0.662381       -18.0243
  20   2.0000      -0.650170       -17.6920
  21   2.0000      -0.599932       -16.3250
  22   2.0000      -0.599574       -16.3152
  23   2.0000      -0.523154       -14.2358
  24   2.0000      -0.499383       -13.5889
  25   2.0000      -0.482398       -13.1267
  26   2.0000      -0.452623       -12.3165
  27   2.0000      -0.426707       -11.6113
  28   2.0000      -0.328084        -8.9276
  29   0.0000       0.077665         2.1134
  30   0.0000       0.126544         3.4434
  31   0.0000       0.141672         3.8551
  32   0.0000       0.142627         3.8811
  33   0.0000       0.178481         4.8567

MULLIKEN ATOMIC CHARGES
-----------------------
   0 O :   -0.349059
   1 C :    0.316704
   2 N :   -0.285275
   3 C :    0.028768
   4 N :   -0.173677
   5 N :   -0.147930
   6 C :    0.025964
   7 N :   -0.356295
   8 H :    0.341051
   9 H :    0.148811
  10 H :    0.253062
  11 H :    0.197876
Sum of atomic charges:   -0.0000000

LOEWDIN ATOMIC CHARGES
----------------------
   0 O :    0.149818
   1 C :   -0.340076
   2 N :    0.113981
   3 C :   -0.332818
   4 N :    0.047525
   5 N :    0.108183
   6 C :   -0.370399
   7 N :   -0.070682
   8 H :    0.207576
   9 H :    0.139192
  10 H :    0.191219
  11 H :    0.156481

  Mayer bond orders larger than 0.1
B(  0-O ,  1-C ) :   1.2344 B(  0-O ,  8-H ) :   0.8048 B(  1-C ,  2-N ) :   1.5939
B(  1-C ,  6-C ) :   0.9910 B(  2-N ,  3-C ) :   1.1552 B(  3-C ,  4-N ) :   1.6676
B(  3-C ,  9-H ) :   0.9311 B(  4-N ,  5-N ) :   0.9512 B(  5-N ,  6-C ) :   1.1153
B(  5-N , 10-H ) :   0.8710 B(  6-C ,  7-N ) :   1.9825 B(  7-N , 11-H ) :   0.8492

MP2 TOTAL ENERGY:     -410.181836859 Eh
FINAL SINGLE POINT ENERGY      -410.181836859450

DIPOLE MOMENT
-------------
                                X             Y             Z
Electronic contribution:      0.97852       0.29580       0.00810
Nuclear contribution   :     -0.78651      -0.86131      -0.08399
                        -----------------------------------------
Total Dipole Moment    :      0.19200      -0.56551      -0.07589
                        -----------------------------------------
Magnitude (a.u.)       :      0.60202
Magnitude (Debye)      :      1.53020

                             ****ORCA TERMINATED NORMALLY****
TOTAL RUN TIME: 0 days 0 hours 10 minutes 2 seconds 567 msec
