                         Program Version 3.0.3 - RELEASE   -
|  1> ! RI-MP2 RIJK def2-TZVP def2-TZVP/C def2-TZVP/JK TIGHTSCF
|  2> % maxcore 2000
|  3> % mp2 density relaxed end
|  4> *xyz 0 1
|  5>  O        0.1872478289     0.5089389126     0.9274771255
|  6>  C       -0.2690046697     0.2490247011    -0.3882134040
|  7>  C       -1.5886638394    -0.4981650895    -0.4091989270
|  8>  C       -1.8068445106    -1.5969335541    -1.4339625708
|  9>  C       -1.6122868519    -1.9413719172     0.0214861652
| 10>  O       -0.3605165460    -2.4421018236     0.4385937791
| 11>  C       -2.7768156146    -2.4552158413     0.8179776208
| 12>  C       -2.7692236505    -3.8243308130     1.3902160834
| 13>  N       -2.6521062532    -2.6449906428     2.2682708804
| 14>  H        0.3712744330    -0.3523151213     1.3191404662
| 15>  H       -0.3878958858     1.2252932667    -0.8697815450
| 16>  H        0.4804444438    -0.3114676422    -0.9644737664
| 17>  H       -2.4543576602     0.0912015731    -0.1208223812
| 18>  H       -2.7911211928    -1.7313757269    -1.8696096244
| 19>  H       -0.9812025680    -1.8066397944    -2.1071641984
| 20>  H       -0.2109618954    -3.2946498419     0.0166328028
| 21>  H       -3.7308668194    -2.0311812419     0.5107034801
| 22>  H       -3.6965104473    -4.3822588040     1.4838235607
| 23>  H       -1.8858546152    -4.4394224340     1.2397575251
| 24>  H       -1.6723046459    -2.5288934354     2.5211428781
| 25> *
| 26>
| 27>                          ****END OF INPUT****

CARTESIAN COORDINATES (ANGSTROEM)
---------------------------------
  O      0.187248    0.508939    0.927477
  C     -0.269005    0.249025   -0.388213
  C     -1.588664   -0.498165   -0.409199
  C     -1.806845   -1.596934   -1.433963
  C     -1.612287   -1.941372    0.021486
  O     -0.360517   -2.442102    0.438594
  C     -2.776816   -2.455216    0.817978
  C     -2.769224   -3.824331    1.390216
  N     -2.652106   -2.644991    2.268271
  H      0.371274   -0.352315    1.319140
  H     -0.387896    1.225293   -0.869782
  H      0.480444   -0.311468   -0.964474
  H     -2.454358    0.091202   -0.120822
  H     -2.791121   -1.731376   -1.869610
  H     -0.981203   -1.806640   -2.107164
  H     -0.210962   -3.294650    0.016633
  H     -3.730867   -2.031181    0.510703
  H     -3.696510   -4.382259    1.483824
  H     -1.885855   -4.439422    1.239758
  H     -1.672305   -2.528893    2.521143

 Total Charge           Charge          ....    0
 Multiplicity           Mult            ....    1
 Number of Electrons    NEL             ....   70
 Basis Dimension        Dim             ....  345

ORBITAL ENERGIES
----------------

  NO   OCC          E(Eh)            E(eV)
   0   2.0000     -20.586940      -560.1991
   1   2.0000     -20.545312      -559.0664
   2   2.0000     -15.557098      -423.3301
   3   2.0000     -11.304379      -307.6078
   4   2.0000     -11.275360      -306.8181
   5   2.0000     -11.267532      -306.6051
   6   2.0000     -11.258377      -306.3560
   7   2.0000     -11.242365      -305.9203
   8   2.0000     -11.238736      -305.8216
   9   2.0000      -1.398141       -38.0454
  10   2.0000      -1.351162       -36.7670
  11   2.0000      -1.261842       -34.3365
  12   2.0000      -1.149984       -31.2927
  13   2.0000      -0.953926       -25.9576
  14   2.0000      -0.904884       -24.6231
  15   2.0000      -0.877156       -23.8686
  16   2.0000      -0.816080       -22.2067
  17   2.0000      -0.787198       -21.4208
  18   2.0000      -0.731603       -19.9079
  19   2.0000      -0.691072       -18.8050
  20   2.0000      -0.679044       -18.4777
  21   2.0000      -0.656372       -17.8608
  22   2.0000      -0.622969       -16.9519
  23   2.0000      -0.605916       -16.4878
  24   2.0000      -0.592593       -16.1253
  25   2.0000      -0.555962       -15.1285
  26   2.0000      -0.552225       -15.0268
  27   2.0000      -0.522145       -14.2083
  28   2.0000      -0.502686       -13.6788
  29   2.0000      -0.501486       -13.6461
  30   2.0000      -0.487502       -13.2656
  31   2.0000      -0.441160       -12.0046
  32   2.0000      -0.428484       -11.6596
  33   2.0000      -0.419417       -11.4129
  34   2.0000      -0.374912       -10.2019
  35   0.0000       0.120951         3.2912
  36   0.0000       0.148976         4.0539
  37   0.0000       0.155900         4.2423
  38   0.0000       0.167734         4.5643
  39   0.0000       0.187296         5.0966

MULLIKEN ATOMIC CHARGES
-----------------------
   0 O :   -0.479187
   1 C :   -0.014278
   2 C :   -0.122135
   3 C :   -0.352639
   4 C :    0.157873
   5 O :   -0.510338
   6 C :    0.005210
   7 C :   -0.204156
   8 N :   -0.358648
   9 H :    0.326176
  10 H :    0.119643
  11 H :    0.095111
  12 H :    0.131585
  13 H :    0.136124
  14 H :    0.144390
  15 H :    0.334610
  16 H :    0.134489
  17 H :    0.124306
  18 H :    0.104330
  19 H :    0.227535
Sum of atomic charges:    0.0000000

LOEWDIN ATOMIC CHARGES
----------------------
   0 O :   -0.045203
   1 C :   -0.329418
   2 C :   -0.192838
   3 C :   -0.187188
   4 C :   -0.340557
   5 O :    0.021899
   6 C :   -0.252095
   7 C :   -0.266560
   8 N :   -0.009864
   9 H :    0.175012
  10 H :    0.132233
  11 H :    0.121113
  12 H :    0.153743
  13 H :    0.137454
  14 H :    0.138880
  15 H :    0.183797
  16 H :    0.151150
  17 H :    0.124215
  18 H :    0.116000
  19 H :    0.168226

  Mayer bond orders larger than 0.1
B(  0-O ,  1-C ) :   0.9319 B(  0-O ,  9-H ) :   0.8393 B(  1-C ,  2-C ) :   0.9293
B(  1-C , 10-H ) :   0.9324 B(  1-C , 11-H ) :   0.9229 B(  2-C ,  3-C ) :   0.8743
B(  2-C ,  4-C ) :   0.8680 B(  2-C , 12-H ) :   0.9201 B(  3-C ,  4-C ) :   0.8868
B(  3-C , 13-H ) :   0.9166 B(  3-C , 14-H ) :   0.9175 B(  4-C ,  5-O ) :   0.9385
B(  4-C ,  6-C ) :   0.9335 B(  5-O , 15-H ) :   0.8358 B(  6-C ,  7-C ) :   0.9210
B(  6-C ,  8-N ) :   0.9368 B(  6-C , 16-H ) :   0.8954 B(  7-C ,  8-N ) :   0.9271
B(  7-C , 17-H ) :   0.9165 B(  7-C , 18-H ) :   0.9231 B(  8-N , 19-H ) :   0.8722

MP2 TOTAL ENERGY:     -439.519552907 Eh
FINAL SINGLE POINT ENERGY      -439.519552907370

DIPOLE MOMENT
-------------
                                X             Y             Z
Electronic contribution:      0.97590       0.59157       2.13189
Nuclear contribution   :     -0.93507      -1.67067      -3.27115
                        -----------------------------------------
Total Dipole Moment    :      0.04083      -1.07910      -1.13926
                        -----------------------------------------
Magnitude (a.u.)       :      1.56972
Magnitude (Debye)      :      3.98992

                             ****ORCA TERMINATED NORMALLY****
TOTAL RUN TIME: 0 days 0 hours 18 minutes 47 seconds 35 msec
