                         Program Version 3.0.3 - RELEASE   -
|  1> ! RI-MP2 RIJK def2-TZVP def2-TZVP/C def2-TZVP/JK TIGHTSCF
|  2> % maxcore 2000
|  3> % mp2 density relaxed end
|  4> *xyz 0 1
|  5>  O       -0.2210805914     1.3603577092     0.1334271531
|  6>  C       -0.0799264943    -0.0173217255    -0.0199634148
|  7>  C       -0.4909677984    -0.6978035409    -1.2987288096
|  8>  C       -1.2833656000    -0.9123740269    -0.0209204967
|  9>  C       -0.8713055861    -2.0034166501     1.0230219650
| 10>  O       -0.1388649291    -1.2008894522     1.9691174185
| 11>  C        0.8452551546    -0.7517937623     1.0192839470
| 12>  C        1.3265356758    -2.0837119278     0.4433367070
| 13>  C        0.2510098042    -2.8705673383     0.4476858875
| 14>  H        0.4602050969     1.7896530398    -0.3950181328
| 15>  H       -0.9680386091    -0.0515311890    -2.0302216887
| 16>  H        0.1051214605    -1.5017001885    -1.7142312543
| 17>  H       -2.2773245159    -0.4904585649     0.0566295437
| 18>  H       -1.7033930346    -2.5097096363     1.5091347239
| 19>  H        1.5752905420    -0.0969043374     1.4923849233
| 20>  H        2.3115341906    -2.2791418354     0.0424704646
| 21>  H        0.1355638444    -3.8680967437     0.0469538234
| 22> *
| 23>
| 24>                          ****END OF INPUT****

CARTESIAN COORDINATES (ANGSTROEM)
---------------------------------
  O     -0.221081    1.360358    0.133427
  C     -0.079926   -0.017322   -0.019963
  C     -0.490968   -0.697804   -1.298729
  C     -1.283366   -0.912374   -0.020920
  C     -0.871306   -2.003417    1.023022
  O     -0.138865   -1.200889    1.969117
  C      0.845255   -0.751794    1.019284
  C      1.326536   -2.083712    0.443337
  C      0.251010   -2.870567    0.447686
  H      0.460205    1.789653   -0.395018
  H     -0.968039   -0.051531   -2.030222
  H      0.105121   -1.501700   -1.714231
  H     -2.277325   -0.490459    0.056630
  H     -1.703393   -2.509710    1.509135
  H      1.575291   -0.096904    1.492385
  H      2.311534   -2.279142    0.042470
  H      0.135564   -3.868097    0.046954

 Total Charge           Charge          ....    0
 Multiplicity           Mult            ....    1
 Number of Electrons    NEL             ....   66
 Basis Dimension        Dim             ....  327

ORBITAL ENERGIES
----------------

  NO   OCC          E(Eh)            E(eV)
   0   2.0000     -20.567051      -559.6579
   1   2.0000     -20.549165      -559.1712
   2   2.0000     -11.292418      -307.2823
   3   2.0000     -11.290934      -307.2419
   4   2.0000     -11.288122      -307.1654
   5   2.0000     -11.235723      -305.7396
   6   2.0000     -11.235384      -305.7303
   7   2.0000     -11.233572      -305.6810
   8   2.0000     -11.231355      -305.6207
   9   2.0000      -1.396926       -38.0123
  10   2.0000      -1.369897       -37.2768
  11   2.0000      -1.144927       -31.1550
  12   2.0000      -1.064760       -28.9736
  13   2.0000      -0.986334       -26.8395
  14   2.0000      -0.881259       -23.9803
  15   2.0000      -0.790301       -21.5052
  16   2.0000      -0.787714       -21.4348
  17   2.0000      -0.742139       -20.1946
  18   2.0000      -0.728623       -19.8268
  19   2.0000      -0.690130       -18.7794
  20   2.0000      -0.664605       -18.0848
  21   2.0000      -0.616743       -16.7824
  22   2.0000      -0.587609       -15.9896
  23   2.0000      -0.571145       -15.5416
  24   2.0000      -0.556666       -15.1477
  25   2.0000      -0.540264       -14.7013
  26   2.0000      -0.533528       -14.5180
  27   2.0000      -0.503092       -13.6898
  28   2.0000      -0.473595       -12.8872
  29   2.0000      -0.433976       -11.8091
  30   2.0000      -0.414446       -11.2776
  31   2.0000      -0.402420       -10.9504
  32   2.0000      -0.351873        -9.5750
  33   0.0000       0.133303         3.6273
  34   0.0000       0.140884         3.8337
  35   0.0000       0.158329         4.3083
  36   0.0000       0.168841         4.5944
  37   0.0000       0.182421         4.9639

MULLIKEN ATOMIC CHARGES
-----------------------
   0 O :   -0.452281
   1 C :    0.108727
   2 C :   -0.277086
   3 C :   -0.164934
   4 C :    0.111779
   5 O :   -0.290170
   6 C :    0.120661
   7 C :   -0.228028
   8 C :   -0.217393
   9 H :    0.326856
  10 H :    0.134072
  11 H :    0.134613
  12 H :    0.141572
  13 H :    0.141615
  14 H :    0.140746
  15 H :    0.134522
  16 H :    0.134727
Sum of atomic charges:    0.0000000

LOEWDIN ATOMIC CHARGES
----------------------
   0 O :    0.029501
   1 C :   -0.321496
   2 C :   -0.191980
   3 C :   -0.152949
   4 C :   -0.240971
   5 O :    0.197822
   6 C :   -0.228440
   7 C :   -0.132774
   8 C :   -0.127938
   9 H :    0.183188
  10 H :    0.140580
  11 H :    0.135907
  12 H :    0.150605
  13 H :    0.141948
  14 H :    0.143080
  15 H :    0.136953
  16 H :    0.136966

  Mayer bond orders larger than 0.1
B(  0-O ,  1-C ) :   1.0122 B(  0-O ,  9-H ) :   0.8381 B(  1-C ,  2-C ) :   0.9366
B(  1-C ,  3-C ) :   0.8596 B(  1-C ,  6-C ) :   0.9334 B(  2-C ,  3-C ) :   0.8867
B(  2-C , 10-H ) :   0.9125 B(  2-C , 11-H ) :   0.8876 B(  3-C ,  4-C ) :   0.9044
B(  3-C , 12-H ) :   0.9002 B(  4-C ,  5-O ) :   0.9553 B(  4-C ,  8-C ) :   0.9326
B(  4-C , 13-H ) :   0.9019 B(  5-O ,  6-C ) :   0.9432 B(  6-C ,  7-C ) :   0.8888
B(  6-C , 14-H ) :   0.8957 B(  7-C ,  8-C ) :   1.7901 B(  7-C , 15-H ) :   0.9293
B(  8-C , 16-H ) :   0.9297

MP2 TOTAL ENERGY:     -421.079823845 Eh
FINAL SINGLE POINT ENERGY      -421.079823844886

DIPOLE MOMENT
-------------
                                X             Y             Z
Electronic contribution:      0.18455       1.01207       3.01752
Nuclear contribution   :      0.24832      -1.24528      -4.04248
                        -----------------------------------------
Total Dipole Moment    :      0.43287      -0.23321      -1.02496
                        -----------------------------------------
Magnitude (a.u.)       :      1.13679
Magnitude (Debye)      :      2.88950

                             ****ORCA TERMINATED NORMALLY****
TOTAL RUN TIME: 0 days 0 hours 17 minutes 43 seconds 135 msec
