                         Program Version 3.0.3 - RELEASE   -
|  1> ! RI-MP2 RIJK def2-TZVP def2-TZVP/C def2-TZVP/JK TIGHTSCF
|  2> % maxcore 2000
|  3> % mp2 density relaxed end
|  4> *xyz 0 1
|  5>  O       -0.1896967062     1.3757942616     0.0633897562
|  6>  C        0.0345162056    -0.0304390899     0.0906353706
|  7>  C        0.5610590012    -0.5130076664    -1.1906948026
|  8>  C        1.0411630530    -0.8781177317    -2.2309899907
|  9>  C        0.9457010200    -0.4530624152     1.2618192934
| 10>  C        0.3798958326    -0.0274050788     2.6406773597
| 11>  C       -0.0418144122    -1.3633474552     3.2676541303
| 12>  O        0.8837250042    -2.3122972502     2.7613511502
| 13>  C        1.0706672092    -1.9972759764     1.3908723997
| 14>  H        0.6231281906     1.7939977823    -0.2424408023
| 15>  H       -0.9605436234    -0.4652322689     0.2530840805
| 16>  H        1.4437170537    -1.2075604888    -3.1571946062
| 17>  H        1.9291933939    -0.0042628751     1.0911707729
| 18>  H        1.1630072050     0.4389280436     3.2438019971
| 19>  H       -0.4387307068     0.6890727649     2.5445480670
| 20>  H        0.0167369526    -1.3826613626     4.3587025985
| 21>  H       -1.0717501938    -1.6289202299     2.9732332991
| 22>  H        0.3040867430    -2.4940568006     0.7729422589
| 23>  H        2.0463019977    -2.3815600128     1.0856673176
| 24> *
| 25>
| 26>                          ****END OF INPUT****

CARTESIAN COORDINATES (ANGSTROEM)
---------------------------------
  O     -0.189697    1.375794    0.063390
  C      0.034516   -0.030439    0.090635
  C      0.561059   -0.513008   -1.190695
  C      1.041163   -0.878118   -2.230990
  C      0.945701   -0.453062    1.261819
  C      0.379896   -0.027405    2.640677
  C     -0.041814   -1.363347    3.267654
  O      0.883725   -2.312297    2.761351
  C      1.070667   -1.997276    1.390872
  H      0.623128    1.793998   -0.242441
  H     -0.960544   -0.465232    0.253084
  H      1.443717   -1.207560   -3.157195
  H      1.929193   -0.004263    1.091171
  H      1.163007    0.438928    3.243802
  H     -0.438731    0.689073    2.544548
  H      0.016737   -1.382661    4.358703
  H     -1.071750   -1.628920    2.973233
  H      0.304087   -2.494057    0.772942
  H      2.046302   -2.381560    1.085667

 Total Charge           Charge          ....    0
 Multiplicity           Mult            ....    1
 Number of Electrons    NEL             ....   68
 Basis Dimension        Dim             ....  339

ORBITAL ENERGIES
----------------

  NO   OCC          E(Eh)            E(eV)
   0   2.0000     -20.571541      -559.7801
   1   2.0000     -20.553179      -559.2804
   2   2.0000     -11.317448      -307.9634
   3   2.0000     -11.276239      -306.8421
   4   2.0000     -11.273829      -306.7765
   5   2.0000     -11.243735      -305.9576
   6   2.0000     -11.243107      -305.9405
   7   2.0000     -11.238225      -305.8077
   8   2.0000     -11.226133      -305.4786
   9   2.0000      -1.381894       -37.6032
  10   2.0000      -1.377653       -37.4878
  11   2.0000      -1.094082       -29.7715
  12   2.0000      -1.041834       -28.3497
  13   2.0000      -0.998754       -27.1775
  14   2.0000      -0.931874       -25.3576
  15   2.0000      -0.827159       -22.5081
  16   2.0000      -0.800898       -21.7935
  17   2.0000      -0.756355       -20.5815
  18   2.0000      -0.701179       -19.0800
  19   2.0000      -0.688373       -18.7316
  20   2.0000      -0.680989       -18.5307
  21   2.0000      -0.641953       -17.4684
  22   2.0000      -0.611793       -16.6477
  23   2.0000      -0.600670       -16.3451
  24   2.0000      -0.559420       -15.2226
  25   2.0000      -0.550000       -14.9663
  26   2.0000      -0.528869       -14.3913
  27   2.0000      -0.497319       -13.5327
  28   2.0000      -0.482650       -13.1336
  29   2.0000      -0.475344       -12.9348
  30   2.0000      -0.457912       -12.4604
  31   2.0000      -0.421894       -11.4803
  32   2.0000      -0.407291       -11.0829
  33   2.0000      -0.397476       -10.8159
  34   0.0000       0.126230         3.4349
  35   0.0000       0.142156         3.8682
  36   0.0000       0.156069         4.2468
  37   0.0000       0.161148         4.3851
  38   0.0000       0.172031         4.6812

MULLIKEN ATOMIC CHARGES
-----------------------
   0 O :   -0.455342
   1 C :   -0.095951
   2 C :   -0.061630
   3 C :   -0.123666
   4 C :    0.011378
   5 C :   -0.269114
   6 C :   -0.048645
   7 O :   -0.310410
   8 C :   -0.077764
   9 H :    0.320475
  10 H :    0.123695
  11 H :    0.195696
  12 H :    0.098796
  13 H :    0.115827
  14 H :    0.145285
  15 H :    0.120581
  16 H :    0.088401
  17 H :    0.099800
  18 H :    0.122589
Sum of atomic charges:   -0.0000000

LOEWDIN ATOMIC CHARGES
----------------------
   0 O :   -0.002097
   1 C :   -0.323769
   2 C :   -0.093533
   3 C :   -0.084476
   4 C :   -0.223355
   5 C :   -0.237549
   6 C :   -0.311806
   7 O :    0.149037
   8 C :   -0.279944
   9 H :    0.180048
  10 H :    0.164420
  11 H :    0.129051
  12 H :    0.151933
  13 H :    0.138383
  14 H :    0.143849
  15 H :    0.126676
  16 H :    0.117917
  17 H :    0.126513
  18 H :    0.128702

  Mayer bond orders larger than 0.1
B(  0-O ,  1-C ) :   0.8801 B(  0-O ,  9-H ) :   0.8385 B(  1-C ,  2-C ) :   1.1275
B(  1-C ,  4-C ) :   0.9378 B(  1-C , 10-H ) :   0.9089 B(  2-C ,  3-C ) :   2.5774
B(  3-C , 11-H ) :   0.8961 B(  4-C ,  5-C ) :   0.8759 B(  4-C ,  8-C ) :   0.9046
B(  4-C , 12-H ) :   0.8969 B(  5-C ,  6-C ) :   0.9585 B(  5-C , 13-H ) :   0.9225
B(  5-C , 14-H ) :   0.9293 B(  6-C ,  7-O ) :   0.9206 B(  6-C , 15-H ) :   0.9283
B(  6-C , 16-H ) :   0.9263 B(  7-O ,  8-C ) :   0.9495 B(  8-C , 17-H ) :   0.9312
B(  8-C , 18-H ) :   0.9157

MP2 TOTAL ENERGY:     -422.280588395 Eh
FINAL SINGLE POINT ENERGY      -422.280588395228

DIPOLE MOMENT
-------------
                                X             Y             Z
Electronic contribution:      0.36355       0.18630      -3.44640
Nuclear contribution   :     -0.03187       0.08733       3.13677
                        -----------------------------------------
Total Dipole Moment    :      0.33168       0.27363      -0.30963
                        -----------------------------------------
Magnitude (a.u.)       :      0.52987
Magnitude (Debye)      :      1.34681

                             ****ORCA TERMINATED NORMALLY****
TOTAL RUN TIME: 0 days 0 hours 19 minutes 52 seconds 371 msec
