                         Program Version 3.0.3 - RELEASE   -
|  1> ! RI-MP2 RIJK def2-TZVP def2-TZVP/C def2-TZVP/JK TIGHTSCF
|  2> % maxcore 2000
|  3> % mp2 density relaxed end
|  4> *xyz 0 1
|  5>  C       -0.0890479852     1.5288793986     0.0629121240
|  6>  C        0.1621266340     0.0583054674    -0.0039102947
|  7>  O       -0.7532765094    -0.8138485252     0.6887975715
|  8>  C        0.6438207335    -0.9290856823     0.9819295716
|  9>  C        1.3004791027    -1.7881199695    -0.1398900037
| 10>  O        2.6815838734    -1.9636079926    -0.0234663731
| 11>  C        0.4248656650    -2.9055922432    -0.7830676590
| 12>  C       -0.1285395525    -1.8654093862    -1.8099931725
| 13>  C        0.7693828695    -0.7600563280    -1.1796926870
| 14>  H        0.8053475870     2.0875625077    -0.2305836002
| 15>  H       -0.9021767451     1.8151483163    -0.6141786952
| 16>  H       -0.3712362854     1.8221087406     1.0778020780
| 17>  H        0.9497758740    -0.8274044342     2.0199492059
| 18>  H        2.8456317337    -2.5981144939     0.6840310789
| 19>  H        1.0487453418    -3.6763235268    -1.2426078185
| 20>  H       -0.3149494381    -3.3719106118    -0.1298690974
| 21>  H        0.1265822693    -2.0912179396    -2.8472984549
| 22>  H       -1.2002168039    -1.6772520265    -1.7365539584
| 23>  H        1.4707402156    -0.2182763308    -1.8138379553
| 24> *
| 25>
| 26>                          ****END OF INPUT****

CARTESIAN COORDINATES (ANGSTROEM)
---------------------------------
  C     -0.089048    1.528879    0.062912
  C      0.162127    0.058305   -0.003910
  O     -0.753277   -0.813849    0.688798
  C      0.643821   -0.929086    0.981930
  C      1.300479   -1.788120   -0.139890
  O      2.681584   -1.963608   -0.023466
  C      0.424866   -2.905592   -0.783068
  C     -0.128540   -1.865409   -1.809993
  C      0.769383   -0.760056   -1.179693
  H      0.805348    2.087563   -0.230584
  H     -0.902177    1.815148   -0.614179
  H     -0.371236    1.822109    1.077802
  H      0.949776   -0.827404    2.019949
  H      2.845632   -2.598114    0.684031
  H      1.048745   -3.676324   -1.242608
  H     -0.314949   -3.371911   -0.129869
  H      0.126582   -2.091218   -2.847298
  H     -1.200217   -1.677252   -1.736554
  H      1.470740   -0.218276   -1.813838

 Total Charge           Charge          ....    0
 Multiplicity           Mult            ....    1
 Number of Electrons    NEL             ....   68
 Basis Dimension        Dim             ....  339

ORBITAL ENERGIES
----------------

  NO   OCC          E(Eh)            E(eV)
   0   2.0000     -20.568089      -559.6862
   1   2.0000     -20.565016      -559.6025
   2   2.0000     -11.291391      -307.2544
   3   2.0000     -11.287926      -307.1601
   4   2.0000     -11.281241      -306.9782
   5   2.0000     -11.228285      -305.5372
   6   2.0000     -11.227669      -305.5204
   7   2.0000     -11.220233      -305.3181
   8   2.0000     -11.218591      -305.2734
   9   2.0000      -1.418462       -38.5983
  10   2.0000      -1.374349       -37.3979
  11   2.0000      -1.127361       -30.6771
  12   2.0000      -1.017243       -27.6806
  13   2.0000      -0.965981       -26.2857
  14   2.0000      -0.904650       -24.6168
  15   2.0000      -0.831271       -22.6200
  16   2.0000      -0.792607       -21.5679
  17   2.0000      -0.724980       -19.7277
  18   2.0000      -0.716111       -19.4864
  19   2.0000      -0.663371       -18.0512
  20   2.0000      -0.644632       -17.5413
  21   2.0000      -0.612730       -16.6732
  22   2.0000      -0.586361       -15.9557
  23   2.0000      -0.581866       -15.8334
  24   2.0000      -0.576406       -15.6848
  25   2.0000      -0.542163       -14.7530
  26   2.0000      -0.531686       -14.4679
  27   2.0000      -0.511054       -13.9065
  28   2.0000      -0.500905       -13.6303
  29   2.0000      -0.473866       -12.8946
  30   2.0000      -0.465670       -12.6715
  31   2.0000      -0.415309       -11.3011
  32   2.0000      -0.396506       -10.7895
  33   2.0000      -0.378732       -10.3058
  34   0.0000       0.136510         3.7146
  35   0.0000       0.143207         3.8969
  36   0.0000       0.166540         4.5318
  37   0.0000       0.180086         4.9004
  38   0.0000       0.185359         5.0439

MULLIKEN ATOMIC CHARGES
-----------------------
   0 C :   -0.419209
   1 C :    0.170096
   2 O :   -0.329403
   3 C :   -0.128141
   4 C :    0.299126
   5 O :   -0.459828
   6 C :   -0.258612
   7 C :   -0.236727
   8 C :   -0.106418
   9 H :    0.139164
  10 H :    0.139378
  11 H :    0.143809
  12 H :    0.139425
  13 H :    0.321364
  14 H :    0.115544
  15 H :    0.113407
  16 H :    0.116243
  17 H :    0.118352
  18 H :    0.122431
Sum of atomic charges:    0.0000000

LOEWDIN ATOMIC CHARGES
----------------------
   0 C :   -0.271862
   1 C :   -0.272288
   2 O :    0.193483
   3 C :   -0.196905
   4 C :   -0.316417
   5 O :    0.021407
   6 C :   -0.206469
   7 C :   -0.214731
   8 C :   -0.124226
   9 H :    0.133813
  10 H :    0.133453
  11 H :    0.135654
  12 H :    0.129285
  13 H :    0.182468
  14 H :    0.133406
  15 H :    0.131624
  16 H :    0.129314
  17 H :    0.133377
  18 H :    0.145611

  Mayer bond orders larger than 0.1
B(  0-C ,  1-C ) :   0.8541 B(  0-C ,  9-H ) :   0.9388 B(  0-C , 10-H ) :   0.9380
B(  0-C , 11-H ) :   0.9392 B(  1-C ,  2-O ) :   0.8981 B(  1-C ,  3-C ) :   0.9113
B(  1-C ,  8-C ) :   0.8946 B(  2-O ,  3-C ) :   0.9059 B(  3-C ,  4-C ) :   0.8520
B(  3-C , 12-H ) :   0.9025 B(  4-C ,  5-O ) :   1.0352 B(  4-C ,  6-C ) :   0.9412
B(  4-C ,  8-C ) :   0.9321 B(  5-O , 13-H ) :   0.8370 B(  6-C ,  7-C ) :   1.0152
B(  6-C , 14-H ) :   0.9139 B(  6-C , 15-H ) :   0.8932 B(  7-C ,  8-C ) :   0.9633
B(  7-C , 16-H ) :   0.9197 B(  7-C , 17-H ) :   0.9085 B(  8-C , 18-H ) :   0.8790

MP2 TOTAL ENERGY:     -422.262987816 Eh
FINAL SINGLE POINT ENERGY      -422.262987815906

DIPOLE MOMENT
-------------
                                X             Y             Z
Electronic contribution:      1.45772      -1.68062       2.57108
Nuclear contribution   :     -1.18821       1.70383      -2.38200
                        -----------------------------------------
Total Dipole Moment    :      0.26951       0.02321       0.18908
                        -----------------------------------------
Magnitude (a.u.)       :      0.33004
Magnitude (Debye)      :      0.83890

                             ****ORCA TERMINATED NORMALLY****
TOTAL RUN TIME: 0 days 0 hours 19 minutes 15 seconds 83 msec
