                         Program Version 3.0.3 - RELEASE   -
|  1> ! RI-MP2 RIJK def2-TZVP def2-TZVP/C def2-TZVP/JK TIGHTSCF
|  2> % maxcore 2000
|  3> % mp2 density relaxed end
|  4> *xyz 0 1
|  5>  C       -0.0853383233     1.5329165657    -0.0935345881
|  6>  C        0.0238147093     0.0336846232     0.0457318059
|  7>  C        1.3471663917    -0.6912787751    -0.1366892924
|  8>  O        2.4875011793     0.0955821517    -0.3452507698
|  9>  C        3.3907488707     0.1538294257     0.7490453147
| 10>  C        2.7135761292     0.4272306136     2.0704880153
| 11>  C        1.4405826186     0.0897585887     2.2699981067
| 12>  C        0.6896274756    -0.6460338830     1.2210222301
| 13>  O        0.0021588871    -1.7861817791     1.6743533716
| 14>  H        0.8159841049     2.0316141374     0.2671791102
| 15>  H       -0.2224944038     1.8116571890    -1.1435015494
| 16>  H       -0.9410687552     1.9170554412     0.4714584195
| 17>  H       -0.8313898736    -0.5326326249    -0.3143934794
| 18>  H        1.3487900436    -1.6371249479    -0.6761130659
| 19>  H        3.9836472761    -0.7761741734     0.8180507877
| 20>  H        4.0931667365     0.9578803400     0.5059877588
| 21>  H        3.3056967409     0.9080561398     2.8440579002
| 22>  H        0.9294029353     0.2862217904     3.2085934996
| 23>  H        0.6523925171    -2.3841659026     2.0616245749
| 24> *
| 25>
| 26>                          ****END OF INPUT****

CARTESIAN COORDINATES (ANGSTROEM)
---------------------------------
  C     -0.085338    1.532917   -0.093535
  C      0.023815    0.033685    0.045732
  C      1.347166   -0.691279   -0.136689
  O      2.487501    0.095582   -0.345251
  C      3.390749    0.153829    0.749045
  C      2.713576    0.427231    2.070488
  C      1.440583    0.089759    2.269998
  C      0.689627   -0.646034    1.221022
  O      0.002159   -1.786182    1.674353
  H      0.815984    2.031614    0.267179
  H     -0.222494    1.811657   -1.143502
  H     -0.941069    1.917055    0.471458
  H     -0.831390   -0.532633   -0.314393
  H      1.348790   -1.637125   -0.676113
  H      3.983647   -0.776174    0.818051
  H      4.093167    0.957880    0.505988
  H      3.305697    0.908056    2.844058
  H      0.929403    0.286222    3.208593
  H      0.652393   -2.384166    2.061625

 Total Charge           Charge          ....    0
 Multiplicity           Mult            ....    1
 Number of Electrons    NEL             ....   68
 Basis Dimension        Dim             ....  339

ORBITAL ENERGIES
----------------

  NO   OCC          E(Eh)            E(eV)
   0   2.0000     -20.566426      -559.6409
   1   2.0000     -20.561709      -559.5125
   2   2.0000     -11.288832      -307.1847
   3   2.0000     -11.288032      -307.1630
   4   2.0000     -11.276119      -306.8388
   5   2.0000     -11.241437      -305.8950
   6   2.0000     -11.236297      -305.7552
   7   2.0000     -11.230273      -305.5913
   8   2.0000     -11.211957      -305.0929
   9   2.0000      -1.390257       -37.8308
  10   2.0000      -1.370572       -37.2952
  11   2.0000      -1.133814       -30.8527
  12   2.0000      -1.076720       -29.2991
  13   2.0000      -0.967870       -26.3371
  14   2.0000      -0.922985       -25.1157
  15   2.0000      -0.850718       -23.1492
  16   2.0000      -0.776202       -21.1215
  17   2.0000      -0.726231       -19.7617
  18   2.0000      -0.718076       -19.5398
  19   2.0000      -0.669585       -18.2203
  20   2.0000      -0.663576       -18.0568
  21   2.0000      -0.625506       -17.0209
  22   2.0000      -0.612099       -16.6561
  23   2.0000      -0.582806       -15.8590
  24   2.0000      -0.575117       -15.6497
  25   2.0000      -0.552312       -15.0292
  26   2.0000      -0.543092       -14.7783
  27   2.0000      -0.524679       -14.2772
  28   2.0000      -0.508069       -13.8253
  29   2.0000      -0.493179       -13.4201
  30   2.0000      -0.460022       -12.5178
  31   2.0000      -0.409190       -11.1346
  32   2.0000      -0.387331       -10.5398
  33   2.0000      -0.348038        -9.4706
  34   0.0000       0.126699         3.4477
  35   0.0000       0.143845         3.9142
  36   0.0000       0.162305         4.4165
  37   0.0000       0.165742         4.5101
  38   0.0000       0.176586         4.8051

MULLIKEN ATOMIC CHARGES
-----------------------
   0 C :   -0.396778
   1 C :   -0.091211
   2 C :   -0.037422
   3 O :   -0.317730
   4 C :   -0.004689
   5 C :   -0.146198
   6 C :   -0.277812
   7 C :    0.257063
   8 O :   -0.458437
   9 H :    0.141762
  10 H :    0.133922
  11 H :    0.132640
  12 H :    0.123797
  13 H :    0.123673
  14 H :    0.105577
  15 H :    0.131452
  16 H :    0.131420
  17 H :    0.131498
  18 H :    0.317474
Sum of atomic charges:    0.0000000

LOEWDIN ATOMIC CHARGES
----------------------
   0 C :   -0.287194
   1 C :   -0.185253
   2 C :   -0.249430
   3 O :    0.192410
   4 C :   -0.294196
   5 C :   -0.159941
   6 C :   -0.136968
   7 C :   -0.326836
   8 O :    0.026167
   9 H :    0.130199
  10 H :    0.128369
  11 H :    0.126813
  12 H :    0.158852
  13 H :    0.137285
  14 H :    0.129478
  15 H :    0.136166
  16 H :    0.143995
  17 H :    0.149227
  18 H :    0.180857

  Mayer bond orders larger than 0.1
B(  0-C ,  1-C ) :   0.8945 B(  0-C ,  9-H ) :   0.9340 B(  0-C , 10-H ) :   0.9354
B(  0-C , 11-H ) :   0.9383 B(  1-C ,  2-C ) :   0.8845 B(  1-C ,  7-C ) :   0.8703
B(  1-C , 12-H ) :   0.9167 B(  2-C ,  3-O ) :   0.9584 B(  2-C ,  7-C ) :   0.8300
B(  2-C , 13-H ) :   0.9477 B(  3-O ,  4-C ) :   0.9289 B(  4-C ,  5-C ) :   0.9303
B(  4-C , 14-H ) :   0.9154 B(  4-C , 15-H ) :   0.9328 B(  5-C ,  6-C ) :   1.7706
B(  5-C , 16-H ) :   0.9146 B(  6-C ,  7-C ) :   0.9655 B(  6-C , 17-H ) :   0.9366
B(  7-C ,  8-O ) :   0.9639 B(  8-O , 18-H ) :   0.8386

MP2 TOTAL ENERGY:     -422.295553060 Eh
FINAL SINGLE POINT ENERGY      -422.295553060201

DIPOLE MOMENT
-------------
                                X             Y             Z
Electronic contribution:      0.70198      -3.50599       0.60004
Nuclear contribution   :     -0.13068       3.41482      -0.11499
                        -----------------------------------------
Total Dipole Moment    :      0.57130      -0.09117       0.48505
                        -----------------------------------------
Magnitude (a.u.)       :      0.75496
Magnitude (Debye)      :      1.91896

                             ****ORCA TERMINATED NORMALLY****
TOTAL RUN TIME: 0 days 0 hours 17 minutes 16 seconds 758 msec
