                         Program Version 3.0.3 - RELEASE   -
|  1> ! RI-MP2 RIJK def2-TZVP def2-TZVP/C def2-TZVP/JK TIGHTSCF
|  2> % maxcore 2000
|  3> % mp2 density relaxed end
|  4> *xyz 0 1
|  5>  C        0.2311978161     1.4670993223     0.0821549843
|  6>  C       -0.0552603687    -0.0304045289    -0.0746819896
|  7>  C       -1.5410535130    -0.4752392047     0.0201202678
|  8>  C       -2.1905629203     0.0770641597     1.3053265519
|  9>  C       -2.3251307708     0.0302653721    -1.2061067948
| 10>  C       -1.5413918233    -2.0305494381     0.0196364097
| 11>  O       -0.8730996974    -2.5806721474     1.1662643590
| 12>  C       -2.9036057943    -2.7267841181    -0.1093877306
| 13>  O       -2.7393030966    -4.1297353245    -0.0731196538
| 14>  H        1.2994480339     1.6597570081    -0.0585307607
| 15>  H       -0.3059801636     2.0752315773    -0.6528906338
| 16>  H       -0.0348884470     1.8350398490     1.0776763757
| 17>  H        0.3329423241    -0.3658293816    -1.0456083762
| 18>  H        0.5083415850    -0.5845627468     0.6832431062
| 19>  H       -2.2714946275     1.1662986142     1.2599524403
| 20>  H       -3.2024501561    -0.3133762992     1.4517074770
| 21>  H       -1.5985620094    -0.1583885833     2.1975045103
| 22>  H       -1.9638138801    -0.4367603320    -2.1292638630
| 23>  H       -3.3959133751    -0.1773391257    -1.1200787901
| 24>  H       -2.2160208768     1.1127897629    -1.3178553226
| 25>  H       -0.9281078118    -2.3683106303    -0.8248750290
| 26>  H       -1.3360107256    -2.2681520815     1.9523924939
| 27>  H       -3.5810085736    -2.3871470267     0.6943357060
| 28>  H       -3.3792410797    -2.4816023849    -1.0631276628
| 29>  H       -2.0492697984    -4.2856653517     0.5853174047
| 30> *
| 31>
| 32>                          ****END OF INPUT****

CARTESIAN COORDINATES (ANGSTROEM)
---------------------------------
  C      0.231198    1.467099    0.082155
  C     -0.055260   -0.030405   -0.074682
  C     -1.541054   -0.475239    0.020120
  C     -2.190563    0.077064    1.305327
  C     -2.325131    0.030265   -1.206107
  C     -1.541392   -2.030549    0.019636
  O     -0.873100   -2.580672    1.166264
  C     -2.903606   -2.726784   -0.109388
  O     -2.739303   -4.129735   -0.073120
  H      1.299448    1.659757   -0.058531
  H     -0.305980    2.075232   -0.652891
  H     -0.034888    1.835040    1.077676
  H      0.332942   -0.365829   -1.045608
  H      0.508342   -0.584563    0.683243
  H     -2.271495    1.166299    1.259952
  H     -3.202450   -0.313376    1.451707
  H     -1.598562   -0.158389    2.197505
  H     -1.963814   -0.436760   -2.129264
  H     -3.395913   -0.177339   -1.120079
  H     -2.216021    1.112790   -1.317855
  H     -0.928108   -2.368311   -0.824875
  H     -1.336011   -2.268152    1.952392
  H     -3.581009   -2.387147    0.694336
  H     -3.379241   -2.481602   -1.063128
  H     -2.049270   -4.285665    0.585317

 Total Charge           Charge          ....    0
 Multiplicity           Mult            ....    1
 Number of Electrons    NEL             ....   74
 Basis Dimension        Dim             ....  375

ORBITAL ENERGIES
----------------

  NO   OCC          E(Eh)            E(eV)
   0   2.0000     -20.566478      -559.6423
   1   2.0000     -20.545196      -559.0632
   2   2.0000     -11.282291      -307.0068
   3   2.0000     -11.272243      -306.7333
   4   2.0000     -11.246066      -306.0210
   5   2.0000     -11.225176      -305.4526
   6   2.0000     -11.221262      -305.3461
   7   2.0000     -11.220136      -305.3154
   8   2.0000     -11.216057      -305.2044
   9   2.0000      -1.380274       -37.5592
  10   2.0000      -1.343857       -36.5682
  11   2.0000      -1.113870       -30.3099
  12   2.0000      -1.008329       -27.4380
  13   2.0000      -0.970698       -26.4140
  14   2.0000      -0.941614       -25.6226
  15   2.0000      -0.889355       -24.2006
  16   2.0000      -0.830559       -22.6007
  17   2.0000      -0.751809       -20.4578
  18   2.0000      -0.698877       -19.0174
  19   2.0000      -0.670319       -18.2403
  20   2.0000      -0.651338       -17.7238
  21   2.0000      -0.625999       -17.0343
  22   2.0000      -0.619711       -16.8632
  23   2.0000      -0.609436       -16.5836
  24   2.0000      -0.580461       -15.7952
  25   2.0000      -0.563244       -15.3266
  26   2.0000      -0.552254       -15.0276
  27   2.0000      -0.541436       -14.7332
  28   2.0000      -0.537046       -14.6138
  29   2.0000      -0.525205       -14.2916
  30   2.0000      -0.506374       -13.7791
  31   2.0000      -0.497194       -13.5293
  32   2.0000      -0.487026       -13.2526
  33   2.0000      -0.462934       -12.5971
  34   2.0000      -0.454987       -12.3808
  35   2.0000      -0.446990       -12.1632
  36   2.0000      -0.417617       -11.3639
  37   0.0000       0.122768         3.3407
  38   0.0000       0.147314         4.0086
  39   0.0000       0.162489         4.4216
  40   0.0000       0.167631         4.5615
  41   0.0000       0.183795         5.0013

MULLIKEN ATOMIC CHARGES
-----------------------
   0 C :   -0.424384
   1 C :   -0.196914
   2 C :    0.093591
   3 C :   -0.515738
   4 C :   -0.470054
   5 C :    0.046634
   6 O :   -0.493682
   7 C :   -0.009386
   8 O :   -0.476769
   9 H :    0.141451
  10 H :    0.123379
  11 H :    0.133013
  12 H :    0.109305
  13 H :    0.133523
  14 H :    0.151112
  15 H :    0.145349
  16 H :    0.133258
  17 H :    0.141758
  18 H :    0.141314
  19 H :    0.138647
  20 H :    0.103213
  21 H :    0.320743
  22 H :    0.085731
  23 H :    0.117376
  24 H :    0.327531
Sum of atomic charges:    0.0000000

LOEWDIN ATOMIC CHARGES
----------------------
   0 C :   -0.318925
   1 C :   -0.251714
   2 C :   -0.313809
   3 C :   -0.279092
   4 C :   -0.266606
   5 C :   -0.312357
   6 O :   -0.023810
   7 C :   -0.340672
   8 O :   -0.048695
   9 H :    0.124259
  10 H :    0.118157
  11 H :    0.120269
  12 H :    0.140821
  13 H :    0.144886
  14 H :    0.131286
  15 H :    0.124019
  16 H :    0.123211
  17 H :    0.129310
  18 H :    0.126070
  19 H :    0.126264
  20 H :    0.153442
  21 H :    0.173803
  22 H :    0.114635
  23 H :    0.130495
  24 H :    0.174751

  Mayer bond orders larger than 0.1
B(  0-C ,  1-C ) :   0.9056 B(  0-C ,  9-H ) :   0.9420 B(  0-C , 10-H ) :   0.9389
B(  0-C , 11-H ) :   0.9412 B(  1-C ,  2-C ) :   0.8945 B(  1-C , 12-H ) :   0.9265
B(  1-C , 13-H ) :   0.9261 B(  2-C ,  3-C ) :   0.8763 B(  2-C ,  4-C ) :   0.9005
B(  2-C ,  5-C ) :   0.8851 B(  3-C , 14-H ) :   0.9384 B(  3-C , 15-H ) :   0.9333
B(  3-C , 16-H ) :   0.9360 B(  4-C , 17-H ) :   0.9341 B(  4-C , 18-H ) :   0.9359
B(  4-C , 19-H ) :   0.9333 B(  5-C ,  6-O ) :   0.8448 B(  5-C ,  7-C ) :   0.9633
B(  5-C , 20-H ) :   0.9131 B(  6-O , 21-H ) :   0.8376 B(  7-C ,  8-O ) :   0.9488
B(  7-C , 22-H ) :   0.9011 B(  7-C , 23-H ) :   0.9310 B(  8-O , 24-H ) :   0.8222

MP2 TOTAL ENERGY:     -425.936514896 Eh
FINAL SINGLE POINT ENERGY      -425.936514895544

DIPOLE MOMENT
-------------
                                X             Y             Z
Electronic contribution:     -0.79287      -9.59934       0.98294
Nuclear contribution   :      0.76710      10.58518      -0.63255
                        -----------------------------------------
Total Dipole Moment    :     -0.02577       0.98584       0.35039
                        -----------------------------------------
Magnitude (a.u.)       :      1.04658
Magnitude (Debye)      :      2.66019

                             ****ORCA TERMINATED NORMALLY****
TOTAL RUN TIME: 0 days 0 hours 21 minutes 23 seconds 125 msec
