                         Program Version 3.0.3 - RELEASE   -
|  1> ! RI-MP2 RIJK def2-TZVP def2-TZVP/C def2-TZVP/JK TIGHTSCF
|  2> % maxcore 2000
|  3> % mp2 density relaxed end
|  4> *xyz 0 1
|  5>  C       -0.0233098820     1.5761879176     0.0721440522
|  6>  C       -0.0020003410     0.0475951722     0.0011568581
|  7>  C        0.7176699634    -0.4780814496    -1.2420079102
|  8>  O        2.0802256449    -0.0963856291    -1.2953168986
|  9>  C        0.5910461632    -2.0213487623    -1.3513102981
| 10>  O       -0.7529618480    -2.4629482602    -1.3958903308
| 11>  C        1.3555598777    -2.5280437333    -2.5077557051
| 12>  N        1.8968531200    -2.9371696093    -3.4428558819
| 13>  H        0.9900138459     1.9843173239     0.0276649309
| 14>  H       -0.5883465497     2.0003530724    -0.7648332176
| 15>  H       -0.4921356801     1.9185454639     0.9989195843
| 16>  H        0.5001085674    -0.3648545772     0.8899559076
| 17>  H       -1.0188163695    -0.3571088245     0.0114860113
| 18>  H        0.2653676616    -0.0424952960    -2.1430184993
| 19>  H        2.4945817377    -0.3318603018    -0.4569287371
| 20>  H        1.0160541276    -2.4675920398    -0.4430702508
| 21>  H       -1.1204313593    -2.2280661368    -2.2560388149
| 22> *
| 23>
| 24>                          ****END OF INPUT****

CARTESIAN COORDINATES (ANGSTROEM)
---------------------------------
  C     -0.023310    1.576188    0.072144
  C     -0.002000    0.047595    0.001157
  C      0.717670   -0.478081   -1.242008
  O      2.080226   -0.096386   -1.295317
  C      0.591046   -2.021349   -1.351310
  O     -0.752962   -2.462948   -1.395890
  C      1.355560   -2.528044   -2.507756
  N      1.896853   -2.937170   -3.442856
  H      0.990014    1.984317    0.027665
  H     -0.588347    2.000353   -0.764833
  H     -0.492136    1.918545    0.998920
  H      0.500109   -0.364855    0.889956
  H     -1.018816   -0.357109    0.011486
  H      0.265368   -0.042495   -2.143018
  H      2.494582   -0.331860   -0.456929
  H      1.016054   -2.467592   -0.443070
  H     -1.120431   -2.228066   -2.256039

 Total Charge           Charge          ....    0
 Multiplicity           Mult            ....    1
 Number of Electrons    NEL             ....   62
 Basis Dimension        Dim             ....  302

ORBITAL ENERGIES
----------------

  NO   OCC          E(Eh)            E(eV)
   0   2.0000     -20.599313      -560.5358
   1   2.0000     -20.581466      -560.0502
   2   2.0000     -15.578650      -423.9166
   3   2.0000     -11.345802      -308.7350
   4   2.0000     -11.312437      -307.8271
   5   2.0000     -11.276244      -306.8422
   6   2.0000     -11.244298      -305.9729
   7   2.0000     -11.228914      -305.5543
   8   2.0000      -1.411282       -38.4029
   9   2.0000      -1.388434       -37.7812
  10   2.0000      -1.222477       -33.2653
  11   2.0000      -1.083274       -29.4774
  12   2.0000      -1.022566       -27.8254
  13   2.0000      -0.915035       -24.8994
  14   2.0000      -0.840832       -22.8802
  15   2.0000      -0.769796       -20.9472
  16   2.0000      -0.711854       -19.3705
  17   2.0000      -0.691083       -18.8053
  18   2.0000      -0.663870       -18.0648
  19   2.0000      -0.635534       -17.2938
  20   2.0000      -0.594085       -16.1659
  21   2.0000      -0.586593       -15.9620
  22   2.0000      -0.569526       -15.4976
  23   2.0000      -0.555165       -15.1068
  24   2.0000      -0.533885       -14.5277
  25   2.0000      -0.533231       -14.5099
  26   2.0000      -0.504298       -13.7227
  27   2.0000      -0.492177       -13.3928
  28   2.0000      -0.479758       -13.0549
  29   2.0000      -0.471032       -12.8174
  30   2.0000      -0.443173       -12.0594
  31   0.0000       0.114829         3.1247
  32   0.0000       0.117886         3.2079
  33   0.0000       0.140396         3.8204
  34   0.0000       0.162814         4.4304
  35   0.0000       0.181372         4.9354

MULLIKEN ATOMIC CHARGES
-----------------------
   0 C :   -0.372819
   1 C :   -0.219681
   2 C :    0.035242
   3 O :   -0.454771
   4 C :    0.148915
   5 O :   -0.453382
   6 C :   -0.149000
   7 N :   -0.045396
   8 H :    0.133678
   9 H :    0.126205
  10 H :    0.139597
  11 H :    0.105162
  12 H :    0.135716
  13 H :    0.095634
  14 H :    0.317623
  15 H :    0.126265
  16 H :    0.331012
Sum of atomic charges:   -0.0000000

LOEWDIN ATOMIC CHARGES
----------------------
   0 C :   -0.314189
   1 C :   -0.282778
   2 C :   -0.335530
   3 O :    0.008593
   4 C :   -0.329494
   5 O :    0.014243
   6 C :   -0.174086
   7 N :    0.073694
   8 H :    0.124178
   9 H :    0.123496
  10 H :    0.123318
  11 H :    0.137365
  12 H :    0.146759
  13 H :    0.150893
  14 H :    0.180333
  15 H :    0.166525
  16 H :    0.186681

  Mayer bond orders larger than 0.1
B(  0-C ,  1-C ) :   0.9238 B(  0-C ,  8-H ) :   0.9336 B(  0-C ,  9-H ) :   0.9379
B(  0-C , 10-H ) :   0.9416 B(  1-C ,  2-C ) :   0.9446 B(  1-C , 11-H ) :   0.9096
B(  1-C , 12-H ) :   0.9287 B(  2-C ,  3-O ) :   0.9078 B(  2-C ,  4-C ) :   0.9240
B(  2-C , 13-H ) :   0.9015 B(  3-O , 14-H ) :   0.8369 B(  4-C ,  5-O ) :   0.9175
B(  4-C ,  6-C ) :   0.9432 B(  4-C , 15-H ) :   0.8949 B(  5-O , 16-H ) :   0.8326
B(  6-C ,  7-N ) :   2.8574

MP2 TOTAL ENERGY:     -400.364235354 Eh
FINAL SINGLE POINT ENERGY      -400.364235353647

DIPOLE MOMENT
-------------
                                X             Y             Z
Electronic contribution:      3.31903      -8.37452      -6.32827
Nuclear contribution   :     -4.05663       9.09793       7.53748
                        -----------------------------------------
Total Dipole Moment    :     -0.73760       0.72340       1.20920
                        -----------------------------------------
Magnitude (a.u.)       :      1.59045
Magnitude (Debye)      :      4.04261

                             ****ORCA TERMINATED NORMALLY****
TOTAL RUN TIME: 0 days 0 hours 11 minutes 13 seconds 931 msec
