                         Program Version 3.0.3 - RELEASE   -
|  1> ! RI-MP2 RIJK def2-TZVP def2-TZVP/C def2-TZVP/JK TIGHTSCF
|  2> % maxcore 2000
|  3> % mp2 density relaxed end
|  4> *xyz 0 1
|  5>  C       -0.2547959754     1.4788529833    -0.2717691477
|  6>  C        0.0567581353    -0.0051522285    -0.1179756987
|  7>  C        1.2915488662    -0.6189684122    -0.8648333677
|  8>  C        1.8118725672    -1.1519748040     0.4724517097
|  9>  C        2.0233638968    -0.0074162587     1.4257929760
| 10>  C        0.6251896282    -0.5266541812     1.2230084937
| 11>  C       -0.2480781017    -1.0671949756     2.2993295243
| 12>  C        0.2275747884    -1.3269755842     3.7077617409
| 13>  C       -0.7217466627    -0.1888666364     3.4399690871
| 14>  H        0.6119542314     2.1038735672    -0.0326127721
| 15>  H       -0.5541014263     1.7116552319    -1.3000083932
| 16>  H       -1.0751112345     1.7791988489     0.3893541593
| 17>  H       -0.8377964715    -0.5856984503    -0.3697626764
| 18>  H        1.0094519892    -1.3976885622    -1.5771416889
| 19>  H        1.9500377507     0.0939787770    -1.3746257849
| 20>  H        2.2808055272    -2.1156333444     0.6339153736
| 21>  H        2.4908031949    -0.2736668708     2.3678375160
| 22>  H        2.3222843128     0.9697078029     1.0519686967
| 23>  H       -0.9896061649    -1.7752761977     1.9338271790
| 24>  H       -0.1530332403    -2.2089573950     4.2110892088
| 25>  H        1.2505710710    -1.0803451037     3.9679298974
| 26>  H       -0.3197633417     0.8172472468     3.4903558682
| 27>  H       -1.7503854004    -0.2788306033     3.7713727089
| 28> *
| 29>
| 30>                          ****END OF INPUT****

CARTESIAN COORDINATES (ANGSTROEM)
---------------------------------
  C     -0.254796    1.478853   -0.271769
  C      0.056758   -0.005152   -0.117976
  C      1.291549   -0.618968   -0.864833
  C      1.811873   -1.151975    0.472452
  C      2.023364   -0.007416    1.425793
  C      0.625190   -0.526654    1.223008
  C     -0.248078   -1.067195    2.299330
  C      0.227575   -1.326976    3.707762
  C     -0.721747   -0.188867    3.439969
  H      0.611954    2.103874   -0.032613
  H     -0.554101    1.711655   -1.300008
  H     -1.075111    1.779199    0.389354
  H     -0.837796   -0.585698   -0.369763
  H      1.009452   -1.397689   -1.577142
  H      1.950038    0.093979   -1.374626
  H      2.280806   -2.115633    0.633915
  H      2.490803   -0.273667    2.367838
  H      2.322284    0.969708    1.051969
  H     -0.989606   -1.775276    1.933827
  H     -0.153033   -2.208957    4.211089
  H      1.250571   -1.080345    3.967930
  H     -0.319763    0.817247    3.490356
  H     -1.750385   -0.278831    3.771373

 Total Charge           Charge          ....    0
 Multiplicity           Mult            ....    1
 Number of Electrons    NEL             ....   68
 Basis Dimension        Dim             ....  363

ORBITAL ENERGIES
----------------

  NO   OCC          E(Eh)            E(eV)
   0   2.0000     -11.230601      -305.6002
   1   2.0000     -11.228939      -305.5550
   2   2.0000     -11.224825      -305.4430
   3   2.0000     -11.222351      -305.3757
   4   2.0000     -11.222094      -305.3687
   5   2.0000     -11.220199      -305.3171
   6   2.0000     -11.219651      -305.3022
   7   2.0000     -11.216662      -305.2209
   8   2.0000     -11.207377      -304.9682
   9   2.0000      -1.190084       -32.3838
  10   2.0000      -1.126790       -30.6615
  11   2.0000      -1.010963       -27.5097
  12   2.0000      -0.936847       -25.4929
  13   2.0000      -0.886128       -24.1128
  14   2.0000      -0.818338       -22.2681
  15   2.0000      -0.801371       -21.8064
  16   2.0000      -0.775232       -21.0951
  17   2.0000      -0.706133       -19.2149
  18   2.0000      -0.686272       -18.6744
  19   2.0000      -0.642100       -17.4724
  20   2.0000      -0.614439       -16.7197
  21   2.0000      -0.587797       -15.9948
  22   2.0000      -0.571337       -15.5469
  23   2.0000      -0.561990       -15.2925
  24   2.0000      -0.536491       -14.5987
  25   2.0000      -0.518279       -14.1031
  26   2.0000      -0.506725       -13.7887
  27   2.0000      -0.490270       -13.3409
  28   2.0000      -0.462786       -12.5931
  29   2.0000      -0.451710       -12.2917
  30   2.0000      -0.434433       -11.8215
  31   2.0000      -0.410096       -11.1593
  32   2.0000      -0.390074       -10.6144
  33   2.0000      -0.347795        -9.4640
  34   0.0000       0.142563         3.8793
  35   0.0000       0.155003         4.2178
  36   0.0000       0.161216         4.3869
  37   0.0000       0.167036         4.5453
  38   0.0000       0.185069         5.0360

MULLIKEN ATOMIC CHARGES
-----------------------
   0 C :   -0.422005
   1 C :   -0.054665
   2 C :   -0.230836
   3 C :   -0.123334
   4 C :   -0.308932
   5 C :    0.093267
   6 C :   -0.115604
   7 C :   -0.272423
   8 C :   -0.255719
   9 H :    0.117793
  10 H :    0.131035
  11 H :    0.132267
  12 H :    0.088477
  13 H :    0.116791
  14 H :    0.106839
  15 H :    0.126195
  16 H :    0.123283
  17 H :    0.124037
  18 H :    0.112330
  19 H :    0.129450
  20 H :    0.123971
  21 H :    0.129277
  22 H :    0.128506
Sum of atomic charges:   -0.0000000

LOEWDIN ATOMIC CHARGES
----------------------
   0 C :   -0.298321
   1 C :   -0.201950
   2 C :   -0.196655
   3 C :   -0.161257
   4 C :   -0.185549
   5 C :   -0.174391
   6 C :   -0.195237
   7 C :   -0.224490
   8 C :   -0.221023
   9 H :    0.120886
  10 H :    0.123491
  11 H :    0.125032
  12 H :    0.151469
  13 H :    0.131855
  14 H :    0.128136
  15 H :    0.133691
  16 H :    0.138788
  17 H :    0.129381
  18 H :    0.152503
  19 H :    0.130709
  20 H :    0.129878
  21 H :    0.134322
  22 H :    0.128732

  Mayer bond orders larger than 0.1
B(  0-C ,  1-C ) :   0.8916 B(  0-C ,  9-H ) :   0.9370 B(  0-C , 10-H ) :   0.9387
B(  0-C , 11-H ) :   0.9396 B(  1-C ,  2-C ) :   0.9792 B(  1-C ,  5-C ) :   0.9019
B(  1-C , 12-H ) :   0.9275 B(  2-C ,  3-C ) :   0.9622 B(  2-C , 13-H ) :   0.9258
B(  2-C , 14-H ) :   0.9129 B(  3-C ,  4-C ) :   0.8816 B(  3-C ,  5-C ) :   0.8051
B(  3-C , 15-H ) :   0.9120 B(  4-C ,  5-C ) :   0.8632 B(  4-C , 16-H ) :   0.9337
B(  4-C , 17-H ) :   0.9083 B(  5-C ,  6-C ) :   0.9436 B(  6-C ,  7-C ) :   0.8645
B(  6-C ,  8-C ) :   0.8487 B(  6-C , 18-H ) :   0.9306 B(  7-C ,  8-C ) :   0.9116
B(  7-C , 19-H ) :   0.9305 B(  7-C , 20-H ) :   0.9342 B(  8-C , 21-H ) :   0.9323
B(  8-C , 22-H ) :   0.9293

MP2 TOTAL ENERGY:     -350.464870803 Eh
FINAL SINGLE POINT ENERGY      -350.464870803204

DIPOLE MOMENT
-------------
                                X             Y             Z
Electronic contribution:      0.92783      -2.63859       0.37870
Nuclear contribution   :     -1.03625       2.54826      -0.36152
                        -----------------------------------------
Total Dipole Moment    :     -0.10843      -0.09033       0.01718
                        -----------------------------------------
Magnitude (a.u.)       :      0.14216
Magnitude (Debye)      :      0.36135

                             ****ORCA TERMINATED NORMALLY****
TOTAL RUN TIME: 0 days 0 hours 20 minutes 38 seconds 225 msec
