                         Program Version 3.0.3 - RELEASE   -
|  1> ! RI-MP2 RIJK def2-TZVP def2-TZVP/C def2-TZVP/JK TIGHTSCF
|  2> % maxcore 2000
|  3> % mp2 density relaxed end
|  4> *xyz 0 1
|  5>  C       -0.1526690405     1.5760577992     0.0230494065
|  6>  C        0.0285733292     0.0578611178     0.0236250356
|  7>  O       -1.2540387947    -0.5860618461    -0.0358779116
|  8>  C        0.8269060514    -0.4761065146    -1.2124784591
|  9>  C        1.4536112554    -1.7645362275    -0.6670671225
| 10>  O        2.9089004198    -2.0010995299    -0.7021169198
| 11>  C        2.9489988444    -2.1288584631     0.7526508802
| 12>  C        1.5847428574    -1.4907775407     0.7951594023
| 13>  C        0.8882328492    -0.4376354490     1.2021695541
| 14>  H        0.8112308810     2.0937730044     0.0540597984
| 15>  H       -0.6910740578     1.8894067005    -0.8761560687
| 16>  H       -0.7358082651     1.8966774885     0.8945735184
| 17>  H       -1.6930588538    -0.4444206558     0.8094835177
| 18>  H        0.1743285009    -0.6063191700    -2.0789221431
| 19>  H        1.6254205991     0.2278317942    -1.4635890473
| 20>  H        0.9300209857    -2.6758543074    -0.9776445853
| 21>  H        3.0007329636    -3.1827231118     1.0566341975
| 22>  H        3.7768271882    -1.5735520769     1.2059166018
| 23>  H        0.9621244067     0.0946563081     2.1439180149
| 24> *
| 25>
| 26>                          ****END OF INPUT****

CARTESIAN COORDINATES (ANGSTROEM)
---------------------------------
  C     -0.152669    1.576058    0.023049
  C      0.028573    0.057861    0.023625
  O     -1.254039   -0.586062   -0.035878
  C      0.826906   -0.476107   -1.212478
  C      1.453611   -1.764536   -0.667067
  O      2.908900   -2.001100   -0.702117
  C      2.948999   -2.128858    0.752651
  C      1.584743   -1.490778    0.795159
  C      0.888233   -0.437635    1.202170
  H      0.811231    2.093773    0.054060
  H     -0.691074    1.889407   -0.876156
  H     -0.735808    1.896677    0.894574
  H     -1.693059   -0.444421    0.809484
  H      0.174329   -0.606319   -2.078922
  H      1.625421    0.227832   -1.463589
  H      0.930021   -2.675854   -0.977645
  H      3.000733   -3.182723    1.056634
  H      3.776827   -1.573552    1.205917
  H      0.962124    0.094656    2.143918

 Total Charge           Charge          ....    0
 Multiplicity           Mult            ....    1
 Number of Electrons    NEL             ....   68
 Basis Dimension        Dim             ....  339

ORBITAL ENERGIES
----------------

  NO   OCC          E(Eh)            E(eV)
   0   2.0000     -20.554471      -559.3156
   1   2.0000     -20.554137      -559.3065
   2   2.0000     -11.299407      -307.4725
   3   2.0000     -11.294495      -307.3388
   4   2.0000     -11.278693      -306.9088
   5   2.0000     -11.242189      -305.9155
   6   2.0000     -11.232788      -305.6597
   7   2.0000     -11.225381      -305.4581
   8   2.0000     -11.222222      -305.3722
   9   2.0000      -1.376681       -37.4614
  10   2.0000      -1.360731       -37.0274
  11   2.0000      -1.124384       -30.5961
  12   2.0000      -1.013537       -27.5797
  13   2.0000      -0.984499       -26.7896
  14   2.0000      -0.919040       -25.0084
  15   2.0000      -0.877778       -23.8856
  16   2.0000      -0.777751       -21.1637
  17   2.0000      -0.733105       -19.9488
  18   2.0000      -0.693492       -18.8709
  19   2.0000      -0.672712       -18.3054
  20   2.0000      -0.644047       -17.5254
  21   2.0000      -0.615557       -16.7502
  22   2.0000      -0.601548       -16.3690
  23   2.0000      -0.588949       -16.0261
  24   2.0000      -0.566783       -15.4230
  25   2.0000      -0.549890       -14.9633
  26   2.0000      -0.522325       -14.2132
  27   2.0000      -0.516881       -14.0651
  28   2.0000      -0.502285       -13.6679
  29   2.0000      -0.472829       -12.8663
  30   2.0000      -0.457795       -12.4572
  31   2.0000      -0.441092       -12.0027
  32   2.0000      -0.423501       -11.5240
  33   2.0000      -0.357165        -9.7190
  34   0.0000       0.120507         3.2792
  35   0.0000       0.133016         3.6195
  36   0.0000       0.161350         4.3905
  37   0.0000       0.177586         4.8324
  38   0.0000       0.184413         5.0181

MULLIKEN ATOMIC CHARGES
-----------------------
   0 C :   -0.424494
   1 C :    0.342744
   2 O :   -0.473115
   3 C :   -0.255533
   4 C :    0.064450
   5 O :   -0.315314
   6 C :   -0.010910
   7 C :    0.008849
   8 C :   -0.366555
   9 H :    0.131592
  10 H :    0.146629
  11 H :    0.120420
  12 H :    0.310216
  13 H :    0.131107
  14 H :    0.127718
  15 H :    0.103783
  16 H :    0.106505
  17 H :    0.115151
  18 H :    0.136755
Sum of atomic charges:    0.0000000

LOEWDIN ATOMIC CHARGES
----------------------
   0 C :   -0.279395
   1 C :   -0.360283
   2 O :   -0.002035
   3 C :   -0.175961
   4 C :   -0.211226
   5 O :    0.122715
   6 C :   -0.227021
   7 C :   -0.140138
   8 C :   -0.106265
   9 H :    0.128525
  10 H :    0.131045
  11 H :    0.123032
  12 H :    0.173273
  13 H :    0.140007
  14 H :    0.151574
  15 H :    0.142254
  16 H :    0.125560
  17 H :    0.125341
  18 H :    0.138998

  Mayer bond orders larger than 0.1
B(  0-C ,  1-C ) :   0.8961 B(  0-C ,  9-H ) :   0.9333 B(  0-C , 10-H ) :   0.9434
B(  0-C , 11-H ) :   0.9245 B(  1-C ,  2-O ) :   0.8935 B(  1-C ,  3-C ) :   0.8979
B(  1-C ,  8-C ) :   0.8997 B(  2-O , 12-H ) :   0.8440 B(  3-C ,  4-C ) :   0.9341
B(  3-C , 13-H ) :   0.9171 B(  3-C , 14-H ) :   0.9185 B(  4-C ,  5-O ) :   0.9709
B(  4-C ,  7-C ) :   0.9707 B(  4-C , 15-H ) :   0.9147 B(  5-O ,  6-C ) :   0.9487
B(  6-C ,  7-C ) :   1.0013 B(  6-C , 16-H ) :   0.8952 B(  6-C , 17-H ) :   0.9138
B(  7-C ,  8-C ) :   1.7140 B(  8-C , 18-H ) :   0.9107

MP2 TOTAL ENERGY:     -422.283422303 Eh
FINAL SINGLE POINT ENERGY      -422.283422303345

DIPOLE MOMENT
-------------
                                X             Y             Z
Electronic contribution:      1.52899      -4.79026       0.14292
Nuclear contribution   :     -1.69867       5.26071       0.71116
                        -----------------------------------------
Total Dipole Moment    :     -0.16967       0.47045       0.85408
                        -----------------------------------------
Magnitude (a.u.)       :      0.98973
Magnitude (Debye)      :      2.51569

                             ****ORCA TERMINATED NORMALLY****
TOTAL RUN TIME: 0 days 0 hours 18 minutes 16 seconds 85 msec
