                         Program Version 3.0.3 - RELEASE   -
|  1> ! RI-MP2 RIJK def2-TZVP def2-TZVP/C def2-TZVP/JK TIGHTSCF
|  2> % maxcore 2000
|  3> % mp2 density relaxed end
|  4> *xyz 0 1
|  5>  C       -0.4561518567     1.5147060513     0.0507452474
|  6>  C       -0.0017737549     0.0484039364     0.0127643024
|  7>  C        0.7704605957    -0.3769574553    -1.2794999145
|  8>  C        2.2537483616    -0.5458726360    -0.8489557632
|  9>  C        2.8846384128     0.8340514324    -0.7244183479
| 10>  C        2.8405662815     1.2693321293     0.5353905106
| 11>  C        2.2891340535     0.2222004974     1.4458475323
| 12>  C        0.9098456545    -0.4002041318     1.1636994499
| 13>  C        2.1560405371    -1.0365894837     0.6182907534
| 14>  H        0.3848320357     2.2044249292    -0.0445707987
| 15>  H       -1.1583361969     1.7233035474    -0.7641455353
| 16>  H       -0.9697320543     1.7354322144     0.9929287840
| 17>  H       -0.9101298887    -0.5624620119     0.0824306410
| 18>  H        0.3847879122    -1.3367865528    -1.6416735842
| 19>  H        0.6522320639     0.3461381653    -2.0935036173
| 20>  H        2.8022803651    -1.2198447347    -1.5130687139
| 21>  H        3.1806101238     1.4184151338    -1.5887951907
| 22>  H        3.1372371348     2.2537439388     0.8792572089
| 23>  H        2.6224170845     0.1792186638     2.4778375890
| 24>  H        0.4269100890    -0.8311243533     2.0356544398
| 25>  H        2.5347407957    -2.0026607701     0.9289894767
| 26> *
| 27>
| 28>                          ****END OF INPUT****

CARTESIAN COORDINATES (ANGSTROEM)
---------------------------------
  C     -0.456152    1.514706    0.050745
  C     -0.001774    0.048404    0.012764
  C      0.770461   -0.376957   -1.279500
  C      2.253748   -0.545873   -0.848956
  C      2.884638    0.834051   -0.724418
  C      2.840566    1.269332    0.535391
  C      2.289134    0.222200    1.445848
  C      0.909846   -0.400204    1.163699
  C      2.156041   -1.036589    0.618291
  H      0.384832    2.204425   -0.044571
  H     -1.158336    1.723304   -0.764146
  H     -0.969732    1.735432    0.992929
  H     -0.910130   -0.562462    0.082431
  H      0.384788   -1.336787   -1.641674
  H      0.652232    0.346138   -2.093504
  H      2.802280   -1.219845   -1.513069
  H      3.180610    1.418415   -1.588795
  H      3.137237    2.253744    0.879257
  H      2.622417    0.179219    2.477838
  H      0.426910   -0.831124    2.035654
  H      2.534741   -2.002661    0.928989

 Total Charge           Charge          ....    0
 Multiplicity           Mult            ....    1
 Number of Electrons    NEL             ....   66
 Basis Dimension        Dim             ....  351

ORBITAL ENERGIES
----------------

  NO   OCC          E(Eh)            E(eV)
   0   2.0000     -11.227950      -305.5281
   1   2.0000     -11.227834      -305.5249
   2   2.0000     -11.225825      -305.4702
   3   2.0000     -11.224326      -305.4295
   4   2.0000     -11.220361      -305.3215
   5   2.0000     -11.219591      -305.3006
   6   2.0000     -11.215760      -305.1964
   7   2.0000     -11.214931      -305.1738
   8   2.0000     -11.203558      -304.8643
   9   2.0000      -1.193500       -32.4768
  10   2.0000      -1.050148       -28.5760
  11   2.0000      -1.032637       -28.0995
  12   2.0000      -0.975712       -26.5505
  13   2.0000      -0.880898       -23.9705
  14   2.0000      -0.841788       -22.9062
  15   2.0000      -0.761590       -20.7239
  16   2.0000      -0.743478       -20.2311
  17   2.0000      -0.709009       -19.2931
  18   2.0000      -0.700504       -19.0617
  19   2.0000      -0.624029       -16.9807
  20   2.0000      -0.597110       -16.2482
  21   2.0000      -0.576877       -15.6976
  22   2.0000      -0.562127       -15.2963
  23   2.0000      -0.546876       -14.8812
  24   2.0000      -0.528358       -14.3773
  25   2.0000      -0.500047       -13.6070
  26   2.0000      -0.478861       -13.0305
  27   2.0000      -0.473670       -12.8892
  28   2.0000      -0.455657       -12.3990
  29   2.0000      -0.442629       -12.0446
  30   2.0000      -0.429853       -11.6969
  31   2.0000      -0.391073       -10.6416
  32   2.0000      -0.317817        -8.6482
  33   0.0000       0.136130         3.7043
  34   0.0000       0.148564         4.0426
  35   0.0000       0.164576         4.4783
  36   0.0000       0.167955         4.5703
  37   0.0000       0.174567         4.7502

MULLIKEN ATOMIC CHARGES
-----------------------
   0 C :   -0.423375
   1 C :    0.008722
   2 C :   -0.267881
   3 C :    0.041974
   4 C :   -0.196308
   5 C :   -0.247294
   6 C :   -0.052015
   7 C :   -0.171087
   8 C :   -0.139922
   9 H :    0.137544
  10 H :    0.126607
  11 H :    0.125079
  12 H :    0.088944
  13 H :    0.118740
  14 H :    0.113873
  15 H :    0.114048
  16 H :    0.122992
  17 H :    0.122496
  18 H :    0.123764
  19 H :    0.118658
  20 H :    0.134440
Sum of atomic charges:    0.0000000

LOEWDIN ATOMIC CHARGES
----------------------
   0 C :   -0.294632
   1 C :   -0.238270
   2 C :   -0.194859
   3 C :   -0.189004
   4 C :   -0.135582
   5 C :   -0.143515
   6 C :   -0.163564
   7 C :   -0.147872
   8 C :   -0.135040
   9 H :    0.124711
  10 H :    0.120767
  11 H :    0.122892
  12 H :    0.152893
  13 H :    0.135668
  14 H :    0.135820
  15 H :    0.146378
  16 H :    0.135995
  17 H :    0.138026
  18 H :    0.145395
  19 H :    0.145768
  20 H :    0.138023

  Mayer bond orders larger than 0.1
B(  0-C ,  1-C ) :   0.8943 B(  0-C ,  9-H ) :   0.9359 B(  0-C , 10-H ) :   0.9393
B(  0-C , 11-H ) :   0.9396 B(  1-C ,  2-C ) :   0.9216 B(  1-C ,  7-C ) :   0.9190
B(  1-C , 12-H ) :   0.9308 B(  2-C ,  3-C ) :   0.9017 B(  2-C , 13-H ) :   0.9201
B(  2-C , 14-H ) :   0.9316 B(  3-C ,  4-C ) :   0.9051 B(  3-C ,  8-C ) :   0.8982
B(  3-C , 15-H ) :   0.9241 B(  4-C ,  5-C ) :   1.8059 B(  4-C , 16-H ) :   0.9263
B(  5-C ,  6-C ) :   0.9312 B(  5-C , 17-H ) :   0.9387 B(  6-C ,  7-C ) :   0.8557
B(  6-C ,  8-C ) :   0.8763 B(  6-C , 18-H ) :   0.9302 B(  7-C ,  8-C ) :   0.8960
B(  7-C , 19-H ) :   0.9247 B(  8-C , 20-H ) :   0.9144

MP2 TOTAL ENERGY:     -349.310982930 Eh
FINAL SINGLE POINT ENERGY      -349.310982930164

DIPOLE MOMENT
-------------
                                X             Y             Z
Electronic contribution:      4.18552      -1.70722       1.31045
Nuclear contribution   :     -4.30951       1.57702      -1.30542
                        -----------------------------------------
Total Dipole Moment    :     -0.12399      -0.13020       0.00503
                        -----------------------------------------
Magnitude (a.u.)       :      0.17986
Magnitude (Debye)      :      0.45718

                             ****ORCA TERMINATED NORMALLY****
TOTAL RUN TIME: 0 days 0 hours 21 minutes 56 seconds 533 msec
