                         Program Version 3.0.3 - RELEASE   -
|  1> ! RI-MP2 RIJK def2-TZVP def2-TZVP/C def2-TZVP/JK TIGHTSCF
|  2> % maxcore 2000
|  3> % mp2 density relaxed end
|  4> *xyz 0 1
|  5>  C        0.0343009716     1.3960643299    -0.1256453561
|  6>  N       -0.0326511597    -0.0333958176    -0.3601887322
|  7>  C       -1.0732600254    -0.6250612716     0.0114260515
|  8>  O       -1.1641839767    -1.9810071543    -0.1983730759
|  9>  C       -2.3086815881    -2.6220694072     0.2121590264
| 10>  C       -2.2075525771    -4.0888623523    -0.1072393117
| 11>  O       -3.2326469420    -2.0696802349     0.7423847803
| 12>  H        0.9099229279     1.6184663174     0.4937533539
| 13>  H        0.1811421352     1.9110172523    -1.0812040518
| 14>  H       -0.8582392715     1.8137845951     0.3649524303
| 15>  H       -1.9514786926    -0.1950967244     0.4976703209
| 16>  H       -3.1145482122    -4.5953478161     0.2195379704
| 17>  H       -2.0647333235    -4.2256455244    -1.1829304074
| 18>  H       -1.3339921059    -4.5182157018     0.3915070714
| 19> *
| 20>
| 21>                          ****END OF INPUT****

CARTESIAN COORDINATES (ANGSTROEM)
---------------------------------
  C      0.034301    1.396064   -0.125645
  N     -0.032651   -0.033396   -0.360189
  C     -1.073260   -0.625061    0.011426
  O     -1.164184   -1.981007   -0.198373
  C     -2.308682   -2.622069    0.212159
  C     -2.207553   -4.088862   -0.107239
  O     -3.232647   -2.069680    0.742385
  H      0.909923    1.618466    0.493753
  H      0.181142    1.911017   -1.081204
  H     -0.858239    1.813785    0.364952
  H     -1.951479   -0.195097    0.497670
  H     -3.114548   -4.595348    0.219538
  H     -2.064733   -4.225646   -1.182930
  H     -1.333992   -4.518216    0.391507

 Total Charge           Charge          ....    0
 Multiplicity           Mult            ....    1
 Number of Electrons    NEL             ....   54
 Basis Dimension        Dim             ....  259

ORBITAL ENERGIES
----------------

  NO   OCC          E(Eh)            E(eV)
   0   2.0000     -20.625946      -561.2605
   1   2.0000     -20.564085      -559.5772
   2   2.0000     -15.560587      -423.4251
   3   2.0000     -11.402090      -310.2667
   4   2.0000     -11.338516      -308.5367
   5   2.0000     -11.254852      -306.2601
   6   2.0000     -11.252681      -306.2010
   7   2.0000      -1.486772       -40.4571
   8   2.0000      -1.391158       -37.8553
   9   2.0000      -1.235069       -33.6079
  10   2.0000      -1.041958       -28.3531
  11   2.0000      -0.960805       -26.1448
  12   2.0000      -0.850679       -23.1482
  13   2.0000      -0.793614       -21.5953
  14   2.0000      -0.716873       -19.5071
  15   2.0000      -0.682723       -18.5778
  16   2.0000      -0.675726       -18.3874
  17   2.0000      -0.635177       -17.2841
  18   2.0000      -0.600940       -16.3524
  19   2.0000      -0.592502       -16.1228
  20   2.0000      -0.581891       -15.8340
  21   2.0000      -0.574041       -15.6205
  22   2.0000      -0.546863       -14.8809
  23   2.0000      -0.515206       -14.0195
  24   2.0000      -0.474575       -12.9139
  25   2.0000      -0.423478       -11.5234
  26   2.0000      -0.404662       -11.0114
  27   0.0000       0.136000         3.7007
  28   0.0000       0.136065         3.7025
  29   0.0000       0.154112         4.1936
  30   0.0000       0.175309         4.7704
  31   0.0000       0.196942         5.3591

MULLIKEN ATOMIC CHARGES
-----------------------
   0 C :   -0.248358
   1 N :   -0.170594
   2 C :    0.037224
   3 O :   -0.206219
   4 C :    0.329630
   5 C :   -0.405843
   6 O :   -0.314336
   7 H :    0.141204
   8 H :    0.141203
   9 H :    0.101145
  10 H :    0.121463
  11 H :    0.156268
  12 H :    0.158601
  13 H :    0.158611
Sum of atomic charges:   -0.0000000

LOEWDIN ATOMIC CHARGES
----------------------
   0 C :   -0.330362
   1 N :    0.075442
   2 C :   -0.321030
   3 O :    0.286793
   4 C :   -0.469791
   5 C :   -0.267237
   6 O :    0.133946
   7 H :    0.120125
   8 H :    0.120125
   9 H :    0.104548
  10 H :    0.122882
  11 H :    0.137412
  12 H :    0.143584
  13 H :    0.143565

  Mayer bond orders larger than 0.1
B(  0-C ,  1-N ) :   0.8752 B(  0-C ,  7-H ) :   0.9309 B(  0-C ,  8-H ) :   0.9309
B(  0-C ,  9-H ) :   0.9283 B(  1-N ,  2-C ) :   1.9172 B(  2-C ,  3-O ) :   0.9538
B(  2-C , 10-H ) :   0.9293 B(  3-O ,  4-C ) :   1.0140 B(  4-C ,  5-C ) :   0.9337
B(  4-C ,  6-O ) :   1.9395 B(  5-C , 11-H ) :   0.9420 B(  5-C , 12-H ) :   0.9122
B(  5-C , 13-H ) :   0.9122

MP2 TOTAL ENERGY:     -361.160085321 Eh
FINAL SINGLE POINT ENERGY      -361.160085320610

DIPOLE MOMENT
-------------
                                X             Y             Z
Electronic contribution:     -1.78750      -1.82941       0.48778
Nuclear contribution   :      1.73430       1.71589      -0.48439
                        -----------------------------------------
Total Dipole Moment    :     -0.05320      -0.11351       0.00339
                        -----------------------------------------
Magnitude (a.u.)       :      0.12541
Magnitude (Debye)      :      0.31876

                             ****ORCA TERMINATED NORMALLY****
TOTAL RUN TIME: 0 days 0 hours 6 minutes 7 seconds 329 msec
