                         Program Version 3.0.3 - RELEASE   -
|  1> ! RI-MP2 RIJK def2-TZVP def2-TZVP/C def2-TZVP/JK TIGHTSCF
|  2> % maxcore 2000
|  3> % mp2 density relaxed end
|  4> *xyz 0 1
|  5>  C       -0.1365949368     1.2944165233     0.2588473516
|  6>  C       -0.5238474825    -0.0749580864    -0.2375235813
|  7>  O       -0.8084738638    -0.3335749502    -1.3873451918
|  8>  O       -0.5027007548    -0.9716774152     0.7573088109
|  9>  C       -0.7066320689    -2.3690492536     0.4337999191
| 10>  C       -2.1345607945    -2.7246057169     0.0086041731
| 11>  O       -2.3251789379    -2.6485723911    -1.3915059734
| 12>  C       -2.4705509170    -4.1721680122     0.3823422503
| 13>  O       -3.7353758882    -4.5384193417    -0.1165858331
| 14>  H        0.9185710031     1.2937005504     0.5487279211
| 15>  H       -0.2997030362     2.0280425865    -0.5293110470
| 16>  H       -0.7178609852     1.5526383339     1.1474315793
| 17>  H       -0.0066630756    -2.6638920756    -0.3539343759
| 18>  H       -0.4426841765    -2.8789877147     1.3634166631
| 19>  H       -2.8317917616    -2.0552833744     0.5398073294
| 20>  H       -1.9180217263    -1.8216281197    -1.6934500942
| 21>  H       -1.6748477191    -4.8320546138    -0.0055555535
| 22>  H       -2.5009465429    -4.2840273387     1.4716460996
| 23>  H       -3.7549884354    -4.2149928300    -1.0265659174
| 24> *
| 25>
| 26>                          ****END OF INPUT****

CARTESIAN COORDINATES (ANGSTROEM)
---------------------------------
  C     -0.136595    1.294417    0.258847
  C     -0.523847   -0.074958   -0.237524
  O     -0.808474   -0.333575   -1.387345
  O     -0.502701   -0.971677    0.757309
  C     -0.706632   -2.369049    0.433800
  C     -2.134561   -2.724606    0.008604
  O     -2.325179   -2.648572   -1.391506
  C     -2.470551   -4.172168    0.382342
  O     -3.735376   -4.538419   -0.116586
  H      0.918571    1.293701    0.548728
  H     -0.299703    2.028043   -0.529311
  H     -0.717861    1.552638    1.147432
  H     -0.006663   -2.663892   -0.353934
  H     -0.442684   -2.878988    1.363417
  H     -2.831792   -2.055283    0.539807
  H     -1.918022   -1.821628   -1.693450
  H     -1.674848   -4.832055   -0.005556
  H     -2.500947   -4.284027    1.471646
  H     -3.754988   -4.214993   -1.026566

 Total Charge           Charge          ....    0
 Multiplicity           Mult            ....    1
 Number of Electrons    NEL             ....   72
 Basis Dimension        Dim             ....  339

ORBITAL ENERGIES
----------------

  NO   OCC          E(Eh)            E(eV)
   0   2.0000     -20.621227      -561.1321
   1   2.0000     -20.565455      -559.6145
   2   2.0000     -20.550529      -559.2083
   3   2.0000     -20.546194      -559.0904
   4   2.0000     -11.403815      -310.3136
   5   2.0000     -11.306374      -307.6621
   6   2.0000     -11.289440      -307.2013
   7   2.0000     -11.276675      -306.8539
   8   2.0000     -11.254845      -306.2599
   9   2.0000      -1.480940       -40.2984
  10   2.0000      -1.381332       -37.5879
  11   2.0000      -1.376040       -37.4440
  12   2.0000      -1.342973       -36.5442
  13   2.0000      -1.066378       -29.0176
  14   2.0000      -1.021365       -27.7928
  15   2.0000      -0.935917       -25.4676
  16   2.0000      -0.837676       -22.7943
  17   2.0000      -0.787393       -21.4260
  18   2.0000      -0.740422       -20.1479
  19   2.0000      -0.716139       -19.4871
  20   2.0000      -0.705472       -19.1969
  21   2.0000      -0.678117       -18.4525
  22   2.0000      -0.653052       -17.7704
  23   2.0000      -0.632147       -17.2016
  24   2.0000      -0.604286       -16.4435
  25   2.0000      -0.590940       -16.0803
  26   2.0000      -0.582828       -15.8596
  27   2.0000      -0.573682       -15.6107
  28   2.0000      -0.570775       -15.5316
  29   2.0000      -0.547538       -14.8993
  30   2.0000      -0.524261       -14.2659
  31   2.0000      -0.504284       -13.7223
  32   2.0000      -0.477671       -12.9981
  33   2.0000      -0.472847       -12.8668
  34   2.0000      -0.447949       -12.1893
  35   2.0000      -0.431183       -11.7331
  36   0.0000       0.129649         3.5279
  37   0.0000       0.144926         3.9436
  38   0.0000       0.155304         4.2260
  39   0.0000       0.170338         4.6351
  40   0.0000       0.185168         5.0387

MULLIKEN ATOMIC CHARGES
-----------------------
   0 C :   -0.404771
   1 C :    0.386754
   2 O :   -0.397781
   3 O :   -0.246013
   4 C :   -0.133103
   5 C :    0.067529
   6 O :   -0.510717
   7 C :   -0.000734
   8 O :   -0.483365
   9 H :    0.155524
  10 H :    0.159076
  11 H :    0.156847
  12 H :    0.147558
  13 H :    0.136851
  14 H :    0.086534
  15 H :    0.346546
  16 H :    0.089958
  17 H :    0.106592
  18 H :    0.336716
Sum of atomic charges:    0.0000000

LOEWDIN ATOMIC CHARGES
----------------------
   0 C :   -0.265586
   1 C :   -0.496658
   2 O :    0.100937
   3 O :    0.254784
   4 C :   -0.253376
   5 C :   -0.376303
   6 O :   -0.029346
   7 C :   -0.336711
   8 O :   -0.040606
   9 H :    0.143233
  10 H :    0.137926
  11 H :    0.140889
  12 H :    0.138111
  13 H :    0.140959
  14 H :    0.139861
  15 H :    0.171294
  16 H :    0.119908
  17 H :    0.128448
  18 H :    0.182237

  Mayer bond orders larger than 0.1
B(  0-C ,  1-C ) :   0.9285 B(  0-C ,  9-H ) :   0.9121 B(  0-C , 10-H ) :   0.9411
B(  0-C , 11-H ) :   0.9197 B(  1-C ,  2-O ) :   1.7943 B(  1-C ,  3-O ) :   1.1335
B(  3-O ,  4-C ) :   0.8304 B(  4-C ,  5-C ) :   0.9005 B(  4-C , 12-H ) :   0.9318
B(  4-C , 13-H ) :   0.9205 B(  5-C ,  6-O ) :   0.9386 B(  5-C ,  7-C ) :   0.9257
B(  5-C , 14-H ) :   0.9324 B(  6-O , 15-H ) :   0.7989 B(  7-C ,  8-O ) :   0.9582
B(  7-C , 16-H ) :   0.9217 B(  7-C , 17-H ) :   0.9240 B(  8-O , 18-H ) :   0.8230

MP2 TOTAL ENERGY:     -496.574781170 Eh
FINAL SINGLE POINT ENERGY      -496.574781170465

DIPOLE MOMENT
-------------
                                X             Y             Z
Electronic contribution:     -0.69486       0.16586      -2.23138
Nuclear contribution   :      1.76872       0.73700       2.92893
                        -----------------------------------------
Total Dipole Moment    :      1.07386       0.90285       0.69755
                        -----------------------------------------
Magnitude (a.u.)       :      1.56681
Magnitude (Debye)      :      3.98251

                             ****ORCA TERMINATED NORMALLY****
TOTAL RUN TIME: 0 days 0 hours 14 minutes 15 seconds 475 msec
