                         Program Version 3.0.3 - RELEASE   -
|  1> ! RI-MP2 RIJK def2-TZVP def2-TZVP/C def2-TZVP/JK TIGHTSCF
|  2> % maxcore 2000
|  3> % mp2 density relaxed end
|  4> *xyz 0 1
|  5>  C        0.0575070323     1.2869193487    -0.1791056405
|  6>  O       -0.0197107628    -0.0108568783     0.3757294967
|  7>  C       -1.2592819522    -0.6216388307     0.1892877201
|  8>  C       -1.6608343061    -1.2134215613    -1.1992403911
|  9>  N       -1.8766940666    -2.5808041326    -0.5913727367
| 10>  C       -0.5596297396    -3.0153225145    -0.0666333110
| 11>  C        0.6810542406    -2.7232455004    -0.7429365172
| 12>  N        1.6704965709    -2.5554528254    -1.3171896910
| 13>  C       -1.3492621387    -2.0379330715     0.7261019515
| 14>  H        1.0553317095     1.6704817265     0.0408408353
| 15>  H       -0.0847519219     1.2744809226    -1.2691722470
| 16>  H       -0.6932852046     1.9592120769     0.2641230778
| 17>  H       -2.0695496971     0.0050590240     0.5907399411
| 18>  H       -2.6062635059    -0.8389956400    -1.5927605830
| 19>  H       -0.8958766818    -1.1928842867    -1.9791739706
| 20>  H       -0.6046452515    -4.0366382862     0.3019922456
| 21>  H       -1.7722939646    -2.3295005212     1.6816605099
| 22> *
| 23>
| 24>                          ****END OF INPUT****

CARTESIAN COORDINATES (ANGSTROEM)
---------------------------------
  C      0.057507    1.286919   -0.179106
  O     -0.019711   -0.010857    0.375729
  C     -1.259282   -0.621639    0.189288
  C     -1.660834   -1.213422   -1.199240
  N     -1.876694   -2.580804   -0.591373
  C     -0.559630   -3.015323   -0.066633
  C      0.681054   -2.723246   -0.742937
  N      1.670497   -2.555453   -1.317190
  C     -1.349262   -2.037933    0.726102
  H      1.055332    1.670482    0.040841
  H     -0.084752    1.274481   -1.269172
  H     -0.693285    1.959212    0.264123
  H     -2.069550    0.005059    0.590740
  H     -2.606264   -0.838996   -1.592761
  H     -0.895877   -1.192884   -1.979174
  H     -0.604645   -4.036638    0.301992
  H     -1.772294   -2.329501    1.681661

 Total Charge           Charge          ....    0
 Multiplicity           Mult            ....    1
 Number of Electrons    NEL             ....   66
 Basis Dimension        Dim             ....  327

ORBITAL ENERGIES
----------------

  NO   OCC          E(Eh)            E(eV)
   0   2.0000     -20.574440      -559.8590
   1   2.0000     -15.599354      -424.4800
   2   2.0000     -15.573675      -423.7812
   3   2.0000     -11.317111      -307.9543
   4   2.0000     -11.311334      -307.7971
   5   2.0000     -11.296159      -307.3841
   6   2.0000     -11.284109      -307.0562
   7   2.0000     -11.276946      -306.8613
   8   2.0000     -11.275692      -306.8272
   9   2.0000      -1.402435       -38.1622
  10   2.0000      -1.321910       -35.9710
  11   2.0000      -1.217475       -33.1292
  12   2.0000      -1.040754       -28.3203
  13   2.0000      -0.984650       -26.7937
  14   2.0000      -0.918578       -24.9958
  15   2.0000      -0.908800       -24.7297
  16   2.0000      -0.777676       -21.1616
  17   2.0000      -0.746238       -20.3062
  18   2.0000      -0.712746       -19.3948
  19   2.0000      -0.670417       -18.2430
  20   2.0000      -0.647001       -17.6058
  21   2.0000      -0.639537       -17.4027
  22   2.0000      -0.604308       -16.4440
  23   2.0000      -0.586187       -15.9510
  24   2.0000      -0.564735       -15.3672
  25   2.0000      -0.529754       -14.4153
  26   2.0000      -0.519859       -14.1461
  27   2.0000      -0.497352       -13.5336
  28   2.0000      -0.483412       -13.1543
  29   2.0000      -0.471078       -12.8187
  30   2.0000      -0.456409       -12.4195
  31   2.0000      -0.428934       -11.6719
  32   2.0000      -0.398340       -10.8394
  33   0.0000       0.129840         3.5331
  34   0.0000       0.142202         3.8695
  35   0.0000       0.154902         4.2151
  36   0.0000       0.159299         4.3347
  37   0.0000       0.169224         4.6048

MULLIKEN ATOMIC CHARGES
-----------------------
   0 C :   -0.223570
   1 O :   -0.293567
   2 C :    0.047693
   3 C :   -0.184643
   4 N :   -0.206191
   5 C :   -0.000468
   6 C :   -0.159904
   7 N :   -0.053548
   8 C :    0.005042
   9 H :    0.151758
  10 H :    0.120829
  11 H :    0.114607
  12 H :    0.093922
  13 H :    0.138699
  14 H :    0.147350
  15 H :    0.155396
  16 H :    0.146595
Sum of atomic charges:   -0.0000000

LOEWDIN ATOMIC CHARGES
----------------------
   0 C :   -0.344489
   1 O :    0.174822
   2 C :   -0.316241
   3 C :   -0.216204
   4 N :    0.139877
   5 C :   -0.232676
   6 C :   -0.176502
   7 N :    0.074404
   8 C :   -0.152928
   9 H :    0.118386
  10 H :    0.105291
  11 H :    0.103881
  12 H :    0.140921
  13 H :    0.131539
  14 H :    0.135058
  15 H :    0.174767
  16 H :    0.140094

  Mayer bond orders larger than 0.1
B(  0-C ,  1-O ) :   0.8946 B(  0-C ,  9-H ) :   0.9395 B(  0-C , 10-H ) :   0.9350
B(  0-C , 11-H ) :   0.9327 B(  1-O ,  2-C ) :   1.0042 B(  2-C ,  3-C ) :   0.9565
B(  2-C ,  8-C ) :   0.9183 B(  2-C , 12-H ) :   0.9287 B(  3-C ,  4-N ) :   0.9116
B(  3-C , 13-H ) :   0.9156 B(  3-C , 14-H ) :   0.9226 B(  4-N ,  5-C ) :   0.9478
B(  4-N ,  8-C ) :   0.8316 B(  5-C ,  6-C ) :   0.9430 B(  5-C ,  8-C ) :   0.9182
B(  5-C , 15-H ) :   0.9135 B(  6-C ,  7-N ) :   2.8211 B(  8-C , 16-H ) :   0.9025

MP2 TOTAL ENERGY:     -417.245789087 Eh
FINAL SINGLE POINT ENERGY      -417.245789086565

DIPOLE MOMENT
-------------
                                X             Y             Z
Electronic contribution:      2.43655      -6.61307       0.12637
Nuclear contribution   :     -3.55451       7.35263       0.45888
                        -----------------------------------------
Total Dipole Moment    :     -1.11796       0.73956       0.58526
                        -----------------------------------------
Magnitude (a.u.)       :      1.46264
Magnitude (Debye)      :      3.71774

                             ****ORCA TERMINATED NORMALLY****
TOTAL RUN TIME: 0 days 0 hours 28 minutes 8 seconds 385 msec
