                         Program Version 3.0.3 - RELEASE   -
|  1> ! RI-MP2 RIJK def2-TZVP def2-TZVP/C def2-TZVP/JK TIGHTSCF
|  2> % maxcore 2000
|  3> % mp2 density relaxed end
|  4> *xyz 0 1
|  5>  O        0.0250223503     1.3863230219     0.0099391812
|  6>  C       -0.0372887216    -0.0166182177     0.0031470488
|  7>  C       -1.4862412425    -0.4596752252     0.0121894021
|  8>  N       -2.4498051145     0.3672243550     0.0244026255
|  9>  N       -1.6416482178    -1.8512311123     0.0057129571
| 10>  C       -2.8686379905    -2.6648923225     0.0112356012
| 11>  C       -1.9621804778    -3.9272691217    -0.0022695887
| 12>  C       -0.7756558189    -2.9468314148    -0.0062254078
| 13>  O        0.4220100871    -3.0222004870    -0.0156987523
| 14>  H        0.9550917969     1.6303291597     0.0056646824
| 15>  H        0.4481758572    -0.4598781736    -0.8807378389
| 16>  H        0.4618978738    -0.4690161639     0.8746679424
| 17>  H       -3.3530608354    -0.1109186092     0.0288934537
| 18>  H       -3.4748106808    -2.5304715462     0.9116011057
| 19>  H       -3.4889152819    -2.5213648842    -0.8780424640
| 20>  H       -2.0168276839    -4.5578889494     0.8864175053
| 21>  H       -2.0304732797    -4.5486263988    -0.8965219438
| 22> *
| 23>
| 24>                          ****END OF INPUT****

CARTESIAN COORDINATES (ANGSTROEM)
---------------------------------
  O      0.025022    1.386323    0.009939
  C     -0.037289   -0.016618    0.003147
  C     -1.486241   -0.459675    0.012189
  N     -2.449805    0.367224    0.024403
  N     -1.641648   -1.851231    0.005713
  C     -2.868638   -2.664892    0.011236
  C     -1.962180   -3.927269   -0.002270
  C     -0.775656   -2.946831   -0.006225
  O      0.422010   -3.022200   -0.015699
  H      0.955092    1.630329    0.005665
  H      0.448176   -0.459878   -0.880738
  H      0.461898   -0.469016    0.874668
  H     -3.353061   -0.110919    0.028893
  H     -3.474811   -2.530472    0.911601
  H     -3.488915   -2.521365   -0.878042
  H     -2.016828   -4.557889    0.886418
  H     -2.030473   -4.548626   -0.896522

 Total Charge           Charge          ....    0
 Multiplicity           Mult            ....    1
 Number of Electrons    NEL             ....   68
 Basis Dimension        Dim             ....  327

ORBITAL ENERGIES
----------------

  NO   OCC          E(Eh)            E(eV)
   0   2.0000     -20.557922      -559.4095
   1   2.0000     -20.553448      -559.2878
   2   2.0000     -15.615675      -424.9241
   3   2.0000     -15.539695      -422.8566
   4   2.0000     -11.378436      -309.6230
   5   2.0000     -11.328006      -308.2507
   6   2.0000     -11.300924      -307.5138
   7   2.0000     -11.290320      -307.2252
   8   2.0000     -11.269978      -306.6717
   9   2.0000      -1.416848       -38.5544
  10   2.0000      -1.369085       -37.2547
  11   2.0000      -1.314697       -35.7747
  12   2.0000      -1.203640       -32.7527
  13   2.0000      -1.053388       -28.6642
  14   2.0000      -0.964352       -26.2414
  15   2.0000      -0.920148       -25.0385
  16   2.0000      -0.841144       -22.8887
  17   2.0000      -0.742349       -20.2003
  18   2.0000      -0.705694       -19.2029
  19   2.0000      -0.703401       -19.1405
  20   2.0000      -0.682945       -18.5839
  21   2.0000      -0.675903       -18.3923
  22   2.0000      -0.643426       -17.5085
  23   2.0000      -0.618261       -16.8237
  24   2.0000      -0.573448       -15.6043
  25   2.0000      -0.567476       -15.4418
  26   2.0000      -0.562528       -15.3072
  27   2.0000      -0.544743       -14.8232
  28   2.0000      -0.515991       -14.0408
  29   2.0000      -0.492122       -13.3913
  30   2.0000      -0.460226       -12.5234
  31   2.0000      -0.446769       -12.1572
  32   2.0000      -0.422265       -11.4904
  33   2.0000      -0.380662       -10.3583
  34   0.0000       0.117935         3.2092
  35   0.0000       0.129011         3.5106
  36   0.0000       0.139876         3.8062
  37   0.0000       0.145905         3.9703
  38   0.0000       0.172588         4.6964

MULLIKEN ATOMIC CHARGES
-----------------------
   0 O :   -0.427940
   1 C :   -0.039247
   2 C :    0.067300
   3 N :   -0.317951
   4 N :   -0.071215
   5 C :   -0.198353
   6 C :   -0.218514
   7 C :    0.171580
   8 O :   -0.308896
   9 H :    0.317816
  10 H :    0.122303
  11 H :    0.122330
  12 H :    0.207140
  13 H :    0.140541
  14 H :    0.140558
  15 H :    0.146267
  16 H :    0.146280
Sum of atomic charges:    0.0000000

LOEWDIN ATOMIC CHARGES
----------------------
   0 O :   -0.015788
   1 C :   -0.318321
   2 C :   -0.339078
   3 N :   -0.026038
   4 N :    0.235506
   5 C :   -0.217287
   6 C :   -0.195784
   7 C :   -0.399128
   8 O :    0.125060
   9 H :    0.177189
  10 H :    0.133056
  11 H :    0.133063
  12 H :    0.159822
  13 H :    0.128981
  14 H :    0.128980
  15 H :    0.144879
  16 H :    0.144886

  Mayer bond orders larger than 0.1
B(  0-O ,  1-C ) :   1.0432 B(  0-O ,  9-H ) :   0.8452 B(  1-C ,  2-C ) :   0.9149
B(  1-C , 10-H ) :   0.9228 B(  1-C , 11-H ) :   0.9227 B(  2-C ,  3-N ) :   2.0170
B(  2-C ,  4-N ) :   1.0126 B(  3-N , 12-H ) :   0.8640 B(  4-N ,  5-C ) :   0.8739
B(  4-N ,  7-C ) :   1.0347 B(  5-C ,  6-C ) :   0.9457 B(  5-C , 13-H ) :   0.9182
B(  5-C , 14-H ) :   0.9183 B(  6-C ,  7-C ) :   0.9425 B(  6-C , 15-H ) :   0.9108
B(  6-C , 16-H ) :   0.9107 B(  7-C ,  8-O ) :   1.9686

MP2 TOTAL ENERGY:     -454.420250456 Eh
FINAL SINGLE POINT ENERGY      -454.420250455667

DIPOLE MOMENT
-------------
                                X             Y             Z
Electronic contribution:      2.42934       0.94918      -0.01430
Nuclear contribution   :     -3.00275      -2.10597       0.01353
                        -----------------------------------------
Total Dipole Moment    :     -0.57340      -1.15679      -0.00078
                        -----------------------------------------
Magnitude (a.u.)       :      1.29110
Magnitude (Debye)      :      3.28172

                             ****ORCA TERMINATED NORMALLY****
TOTAL RUN TIME: 0 days 0 hours 15 minutes 41 seconds 477 msec
