                         Program Version 3.0.3 - RELEASE   -
|  1> ! RI-MP2 RIJK def2-TZVP def2-TZVP/C def2-TZVP/JK TIGHTSCF
|  2> % maxcore 2000
|  3> % mp2 density relaxed end
|  4> *xyz 0 1
|  5>  C       -0.2445606784     1.5468014708    -0.1242378809
|  6>  C       -0.0711498740     0.0333310233    -0.0597420770
|  7>  O       -1.2870919204    -0.6359303431    -0.3367017750
|  8>  C        1.1928138555    -0.4890005457    -0.8170553589
|  9>  C        1.9348527624    -0.5372885751     0.5459109136
| 10>  C        0.5590394647    -0.4772595846     1.2609175952
| 11>  N        2.8068222645    -1.6522690961     0.8234617525
| 12>  C        4.1115477937    -1.5173870099     1.1875680140
| 13>  O        4.6984745601    -0.4647991058     1.3237112066
| 14>  H        0.6807235584     2.0700018670     0.1368185809
| 15>  H       -0.5234490985     1.8619782341    -1.1377948803
| 16>  H       -1.0305640762     1.8685723968     0.5658935916
| 17>  H       -1.6653188974    -0.2555393388    -1.1370680148
| 18>  H        0.9995320562    -1.4947888321    -1.2016892769
| 19>  H        1.6228146857     0.1288893969    -1.6096140159
| 20>  H        2.5307588037     0.3587091198     0.7201857390
| 21>  H        0.4685383784     0.1474340997     2.1524976867
| 22>  H        0.1782073515    -1.4788180713     1.4811194353
| 23>  H        2.4334062191    -2.5855762450     0.7419228181
| 24>  H        4.5929781010    -2.5022873809     1.3513743461
| 25> *
| 26>
| 27>                          ****END OF INPUT****

CARTESIAN COORDINATES (ANGSTROEM)
---------------------------------
  C     -0.244561    1.546801   -0.124238
  C     -0.071150    0.033331   -0.059742
  O     -1.287092   -0.635930   -0.336702
  C      1.192814   -0.489001   -0.817055
  C      1.934853   -0.537289    0.545911
  C      0.559039   -0.477260    1.260918
  N      2.806822   -1.652269    0.823462
  C      4.111548   -1.517387    1.187568
  O      4.698475   -0.464799    1.323711
  H      0.680724    2.070002    0.136819
  H     -0.523449    1.861978   -1.137795
  H     -1.030564    1.868572    0.565894
  H     -1.665319   -0.255539   -1.137068
  H      0.999532   -1.494789   -1.201689
  H      1.622815    0.128889   -1.609614
  H      2.530759    0.358709    0.720186
  H      0.468538    0.147434    2.152498
  H      0.178207   -1.478818    1.481119
  H      2.433406   -2.585576    0.741923
  H      4.592978   -2.502287    1.351374

 Total Charge           Charge          ....    0
 Multiplicity           Mult            ....    1
 Number of Electrons    NEL             ....   70
 Basis Dimension        Dim             ....  345

ORBITAL ENERGIES
----------------

  NO   OCC          E(Eh)            E(eV)
   0   2.0000     -20.561049      -559.4946
   1   2.0000     -20.520993      -558.4046
   2   2.0000     -15.589365      -424.2082
   3   2.0000     -11.348613      -308.8115
   4   2.0000     -11.293856      -307.3215
   5   2.0000     -11.271622      -306.7164
   6   2.0000     -11.227452      -305.5145
   7   2.0000     -11.226664      -305.4930
   8   2.0000     -11.226441      -305.4870
   9   2.0000      -1.381792       -37.6005
  10   2.0000      -1.370820       -37.3019
  11   2.0000      -1.240935       -33.7675
  12   2.0000      -1.124336       -30.5947
  13   2.0000      -0.986957       -26.8565
  14   2.0000      -0.917221       -24.9588
  15   2.0000      -0.891124       -24.2487
  16   2.0000      -0.807851       -21.9827
  17   2.0000      -0.769284       -20.9333
  18   2.0000      -0.715711       -19.4755
  19   2.0000      -0.691442       -18.8151
  20   2.0000      -0.652431       -17.7535
  21   2.0000      -0.649405       -17.6712
  22   2.0000      -0.617841       -16.8123
  23   2.0000      -0.602079       -16.3834
  24   2.0000      -0.579539       -15.7701
  25   2.0000      -0.577540       -15.7157
  26   2.0000      -0.565260       -15.3815
  27   2.0000      -0.530535       -14.4366
  28   2.0000      -0.515988       -14.0407
  29   2.0000      -0.495772       -13.4907
  30   2.0000      -0.488948       -13.3050
  31   2.0000      -0.456041       -12.4095
  32   2.0000      -0.429963       -11.6999
  33   2.0000      -0.422216       -11.4891
  34   2.0000      -0.384024       -10.4498
  35   0.0000       0.123535         3.3616
  36   0.0000       0.130053         3.5389
  37   0.0000       0.161743         4.4013
  38   0.0000       0.173582         4.7234
  39   0.0000       0.180966         4.9243

MULLIKEN ATOMIC CHARGES
-----------------------
   0 C :   -0.470662
   1 C :    0.155284
   2 O :   -0.447104
   3 C :   -0.133598
   4 C :   -0.126675
   5 C :   -0.131986
   6 N :   -0.320278
   7 C :    0.194575
   8 O :   -0.367393
   9 H :    0.140000
  10 H :    0.124312
  11 H :    0.146127
  12 H :    0.313262
  13 H :    0.098985
  14 H :    0.127533
  15 H :    0.144488
  16 H :    0.131687
  17 H :    0.108638
  18 H :    0.234435
  19 H :    0.078372
Sum of atomic charges:   -0.0000000

LOEWDIN ATOMIC CHARGES
----------------------
   0 C :   -0.279584
   1 C :   -0.387275
   2 O :    0.003774
   3 C :   -0.188877
   4 C :   -0.250588
   5 C :   -0.178310
   6 N :    0.102535
   7 C :   -0.434991
   8 O :    0.052492
   9 H :    0.133170
  10 H :    0.124048
  11 H :    0.129812
  12 H :    0.175942
  13 H :    0.139345
  14 H :    0.129176
  15 H :    0.158627
  16 H :    0.131864
  17 H :    0.143892
  18 H :    0.186029
  19 H :    0.108917

  Mayer bond orders larger than 0.1
B(  0-C ,  1-C ) :   0.9431 B(  0-C ,  9-H ) :   0.9240 B(  0-C , 10-H ) :   0.9254
B(  0-C , 11-H ) :   0.9442 B(  1-C ,  2-O ) :   1.1237 B(  1-C ,  3-C ) :   0.8801
B(  1-C ,  5-C ) :   0.8600 B(  2-O ,  3-C ) :  -0.1104 B(  2-O ,  5-C ) :  -0.1127
B(  2-O , 12-H ) :   0.8411 B(  3-C ,  4-C ) :   0.9154 B(  3-C , 13-H ) :   0.8955
B(  3-C , 14-H ) :   0.9254 B(  4-C ,  5-C ) :   0.9192 B(  4-C ,  6-N ) :   0.7893
B(  4-C , 15-H ) :   0.9221 B(  5-C , 16-H ) :   0.9331 B(  5-C , 17-H ) :   0.8940
B(  6-N ,  7-C ) :   1.1585 B(  6-N , 18-H ) :   0.8718 B(  7-C ,  8-O ) :   1.8830
B(  7-C , 19-H ) :   0.9299

MP2 TOTAL ENERGY:     -439.587990169 Eh
FINAL SINGLE POINT ENERGY      -439.587990169309

DIPOLE MOMENT
-------------
                                X             Y             Z
Electronic contribution:      4.86120      -3.42079       1.67968
Nuclear contribution   :     -5.84694       3.01634      -2.32184
                        -----------------------------------------
Total Dipole Moment    :     -0.98574      -0.40445      -0.64217
                        -----------------------------------------
Magnitude (a.u.)       :      1.24404
Magnitude (Debye)      :      3.16211

                             ****ORCA TERMINATED NORMALLY****
TOTAL RUN TIME: 0 days 0 hours 18 minutes 19 seconds 198 msec
