                         Program Version 3.0.3 - RELEASE   -
|  1> ! RI-MP2 RIJK def2-TZVP def2-TZVP/C def2-TZVP/JK TIGHTSCF
|  2> % maxcore 2000
|  3> % mp2 density relaxed end
|  4> *xyz 0 1
|  5>  C       -0.0425917223     1.5900669484    -0.0220152871
|  6>  C        0.0347516925     0.0634718411     0.0449714826
|  7>  C        0.7952999141    -0.5989111475    -1.1529342028
|  8>  C        1.5550659746    -1.8297472936    -0.5812250541
|  9>  N        1.6218731205    -1.4743654381     0.8237011409
| 10>  N        2.2820675401    -1.9984614245     1.8768914055
| 11>  C        1.8199114957    -1.2371176235     2.8662554714
| 12>  N        0.9087226329    -0.2815904552     2.5115019550
| 13>  C        0.8128128248    -0.4751946448     1.2077464637
| 14>  H        0.9585790834     2.0293011704    -0.0767682009
| 15>  H       -0.6077858345     1.9121417386    -0.9021161395
| 16>  H       -0.5358960376     1.9884770280     0.8685026771
| 17>  H       -0.9874058623    -0.3360599505     0.0948753446
| 18>  H        0.1263641067    -0.8766168241    -1.9695435070
| 19>  H        1.5205902467     0.1185745982    -1.5490227235
| 20>  H        1.0029364623    -2.7672874850    -0.7120836538
| 21>  H        2.5533158114    -1.9569445199    -1.0059804548
| 22>  H        2.1582645512    -1.3742051578     3.8828641226
| 23> *
| 24>
| 25>                          ****END OF INPUT****

CARTESIAN COORDINATES (ANGSTROEM)
---------------------------------
  C     -0.042592    1.590067   -0.022015
  C      0.034752    0.063472    0.044971
  C      0.795300   -0.598911   -1.152934
  C      1.555066   -1.829747   -0.581225
  N      1.621873   -1.474365    0.823701
  N      2.282068   -1.998461    1.876891
  C      1.819911   -1.237118    2.866255
  N      0.908723   -0.281590    2.511502
  C      0.812813   -0.475195    1.207746
  H      0.958579    2.029301   -0.076768
  H     -0.607786    1.912142   -0.902116
  H     -0.535896    1.988477    0.868503
  H     -0.987406   -0.336060    0.094875
  H      0.126364   -0.876617   -1.969544
  H      1.520590    0.118575   -1.549023
  H      1.002936   -2.767287   -0.712084
  H      2.553316   -1.956945   -1.005980
  H      2.158265   -1.374205    3.882864

 Total Charge           Charge          ....    0
 Multiplicity           Mult            ....    1
 Number of Electrons    NEL             ....   66
 Basis Dimension        Dim             ....  333

ORBITAL ENERGIES
----------------

  NO   OCC          E(Eh)            E(eV)
   0   2.0000     -15.636146      -425.4812
   1   2.0000     -15.584229      -424.0684
   2   2.0000     -15.546513      -423.0421
   3   2.0000     -11.301973      -307.5423
   4   2.0000     -11.288785      -307.1835
   5   2.0000     -11.280415      -306.9557
   6   2.0000     -11.263269      -306.4891
   7   2.0000     -11.253945      -306.2354
   8   2.0000     -11.231024      -305.6117
   9   2.0000      -1.411096       -38.3979
  10   2.0000      -1.202426       -32.7197
  11   2.0000      -1.167023       -31.7563
  12   2.0000      -1.053325       -28.6624
  13   2.0000      -1.002608       -27.2824
  14   2.0000      -0.921644       -25.0792
  15   2.0000      -0.841147       -22.8888
  16   2.0000      -0.818721       -22.2785
  17   2.0000      -0.767421       -20.8826
  18   2.0000      -0.706386       -19.2217
  19   2.0000      -0.665305       -18.1039
  20   2.0000      -0.622098       -16.9281
  21   2.0000      -0.617921       -16.8145
  22   2.0000      -0.601699       -16.3731
  23   2.0000      -0.593232       -16.1427
  24   2.0000      -0.562215       -15.2986
  25   2.0000      -0.540794       -14.7158
  26   2.0000      -0.515021       -14.0144
  27   2.0000      -0.499379       -13.5888
  28   2.0000      -0.489441       -13.3184
  29   2.0000      -0.476292       -12.9606
  30   2.0000      -0.441811       -12.0223
  31   2.0000      -0.397505       -10.8167
  32   2.0000      -0.351559        -9.5664
  33   0.0000       0.123020         3.3476
  34   0.0000       0.146212         3.9786
  35   0.0000       0.157202         4.2777
  36   0.0000       0.166764         4.5379
  37   0.0000       0.179314         4.8794

MULLIKEN ATOMIC CHARGES
-----------------------
   0 C :   -0.409384
   1 C :    0.031449
   2 C :   -0.286772
   3 C :   -0.148219
   4 N :    0.121107
   5 N :   -0.281482
   6 C :    0.039913
   7 N :   -0.300595
   8 C :    0.012652
   9 H :    0.129203
  10 H :    0.136074
  11 H :    0.154544
  12 H :    0.113295
  13 H :    0.140053
  14 H :    0.129559
  15 H :    0.134322
  16 H :    0.146334
  17 H :    0.137949
Sum of atomic charges:   -0.0000000

LOEWDIN ATOMIC CHARGES
----------------------
   0 C :   -0.281707
   1 C :   -0.231785
   2 C :   -0.204968
   3 C :   -0.217702
   4 N :    0.211901
   5 N :    0.030475
   6 C :   -0.337349
   7 N :    0.093260
   8 C :   -0.294571
   9 H :    0.126754
  10 H :    0.124871
  11 H :    0.133253
  12 H :    0.162429
  13 H :    0.137599
  14 H :    0.143897
  15 H :    0.136804
  16 H :    0.138435
  17 H :    0.128404

  Mayer bond orders larger than 0.1
B(  0-C ,  1-C ) :   0.9159 B(  0-C ,  9-H ) :   0.9273 B(  0-C , 10-H ) :   0.9393
B(  0-C , 11-H ) :   0.9344 B(  1-C ,  2-C ) :   0.9015 B(  1-C ,  8-C ) :   0.9234
B(  1-C , 12-H ) :   0.9159 B(  2-C ,  3-C ) :   0.9411 B(  2-C , 13-H ) :   0.9344
B(  2-C , 14-H ) :   0.9213 B(  3-C ,  4-N ) :   0.8661 B(  3-C , 15-H ) :   0.9193
B(  3-C , 16-H ) :   0.9275 B(  4-N ,  5-N ) :   1.0250 B(  4-N ,  8-C ) :   1.2305
B(  5-N ,  6-C ) :   1.4759 B(  6-C ,  7-N ) :   1.2900 B(  6-C , 17-H ) :   0.9368
B(  7-N ,  8-C ) :   1.5705

MP2 TOTAL ENERGY:     -397.483671853 Eh
FINAL SINGLE POINT ENERGY      -397.483671852958

DIPOLE MOMENT
-------------
                                X             Y             Z
Electronic contribution:      2.98854      -4.50515       6.65266
Nuclear contribution   :     -3.33124       4.54690      -8.12553
                        -----------------------------------------
Total Dipole Moment    :     -0.34270       0.04175      -1.47287
                        -----------------------------------------
Magnitude (a.u.)       :      1.51279
Magnitude (Debye)      :      3.84520

                             ****ORCA TERMINATED NORMALLY****
TOTAL RUN TIME: 0 days 0 hours 18 minutes 17 seconds 734 msec
