                         Program Version 3.0.3 - RELEASE   -
|  1> ! RI-MP2 RIJK def2-TZVP def2-TZVP/C def2-TZVP/JK TIGHTSCF
|  2> % maxcore 2000
|  3> % mp2 density relaxed end
|  4> *xyz 0 1
|  5>  C       -0.1152193192     1.5643554227     0.0114787111
|  6>  C        0.0014746518     0.0485410648     0.0036689868
|  7>  C       -1.1520359885    -0.6415247234    -0.5117002402
|  8>  N       -2.0763681824    -1.2027745696    -0.9257916016
|  9>  C        1.3501084851    -0.6512573794    -0.2650677948
| 10>  N        2.4943960329     0.1983221410    -0.4563296840
| 11>  C        0.7604573573    -0.6679464717     1.1260022657
| 12>  N        1.3110588589     0.1185609471     2.1949172078
| 13>  H        0.8317722667     2.0228551271     0.2940587401
| 14>  H       -0.3972567825     1.9350479960    -0.9783727571
| 15>  H       -0.8791615213     1.8808268642     0.7265476662
| 16>  H        1.2774747091    -1.5712708418    -0.8458456166
| 17>  H        3.3489287359    -0.3269082357    -0.2979803584
| 18>  H        2.5340452748     0.5533999461    -1.4063558012
| 19>  H        0.3186783644    -1.6008311519     1.4580579193
| 20>  H        1.6986287140    -0.4935306429     2.9043212107
| 21>  H        2.0730369729     0.6873153975     1.8350677962
| 22> *
| 23>
| 24>                          ****END OF INPUT****

CARTESIAN COORDINATES (ANGSTROEM)
---------------------------------
  C     -0.115219    1.564355    0.011479
  C      0.001475    0.048541    0.003669
  C     -1.152036   -0.641525   -0.511700
  N     -2.076368   -1.202775   -0.925792
  C      1.350108   -0.651257   -0.265068
  N      2.494396    0.198322   -0.456330
  C      0.760457   -0.667946    1.126002
  N      1.311059    0.118561    2.194917
  H      0.831772    2.022855    0.294059
  H     -0.397257    1.935048   -0.978373
  H     -0.879162    1.880827    0.726548
  H      1.277475   -1.571271   -0.845846
  H      3.348929   -0.326908   -0.297980
  H      2.534045    0.553400   -1.406356
  H      0.318678   -1.600831    1.458058
  H      1.698629   -0.493531    2.904321
  H      2.073037    0.687315    1.835068

 Total Charge           Charge          ....    0
 Multiplicity           Mult            ....    1
 Number of Electrons    NEL             ....   60
 Basis Dimension        Dim             ....  302

ORBITAL ENERGIES
----------------

  NO   OCC          E(Eh)            E(eV)
   0   2.0000     -15.572395      -423.7464
   1   2.0000     -15.558912      -423.3795
   2   2.0000     -15.557687      -423.3462
   3   2.0000     -11.285814      -307.1026
   4   2.0000     -11.285011      -307.0808
   5   2.0000     -11.277832      -306.8854
   6   2.0000     -11.264362      -306.5189
   7   2.0000     -11.232141      -305.6421
   8   2.0000      -1.256533       -34.1920
   9   2.0000      -1.206542       -32.8317
  10   2.0000      -1.184223       -32.2243
  11   2.0000      -1.108777       -30.1713
  12   2.0000      -0.981627       -26.7114
  13   2.0000      -0.853588       -23.2273
  14   2.0000      -0.814838       -22.1729
  15   2.0000      -0.740380       -20.1468
  16   2.0000      -0.689680       -18.7671
  17   2.0000      -0.660997       -17.9866
  18   2.0000      -0.636044       -17.3076
  19   2.0000      -0.608097       -16.5472
  20   2.0000      -0.588841       -16.0232
  21   2.0000      -0.568670       -15.4743
  22   2.0000      -0.560700       -15.2574
  23   2.0000      -0.540463       -14.7067
  24   2.0000      -0.516081       -14.0433
  25   2.0000      -0.488775       -13.3002
  26   2.0000      -0.457555       -12.4507
  27   2.0000      -0.439052       -11.9472
  28   2.0000      -0.404986       -11.0202
  29   2.0000      -0.367878       -10.0105
  30   0.0000       0.109021         2.9666
  31   0.0000       0.148138         4.0310
  32   0.0000       0.154631         4.2077
  33   0.0000       0.160097         4.3565
  34   0.0000       0.180735         4.9180

MULLIKEN ATOMIC CHARGES
-----------------------
   0 C :   -0.410269
   1 C :    0.177283
   2 C :   -0.196760
   3 N :   -0.061744
   4 C :   -0.055560
   5 N :   -0.596562
   6 C :   -0.027520
   7 N :   -0.543187
   8 H :    0.151215
   9 H :    0.145126
  10 H :    0.151337
  11 H :    0.136805
  12 H :    0.242883
  13 H :    0.250156
  14 H :    0.145266
  15 H :    0.237121
  16 H :    0.254410
Sum of atomic charges:   -0.0000000

LOEWDIN ATOMIC CHARGES
----------------------
   0 C :   -0.244931
   1 C :   -0.228043
   2 C :   -0.159769
   3 N :    0.054839
   4 C :   -0.254907
   5 N :   -0.143218
   6 C :   -0.240128
   7 N :   -0.130305
   8 H :    0.132845
   9 H :    0.132588
  10 H :    0.137835
  11 H :    0.140005
  12 H :    0.163035
  13 H :    0.164916
  14 H :    0.151374
  15 H :    0.161460
  16 H :    0.162403

  Mayer bond orders larger than 0.1
B(  0-C ,  1-C ) :   0.9319 B(  0-C ,  8-H ) :   0.9235 B(  0-C ,  9-H ) :   0.9355
B(  0-C , 10-H ) :   0.9312 B(  1-C ,  2-C ) :   0.9137 B(  1-C ,  4-C ) :   0.7744
B(  1-C ,  6-C ) :   0.8061 B(  2-C ,  3-N ) :   2.8747 B(  4-C ,  5-N ) :   1.0477
B(  4-C ,  6-C ) :   0.9007 B(  4-C , 11-H ) :   0.9414 B(  5-N , 12-H ) :   0.8895
B(  5-N , 13-H ) :   0.8900 B(  6-C ,  7-N ) :   1.0545 B(  6-C , 14-H ) :   0.9329
B(  7-N , 15-H ) :   0.8832 B(  7-N , 16-H ) :   0.8643

MP2 TOTAL ENERGY:     -359.418618144 Eh
FINAL SINGLE POINT ENERGY      -359.418618143873

DIPOLE MOMENT
-------------
                                X             Y             Z
Electronic contribution:     -4.66340      -3.75822      -1.79061
Nuclear contribution   :      6.70270       3.91683       1.98311
                        -----------------------------------------
Total Dipole Moment    :      2.03930       0.15861       0.19250
                        -----------------------------------------
Magnitude (a.u.)       :      2.05450
Magnitude (Debye)      :      5.22212

                             ****ORCA TERMINATED NORMALLY****
TOTAL RUN TIME: 0 days 0 hours 13 minutes 12 seconds 445 msec
