                         Program Version 3.0.3 - RELEASE   -
|  1> ! RI-MP2 RIJK def2-TZVP def2-TZVP/C def2-TZVP/JK TIGHTSCF
|  2> % maxcore 2000
|  3> % mp2 density relaxed end
|  4> *xyz 0 1
|  5>  C       -0.0974337968     1.4981800597     0.2188997502
|  6>  C       -0.0245222027     0.0082948190     0.0644727269
|  7>  C        0.0064483257    -0.6963860964    -1.1164712895
|  8>  N        0.0858180692    -2.0353522617    -0.8207135553
|  9>  C        0.1086637134    -2.2051608124     0.5373452526
| 10>  C        0.0462400251    -0.9589874984     1.1224736920
| 11>  C       -0.0046129384    -0.6598063543     2.5953707074
| 12>  C       -1.4300458458    -0.3122509658     2.9938496688
| 13>  O       -1.7926924717     0.7598409163     3.4050478779
| 14>  H        0.8102390522     1.9025580238     0.6841823962
| 15>  H       -0.2134091027     1.9875989483    -0.7523231852
| 16>  H       -0.9368373229     1.8034150111     0.8527742069
| 17>  H       -0.0194455121    -0.3519679677    -2.1383365027
| 18>  H        0.1334785453    -2.7759129980    -1.4974498285
| 19>  H        0.1764849491    -3.1869894279     0.9790067888
| 20>  H        0.3028826592    -1.5447120532     3.1669114907
| 21>  H        0.6439413428     0.1765833334     2.8733153504
| 22>  H       -2.1535018690    -1.1452365159     2.8342124323
| 23> *
| 24>
| 25>                          ****END OF INPUT****

CARTESIAN COORDINATES (ANGSTROEM)
---------------------------------
  C     -0.097434    1.498180    0.218900
  C     -0.024522    0.008295    0.064473
  C      0.006448   -0.696386   -1.116471
  N      0.085818   -2.035352   -0.820714
  C      0.108664   -2.205161    0.537345
  C      0.046240   -0.958987    1.122474
  C     -0.004613   -0.659806    2.595371
  C     -1.430046   -0.312251    2.993850
  O     -1.792692    0.759841    3.405048
  H      0.810239    1.902558    0.684182
  H     -0.213409    1.987599   -0.752323
  H     -0.936837    1.803415    0.852774
  H     -0.019446   -0.351968   -2.138337
  H      0.133479   -2.775913   -1.497450
  H      0.176485   -3.186989    0.979007
  H      0.302883   -1.544712    3.166911
  H      0.643941    0.176583    2.873315
  H     -2.153502   -1.145237    2.834212

 Total Charge           Charge          ....    0
 Multiplicity           Mult            ....    1
 Number of Electrons    NEL             ....   66
 Basis Dimension        Dim             ....  333

ORBITAL ENERGIES
----------------

  NO   OCC          E(Eh)            E(eV)
   0   2.0000     -20.549823      -559.1891
   1   2.0000     -15.608005      -424.7154
   2   2.0000     -11.325297      -308.1770
   3   2.0000     -11.259632      -306.3902
   4   2.0000     -11.252115      -306.1856
   5   2.0000     -11.241252      -305.8900
   6   2.0000     -11.225061      -305.4494
   7   2.0000     -11.220394      -305.3224
   8   2.0000     -11.215942      -305.2013
   9   2.0000      -1.389013       -37.7970
  10   2.0000      -1.296004       -35.2661
  11   2.0000      -1.090973       -29.6869
  12   2.0000      -1.029193       -28.0058
  13   2.0000      -0.965316       -26.2676
  14   2.0000      -0.931129       -25.3373
  15   2.0000      -0.805743       -21.9254
  16   2.0000      -0.774962       -21.0878
  17   2.0000      -0.737757       -20.0754
  18   2.0000      -0.731230       -19.8978
  19   2.0000      -0.659705       -17.9515
  20   2.0000      -0.626554       -17.0494
  21   2.0000      -0.612060       -16.6550
  22   2.0000      -0.591024       -16.0826
  23   2.0000      -0.582813       -15.8591
  24   2.0000      -0.564131       -15.3508
  25   2.0000      -0.551017       -14.9939
  26   2.0000      -0.544873       -14.8267
  27   2.0000      -0.527393       -14.3511
  28   2.0000      -0.509902       -13.8752
  29   2.0000      -0.482330       -13.1249
  30   2.0000      -0.420793       -11.4504
  31   2.0000      -0.337351        -9.1798
  32   2.0000      -0.302270        -8.2252
  33   0.0000       0.127172         3.4605
  34   0.0000       0.135071         3.6755
  35   0.0000       0.147920         4.0251
  36   0.0000       0.159204         4.3322
  37   0.0000       0.168309         4.5799

MULLIKEN ATOMIC CHARGES
-----------------------
   0 C :   -0.439126
   1 C :   -0.017483
   2 C :   -0.095778
   3 N :   -0.250605
   4 C :   -0.124747
   5 C :   -0.030577
   6 C :   -0.172580
   7 C :    0.115717
   8 O :   -0.272508
   9 H :    0.139792
  10 H :    0.131382
  11 H :    0.159755
  12 H :    0.141845
  13 H :    0.244718
  14 H :    0.142520
  15 H :    0.135243
  16 H :    0.120872
  17 H :    0.071560
Sum of atomic charges:   -0.0000000

LOEWDIN ATOMIC CHARGES
----------------------
   0 C :   -0.270582
   1 C :   -0.187482
   2 C :   -0.213868
   3 N :    0.180330
   4 C :   -0.218431
   5 C :   -0.173942
   6 C :   -0.222940
   7 C :   -0.287616
   8 O :    0.126379
   9 H :    0.130300
  10 H :    0.129738
  11 H :    0.133754
  12 H :    0.133957
  13 H :    0.190813
  14 H :    0.133708
  15 H :    0.155130
  16 H :    0.150918
  17 H :    0.109835

  Mayer bond orders larger than 0.1
B(  0-C ,  1-C ) :   0.8638 B(  0-C ,  9-H ) :   0.9396 B(  0-C , 10-H ) :   0.9466
B(  0-C , 11-H ) :   0.9347 B(  1-C ,  2-C ) :   1.5049 B(  1-C ,  5-C ) :   1.2716
B(  2-C ,  3-N ) :   1.1192 B(  2-C , 12-H ) :   0.9107 B(  3-N ,  4-C ) :   1.1472
B(  3-N , 13-H ) :   0.8777 B(  4-C ,  5-C ) :   1.4689 B(  4-C , 14-H ) :   0.9116
B(  5-C ,  6-C ) :   0.8500 B(  6-C ,  7-C ) :   0.8799 B(  6-C , 15-H ) :   0.9259
B(  6-C , 16-H ) :   0.9108 B(  7-C ,  8-O ) :   1.9839 B(  7-C , 17-H ) :   0.9267

MP2 TOTAL ENERGY:     -401.300946594 Eh
FINAL SINGLE POINT ENERGY      -401.300946593722

DIPOLE MOMENT
-------------
                                X             Y             Z
Electronic contribution:     -1.40696      -2.40879       1.13201
Nuclear contribution   :      1.92273       1.14573      -2.11990
                        -----------------------------------------
Total Dipole Moment    :      0.51578      -1.26306      -0.98790
                        -----------------------------------------
Magnitude (a.u.)       :      1.68442
Magnitude (Debye)      :      4.28146

                             ****ORCA TERMINATED NORMALLY****
TOTAL RUN TIME: 0 days 0 hours 17 minutes 44 seconds 557 msec
