                         Program Version 3.0.3 - RELEASE   -
|  1> ! RI-MP2 RIJK def2-TZVP def2-TZVP/C def2-TZVP/JK TIGHTSCF
|  2> % maxcore 2000
|  3> % mp2 density relaxed end
|  4> *xyz 0 1
|  5>  C        0.0483986470     1.5507902133    -0.1495846434
|  6>  C        0.0218226863     0.0434602617     0.0312378751
|  7>  O        0.6279061805    -0.5841851803    -1.1245966236
|  8>  C        1.3136849721    -1.7152077256    -0.7989734045
|  9>  O        1.7470096777    -2.4693970822    -1.6178696283
| 10>  C        1.4653678688    -1.7908848300     0.7261825696
| 11>  O        2.7623018042    -1.2998180079     1.1219649436
| 12>  C        2.1885057728    -0.0508062578     1.5765324443
| 13>  C        0.7555377045    -0.5340882636     1.2518011330
| 14>  H        1.0715628618     1.9250468755    -0.2350852470
| 15>  H       -0.4924798224     1.8313229623    -1.0567339327
| 16>  H       -0.4334136139     2.0390421920     0.7034869700
| 17>  H       -1.0222615373    -0.2954345086     0.0608186964
| 18>  H        1.2514037190    -2.7890438094     1.1153859975
| 19>  H        2.3921351822     0.1187849266     2.6389974595
| 20>  H        2.5592927360     0.8035185436     0.9998514237
| 21>  H        0.1000029707    -0.6379183595     2.1153501570
| 22> *
| 23>
| 24>                          ****END OF INPUT****

CARTESIAN COORDINATES (ANGSTROEM)
---------------------------------
  C      0.048399    1.550790   -0.149585
  C      0.021823    0.043460    0.031238
  O      0.627906   -0.584185   -1.124597
  C      1.313685   -1.715208   -0.798973
  O      1.747010   -2.469397   -1.617870
  C      1.465368   -1.790885    0.726183
  O      2.762302   -1.299818    1.121965
  C      2.188506   -0.050806    1.576532
  C      0.755538   -0.534088    1.251801
  H      1.071563    1.925047   -0.235085
  H     -0.492480    1.831323   -1.056734
  H     -0.433414    2.039042    0.703487
  H     -1.022262   -0.295435    0.060819
  H      1.251404   -2.789044    1.115386
  H      2.392135    0.118785    2.638997
  H      2.559293    0.803519    0.999851
  H      0.100003   -0.637918    2.115350

 Total Charge           Charge          ....    0
 Multiplicity           Mult            ....    1
 Number of Electrons    NEL             ....   68
 Basis Dimension        Dim             ....  327

ORBITAL ENERGIES
----------------

  NO   OCC          E(Eh)            E(eV)
   0   2.0000     -20.605214      -560.6964
   1   2.0000     -20.576213      -559.9072
   2   2.0000     -20.546497      -559.0986
   3   2.0000     -11.379662      -309.6563
   4   2.0000     -11.318510      -307.9923
   5   2.0000     -11.315688      -307.9155
   6   2.0000     -11.303568      -307.5857
   7   2.0000     -11.266005      -306.5636
   8   2.0000     -11.241731      -305.9031
   9   2.0000      -1.464349       -39.8470
  10   2.0000      -1.402576       -38.1660
  11   2.0000      -1.371651       -37.3245
  12   2.0000      -1.092349       -29.7243
  13   2.0000      -1.030134       -28.0314
  14   2.0000      -0.975956       -26.5571
  15   2.0000      -0.893176       -24.3046
  16   2.0000      -0.803223       -21.8568
  17   2.0000      -0.792094       -21.5540
  18   2.0000      -0.739788       -20.1307
  19   2.0000      -0.683676       -18.6038
  20   2.0000      -0.672342       -18.2954
  21   2.0000      -0.652658       -17.7597
  22   2.0000      -0.631263       -17.1775
  23   2.0000      -0.622484       -16.9387
  24   2.0000      -0.600357       -16.3365
  25   2.0000      -0.580562       -15.7979
  26   2.0000      -0.561224       -15.2717
  27   2.0000      -0.547485       -14.8978
  28   2.0000      -0.521041       -14.1783
  29   2.0000      -0.502617       -13.6769
  30   2.0000      -0.484463       -13.1829
  31   2.0000      -0.466733       -12.7005
  32   2.0000      -0.451987       -12.2992
  33   2.0000      -0.420222       -11.4348
  34   0.0000       0.117991         3.2107
  35   0.0000       0.132860         3.6153
  36   0.0000       0.144138         3.9222
  37   0.0000       0.168770         4.5925
  38   0.0000       0.173396         4.7183

MULLIKEN ATOMIC CHARGES
-----------------------
   0 C :   -0.381836
   1 C :    0.039661
   2 O :   -0.222913
   3 C :    0.220966
   4 O :   -0.268105
   5 C :    0.066591
   6 O :   -0.316603
   7 C :   -0.040635
   8 C :   -0.098344
   9 H :    0.130907
  10 H :    0.153256
  11 H :    0.133115
  12 H :    0.104633
  13 H :    0.125526
  14 H :    0.111412
  15 H :    0.101000
  16 H :    0.141370
Sum of atomic charges:   -0.0000000

LOEWDIN ATOMIC CHARGES
----------------------
   0 C :   -0.284925
   1 C :   -0.283627
   2 O :    0.272810
   3 C :   -0.443389
   4 O :    0.156608
   5 C :   -0.221312
   6 O :    0.150998
   7 C :   -0.233279
   8 C :   -0.192083
   9 H :    0.126762
  10 H :    0.132954
  11 H :    0.132153
  12 H :    0.146747
  13 H :    0.144310
  14 H :    0.121925
  15 H :    0.121985
  16 H :    0.151362

  Mayer bond orders larger than 0.1
B(  0-C ,  1-C ) :   0.9200 B(  0-C ,  9-H ) :   0.9327 B(  0-C , 10-H ) :   0.9332
B(  0-C , 11-H ) :   0.9277 B(  1-C ,  2-O ) :   0.8921 B(  1-C ,  8-C ) :   0.9287
B(  1-C , 12-H ) :   0.9258 B(  2-O ,  3-C ) :   1.0988 B(  3-C ,  4-O ) :   2.0436
B(  3-C ,  5-C ) :   0.8732 B(  5-C ,  6-O ) :   0.9347 B(  5-C ,  8-C ) :   0.9418
B(  5-C , 13-H ) :   0.9172 B(  6-O ,  7-C ) :   0.9393 B(  7-C ,  8-C ) :   0.9595
B(  7-C , 14-H ) :   0.9173 B(  7-C , 15-H ) :   0.9004 B(  8-C , 16-H ) :   0.9105

MP2 TOTAL ENERGY:     -458.244875300 Eh
FINAL SINGLE POINT ENERGY      -458.244875300129

DIPOLE MOMENT
-------------
                                X             Y             Z
Electronic contribution:      2.95483      -7.30497      -3.74295
Nuclear contribution   :     -4.09870       8.43895       5.21057
                        -----------------------------------------
Total Dipole Moment    :     -1.14387       1.13399       1.46762
                        -----------------------------------------
Magnitude (a.u.)       :      2.17905
Magnitude (Debye)      :      5.53871

                             ****ORCA TERMINATED NORMALLY****
TOTAL RUN TIME: 0 days 0 hours 16 minutes 16 seconds 387 msec
