                         Program Version 3.0.3 - RELEASE   -
|  1> ! RI-MP2 RIJK def2-TZVP def2-TZVP/C def2-TZVP/JK TIGHTSCF
|  2> % maxcore 2000
|  3> % mp2 density relaxed end
|  4> *xyz 0 1
|  5>  O       -0.0450602328     1.4119750174     0.0544232880
|  6>  C       -0.0173128979     0.0317914552     0.0254821191
|  7>  C       -1.2884945600    -0.8790114964     0.0841929017
|  8>  C       -0.4045141966    -1.8823720769     0.7794721621
|  9>  C       -0.4974920032    -1.8644463718    -0.7520122892
| 10>  C        0.5381065034    -0.8061275301    -1.1570882824
| 11>  O        1.9001719628    -1.1064117335    -0.9173821585
| 12>  C        2.0658754632    -1.2140142109     0.5136395819
| 13>  C        0.6984629089    -0.8592020854     1.1008221673
| 14>  H        0.8058350082     1.7403611257    -0.2588109063
| 15>  H       -2.3448879770    -0.6707460411     0.1423033640
| 16>  H       -0.6968442357    -2.7502050145     1.3556373641
| 17>  H       -0.8589714780    -2.7117909483    -1.3190336030
| 18>  H        0.4241611200    -0.3897801747    -2.1590531057
| 19>  H        2.3799237710    -2.2334141442     0.7721376191
| 20>  H        2.8596081617    -0.5231623480     0.8286891596
| 21>  H        0.6905357619    -0.4708691625     2.1193613283
| 22> *
| 23>
| 24>                          ****END OF INPUT****

CARTESIAN COORDINATES (ANGSTROEM)
---------------------------------
  O     -0.045060    1.411975    0.054423
  C     -0.017313    0.031791    0.025482
  C     -1.288495   -0.879011    0.084193
  C     -0.404514   -1.882372    0.779472
  C     -0.497492   -1.864446   -0.752012
  C      0.538107   -0.806128   -1.157088
  O      1.900172   -1.106412   -0.917382
  C      2.065875   -1.214014    0.513640
  C      0.698463   -0.859202    1.100822
  H      0.805835    1.740361   -0.258811
  H     -2.344888   -0.670746    0.142303
  H     -0.696844   -2.750205    1.355637
  H     -0.858971   -2.711791   -1.319034
  H      0.424161   -0.389780   -2.159053
  H      2.379924   -2.233414    0.772138
  H      2.859608   -0.523162    0.828689
  H      0.690536   -0.470869    2.119361

 Total Charge           Charge          ....    0
 Multiplicity           Mult            ....    1
 Number of Electrons    NEL             ....   66
 Basis Dimension        Dim             ....  327

ORBITAL ENERGIES
----------------

  NO   OCC          E(Eh)            E(eV)
   0   2.0000     -20.572454      -559.8049
   1   2.0000     -20.551797      -559.2428
   2   2.0000     -11.295225      -307.3587
   3   2.0000     -11.281165      -306.9761
   4   2.0000     -11.274012      -306.7815
   5   2.0000     -11.241816      -305.9054
   6   2.0000     -11.238542      -305.8163
   7   2.0000     -11.237641      -305.7918
   8   2.0000     -11.235379      -305.7302
   9   2.0000      -1.393575       -37.9211
  10   2.0000      -1.369255       -37.2593
  11   2.0000      -1.225940       -33.3595
  12   2.0000      -1.021416       -27.7941
  13   2.0000      -0.953173       -25.9372
  14   2.0000      -0.878434       -23.9034
  15   2.0000      -0.860938       -23.4273
  16   2.0000      -0.746393       -20.3104
  17   2.0000      -0.740506       -20.1502
  18   2.0000      -0.729644       -19.8546
  19   2.0000      -0.678948       -18.4751
  20   2.0000      -0.657782       -17.8991
  21   2.0000      -0.622856       -16.9488
  22   2.0000      -0.600820       -16.3491
  23   2.0000      -0.580746       -15.8029
  24   2.0000      -0.557498       -15.1703
  25   2.0000      -0.548659       -14.9298
  26   2.0000      -0.513532       -13.9739
  27   2.0000      -0.508434       -13.8352
  28   2.0000      -0.475041       -12.9265
  29   2.0000      -0.453726       -12.3465
  30   2.0000      -0.402171       -10.9436
  31   2.0000      -0.386712       -10.5230
  32   2.0000      -0.362342        -9.8598
  33   0.0000       0.137041         3.7291
  34   0.0000       0.154949         4.2164
  35   0.0000       0.171190         4.6583
  36   0.0000       0.176777         4.8104
  37   0.0000       0.186654         5.0791

MULLIKEN ATOMIC CHARGES
-----------------------
   0 O :   -0.458487
   1 C :    0.239724
   2 C :   -0.225923
   3 C :   -0.180658
   4 C :   -0.188027
   5 C :    0.056041
   6 O :   -0.326129
   7 C :   -0.065178
   8 C :   -0.075225
   9 H :    0.329909
  10 H :    0.155429
  11 H :    0.143727
  12 H :    0.142004
  13 H :    0.120652
  14 H :    0.100944
  15 H :    0.103638
  16 H :    0.127559
Sum of atomic charges:    0.0000000

LOEWDIN ATOMIC CHARGES
----------------------
   0 O :    0.033830
   1 C :   -0.277683
   2 C :   -0.103680
   3 C :   -0.136895
   4 C :   -0.135092
   5 C :   -0.249463
   6 O :    0.155771
   7 C :   -0.262534
   8 C :   -0.171457
   9 H :    0.189578
  10 H :    0.137571
  11 H :    0.139176
  12 H :    0.137906
  13 H :    0.145305
  14 H :    0.125641
  15 H :    0.121003
  16 H :    0.151024

  Mayer bond orders larger than 0.1
B(  0-O ,  1-C ) :   0.9813 B(  0-O ,  9-H ) :   0.8300 B(  1-C ,  2-C ) :   0.9249
B(  1-C ,  5-C ) :   0.9682 B(  1-C ,  8-C ) :   0.9269 B(  2-C ,  3-C ) :   0.8475
B(  2-C ,  4-C ) :   0.8271 B(  2-C , 10-H ) :   0.9085 B(  3-C ,  4-C ) :   0.8581
B(  3-C ,  8-C ) :   0.9167 B(  3-C , 11-H ) :   0.9207 B(  4-C ,  5-C ) :   0.8904
B(  4-C , 12-H ) :   0.9265 B(  5-C ,  6-O ) :   0.9814 B(  5-C , 13-H ) :   0.9371
B(  6-O ,  7-C ) :   0.9268 B(  7-C ,  8-C ) :   0.9625 B(  7-C , 14-H ) :   0.9105
B(  7-C , 15-H ) :   0.9286 B(  8-C , 16-H ) :   0.8993

MP2 TOTAL ENERGY:     -421.072262001 Eh
FINAL SINGLE POINT ENERGY      -421.072262000767

DIPOLE MOMENT
-------------
                                X             Y             Z
Electronic contribution:     -0.31230       1.69175      -1.41088
Nuclear contribution   :      0.28632      -1.86816       1.69087
                        -----------------------------------------
Total Dipole Moment    :     -0.02597      -0.17642       0.27999
                        -----------------------------------------
Magnitude (a.u.)       :      0.33195
Magnitude (Debye)      :      0.84375

                             ****ORCA TERMINATED NORMALLY****
TOTAL RUN TIME: 0 days 0 hours 16 minutes 58 seconds 452 msec
