                         Program Version 3.0.3 - RELEASE   -
|  1> ! RI-MP2 RIJK def2-TZVP def2-TZVP/C def2-TZVP/JK TIGHTSCF
|  2> % maxcore 2000
|  3> % mp2 density relaxed end
|  4> *xyz 0 1
|  5>  N        0.2132963752     1.4029775314    -0.1445637237
|  6>  C        0.0991587969    -0.0148811783    -0.0306112811
|  7>  C       -0.2444044901    -0.8326840772    -1.2369834766
|  8>  C       -1.2112641087    -0.8368851668    -0.0608241146
|  9>  O       -1.0952056289    -1.9306645875     0.8030359153
| 10>  C       -0.0941693202    -1.6028414748     1.7817738078
| 11>  C        0.9265964595    -0.6994997918     1.0658852182
| 12>  C       -2.4925819715    -0.2020289119    -0.1461315588
| 13>  N       -3.5034668970     0.3577340337    -0.2199820010
| 14>  H       -0.2911114494     1.7585347295    -0.9490606884
| 15>  H       -0.1565400973     1.8726929180     0.6771833101
| 16>  H       -0.5527700285    -0.2994026737    -2.1313161763
| 17>  H        0.2759892868    -1.7678081756    -1.4144897086
| 18>  H       -0.5599804423    -1.0734439114     2.6250409159
| 19>  H        0.3207995846    -2.5444510079     2.1475091105
| 20>  H        1.7514220328    -1.2775546567     0.6382610649
| 21>  H        1.3559823880     0.0486129010     1.7361950863
| 22> *
| 23>
| 24>                          ****END OF INPUT****

CARTESIAN COORDINATES (ANGSTROEM)
---------------------------------
  N      0.213296    1.402978   -0.144564
  C      0.099159   -0.014881   -0.030611
  C     -0.244404   -0.832684   -1.236983
  C     -1.211264   -0.836885   -0.060824
  O     -1.095206   -1.930665    0.803036
  C     -0.094169   -1.602841    1.781774
  C      0.926596   -0.699500    1.065885
  C     -2.492582   -0.202029   -0.146132
  N     -3.503467    0.357734   -0.219982
  H     -0.291111    1.758535   -0.949061
  H     -0.156540    1.872693    0.677183
  H     -0.552770   -0.299403   -2.131316
  H      0.275989   -1.767808   -1.414490
  H     -0.559980   -1.073444    2.625041
  H      0.320800   -2.544451    2.147509
  H      1.751422   -1.277555    0.638261
  H      1.355982    0.048613    1.736195

 Total Charge           Charge          ....    0
 Multiplicity           Mult            ....    1
 Number of Electrons    NEL             ....   66
 Basis Dimension        Dim             ....  327

ORBITAL ENERGIES
----------------

  NO   OCC          E(Eh)            E(eV)
   0   2.0000     -20.585610      -560.1629
   1   2.0000     -15.573728      -423.7827
   2   2.0000     -15.572370      -423.7457
   3   2.0000     -11.329229      -308.2840
   4   2.0000     -11.305142      -307.6286
   5   2.0000     -11.298061      -307.4359
   6   2.0000     -11.276767      -306.8564
   7   2.0000     -11.262532      -306.4691
   8   2.0000     -11.251295      -306.1633
   9   2.0000      -1.416671       -38.5496
  10   2.0000      -1.239944       -33.7406
  11   2.0000      -1.216354       -33.0987
  12   2.0000      -1.119896       -30.4739
  13   2.0000      -1.052235       -28.6328
  14   2.0000      -0.912791       -24.8383
  15   2.0000      -0.878340       -23.9009
  16   2.0000      -0.806899       -21.9568
  17   2.0000      -0.744487       -20.2585
  18   2.0000      -0.697653       -18.9841
  19   2.0000      -0.676050       -18.3963
  20   2.0000      -0.654540       -17.8109
  21   2.0000      -0.635188       -17.2843
  22   2.0000      -0.613610       -16.6972
  23   2.0000      -0.579877       -15.7793
  24   2.0000      -0.560623       -15.2553
  25   2.0000      -0.542661       -14.7666
  26   2.0000      -0.537351       -14.6221
  27   2.0000      -0.514374       -13.9968
  28   2.0000      -0.489134       -13.3100
  29   2.0000      -0.475143       -12.9293
  30   2.0000      -0.459332       -12.4991
  31   2.0000      -0.436504       -11.8779
  32   2.0000      -0.368181       -10.0187
  33   0.0000       0.118253         3.2178
  34   0.0000       0.144757         3.9390
  35   0.0000       0.147200         4.0055
  36   0.0000       0.160687         4.3725
  37   0.0000       0.177475         4.8293

MULLIKEN ATOMIC CHARGES
-----------------------
   0 N :   -0.494502
   1 C :    0.079936
   2 C :   -0.282625
   3 C :    0.336825
   4 O :   -0.300365
   5 C :   -0.029712
   6 C :   -0.271945
   7 C :   -0.260589
   8 N :   -0.044864
   9 H :    0.238678
  10 H :    0.242270
  11 H :    0.148041
  12 H :    0.148367
  13 H :    0.100059
  14 H :    0.125075
  15 H :    0.126829
  16 H :    0.138524
Sum of atomic charges:   -0.0000000

LOEWDIN ATOMIC CHARGES
----------------------
   0 N :   -0.091252
   1 C :   -0.286482
   2 C :   -0.137302
   3 C :   -0.303619
   4 O :    0.215054
   5 C :   -0.270250
   6 C :   -0.205867
   7 C :   -0.157233
   8 N :    0.069114
   9 H :    0.165449
  10 H :    0.166888
  11 H :    0.146868
  12 H :    0.146916
  13 H :    0.124004
  14 H :    0.128228
  15 H :    0.143343
  16 H :    0.146141

  Mayer bond orders larger than 0.1
B(  0-N ,  1-C ) :   1.0629 B(  0-N ,  9-H ) :   0.8863 B(  0-N , 10-H ) :   0.8818
B(  1-C ,  2-C ) :   0.9177 B(  1-C ,  3-C ) :   0.7402 B(  1-C ,  6-C ) :   0.8969
B(  2-C ,  3-C ) :   0.8141 B(  2-C , 11-H ) :   0.9164 B(  2-C , 12-H ) :   0.9106
B(  3-C ,  4-O ) :   0.9694 B(  3-C ,  7-C ) :   0.9524 B(  4-O ,  5-C ) :   0.9117
B(  5-C ,  6-C ) :   0.9832 B(  5-C , 13-H ) :   0.9203 B(  5-C , 14-H ) :   0.9252
B(  6-C , 15-H ) :   0.9164 B(  6-C , 16-H ) :   0.9272 B(  7-C ,  8-N ) :   2.8570

MP2 TOTAL ENERGY:     -417.294977131 Eh
FINAL SINGLE POINT ENERGY      -417.294977131070

DIPOLE MOMENT
-------------
                                X             Y             Z
Electronic contribution:     -6.41635      -0.57587      -1.22874
Nuclear contribution   :      7.90275       0.53196       1.45960
                        -----------------------------------------
Total Dipole Moment    :      1.48640      -0.04391       0.23086
                        -----------------------------------------
Magnitude (a.u.)       :      1.50486
Magnitude (Debye)      :      3.82504

                             ****ORCA TERMINATED NORMALLY****
TOTAL RUN TIME: 0 days 0 hours 17 minutes 58 seconds 996 msec
