                         Program Version 3.0.3 - RELEASE   -
|  1> ! RI-MP2 RIJK def2-TZVP def2-TZVP/C def2-TZVP/JK TIGHTSCF
|  2> % maxcore 2000
|  3> % mp2 density relaxed end
|  4> *xyz 0 1
|  5>  C       -0.2678979071     1.5428951116     0.0006322458
|  6>  C        0.0252168514     0.0429563341     0.0039498899
|  7>  C        0.8542054165    -0.4716790435    -1.2239878758
|  8>  C        2.0335753259    -1.2506833714    -0.5989421082
|  9>  C        1.4334854007    -1.7773783669     0.7167933345
| 10>  C        0.8242970528    -0.4688650229     1.2229833861
| 11>  O        1.8995197301     0.4437385263     1.5697667022
| 12>  C        2.9720848429     0.3947558765     0.7415022833
| 13>  N        3.1386782796    -0.3254934217    -0.2859610003
| 14>  H        0.6553612046     2.1280269252    -0.0219406904
| 15>  H       -0.8600440397     1.8148413034    -0.8788583433
| 16>  H       -0.8323506653     1.8423578363     0.8900461301
| 17>  H       -0.9322435511    -0.4923671509     0.0287354893
| 18>  H        0.2491575383    -1.1236156570    -1.8623616638
| 19>  H        1.2218476574     0.3491694485    -1.8450618063
| 20>  H        2.4217887565    -2.0314307793    -1.2558298312
| 21>  H        0.6480910230    -2.5195576024     0.5409873734
| 22>  H        2.1783469968    -2.2011481080     1.3946868825
| 23>  H        0.2264060222    -0.5482147126     2.1323412577
| 24>  H        3.7385312345     1.0910414946     1.0768944243
| 25> *
| 26>
| 27>                          ****END OF INPUT****

CARTESIAN COORDINATES (ANGSTROEM)
---------------------------------
  C     -0.267898    1.542895    0.000632
  C      0.025217    0.042956    0.003950
  C      0.854205   -0.471679   -1.223988
  C      2.033575   -1.250683   -0.598942
  C      1.433485   -1.777378    0.716793
  C      0.824297   -0.468865    1.222983
  O      1.899520    0.443739    1.569767
  C      2.972085    0.394756    0.741502
  N      3.138678   -0.325493   -0.285961
  H      0.655361    2.128027   -0.021941
  H     -0.860044    1.814841   -0.878858
  H     -0.832351    1.842358    0.890046
  H     -0.932244   -0.492367    0.028735
  H      0.249158   -1.123616   -1.862362
  H      1.221848    0.349169   -1.845062
  H      2.421789   -2.031431   -1.255830
  H      0.648091   -2.519558    0.540987
  H      2.178347   -2.201148    1.394687
  H      0.226406   -0.548215    2.132341
  H      3.738531    1.091041    1.076894

 Total Charge           Charge          ....    0
 Multiplicity           Mult            ....    1
 Number of Electrons    NEL             ....   68
 Basis Dimension        Dim             ....  345

ORBITAL ENERGIES
----------------

  NO   OCC          E(Eh)            E(eV)
   0   2.0000     -20.588624      -560.2449
   1   2.0000     -15.537870      -422.8069
   2   2.0000     -11.324792      -308.1633
   3   2.0000     -11.291974      -307.2702
   4   2.0000     -11.257076      -306.3206
   5   2.0000     -11.235984      -305.7467
   6   2.0000     -11.228049      -305.5307
   7   2.0000     -11.222752      -305.3866
   8   2.0000     -11.216903      -305.2274
   9   2.0000      -1.422360       -38.7044
  10   2.0000      -1.214484       -33.0478
  11   2.0000      -1.125636       -30.6301
  12   2.0000      -1.014691       -27.6111
  13   2.0000      -0.961161       -26.1545
  14   2.0000      -0.896311       -24.3899
  15   2.0000      -0.876592       -23.8533
  16   2.0000      -0.776384       -21.1265
  17   2.0000      -0.728053       -19.8113
  18   2.0000      -0.707728       -19.2583
  19   2.0000      -0.659967       -17.9586
  20   2.0000      -0.640836       -17.4380
  21   2.0000      -0.620014       -16.8714
  22   2.0000      -0.607476       -16.5303
  23   2.0000      -0.564929       -15.3725
  24   2.0000      -0.555204       -15.1079
  25   2.0000      -0.551843       -15.0164
  26   2.0000      -0.539349       -14.6764
  27   2.0000      -0.501740       -13.6530
  28   2.0000      -0.485648       -13.2152
  29   2.0000      -0.478613       -13.0237
  30   2.0000      -0.473409       -12.8821
  31   2.0000      -0.451504       -12.2860
  32   2.0000      -0.399432       -10.8691
  33   2.0000      -0.375403       -10.2152
  34   0.0000       0.126814         3.4508
  35   0.0000       0.157636         4.2895
  36   0.0000       0.165263         4.4970
  37   0.0000       0.169624         4.6157
  38   0.0000       0.177867         4.8400

MULLIKEN ATOMIC CHARGES
-----------------------
   0 C :   -0.415484
   1 C :   -0.103051
   2 C :   -0.279355
   3 C :    0.081894
   4 C :   -0.281003
   5 C :    0.101803
   6 O :   -0.278510
   7 C :    0.056308
   8 N :   -0.284792
   9 H :    0.139398
  10 H :    0.136992
  11 H :    0.129556
  12 H :    0.097745
  13 H :    0.121613
  14 H :    0.126436
  15 H :    0.123982
  16 H :    0.125743
  17 H :    0.137474
  18 H :    0.129009
  19 H :    0.134244
Sum of atomic charges:    0.0000000

LOEWDIN ATOMIC CHARGES
----------------------
   0 C :   -0.293450
   1 C :   -0.245750
   2 C :   -0.201734
   3 C :   -0.273818
   4 C :   -0.216691
   5 C :   -0.249848
   6 O :    0.239622
   7 C :   -0.366391
   8 N :    0.087767
   9 H :    0.126922
  10 H :    0.125165
  11 H :    0.124979
  12 H :    0.155676
  13 H :    0.136063
  14 H :    0.143237
  15 H :    0.142090
  16 H :    0.147126
  17 H :    0.143204
  18 H :    0.143451
  19 H :    0.132379

  Mayer bond orders larger than 0.1
B(  0-C ,  1-C ) :   0.9107 B(  0-C ,  9-H ) :   0.9308 B(  0-C , 10-H ) :   0.9407
B(  0-C , 11-H ) :   0.9382 B(  1-C ,  2-C ) :   0.9245 B(  1-C ,  5-C ) :   0.9295
B(  1-C , 12-H ) :   0.9170 B(  2-C ,  3-C ) :   0.9209 B(  2-C , 13-H ) :   0.9215
B(  2-C , 14-H ) :   0.9272 B(  3-C ,  4-C ) :   0.9420 B(  3-C ,  8-N ) :   0.8910
B(  3-C , 15-H ) :   0.9372 B(  4-C ,  5-C ) :   0.9342 B(  4-C , 16-H ) :   0.9258
B(  4-C , 17-H ) :   0.9122 B(  5-C ,  6-O ) :   0.8178 B(  5-C , 18-H ) :   0.9267
B(  6-O ,  7-C ) :   1.0721 B(  7-C ,  8-N ) :   1.8537 B(  7-C , 19-H ) :   0.9269

MP2 TOTAL ENERGY:     -402.493152365 Eh
FINAL SINGLE POINT ENERGY      -402.493152364501

DIPOLE MOMENT
-------------
                                X             Y             Z
Electronic contribution:      5.57916      -0.62263       2.55030
Nuclear contribution   :     -6.46016       0.32189      -2.40771
                        -----------------------------------------
Total Dipole Moment    :     -0.88100      -0.30074       0.14259
                        -----------------------------------------
Magnitude (a.u.)       :      0.94177
Magnitude (Debye)      :      2.39380

                             ****ORCA TERMINATED NORMALLY****
TOTAL RUN TIME: 0 days 0 hours 21 minutes 27 seconds 289 msec
