                         Program Version 3.0.3 - RELEASE   -
|  1> ! RI-MP2 RIJK def2-TZVP def2-TZVP/C def2-TZVP/JK TIGHTSCF
|  2> % maxcore 2000
|  3> % mp2 density relaxed end
|  4> *xyz 0 1
|  5>  O        0.0360641354     0.1171877504     0.5930250692
|  6>  C       -0.0016729852     1.2429475499     0.1401226516
|  7>  C       -1.3241225838     1.8999923900    -0.2340806510
|  8>  C       -1.2127528372     3.2490502377    -0.8863534886
|  9>  C       -0.0613485456     3.7958425445    -1.2694853997
| 10>  C        1.2761238442     3.1317220400    -1.0887083148
| 11>  C        1.2547950252     2.0531038833    -0.0200318387
| 12>  C        2.0108968466     2.2192794571     1.2699597718
| 13>  N        2.5112777215     1.3386037134     0.2219994596
| 14>  H       -1.8715603732     1.1926446768    -0.8724440539
| 15>  H       -1.9213816162     1.9556360657     0.6871535180
| 16>  H       -2.1471252030     3.7767781922    -1.0598172376
| 17>  H       -0.0641619605     4.7645063342    -1.7620560974
| 18>  H        1.6013783942     2.6856952495    -2.0401129368
| 19>  H        2.0435403597     3.8737727418    -0.8423342875
| 20>  H        2.5713095495     3.1386839306     1.4205194430
| 21>  H        1.5885270046     1.7755132628     2.1674630766
| 22>  H        2.2649658038     0.3763835299     0.4600491262
| 23> *
| 24>
| 25>                          ****END OF INPUT****

CARTESIAN COORDINATES (ANGSTROEM)
---------------------------------
  O      0.036064    0.117188    0.593025
  C     -0.001673    1.242948    0.140123
  C     -1.324123    1.899992   -0.234081
  C     -1.212753    3.249050   -0.886353
  C     -0.061349    3.795843   -1.269485
  C      1.276124    3.131722   -1.088708
  C      1.254795    2.053104   -0.020032
  C      2.010897    2.219279    1.269960
  N      2.511278    1.338604    0.221999
  H     -1.871560    1.192645   -0.872444
  H     -1.921382    1.955636    0.687154
  H     -2.147125    3.776778   -1.059817
  H     -0.064162    4.764506   -1.762056
  H      1.601378    2.685695   -2.040113
  H      2.043540    3.873773   -0.842334
  H      2.571310    3.138684    1.420519
  H      1.588527    1.775513    2.167463
  H      2.264966    0.376384    0.460049

 Total Charge           Charge          ....    0
 Multiplicity           Mult            ....    1
 Number of Electrons    NEL             ....   66
 Basis Dimension        Dim             ....  333

ORBITAL ENERGIES
----------------

  NO   OCC          E(Eh)            E(eV)
   0   2.0000     -20.550038      -559.1950
   1   2.0000     -15.564878      -423.5419
   2   2.0000     -11.340215      -308.5829
   3   2.0000     -11.277126      -306.8662
   4   2.0000     -11.270763      -306.6931
   5   2.0000     -11.250746      -306.1484
   6   2.0000     -11.243801      -305.9594
   7   2.0000     -11.243375      -305.9478
   8   2.0000     -11.241805      -305.9051
   9   2.0000      -1.397956       -38.0403
  10   2.0000      -1.276078       -34.7239
  11   2.0000      -1.121487       -30.5172
  12   2.0000      -1.017546       -27.6888
  13   2.0000      -0.973537       -26.4913
  14   2.0000      -0.888330       -24.1727
  15   2.0000      -0.861636       -23.4463
  16   2.0000      -0.788781       -21.4638
  17   2.0000      -0.720015       -19.5926
  18   2.0000      -0.683720       -18.6050
  19   2.0000      -0.678700       -18.4684
  20   2.0000      -0.625294       -17.0151
  21   2.0000      -0.620397       -16.8819
  22   2.0000      -0.603958       -16.4345
  23   2.0000      -0.587896       -15.9975
  24   2.0000      -0.582583       -15.8529
  25   2.0000      -0.547178       -14.8895
  26   2.0000      -0.520997       -14.1770
  27   2.0000      -0.510700       -13.8969
  28   2.0000      -0.491821       -13.3831
  29   2.0000      -0.461050       -12.5458
  30   2.0000      -0.416539       -11.3346
  31   2.0000      -0.396111       -10.7787
  32   2.0000      -0.365025        -9.9328
  33   0.0000       0.119690         3.2569
  34   0.0000       0.136226         3.7069
  35   0.0000       0.148019         4.0278
  36   0.0000       0.155432         4.2295
  37   0.0000       0.167971         4.5707

MULLIKEN ATOMIC CHARGES
-----------------------
   0 O :   -0.318647
   1 C :    0.139526
   2 C :   -0.138233
   3 C :   -0.198057
   4 C :   -0.184178
   5 C :   -0.155675
   6 C :    0.090254
   7 C :   -0.187926
   8 N :   -0.364751
   9 H :    0.148150
  10 H :    0.145425
  11 H :    0.127540
  12 H :    0.127661
  13 H :    0.132288
  14 H :    0.132217
  15 H :    0.125559
  16 H :    0.139797
  17 H :    0.239050
Sum of atomic charges:    0.0000000

LOEWDIN ATOMIC CHARGES
----------------------
   0 O :    0.141121
   1 C :   -0.282514
   2 C :   -0.213197
   3 C :   -0.171476
   4 C :   -0.165562
   5 C :   -0.202793
   6 C :   -0.270667
   7 C :   -0.223732
   8 N :    0.030064
   9 H :    0.163196
  10 H :    0.163685
  11 H :    0.144689
  12 H :    0.144867
  13 H :    0.156476
  14 H :    0.152265
  15 H :    0.127737
  16 H :    0.128756
  17 H :    0.177086

  Mayer bond orders larger than 0.1
B(  0-O ,  1-C ) :   1.9099 B(  1-C ,  2-C ) :   0.9631 B(  1-C ,  6-C ) :   0.9415
B(  2-C ,  3-C ) :   0.9092 B(  2-C ,  9-H ) :   0.9021 B(  2-C , 10-H ) :   0.8906
B(  3-C ,  4-C ) :   1.7974 B(  3-C , 11-H ) :   0.9262 B(  4-C ,  5-C ) :   0.9440
B(  4-C , 12-H ) :   0.9298 B(  5-C ,  6-C ) :   0.9048 B(  5-C , 13-H ) :   0.8928
B(  5-C , 14-H ) :   0.9374 B(  6-C ,  7-C ) :   0.9001 B(  6-C ,  8-N ) :   0.8904
B(  7-C ,  8-N ) :   0.9592 B(  7-C , 15-H ) :   0.9120 B(  7-C , 16-H ) :   0.9083
B(  8-N , 17-H ) :   0.8545

MP2 TOTAL ENERGY:     -401.258309291 Eh
FINAL SINGLE POINT ENERGY      -401.258309290850

DIPOLE MOMENT
-------------
                                X             Y             Z
Electronic contribution:      0.01862      -3.64122       0.69295
Nuclear contribution   :     -0.51321       4.52379      -0.73188
                        -----------------------------------------
Total Dipole Moment    :     -0.49459       0.88257      -0.03892
                        -----------------------------------------
Magnitude (a.u.)       :      1.01245
Magnitude (Debye)      :      2.57346

                             ****ORCA TERMINATED NORMALLY****
TOTAL RUN TIME: 0 days 0 hours 17 minutes 26 seconds 828 msec
