                         Program Version 3.0.3 - RELEASE   -
|  1> ! RI-MP2 RIJK def2-TZVP def2-TZVP/C def2-TZVP/JK TIGHTSCF
|  2> % maxcore 2000
|  3> % mp2 density relaxed end
|  4> *xyz 0 1
|  5>  O        0.1107455523     0.0143378692     0.1954781479
|  6>  C        0.0390171554     1.2063506521    -0.0483486557
|  7>  C       -1.2958547632     1.9559035445    -0.0860941770
|  8>  C       -1.2074056856     3.4906760931    -0.2128023994
|  9>  C        0.0178597631     4.0399138010     0.5373621467
| 10>  C        1.2507748977     3.4418542506    -0.1193266872
| 11>  C        2.5894431461     3.2239968652     0.6416219334
| 12>  C        2.4859581476     1.7148796208     0.2661684343
| 13>  N        1.1423444744     1.9751687957    -0.2715980521
| 14>  H       -1.9020119157     1.5254549181    -0.8897552949
| 15>  H       -1.7991695470     1.6762536404     0.8462812896
| 16>  H       -1.1291938571     3.7771645743    -1.2691325023
| 17>  H       -2.1299830886     3.9449259976     0.1621060501
| 18>  H        0.0501670298     5.1337559145     0.4981790273
| 19>  H       -0.0251189222     3.7473216699     1.5947566789
| 20>  H        1.4087760160     3.9214091389    -1.0956856043
| 21>  H        3.4550676235     3.7637070641     0.2553577097
| 22>  H        2.5028595464     3.4037104168     1.7157263166
| 23>  H        3.1981708412     1.3807454909    -0.4951647036
| 24>  H        2.4808610757     0.9935478826     1.0870022219
| 25> *
| 26>
| 27>                          ****END OF INPUT****

CARTESIAN COORDINATES (ANGSTROEM)
---------------------------------
  O      0.110746    0.014338    0.195478
  C      0.039017    1.206351   -0.048349
  C     -1.295855    1.955904   -0.086094
  C     -1.207406    3.490676   -0.212802
  C      0.017860    4.039914    0.537362
  C      1.250775    3.441854   -0.119327
  C      2.589443    3.223997    0.641622
  C      2.485958    1.714880    0.266168
  N      1.142344    1.975169   -0.271598
  H     -1.902012    1.525455   -0.889755
  H     -1.799170    1.676254    0.846281
  H     -1.129194    3.777165   -1.269133
  H     -2.129983    3.944926    0.162106
  H      0.050167    5.133756    0.498179
  H     -0.025119    3.747322    1.594757
  H      1.408776    3.921409   -1.095686
  H      3.455068    3.763707    0.255358
  H      2.502860    3.403710    1.715726
  H      3.198171    1.380745   -0.495165
  H      2.480861    0.993548    1.087002

 Total Charge           Charge          ....    0
 Multiplicity           Mult            ....    1
 Number of Electrons    NEL             ....   68
 Basis Dimension        Dim             ....  345

ORBITAL ENERGIES
----------------

  NO   OCC          E(Eh)            E(eV)
   0   2.0000     -20.502767      -557.9087
   1   2.0000     -15.571426      -423.7201
   2   2.0000     -11.336192      -308.4735
   3   2.0000     -11.277734      -306.8827
   4   2.0000     -11.265682      -306.5548
   5   2.0000     -11.239815      -305.8509
   6   2.0000     -11.238814      -305.8237
   7   2.0000     -11.237621      -305.7912
   8   2.0000     -11.235545      -305.7347
   9   2.0000      -1.369398       -37.2632
  10   2.0000      -1.265983       -34.4492
  11   2.0000      -1.089258       -29.6402
  12   2.0000      -1.044126       -28.4121
  13   2.0000      -0.972032       -26.4503
  14   2.0000      -0.912227       -24.8229
  15   2.0000      -0.833869       -22.6907
  16   2.0000      -0.817425       -22.2433
  17   2.0000      -0.725590       -19.7443
  18   2.0000      -0.673586       -18.3292
  19   2.0000      -0.656884       -17.8747
  20   2.0000      -0.645408       -17.5625
  21   2.0000      -0.628796       -17.1104
  22   2.0000      -0.592727       -16.1289
  23   2.0000      -0.571527       -15.5520
  24   2.0000      -0.559938       -15.2367
  25   2.0000      -0.542244       -14.7552
  26   2.0000      -0.532327       -14.4854
  27   2.0000      -0.522167       -14.2089
  28   2.0000      -0.498418       -13.5626
  29   2.0000      -0.483203       -13.1486
  30   2.0000      -0.473681       -12.8895
  31   2.0000      -0.459542       -12.5048
  32   2.0000      -0.401957       -10.9378
  33   2.0000      -0.367190        -9.9917
  34   0.0000       0.127797         3.4775
  35   0.0000       0.144951         3.9443
  36   0.0000       0.151984         4.1357
  37   0.0000       0.164950         4.4885
  38   0.0000       0.170979         4.6526

MULLIKEN ATOMIC CHARGES
-----------------------
   0 O :   -0.367774
   1 C :    0.156839
   2 C :   -0.231870
   3 C :   -0.218620
   4 C :   -0.227147
   5 C :   -0.038984
   6 C :   -0.220441
   7 C :   -0.136569
   8 N :   -0.079745
   9 H :    0.144564
  10 H :    0.134630
  11 H :    0.116905
  12 H :    0.131937
  13 H :    0.125632
  14 H :    0.114018
  15 H :    0.097832
  16 H :    0.130039
  17 H :    0.115817
  18 H :    0.119835
  19 H :    0.133104
Sum of atomic charges:    0.0000000

LOEWDIN ATOMIC CHARGES
----------------------
   0 O :    0.075369
   1 C :   -0.445854
   2 C :   -0.225747
   3 C :   -0.256537
   4 C :   -0.245854
   5 C :   -0.229158
   6 C :   -0.210673
   7 C :   -0.212311
   8 N :    0.214968
   9 H :    0.152458
  10 H :    0.154671
  11 H :    0.140343
  12 H :    0.137926
  13 H :    0.140894
  14 H :    0.142414
  15 H :    0.144788
  16 H :    0.128310
  17 H :    0.134782
  18 H :    0.127542
  19 H :    0.131669

  Mayer bond orders larger than 0.1
B(  0-O ,  1-C ) :   1.9547 B(  1-C ,  2-C ) :   0.9188 B(  1-C ,  8-N ) :   1.1612
B(  2-C ,  3-C ) :   0.9142 B(  2-C ,  9-H ) :   0.9207 B(  2-C , 10-H ) :   0.9198
B(  3-C ,  4-C ) :   0.9053 B(  3-C , 11-H ) :   0.9307 B(  3-C , 12-H ) :   0.9278
B(  4-C ,  5-C ) :   0.9481 B(  4-C , 13-H ) :   0.9301 B(  4-C , 14-H ) :   0.9228
B(  5-C ,  6-C ) :   0.9318 B(  5-C ,  8-N ) :   0.8950 B(  5-C , 15-H ) :   0.9121
B(  6-C ,  7-C ) :   0.9475 B(  6-C , 16-H ) :   0.9278 B(  6-C , 17-H ) :   0.9155
B(  7-C ,  8-N ) :   0.8877 B(  7-C , 18-H ) :   0.9209 B(  7-C , 19-H ) :   0.9186

MP2 TOTAL ENERGY:     -402.492009453 Eh
FINAL SINGLE POINT ENERGY      -402.492009453247

DIPOLE MOMENT
-------------
                                X             Y             Z
Electronic contribution:      0.37007      -5.57753      -1.08657
Nuclear contribution   :     -0.08600       7.22261       1.14639
                        -----------------------------------------
Total Dipole Moment    :      0.28407       1.64508       0.05981
                        -----------------------------------------
Magnitude (a.u.)       :      1.67049
Magnitude (Debye)      :      4.24606

                             ****ORCA TERMINATED NORMALLY****
TOTAL RUN TIME: 0 days 0 hours 19 minutes 42 seconds 982 msec
