                         Program Version 3.0.3 - RELEASE   -
|  1> ! RI-MP2 RIJK def2-TZVP def2-TZVP/C def2-TZVP/JK TIGHTSCF
|  2> % maxcore 2000
|  3> % mp2 density relaxed end
|  4> *xyz 0 1
|  5>  C       -0.1237017832     1.4986006391    -0.0456044804
|  6>  C       -0.0482068450     0.0464578067    -0.0296341231
|  7>  C        0.0211448507    -1.1596803480    -0.0164735316
|  8>  C        0.1047564217    -2.5637539998    -0.0012394741
|  9>  C        1.1821189601    -3.4356048197     0.0057021279
| 10>  C        2.6340149156    -3.0922097430    -0.0015539281
| 11>  N        0.7389985316    -4.7357111202     0.0210259098
| 12>  C       -0.5742526280    -4.6693183505     0.0234400194
| 13>  N       -1.0152395269    -3.3864408078     0.0104556352
| 14>  H        0.8780341564     1.9404481086    -0.0060276340
| 15>  H       -0.6110640816     1.8676351810    -0.9554657416
| 16>  H       -0.6869191743     1.8820131332     0.8130170402
| 17>  H        3.1370356687    -3.4973925504     0.8831133704
| 18>  H        3.1331798617    -3.5186613565    -0.8783658846
| 19>  H        2.7753959386    -2.0088351397    -0.0149242632
| 20>  H       -1.2502621827    -5.5115185972     0.0342774320
| 21>  H       -1.9695313434    -3.0676090457     0.0091528659
| 22> *
| 23>
| 24>                          ****END OF INPUT****

CARTESIAN COORDINATES (ANGSTROEM)
---------------------------------
  C     -0.123702    1.498601   -0.045604
  C     -0.048207    0.046458   -0.029634
  C      0.021145   -1.159680   -0.016474
  C      0.104756   -2.563754   -0.001239
  C      1.182119   -3.435605    0.005702
  C      2.634015   -3.092210   -0.001554
  N      0.738999   -4.735711    0.021026
  C     -0.574253   -4.669318    0.023440
  N     -1.015240   -3.386441    0.010456
  H      0.878034    1.940448   -0.006028
  H     -0.611064    1.867635   -0.955466
  H     -0.686919    1.882013    0.813017
  H      3.137036   -3.497393    0.883113
  H      3.133180   -3.518661   -0.878366
  H      2.775396   -2.008835   -0.014924
  H     -1.250262   -5.511519    0.034277
  H     -1.969531   -3.067609    0.009153

 Total Charge           Charge          ....    0
 Multiplicity           Mult            ....    1
 Number of Electrons    NEL             ....   64
 Basis Dimension        Dim             ....  327

ORBITAL ENERGIES
----------------

  NO   OCC          E(Eh)            E(eV)
   0   2.0000     -15.618708      -425.0066
   1   2.0000     -15.542013      -422.9197
   2   2.0000     -11.300127      -307.4921
   3   2.0000     -11.270958      -306.6984
   4   2.0000     -11.255472      -306.2770
   5   2.0000     -11.252582      -306.1983
   6   2.0000     -11.235819      -305.7422
   7   2.0000     -11.229140      -305.5604
   8   2.0000     -11.215101      -305.1784
   9   2.0000      -1.341801       -36.5123
  10   2.0000      -1.171511       -31.8784
  11   2.0000      -1.077701       -29.3257
  12   2.0000      -1.036758       -28.2116
  13   2.0000      -0.972437       -26.4614
  14   2.0000      -0.930090       -25.3090
  15   2.0000      -0.833580       -22.6829
  16   2.0000      -0.801655       -21.8141
  17   2.0000      -0.745069       -20.2744
  18   2.0000      -0.660619       -17.9763
  19   2.0000      -0.627492       -17.0749
  20   2.0000      -0.617466       -16.8021
  21   2.0000      -0.613941       -16.7062
  22   2.0000      -0.591384       -16.0924
  23   2.0000      -0.590900       -16.0792
  24   2.0000      -0.549961       -14.9652
  25   2.0000      -0.545379       -14.8405
  26   2.0000      -0.527839       -14.3632
  27   2.0000      -0.444166       -12.0864
  28   2.0000      -0.428615       -11.6632
  29   2.0000      -0.390045       -10.6137
  30   2.0000      -0.382008       -10.3950
  31   2.0000      -0.289464        -7.8767
  32   0.0000       0.127947         3.4816
  33   0.0000       0.130329         3.5464
  34   0.0000       0.138846         3.7782
  35   0.0000       0.164648         4.4803
  36   0.0000       0.177247         4.8231

MULLIKEN ATOMIC CHARGES
-----------------------
   0 C :   -0.467294
   1 C :    0.013030
   2 C :    0.094319
   3 C :   -0.034438
   4 C :    0.033734
   5 C :   -0.430108
   6 N :   -0.290440
   7 C :    0.050159
   8 N :   -0.291975
   9 H :    0.166758
  10 H :    0.164118
  11 H :    0.163920
  12 H :    0.144527
  13 H :    0.144547
  14 H :    0.139096
  15 H :    0.148864
  16 H :    0.251183
Sum of atomic charges:    0.0000000

LOEWDIN ATOMIC CHARGES
----------------------
   0 C :   -0.293188
   1 C :   -0.080075
   2 C :   -0.066247
   3 C :   -0.207974
   4 C :   -0.244783
   5 C :   -0.269610
   6 N :    0.111147
   7 C :   -0.312918
   8 N :    0.207965
   9 H :    0.144366
  10 H :    0.141821
  11 H :    0.141920
  12 H :    0.133515
  13 H :    0.133527
  14 H :    0.132893
  15 H :    0.130441
  16 H :    0.197200

  Mayer bond orders larger than 0.1
B(  0-C ,  1-C ) :   0.8545 B(  0-C ,  9-H ) :   0.9433 B(  0-C , 10-H ) :   0.9438
B(  0-C , 11-H ) :   0.9440 B(  1-C ,  2-C ) :   2.6455 B(  1-C ,  3-C ) :  -0.1215
B(  2-C ,  3-C ) :   1.0848 B(  3-C ,  4-C ) :   1.4816 B(  3-C ,  8-N ) :   1.1077
B(  4-C ,  5-C ) :   0.8646 B(  4-C ,  6-N ) :   1.3156 B(  5-C , 12-H ) :   0.9396
B(  5-C , 13-H ) :   0.9397 B(  5-C , 14-H ) :   0.9501 B(  6-N ,  7-C ) :   1.5398
B(  7-C ,  8-N ) :   1.1846 B(  7-C , 15-H ) :   0.9257 B(  8-N , 16-H ) :   0.8640

MP2 TOTAL ENERGY:     -380.210341264 Eh
FINAL SINGLE POINT ENERGY      -380.210341263669

DIPOLE MOMENT
-------------
                                X             Y             Z
Electronic contribution:     -3.60348      -5.62721       0.07020
Nuclear contribution   :      2.57006       6.69582      -0.07913
                        -----------------------------------------
Total Dipole Moment    :     -1.03342       1.06861      -0.00893
                        -----------------------------------------
Magnitude (a.u.)       :      1.48659
Magnitude (Debye)      :      3.77862

                             ****ORCA TERMINATED NORMALLY****
TOTAL RUN TIME: 0 days 0 hours 15 minutes 35 seconds 496 msec
