                         Program Version 3.0.3 - RELEASE   -
|  1> ! RI-MP2 RIJK def2-TZVP def2-TZVP/C def2-TZVP/JK TIGHTSCF
|  2> % maxcore 2000
|  3> % mp2 density relaxed end
|  4> *xyz 0 1
|  5>  C       -0.0792327589     1.5124284121    -0.1880549766
|  6>  C        0.1314696169     0.0176686615    -0.0810069353
|  7>  O        1.2902803876    -0.4755232342    -0.8249892727
|  8>  C        1.7498610335    -1.1767768828     0.3304212430
|  9>  C        2.0970356315    -0.2191385407     1.4295026233
| 10>  C        0.6534401573    -0.6271551047     1.2103856784
| 11>  C       -0.2179563870    -1.2662503773     2.2650568797
| 12>  C       -0.9183145216    -0.2830307247     3.0908811788
| 13>  C       -1.4921578651     0.5432574650     3.7486299686
| 14>  H        0.7846663339     2.0679588001     0.1854615322
| 15>  H       -0.2449954692     1.7975042810    -1.2318496586
| 16>  H       -0.9590396821     1.8046330063     0.3941824487
| 17>  H       -0.7608652984    -0.5188055018    -0.4333636453
| 18>  H        2.1609462306    -2.1711344034     0.1963857658
| 19>  H        2.5508667153    -0.6636639690     2.3107651334
| 20>  H        2.4559871074     0.7753544073     1.1825428477
| 21>  H       -0.9550271298    -1.9257587305     1.7865844014
| 22>  H        0.3952616961    -1.9121973746     2.9062715560
| 23>  H       -1.9981629679     1.2660081603     4.3394233314
| 24> *
| 25>
| 26>                          ****END OF INPUT****

CARTESIAN COORDINATES (ANGSTROEM)
---------------------------------
  C     -0.079233    1.512428   -0.188055
  C      0.131470    0.017669   -0.081007
  O      1.290280   -0.475523   -0.824989
  C      1.749861   -1.176777    0.330421
  C      2.097036   -0.219139    1.429503
  C      0.653440   -0.627155    1.210386
  C     -0.217956   -1.266250    2.265057
  C     -0.918315   -0.283031    3.090881
  C     -1.492158    0.543257    3.748630
  H      0.784666    2.067959    0.185462
  H     -0.244995    1.797504   -1.231850
  H     -0.959040    1.804633    0.394182
  H     -0.760865   -0.518806   -0.433364
  H      2.160946   -2.171134    0.196386
  H      2.550867   -0.663664    2.310765
  H      2.455987    0.775354    1.182543
  H     -0.955027   -1.925759    1.786584
  H      0.395262   -1.912197    2.906272
  H     -1.998163    1.266008    4.339423

 Total Charge           Charge          ....    0
 Multiplicity           Mult            ....    1
 Number of Electrons    NEL             ....   66
 Basis Dimension        Dim             ....  339

ORBITAL ENERGIES
----------------

  NO   OCC          E(Eh)            E(eV)
   0   2.0000     -20.551757      -559.2417
   1   2.0000     -11.289436      -307.2012
   2   2.0000     -11.288916      -307.1870
   3   2.0000     -11.266358      -306.5732
   4   2.0000     -11.250202      -306.1336
   5   2.0000     -11.238751      -305.8220
   6   2.0000     -11.234854      -305.7159
   7   2.0000     -11.225119      -305.4510
   8   2.0000     -11.215131      -305.1792
   9   2.0000      -1.391372       -37.8612
  10   2.0000      -1.136628       -30.9292
  11   2.0000      -1.060935       -28.8695
  12   2.0000      -1.019298       -27.7365
  13   2.0000      -0.972171       -26.4541
  14   2.0000      -0.875326       -23.8188
  15   2.0000      -0.819758       -22.3068
  16   2.0000      -0.736423       -20.0391
  17   2.0000      -0.728892       -19.8342
  18   2.0000      -0.685380       -18.6501
  19   2.0000      -0.664096       -18.0710
  20   2.0000      -0.634188       -17.2571
  21   2.0000      -0.609028       -16.5725
  22   2.0000      -0.597804       -16.2671
  23   2.0000      -0.592905       -16.1338
  24   2.0000      -0.559156       -15.2154
  25   2.0000      -0.538399       -14.6506
  26   2.0000      -0.511560       -13.9202
  27   2.0000      -0.495003       -13.4697
  28   2.0000      -0.465551       -12.6683
  29   2.0000      -0.404966       -11.0197
  30   2.0000      -0.398135       -10.8338
  31   2.0000      -0.389575       -10.6009
  32   2.0000      -0.373896       -10.1742
  33   0.0000       0.130403         3.5484
  34   0.0000       0.155647         4.2354
  35   0.0000       0.161211         4.3868
  36   0.0000       0.165972         4.5163
  37   0.0000       0.177880         4.8404

MULLIKEN ATOMIC CHARGES
-----------------------
   0 C :   -0.390987
   1 C :    0.112880
   2 O :   -0.331062
   3 C :    0.038306
   4 C :   -0.263587
   5 C :    0.004159
   6 C :   -0.359046
   7 C :   -0.006917
   8 C :   -0.169493
   9 H :    0.123266
  10 H :    0.140359
  11 H :    0.136421
  12 H :    0.086949
  13 H :    0.129424
  14 H :    0.128174
  15 H :    0.135830
  16 H :    0.149024
  17 H :    0.146400
  18 H :    0.189901
Sum of atomic charges:   -0.0000000

LOEWDIN ATOMIC CHARGES
----------------------
   0 C :   -0.288565
   1 C :   -0.246085
   2 O :    0.162502
   3 C :   -0.230410
   4 C :   -0.183340
   5 C :   -0.190973
   6 C :   -0.213426
   7 C :   -0.101080
   8 C :   -0.104440
   9 H :    0.125434
  10 H :    0.129533
  11 H :    0.132302
  12 H :    0.144542
  13 H :    0.131000
  14 H :    0.144284
  15 H :    0.134670
  16 H :    0.163026
  17 H :    0.164297
  18 H :    0.126728

  Mayer bond orders larger than 0.1
B(  0-C ,  1-C ) :   0.9279 B(  0-C ,  9-H ) :   0.9363 B(  0-C , 10-H ) :   0.9319
B(  0-C , 11-H ) :   0.9252 B(  1-C ,  2-O ) :   0.9187 B(  1-C ,  5-C ) :   0.9224
B(  1-C , 12-H ) :   0.9093 B(  2-O ,  3-C ) :   0.9811 B(  3-C ,  4-C ) :   0.8723
B(  3-C ,  5-C ) :   0.8967 B(  3-C , 13-H ) :   0.9192 B(  4-C ,  5-C ) :   0.8815
B(  4-C , 14-H ) :   0.9170 B(  4-C , 15-H ) :   0.9057 B(  5-C ,  6-C ) :   0.9147
B(  6-C ,  7-C ) :   1.0751 B(  6-C , 16-H ) :   0.9298 B(  6-C , 17-H ) :   0.9211
B(  7-C ,  8-C ) :   2.6143 B(  8-C , 18-H ) :   0.9051

MP2 TOTAL ENERGY:     -385.127451513 Eh
FINAL SINGLE POINT ENERGY      -385.127451512542

DIPOLE MOMENT
-------------
                                X             Y             Z
Electronic contribution:      0.21084      -2.57078       0.41073
Nuclear contribution   :     -0.39459       2.41041       0.11122
                        -----------------------------------------
Total Dipole Moment    :     -0.18375      -0.16037       0.52194
                        -----------------------------------------
Magnitude (a.u.)       :      0.57612
Magnitude (Debye)      :      1.46437

                             ****ORCA TERMINATED NORMALLY****
TOTAL RUN TIME: 0 days 0 hours 17 minutes 31 seconds 338 msec
