                         Program Version 3.0.3 - RELEASE   -
|  1> ! RI-MP2 RIJK def2-TZVP def2-TZVP/C def2-TZVP/JK TIGHTSCF
|  2> % maxcore 2000
|  3> % mp2 density relaxed end
|  4> *xyz 0 1
|  5>  O       -0.0664843469     1.4463280015     0.0100836715
|  6>  C        0.0202181265     0.0306019977     0.0017632852
|  7>  C       -1.3996941925    -0.5210195432     0.0127433898
|  8>  C       -1.4288868237    -2.0541481930     0.0050214758
|  9>  N       -2.7731876843    -2.6019858132     0.0148644124
| 10>  C       -3.5222027411    -2.8585767384     1.1380532734
| 11>  C       -4.7692317359    -3.2828239011     0.7408801695
| 12>  C       -4.7808765556    -3.2798592615    -0.6812199113
| 13>  C       -3.5405083782    -2.8539090541    -1.0969645665
| 14>  H        0.8263256723     1.8035844776     0.0026909539
| 15>  H        0.5555720168    -0.3314978647    -0.8920410655
| 16>  H        0.5729292849    -0.3408227630     0.8810681343
| 17>  H       -1.9218769381    -0.1470230155     0.8998631672
| 18>  H       -1.9390923995    -0.1378602561    -0.8600663507
| 19>  H       -0.9133917204    -2.4393964533    -0.8817741205
| 20>  H       -0.8964325458    -2.4486280595     0.8776729294
| 21>  H       -3.0980362135    -2.7197244989     2.1204025446
| 22>  H       -5.5753797544    -3.5751064525     1.3962425884
| 23>  H       -5.5976141451    -3.5695112006    -1.3245247907
| 24>  H       -3.1323834957    -2.7110496182    -2.0855149901
| 25> *
| 26>
| 27>                          ****END OF INPUT****

CARTESIAN COORDINATES (ANGSTROEM)
---------------------------------
  O     -0.066484    1.446328    0.010084
  C      0.020218    0.030602    0.001763
  C     -1.399694   -0.521020    0.012743
  C     -1.428887   -2.054148    0.005021
  N     -2.773188   -2.601986    0.014864
  C     -3.522203   -2.858577    1.138053
  C     -4.769232   -3.282824    0.740880
  C     -4.780877   -3.279859   -0.681220
  C     -3.540508   -2.853909   -1.096965
  H      0.826326    1.803584    0.002691
  H      0.555572   -0.331498   -0.892041
  H      0.572929   -0.340823    0.881068
  H     -1.921877   -0.147023    0.899863
  H     -1.939092   -0.137860   -0.860066
  H     -0.913392   -2.439396   -0.881774
  H     -0.896433   -2.448628    0.877673
  H     -3.098036   -2.719724    2.120403
  H     -5.575380   -3.575106    1.396243
  H     -5.597614   -3.569511   -1.324525
  H     -3.132383   -2.711050   -2.085515

 Total Charge           Charge          ....    0
 Multiplicity           Mult            ....    1
 Number of Electrons    NEL             ....   68
 Basis Dimension        Dim             ....  345

ORBITAL ENERGIES
----------------

  NO   OCC          E(Eh)            E(eV)
   0   2.0000     -20.562564      -559.5358
   1   2.0000     -15.600207      -424.5032
   2   2.0000     -11.285419      -307.0919
   3   2.0000     -11.276861      -306.8590
   4   2.0000     -11.243788      -305.9590
   5   2.0000     -11.243742      -305.9578
   6   2.0000     -11.228105      -305.5323
   7   2.0000     -11.203527      -304.8635
   8   2.0000     -11.202484      -304.8351
   9   2.0000      -1.366873       -37.1945
  10   2.0000      -1.296850       -35.2891
  11   2.0000      -1.093043       -29.7432
  12   2.0000      -1.022792       -27.8316
  13   2.0000      -0.972433       -26.4612
  14   2.0000      -0.915305       -24.9067
  15   2.0000      -0.826238       -22.4831
  16   2.0000      -0.772305       -21.0155
  17   2.0000      -0.748437       -20.3660
  18   2.0000      -0.715849       -19.4793
  19   2.0000      -0.692920       -18.8553
  20   2.0000      -0.667137       -18.1537
  21   2.0000      -0.607911       -16.5421
  22   2.0000      -0.605679       -16.4814
  23   2.0000      -0.579702       -15.7745
  24   2.0000      -0.567236       -15.4353
  25   2.0000      -0.555492       -15.1157
  26   2.0000      -0.539465       -14.6796
  27   2.0000      -0.523253       -14.2384
  28   2.0000      -0.504120       -13.7178
  29   2.0000      -0.498255       -13.5582
  30   2.0000      -0.492638       -13.4054
  31   2.0000      -0.451981       -12.2990
  32   2.0000      -0.331804        -9.0289
  33   2.0000      -0.293262        -7.9801
  34   0.0000       0.124690         3.3930
  35   0.0000       0.142555         3.8791
  36   0.0000       0.155992         4.2448
  37   0.0000       0.162891         4.4325
  38   0.0000       0.178870         4.8673

MULLIKEN ATOMIC CHARGES
-----------------------
   0 O :   -0.460497
   1 C :   -0.070573
   2 C :   -0.153370
   3 C :   -0.256010
   4 N :    0.044801
   5 C :   -0.138030
   6 C :   -0.194352
   7 C :   -0.194209
   8 C :   -0.138179
   9 H :    0.317011
  10 H :    0.093994
  11 H :    0.093958
  12 H :    0.126004
  13 H :    0.126055
  14 H :    0.140125
  15 H :    0.140187
  16 H :    0.136425
  17 H :    0.125121
  18 H :    0.125141
  19 H :    0.136399
Sum of atomic charges:   -0.0000000

LOEWDIN ATOMIC CHARGES
----------------------
   0 O :   -0.047709
   1 C :   -0.352673
   2 C :   -0.264907
   3 C :   -0.243732
   4 N :    0.250852
   5 C :   -0.225539
   6 C :   -0.202411
   7 C :   -0.202444
   8 C :   -0.225574
   9 H :    0.173251
  10 H :    0.114602
  11 H :    0.114601
  12 H :    0.143995
  13 H :    0.144022
  14 H :    0.141222
  15 H :    0.141196
  16 H :    0.133456
  17 H :    0.137176
  18 H :    0.137176
  19 H :    0.133442

  Mayer bond orders larger than 0.1
B(  0-O ,  1-C ) :   1.0261 B(  0-O ,  9-H ) :   0.8477 B(  1-C ,  2-C ) :   0.9262
B(  1-C , 10-H ) :   0.9300 B(  1-C , 11-H ) :   0.9299 B(  2-C ,  3-C ) :   0.9062
B(  2-C , 12-H ) :   0.9223 B(  2-C , 13-H ) :   0.9223 B(  3-C ,  4-N ) :   0.8622
B(  3-C , 14-H ) :   0.9306 B(  3-C , 15-H ) :   0.9306 B(  4-N ,  5-C ) :   1.1291
B(  4-N ,  8-C ) :   1.1293 B(  5-C ,  6-C ) :   1.4633 B(  5-C , 16-H ) :   0.9197
B(  6-C ,  7-C ) :   1.2843 B(  6-C , 17-H ) :   0.9360 B(  7-C ,  8-C ) :   1.4633
B(  7-C , 18-H ) :   0.9360 B(  8-C , 19-H ) :   0.9196

MP2 TOTAL ENERGY:     -402.482483544 Eh
FINAL SINGLE POINT ENERGY      -402.482483544229

DIPOLE MOMENT
-------------
                                X             Y             Z
Electronic contribution:     -3.14938      -1.51150       0.02230
Nuclear contribution   :      4.49537       1.60463      -0.03506
                        -----------------------------------------
Total Dipole Moment    :      1.34600       0.09312      -0.01276
                        -----------------------------------------
Magnitude (a.u.)       :      1.34927
Magnitude (Debye)      :      3.42958

                             ****ORCA TERMINATED NORMALLY****
TOTAL RUN TIME: 0 days 0 hours 15 minutes 28 seconds 421 msec
