                         Program Version 3.0.3 - RELEASE   -
|  1> ! RI-MP2 RIJK def2-TZVP def2-TZVP/C def2-TZVP/JK TIGHTSCF
|  2> % maxcore 2000
|  3> % mp2 density relaxed end
|  4> *xyz 0 1
|  5>  N       -0.2149362716     1.4492103664    -0.2690804910
|  6>  C       -0.0838301414     0.2057700231    -0.1769876347
|  7>  O        1.1792110049    -0.3920678755    -0.2067376454
|  8>  C        1.4181282579    -1.6249741602    -0.6912560368
|  9>  C        0.6046678147    -2.4529446325    -1.3727219396
| 10>  C       -0.7958937101    -2.2433056053    -1.6875482503
| 11>  N       -1.6375059433    -1.4798353941    -1.0907443534
| 12>  C       -1.2401558812    -0.7382748793     0.0268475829
| 13>  N       -1.8074026460    -0.7658249618     1.1614565784
| 14>  H        0.6871185240     1.9065202460    -0.4165944767
| 15>  H        2.4535382573    -1.8909915913    -0.5072374289
| 16>  H        1.0657704217    -3.3567489718    -1.7558883915
| 17>  H       -1.1871498612    -2.8304874060    -2.5206961994
| 18>  H       -2.5859256158    -1.4314455578     1.1325697663
| 19> *
| 20>
| 21>                          ****END OF INPUT****

CARTESIAN COORDINATES (ANGSTROEM)
---------------------------------
  N     -0.214936    1.449210   -0.269080
  C     -0.083830    0.205770   -0.176988
  O      1.179211   -0.392068   -0.206738
  C      1.418128   -1.624974   -0.691256
  C      0.604668   -2.452945   -1.372722
  C     -0.795894   -2.243306   -1.687548
  N     -1.637506   -1.479835   -1.090744
  C     -1.240156   -0.738275    0.026848
  N     -1.807403   -0.765825    1.161457
  H      0.687119    1.906520   -0.416594
  H      2.453538   -1.890992   -0.507237
  H      1.065770   -3.356749   -1.755888
  H     -1.187150   -2.830487   -2.520696
  H     -2.585926   -1.431446    1.132570

 Total Charge           Charge          ....    0
 Multiplicity           Mult            ....    1
 Number of Electrons    NEL             ....   64
 Basis Dimension        Dim             ....  309

ORBITAL ENERGIES
----------------

  NO   OCC          E(Eh)            E(eV)
   0   2.0000     -20.645467      -561.7917
   1   2.0000     -15.586565      -424.1320
   2   2.0000     -15.564739      -423.5381
   3   2.0000     -15.559558      -423.3971
   4   2.0000     -11.367101      -309.3145
   5   2.0000     -11.355383      -308.9957
   6   2.0000     -11.331647      -308.3498
   7   2.0000     -11.323934      -308.1399
   8   2.0000     -11.261217      -306.4333
   9   2.0000      -1.479715       -40.2651
  10   2.0000      -1.297227       -35.2994
  11   2.0000      -1.234668       -33.5970
  12   2.0000      -1.191401       -32.4197
  13   2.0000      -1.082639       -29.4601
  14   2.0000      -0.944813       -25.7097
  15   2.0000      -0.941857       -25.6292
  16   2.0000      -0.821314       -22.3491
  17   2.0000      -0.773275       -21.0419
  18   2.0000      -0.741640       -20.1811
  19   2.0000      -0.711244       -19.3539
  20   2.0000      -0.666251       -18.1296
  21   2.0000      -0.662753       -18.0344
  22   2.0000      -0.636797       -17.3281
  23   2.0000      -0.621329       -16.9072
  24   2.0000      -0.580611       -15.7992
  25   2.0000      -0.522432       -14.2161
  26   2.0000      -0.480874       -13.0853
  27   2.0000      -0.470028       -12.7901
  28   2.0000      -0.465284       -12.6610
  29   2.0000      -0.442004       -12.0275
  30   2.0000      -0.411157       -11.1881
  31   2.0000      -0.365075        -9.9342
  32   0.0000       0.060074         1.6347
  33   0.0000       0.131949         3.5905
  34   0.0000       0.138704         3.7743
  35   0.0000       0.160904         4.3784
  36   0.0000       0.167882         4.5683

MULLIKEN ATOMIC CHARGES
-----------------------
   0 N :   -0.323493
   1 C :    0.197437
   2 O :   -0.214561
   3 C :    0.024699
   4 C :   -0.184019
   5 C :   -0.017366
   6 N :   -0.209637
   7 C :    0.152210
   8 N :   -0.322155
   9 H :    0.232737
  10 H :    0.152030
  11 H :    0.147822
  12 H :    0.141183
  13 H :    0.223114
Sum of atomic charges:   -0.0000000

LOEWDIN ATOMIC CHARGES
----------------------
   0 N :    0.007548
   1 C :   -0.323518
   2 O :    0.311344
   3 C :   -0.221719
   4 C :   -0.205346
   5 C :   -0.205218
   6 N :    0.159340
   7 C :   -0.337393
   8 N :    0.008720
   9 H :    0.176087
  10 H :    0.149165
  11 H :    0.162506
  12 H :    0.146274
  13 H :    0.172211

  Mayer bond orders larger than 0.1
B(  0-N ,  1-C ) :   2.0922 B(  0-N ,  9-H ) :   0.8444 B(  1-C ,  2-O ) :   0.9521
B(  1-C ,  7-C ) :   0.8271 B(  2-O ,  3-C ) :   1.0791 B(  3-C ,  4-C ) :   1.6366
B(  3-C , 10-H ) :   0.9384 B(  4-C ,  5-C ) :   1.0181 B(  4-C , 11-H ) :   0.9003
B(  5-C ,  6-N ) :   1.7512 B(  5-C , 12-H ) :   0.9317 B(  6-N ,  7-C ) :   1.0249
B(  7-C ,  8-N ) :   2.0467 B(  8-N , 13-H ) :   0.8504

MP2 TOTAL ENERGY:     -432.128168217 Eh
FINAL SINGLE POINT ENERGY      -432.128168217338

DIPOLE MOMENT
-------------
                                X             Y             Z
Electronic contribution:     -0.49062       1.81626       0.81392
Nuclear contribution   :      1.67444      -3.02337      -1.63232
                        -----------------------------------------
Total Dipole Moment    :      1.18383      -1.20710      -0.81840
                        -----------------------------------------
Magnitude (a.u.)       :      1.87838
Magnitude (Debye)      :      4.77447

                             ****ORCA TERMINATED NORMALLY****
TOTAL RUN TIME: 0 days 0 hours 14 minutes 21 seconds 920 msec
