                         Program Version 3.0.3 - RELEASE   -
|  1> ! RI-MP2 RIJK def2-TZVP def2-TZVP/C def2-TZVP/JK TIGHTSCF
|  2> % maxcore 2000
|  3> % mp2 density relaxed end
|  4> *xyz 0 1
|  5>  C       -0.3220508821     1.4627890134    -0.1905609125
|  6>  C        0.1332731955     0.0062904466     0.0069540196
|  7>  C        0.9297943922    -0.5276941249    -1.1331159389
|  8>  C        2.2110254677    -0.9626747148    -1.2656256768
|  9>  C        2.3750716375    -1.3449758874    -2.6388692152
| 10>  C        1.1827413630    -1.1158163737    -3.2502364254
| 11>  C        0.6902262636    -1.2963826891    -4.6408190698
| 12>  O        0.2918099016    -0.6166784419    -2.3412616513
| 13>  H        0.5389871013     2.1301984931    -0.2934654667
| 14>  H       -0.9307865376     1.5577957189    -1.0939407909
| 15>  H       -0.9195404208     1.8018706530     0.6612075144
| 16>  H        0.7457448806    -0.0773715900     0.9105430217
| 17>  H       -0.7492671500    -0.6271750078     0.1677950516
| 18>  H        2.9501665596    -1.0077847303    -0.4806252355
| 19>  H        3.2634148671    -1.7396503716    -3.1075137277
| 20>  H       -0.1568630761    -1.9910392867    -4.6833080222
| 21>  H        0.3554986739    -0.3483727521    -5.0779837463
| 22>  H        1.4906069430    -1.6965492249    -5.2672572782
| 23> *
| 24>
| 25>                          ****END OF INPUT****

CARTESIAN COORDINATES (ANGSTROEM)
---------------------------------
  C     -0.322051    1.462789   -0.190561
  C      0.133273    0.006290    0.006954
  C      0.929794   -0.527694   -1.133116
  C      2.211025   -0.962675   -1.265626
  C      2.375072   -1.344976   -2.638869
  C      1.182741   -1.115816   -3.250236
  C      0.690226   -1.296383   -4.640819
  O      0.291810   -0.616678   -2.341262
  H      0.538987    2.130198   -0.293465
  H     -0.930787    1.557796   -1.093941
  H     -0.919540    1.801871    0.661208
  H      0.745745   -0.077372    0.910543
  H     -0.749267   -0.627175    0.167795
  H      2.950167   -1.007785   -0.480625
  H      3.263415   -1.739650   -3.107514
  H     -0.156863   -1.991039   -4.683308
  H      0.355499   -0.348373   -5.077984
  H      1.490607   -1.696549   -5.267257

 Total Charge           Charge          ....    0
 Multiplicity           Mult            ....    1
 Number of Electrons    NEL             ....   60
 Basis Dimension        Dim             ....  308

ORBITAL ENERGIES
----------------

  NO   OCC          E(Eh)            E(eV)
   0   2.0000     -20.605751      -560.7110
   1   2.0000     -11.281788      -306.9931
   2   2.0000     -11.278661      -306.9080
   3   2.0000     -11.233643      -305.6830
   4   2.0000     -11.230055      -305.5853
   5   2.0000     -11.216074      -305.2049
   6   2.0000     -11.214554      -305.1635
   7   2.0000     -11.213589      -305.1373
   8   2.0000      -1.444446       -39.3054
   9   2.0000      -1.075995       -29.2793
  10   2.0000      -1.070714       -29.1356
  11   2.0000      -1.012977       -27.5645
  12   2.0000      -0.924157       -25.1476
  13   2.0000      -0.846639       -23.0382
  14   2.0000      -0.791867       -21.5478
  15   2.0000      -0.747982       -20.3536
  16   2.0000      -0.671563       -18.2742
  17   2.0000      -0.639613       -17.4047
  18   2.0000      -0.611400       -16.6370
  19   2.0000      -0.594838       -16.1864
  20   2.0000      -0.575498       -15.6601
  21   2.0000      -0.556574       -15.1451
  22   2.0000      -0.550810       -14.9883
  23   2.0000      -0.547727       -14.9044
  24   2.0000      -0.529730       -14.4147
  25   2.0000      -0.510913       -13.9027
  26   2.0000      -0.499170       -13.5831
  27   2.0000      -0.487364       -13.2618
  28   2.0000      -0.387445       -10.5429
  29   2.0000      -0.293647        -7.9905
  30   0.0000       0.138359         3.7649
  31   0.0000       0.149560         4.0697
  32   0.0000       0.161007         4.3812
  33   0.0000       0.176911         4.8140
  34   0.0000       0.185430         5.0458

MULLIKEN ATOMIC CHARGES
-----------------------
   0 C :   -0.381229
   1 C :   -0.250282
   2 C :    0.205566
   3 C :   -0.220269
   4 C :   -0.197682
   5 C :    0.192026
   6 C :   -0.447073
   7 O :   -0.241650
   8 H :    0.127070
   9 H :    0.135396
  10 H :    0.128335
  11 H :    0.126815
  12 H :    0.123942
  13 H :    0.130630
  14 H :    0.131010
  15 H :    0.146465
  16 H :    0.146275
  17 H :    0.144656
Sum of atomic charges:    0.0000000

LOEWDIN ATOMIC CHARGES
----------------------
   0 C :   -0.309099
   1 C :   -0.260704
   2 C :   -0.250572
   3 C :   -0.170221
   4 C :   -0.174276
   5 C :   -0.275012
   6 C :   -0.276838
   7 O :    0.366987
   8 H :    0.122352
   9 H :    0.123803
  10 H :    0.119751
  11 H :    0.149150
  12 H :    0.146529
  13 H :    0.142479
  14 H :    0.142005
  15 H :    0.133254
  16 H :    0.133192
  17 H :    0.137220

  Mayer bond orders larger than 0.1
B(  0-C ,  1-C ) :   0.9171 B(  0-C ,  8-H ) :   0.9357 B(  0-C ,  9-H ) :   0.9374
B(  0-C , 10-H ) :   0.9360 B(  1-C ,  2-C ) :   0.9103 B(  1-C , 11-H ) :   0.9485
B(  1-C , 12-H ) :   0.9299 B(  2-C ,  3-C ) :   1.5228 B(  2-C ,  7-O ) :   1.0016
B(  3-C ,  4-C ) :   1.1732 B(  3-C , 13-H ) :   0.9307 B(  4-C ,  5-C ) :   1.5326
B(  4-C , 14-H ) :   0.9288 B(  5-C ,  6-C ) :   0.8736 B(  5-C ,  7-O ) :   1.0312
B(  6-C , 15-H ) :   0.9342 B(  6-C , 16-H ) :   0.9347 B(  6-C , 17-H ) :   0.9529

MP2 TOTAL ENERGY:     -347.234881489 Eh
FINAL SINGLE POINT ENERGY      -347.234881488772

DIPOLE MOMENT
-------------
                                X             Y             Z
Electronic contribution:      2.21045      -3.00752      -1.04248
Nuclear contribution   :     -2.15668       3.00103       1.03009
                        -----------------------------------------
Total Dipole Moment    :      0.05378      -0.00649      -0.01238
                        -----------------------------------------
Magnitude (a.u.)       :      0.05556
Magnitude (Debye)      :      0.14123

                             ****ORCA TERMINATED NORMALLY****
TOTAL RUN TIME: 0 days 0 hours 11 minutes 40 seconds 719 msec
