                         Program Version 3.0.3 - RELEASE   -
|  1> ! RI-MP2 RIJK def2-TZVP def2-TZVP/C def2-TZVP/JK TIGHTSCF
|  2> % maxcore 2000
|  3> % mp2 density relaxed end
|  4> *xyz 0 1
|  5>  O        0.3869718510     0.7593457120    -0.8870900161
|  6>  C       -0.1121320933     0.2251497637     0.3159680150
|  7>  C       -1.4320649723    -0.4833844007     0.1518318696
|  8>  C       -2.0500957917    -0.7248240014    -1.0108716458
|  9>  C       -3.3259747226    -1.4129947390    -1.0207984048
| 10>  N       -3.9667100769    -1.6680406364    -2.0851381524
| 11>  O       -3.8072013012    -1.7763046503     0.2230578760
| 12>  N       -3.0734538909    -1.4942260543     1.4471171822
| 13>  N       -2.0013344775    -0.9040567254     1.3718116412
| 14>  H       -0.1322310863     1.5384960039    -1.1122986404
| 15>  H        0.6332627383    -0.4945684332     0.6762774479
| 16>  H       -0.2160854347     0.9809078786     1.1093574474
| 17>  H       -1.6247780598    -0.4281913077    -1.9604096550
| 18>  H       -4.8381129620    -2.1587313297    -1.8778689850
| 19> *
| 20>
| 21>                          ****END OF INPUT****

CARTESIAN COORDINATES (ANGSTROEM)
---------------------------------
  O      0.386972    0.759346   -0.887090
  C     -0.112132    0.225150    0.315968
  C     -1.432065   -0.483384    0.151832
  C     -2.050096   -0.724824   -1.010872
  C     -3.325975   -1.412995   -1.020798
  N     -3.966710   -1.668041   -2.085138
  O     -3.807201   -1.776305    0.223058
  N     -3.073454   -1.494226    1.447117
  N     -2.001334   -0.904057    1.371812
  H     -0.132231    1.538496   -1.112299
  H      0.633263   -0.494568    0.676277
  H     -0.216085    0.980908    1.109357
  H     -1.624778   -0.428191   -1.960410
  H     -4.838113   -2.158731   -1.877869

 Total Charge           Charge          ....    0
 Multiplicity           Mult            ....    1
 Number of Electrons    NEL             ....   66
 Basis Dimension        Dim             ....  309

ORBITAL ENERGIES
----------------

  NO   OCC          E(Eh)            E(eV)
   0   2.0000     -20.648344      -561.8700
   1   2.0000     -20.591791      -560.3311
   2   2.0000     -15.741286      -428.3422
   3   2.0000     -15.666329      -426.3025
   4   2.0000     -15.552099      -423.1941
   5   2.0000     -11.364518      -309.2442
   6   2.0000     -11.321138      -308.0638
   7   2.0000     -11.319168      -308.0102
   8   2.0000     -11.281160      -306.9760
   9   2.0000      -1.504484       -40.9391
  10   2.0000      -1.400070       -38.0978
  11   2.0000      -1.362895       -37.0863
  12   2.0000      -1.219724       -33.1904
  13   2.0000      -1.137336       -30.9485
  14   2.0000      -1.004314       -27.3288
  15   2.0000      -0.948843       -25.8193
  16   2.0000      -0.876212       -23.8429
  17   2.0000      -0.786241       -21.3947
  18   2.0000      -0.744251       -20.2521
  19   2.0000      -0.720273       -19.5996
  20   2.0000      -0.685267       -18.6471
  21   2.0000      -0.680541       -18.5185
  22   2.0000      -0.645707       -17.5706
  23   2.0000      -0.635245       -17.2859
  24   2.0000      -0.620794       -16.8927
  25   2.0000      -0.567009       -15.4291
  26   2.0000      -0.552645       -15.0382
  27   2.0000      -0.533540       -14.5183
  28   2.0000      -0.498842       -13.5742
  29   2.0000      -0.484208       -13.1760
  30   2.0000      -0.473364       -12.8809
  31   2.0000      -0.438954       -11.9445
  32   2.0000      -0.370451       -10.0805
  33   0.0000       0.041190         1.1208
  34   0.0000       0.116592         3.1726
  35   0.0000       0.130806         3.5594
  36   0.0000       0.155676         4.2362
  37   0.0000       0.170431         4.6377

MULLIKEN ATOMIC CHARGES
-----------------------
   0 O :   -0.463293
   1 C :   -0.034306
   2 C :    0.042894
   3 C :   -0.140041
   4 C :    0.151699
   5 N :   -0.371506
   6 O :   -0.159829
   7 N :    0.008925
   8 N :   -0.060478
   9 H :    0.328760
  10 H :    0.146086
  11 H :    0.144907
  12 H :    0.175101
  13 H :    0.231081
Sum of atomic charges:   -0.0000000

LOEWDIN ATOMIC CHARGES
----------------------
   0 O :   -0.020224
   1 C :   -0.308263
   2 C :   -0.230827
   3 C :   -0.075019
   4 C :   -0.418366
   5 N :   -0.045735
   6 O :    0.176446
   7 N :    0.032599
   8 N :    0.082346
   9 H :    0.182264
  10 H :    0.148510
  11 H :    0.135559
  12 H :    0.169826
  13 H :    0.170885

  Mayer bond orders larger than 0.1
B(  0-O ,  1-C ) :   0.9564 B(  0-O ,  9-H ) :   0.8388 B(  1-C ,  2-C ) :   0.9026
B(  1-C , 10-H ) :   0.9077 B(  1-C , 11-H ) :   0.9483 B(  2-C ,  3-C ) :   1.5783
B(  2-C ,  8-N ) :   1.0252 B(  3-C ,  4-C ) :   1.0158 B(  3-C , 12-H ) :   0.9055
B(  4-C ,  5-N ) :   1.9885 B(  4-C ,  6-O ) :   1.0795 B(  5-N , 13-H ) :   0.8515
B(  6-O ,  7-N ) :   0.7826 B(  7-N ,  8-N ) :   1.5713

MP2 TOTAL ENERGY:     -469.189240002 Eh
FINAL SINGLE POINT ENERGY      -469.189240002275

DIPOLE MOMENT
-------------
                                X             Y             Z
Electronic contribution:     -3.73010      -2.46683       2.28897
Nuclear contribution   :      4.19272       3.25800      -2.14323
                        -----------------------------------------
Total Dipole Moment    :      0.46262       0.79117       0.14574
                        -----------------------------------------
Magnitude (a.u.)       :      0.92801
Magnitude (Debye)      :      2.35882

                             ****ORCA TERMINATED NORMALLY****
TOTAL RUN TIME: 0 days 0 hours 13 minutes 52 seconds 866 msec
