                         Program Version 3.0.3 - RELEASE   -
|  1> ! RI-MP2 RIJK def2-TZVP def2-TZVP/C def2-TZVP/JK TIGHTSCF
|  2> % maxcore 2000
|  3> % mp2 density relaxed end
|  4> *xyz 0 1
|  5>  O        0.1637122508     1.3768339270    -0.0035105992
|  6>  C        0.0171153457    -0.0225098167     0.1665168400
|  7>  C       -1.4037124930    -0.4942053720     0.1663796067
|  8>  C       -2.5106972003     0.2538435246     0.1473906362
|  9>  C       -3.7284039805    -0.6037776542     0.0303339037
| 10>  N       -3.7456327698    -1.4008569143    -1.2393509196
| 11>  C       -3.2584618124    -2.0053717393     0.0232239676
| 12>  C       -1.7266000020    -1.9896292829     0.0687211298
| 13>  O       -1.1419073880    -2.5933319505    -1.0752059014
| 14>  H       -0.2060854899     1.5990170702    -0.8645900538
| 15>  H        0.5748113000    -0.5927845111    -0.5931577512
| 16>  H        0.4882395323    -0.2565509788     1.1309560177
| 17>  H       -2.5364833638     1.3362179548     0.1734590999
| 18>  H       -4.6780620734    -0.3068564024     0.4612397172
| 19>  H       -4.6924911498    -1.7341527990    -1.4131125488
| 20>  H       -3.8142033152    -2.8231478838     0.4667901067
| 21>  H       -1.3409482065    -2.5469418437     0.9308554950
| 22>  H       -1.6686755444    -2.2643516982    -1.8184177966
| 23> *
| 24>
| 25>                          ****END OF INPUT****

CARTESIAN COORDINATES (ANGSTROEM)
---------------------------------
  O      0.163712    1.376834   -0.003511
  C      0.017115   -0.022510    0.166517
  C     -1.403712   -0.494205    0.166380
  C     -2.510697    0.253844    0.147391
  C     -3.728404   -0.603778    0.030334
  N     -3.745633   -1.400857   -1.239351
  C     -3.258462   -2.005372    0.023224
  C     -1.726600   -1.989629    0.068721
  O     -1.141907   -2.593332   -1.075206
  H     -0.206085    1.599017   -0.864590
  H      0.574811   -0.592785   -0.593158
  H      0.488240   -0.256551    1.130956
  H     -2.536483    1.336218    0.173459
  H     -4.678062   -0.306856    0.461240
  H     -4.692491   -1.734153   -1.413113
  H     -3.814203   -2.823148    0.466790
  H     -1.340948   -2.546942    0.930855
  H     -1.668676   -2.264352   -1.818418

 Total Charge           Charge          ....    0
 Multiplicity           Mult            ....    1
 Number of Electrons    NEL             ....   68
 Basis Dimension        Dim             ....  333

ORBITAL ENERGIES
----------------

  NO   OCC          E(Eh)            E(eV)
   0   2.0000     -20.557207      -559.3900
   1   2.0000     -20.553178      -559.2804
   2   2.0000     -15.574123      -423.7934
   3   2.0000     -11.292063      -307.2727
   4   2.0000     -11.279990      -306.9441
   5   2.0000     -11.274600      -306.7975
   6   2.0000     -11.267490      -306.6040
   7   2.0000     -11.236925      -305.7723
   8   2.0000     -11.231784      -305.6324
   9   2.0000      -1.365958       -37.1696
  10   2.0000      -1.360897       -37.0319
  11   2.0000      -1.276288       -34.7296
  12   2.0000      -1.094997       -29.7964
  13   2.0000      -0.959273       -26.1031
  14   2.0000      -0.955190       -25.9920
  15   2.0000      -0.867524       -23.6065
  16   2.0000      -0.801106       -21.7992
  17   2.0000      -0.750068       -20.4104
  18   2.0000      -0.729596       -19.8533
  19   2.0000      -0.683060       -18.5870
  20   2.0000      -0.670092       -18.2341
  21   2.0000      -0.630113       -17.1462
  22   2.0000      -0.615654       -16.7528
  23   2.0000      -0.605109       -16.4659
  24   2.0000      -0.576640       -15.6912
  25   2.0000      -0.553133       -15.0515
  26   2.0000      -0.527565       -14.3558
  27   2.0000      -0.510515       -13.8918
  28   2.0000      -0.491293       -13.3688
  29   2.0000      -0.487980       -13.2786
  30   2.0000      -0.466108       -12.6834
  31   2.0000      -0.437432       -11.9031
  32   2.0000      -0.401538       -10.9264
  33   2.0000      -0.347729        -9.4622
  34   0.0000       0.131257         3.5717
  35   0.0000       0.134399         3.6572
  36   0.0000       0.146532         3.9873
  37   0.0000       0.168135         4.5752
  38   0.0000       0.170250         4.6327

MULLIKEN ATOMIC CHARGES
-----------------------
   0 O :   -0.473925
   1 C :   -0.061956
   2 C :   -0.081636
   3 C :   -0.226430
   4 C :    0.030400
   5 N :   -0.426993
   6 C :   -0.099504
   7 C :    0.152556
   8 O :   -0.473264
   9 H :    0.318245
  10 H :    0.144014
  11 H :    0.122014
  12 H :    0.139840
  13 H :    0.141067
  14 H :    0.219766
  15 H :    0.141224
  16 H :    0.105822
  17 H :    0.328760
Sum of atomic charges:   -0.0000000

LOEWDIN ATOMIC CHARGES
----------------------
   0 O :   -0.040130
   1 C :   -0.310503
   2 C :   -0.148129
   3 C :   -0.118068
   4 C :   -0.224662
   5 N :   -0.006657
   6 C :   -0.223278
   7 C :   -0.274711
   8 O :   -0.016574
   9 H :    0.175854
  10 H :    0.132629
  11 H :    0.140728
  12 H :    0.142211
  13 H :    0.138391
  14 H :    0.168368
  15 H :    0.136004
  16 H :    0.147959
  17 H :    0.180568

  Mayer bond orders larger than 0.1
B(  0-O ,  1-C ) :   0.9386 B(  0-O ,  9-H ) :   0.8431 B(  1-C ,  2-C ) :   0.9004
B(  1-C , 10-H ) :   0.9600 B(  1-C , 11-H ) :   0.9058 B(  2-C ,  3-C ) :   1.7463
B(  2-C ,  7-C ) :   0.9267 B(  3-C ,  4-C ) :   0.9082 B(  3-C , 12-H ) :   0.9356
B(  4-C ,  5-N ) :   0.8658 B(  4-C ,  6-C ) :   0.9310 B(  4-C , 13-H ) :   0.9211
B(  5-N ,  6-C ) :   0.9391 B(  5-N , 14-H ) :   0.8692 B(  6-C ,  7-C ) :   0.9228
B(  6-C , 15-H ) :   0.9216 B(  7-C ,  8-O ) :   0.9526 B(  7-C , 16-H ) :   0.9296
B(  8-O , 17-H ) :   0.8183

MP2 TOTAL ENERGY:     -438.341263486 Eh
FINAL SINGLE POINT ENERGY      -438.341263486091

DIPOLE MOMENT
-------------
                                X             Y             Z
Electronic contribution:     -0.20876       0.00647      -0.39992
Nuclear contribution   :     -0.95934      -0.13546       0.47406
                        -----------------------------------------
Total Dipole Moment    :     -1.16810      -0.12899       0.07414
                        -----------------------------------------
Magnitude (a.u.)       :      1.17754
Magnitude (Debye)      :      2.99306

                             ****ORCA TERMINATED NORMALLY****
TOTAL RUN TIME: 0 days 0 hours 16 minutes 18 seconds 464 msec
