                         Program Version 3.0.3 - RELEASE   -
|  1> ! RI-MP2 RIJK def2-TZVP def2-TZVP/C def2-TZVP/JK TIGHTSCF
|  2> % maxcore 2000
|  3> % mp2 density relaxed end
|  4> *xyz 0 1
|  5>  O        0.0004671116    -0.0503297520    -0.0812203249
|  6>  C       -0.0083344054     1.1557811801     0.0496996789
|  7>  C       -1.3162370565     1.9455616432     0.1205977990
|  8>  C       -1.1816675909     3.2215304010     0.9243820625
|  9>  C       -2.3403629967     3.8077032987     1.6062770258
| 10>  O       -1.3613939028     3.0660618286     2.3397293085
| 11>  C       -0.0009707317     4.0902534332     0.5300959147
| 12>  C        1.2407096512     3.2750857634     0.2935601876
| 13>  C        1.2366562038     1.9514315772     0.0933884834
| 14>  H       -1.5951098292     2.1939428527    -0.9137971640
| 15>  H       -2.0964085070     1.2989894511     0.5273761890
| 16>  H       -2.3649573425     4.8782457414     1.8092752476
| 17>  H       -3.3169026473     3.3334421529     1.5151315734
| 18>  H       -0.2363660057     4.6609191578    -0.3813637590
| 19>  H        0.1775056277     4.8302844496     1.3175981642
| 20>  H        2.1839065712     3.8167508050     0.2896342036
| 21>  H        2.1550109303     1.3925305858    -0.0556063604
| 22> *
| 23>
| 24>                          ****END OF INPUT****

CARTESIAN COORDINATES (ANGSTROEM)
---------------------------------
  O      0.000467   -0.050330   -0.081220
  C     -0.008334    1.155781    0.049700
  C     -1.316237    1.945562    0.120598
  C     -1.181668    3.221530    0.924382
  C     -2.340363    3.807703    1.606277
  O     -1.361394    3.066062    2.339729
  C     -0.000971    4.090253    0.530096
  C      1.240710    3.275086    0.293560
  C      1.236656    1.951432    0.093388
  H     -1.595110    2.193943   -0.913797
  H     -2.096409    1.298989    0.527376
  H     -2.364957    4.878246    1.809275
  H     -3.316903    3.333442    1.515132
  H     -0.236366    4.660919   -0.381364
  H      0.177506    4.830284    1.317598
  H      2.183907    3.816751    0.289634
  H      2.155011    1.392531   -0.055606

 Total Charge           Charge          ....    0
 Multiplicity           Mult            ....    1
 Number of Electrons    NEL             ....   66
 Basis Dimension        Dim             ....  327

ORBITAL ENERGIES
----------------

  NO   OCC          E(Eh)            E(eV)
   0   2.0000     -20.576819      -559.9237
   1   2.0000     -20.541546      -558.9639
   2   2.0000     -11.332039      -308.3605
   3   2.0000     -11.310552      -307.7758
   4   2.0000     -11.294476      -307.3383
   5   2.0000     -11.272323      -306.7355
   6   2.0000     -11.258266      -306.3530
   7   2.0000     -11.247177      -306.0512
   8   2.0000     -11.242199      -305.9158
   9   2.0000      -1.423502       -38.7355
  10   2.0000      -1.383818       -37.6556
  11   2.0000      -1.133469       -30.8433
  12   2.0000      -1.031124       -28.0583
  13   2.0000      -1.003686       -27.3117
  14   2.0000      -0.921763       -25.0824
  15   2.0000      -0.844647       -22.9840
  16   2.0000      -0.810770       -22.0622
  17   2.0000      -0.708680       -19.2842
  18   2.0000      -0.698540       -19.0082
  19   2.0000      -0.695924       -18.9370
  20   2.0000      -0.639021       -17.3886
  21   2.0000      -0.633946       -17.2505
  22   2.0000      -0.624109       -16.9829
  23   2.0000      -0.594259       -16.1706
  24   2.0000      -0.583959       -15.8903
  25   2.0000      -0.549563       -14.9544
  26   2.0000      -0.545022       -14.8308
  27   2.0000      -0.512396       -13.9430
  28   2.0000      -0.501891       -13.6572
  29   2.0000      -0.463748       -12.6192
  30   2.0000      -0.455134       -12.3848
  31   2.0000      -0.403911       -10.9910
  32   2.0000      -0.383687       -10.4407
  33   0.0000       0.087870         2.3911
  34   0.0000       0.125377         3.4117
  35   0.0000       0.153812         4.1855
  36   0.0000       0.162668         4.4264
  37   0.0000       0.173356         4.7173

MULLIKEN ATOMIC CHARGES
-----------------------
   0 O :   -0.282250
   1 C :    0.192192
   2 C :   -0.190265
   3 C :    0.124438
   4 C :   -0.067450
   5 O :   -0.329381
   6 C :   -0.180051
   7 C :   -0.123569
   8 C :   -0.215562
   9 H :    0.136567
  10 H :    0.141854
  11 H :    0.116757
  12 H :    0.119510
  13 H :    0.135238
  14 H :    0.141975
  15 H :    0.139423
  16 H :    0.140575
Sum of atomic charges:   -0.0000000

LOEWDIN ATOMIC CHARGES
----------------------
   0 O :    0.150486
   1 C :   -0.315971
   2 C :   -0.177149
   3 C :   -0.319001
   4 C :   -0.241718
   5 O :    0.166637
   6 C :   -0.205126
   7 C :   -0.113891
   8 C :   -0.133711
   9 H :    0.164346
  10 H :    0.159805
  11 H :    0.122339
  12 H :    0.123381
  13 H :    0.158531
  14 H :    0.159069
  15 H :    0.147941
  16 H :    0.154031

  Mayer bond orders larger than 0.1
B(  0-O ,  1-C ) :   1.9790 B(  1-C ,  2-C ) :   0.9166 B(  1-C ,  8-C ) :   1.0114
B(  2-C ,  3-C ) :   0.8867 B(  2-C ,  9-H ) :   0.9024 B(  2-C , 10-H ) :   0.9038
B(  3-C ,  4-C ) :   0.9700 B(  3-C ,  5-O ) :   0.8899 B(  3-C ,  6-C ) :   0.9242
B(  4-C ,  5-O ) :   0.8966 B(  4-C , 11-H ) :   0.9100 B(  4-C , 12-H ) :   0.9073
B(  6-C ,  7-C ) :   0.9538 B(  6-C , 13-H ) :   0.8993 B(  6-C , 14-H ) :   0.9198
B(  7-C ,  8-C ) :   1.6898 B(  7-C , 15-H ) :   0.9191 B(  8-C , 16-H ) :   0.9192

MP2 TOTAL ENERGY:     -421.125261226 Eh
FINAL SINGLE POINT ENERGY      -421.125261226260

DIPOLE MOMENT
-------------
                                X             Y             Z
Electronic contribution:      1.25756      -4.47101       0.68229
Nuclear contribution   :     -1.43734       6.09512      -1.19463
                        -----------------------------------------
Total Dipole Moment    :     -0.17978       1.62411      -0.51234
                        -----------------------------------------
Magnitude (a.u.)       :      1.71247
Magnitude (Debye)      :      4.35274

                             ****ORCA TERMINATED NORMALLY****
TOTAL RUN TIME: 0 days 0 hours 17 minutes 16 seconds 136 msec
