                         Program Version 3.0.3 - RELEASE   -
|  1> ! RI-MP2 RIJK def2-TZVP def2-TZVP/C def2-TZVP/JK TIGHTSCF
|  2> % maxcore 2000
|  3> % mp2 density relaxed end
|  4> *xyz 0 1
|  5>  O        0.0932585122     1.3412147745    -0.1131265858
|  6>  C        0.0154507070    -0.0285387666     0.2316527390
|  7>  C       -1.4067204558    -0.5366692725     0.0637338566
|  8>  C       -2.4269950670     0.0066974947     1.0805868553
|  9>  C       -2.8626662022    -1.2416807140     1.8744161984
| 10>  C       -2.8626463952    -2.3753353714     0.8266578520
| 11>  C       -1.6409605882    -2.0659713620    -0.0606990384
| 12>  C       -1.8793243746    -1.7624069011    -1.5531445710
| 13>  O       -1.8095476943    -0.3351352344    -1.3301063393
| 14>  H       -0.3115986819     1.4088524282    -0.9874413973
| 15>  H        0.6986242244    -0.6370519489    -0.3835190709
| 16>  H        0.3357511360    -0.1187625172     1.2760967612
| 17>  H       -2.0142985137     0.8007148950     1.7074696637
| 18>  H       -3.2727282879     0.4258103702     0.5266882058
| 19>  H       -2.1252070028    -1.4615246887     2.6567586069
| 20>  H       -3.8287279680    -1.1184736853     2.3719484286
| 21>  H       -2.8215517195    -3.3709557526     1.2765247213
| 22>  H       -3.7830052938    -2.3281183299     0.2323472241
| 23>  H       -0.7840887253    -2.7070266977     0.1582710963
| 24>  H       -1.0850175847    -2.1049642688    -2.2278876027
| 25>  H       -2.8502353047    -2.0653023114    -1.9635107037
| 26> *
| 27>
| 28>                          ****END OF INPUT****

CARTESIAN COORDINATES (ANGSTROEM)
---------------------------------
  O      0.093259    1.341215   -0.113127
  C      0.015451   -0.028539    0.231653
  C     -1.406720   -0.536669    0.063734
  C     -2.426995    0.006697    1.080587
  C     -2.862666   -1.241681    1.874416
  C     -2.862646   -2.375335    0.826658
  C     -1.640961   -2.065971   -0.060699
  C     -1.879324   -1.762407   -1.553145
  O     -1.809548   -0.335135   -1.330106
  H     -0.311599    1.408852   -0.987441
  H      0.698624   -0.637052   -0.383519
  H      0.335751   -0.118763    1.276097
  H     -2.014299    0.800715    1.707470
  H     -3.272728    0.425810    0.526688
  H     -2.125207   -1.461525    2.656759
  H     -3.828728   -1.118474    2.371948
  H     -2.821552   -3.370956    1.276525
  H     -3.783005   -2.328118    0.232347
  H     -0.784089   -2.707027    0.158271
  H     -1.085018   -2.104964   -2.227888
  H     -2.850235   -2.065302   -1.963511

 Total Charge           Charge          ....    0
 Multiplicity           Mult            ....    1
 Number of Electrons    NEL             ....   70
 Basis Dimension        Dim             ....  351

ORBITAL ENERGIES
----------------

  NO   OCC          E(Eh)            E(eV)
   0   2.0000     -20.550112      -559.1970
   1   2.0000     -20.549020      -559.1673
   2   2.0000     -11.283478      -307.0390
   3   2.0000     -11.281905      -306.9962
   4   2.0000     -11.273355      -306.7636
   5   2.0000     -11.235492      -305.7333
   6   2.0000     -11.228686      -305.5481
   7   2.0000     -11.226611      -305.4916
   8   2.0000     -11.218204      -305.2629
   9   2.0000      -1.384733       -37.6805
  10   2.0000      -1.350123       -36.7387
  11   2.0000      -1.114982       -30.3402
  12   2.0000      -1.008229       -27.4353
  13   2.0000      -0.985398       -26.8140
  14   2.0000      -0.907185       -24.6858
  15   2.0000      -0.873820       -23.7779
  16   2.0000      -0.796573       -21.6758
  17   2.0000      -0.725595       -19.7444
  18   2.0000      -0.704553       -19.1719
  19   2.0000      -0.670905       -18.2563
  20   2.0000      -0.653248       -17.7758
  21   2.0000      -0.627631       -17.0787
  22   2.0000      -0.614367       -16.7178
  23   2.0000      -0.598836       -16.2952
  24   2.0000      -0.585401       -15.9296
  25   2.0000      -0.557006       -15.1569
  26   2.0000      -0.530458       -14.4345
  27   2.0000      -0.513338       -13.9686
  28   2.0000      -0.483668       -13.1613
  29   2.0000      -0.481527       -13.1030
  30   2.0000      -0.474583       -12.9141
  31   2.0000      -0.453778       -12.3479
  32   2.0000      -0.450273       -12.2526
  33   2.0000      -0.434435       -11.8216
  34   2.0000      -0.408355       -11.1119
  35   0.0000       0.131527         3.5790
  36   0.0000       0.154091         4.1930
  37   0.0000       0.156495         4.2585
  38   0.0000       0.162507         4.4220
  39   0.0000       0.185351         5.0436

MULLIKEN ATOMIC CHARGES
-----------------------
   0 O :   -0.474045
   1 C :   -0.023761
   2 C :    0.183482
   3 C :   -0.288794
   4 C :   -0.210822
   5 C :   -0.252527
   6 C :   -0.122153
   7 C :   -0.040777
   8 O :   -0.367157
   9 H :    0.329246
  10 H :    0.096164
  11 H :    0.107080
  12 H :    0.142615
  13 H :    0.127656
  14 H :    0.112117
  15 H :    0.125842
  16 H :    0.125685
  17 H :    0.111464
  18 H :    0.121584
  19 H :    0.097877
  20 H :    0.099225
Sum of atomic charges:   -0.0000000

LOEWDIN ATOMIC CHARGES
----------------------
   0 O :   -0.038949
   1 C :   -0.313890
   2 C :   -0.295036
   3 C :   -0.212384
   4 C :   -0.251316
   5 C :   -0.233926
   6 C :   -0.186230
   7 C :   -0.251999
   8 O :    0.133750
   9 H :    0.180858
  10 H :    0.121794
  11 H :    0.133169
  12 H :    0.141986
  13 H :    0.146859
  14 H :    0.136615
  15 H :    0.133256
  16 H :    0.133681
  17 H :    0.140545
  18 H :    0.145293
  19 H :    0.118048
  20 H :    0.117874

  Mayer bond orders larger than 0.1
B(  0-O ,  1-C ) :   0.9213 B(  0-O ,  9-H ) :   0.8289 B(  1-C ,  2-C ) :   0.9695
B(  1-C , 10-H ) :   0.9107 B(  1-C , 11-H ) :   0.9227 B(  2-C ,  3-C ) :   0.8685
B(  2-C ,  6-C ) :   0.8886 B(  2-C ,  8-O ) :   0.9029 B(  3-C ,  4-C ) :   0.9278
B(  3-C , 12-H ) :   0.9288 B(  3-C , 13-H ) :   0.9313 B(  4-C ,  5-C ) :   0.9285
B(  4-C , 14-H ) :   0.9285 B(  4-C , 15-H ) :   0.9323 B(  5-C ,  6-C ) :   0.9128
B(  5-C , 16-H ) :   0.9306 B(  5-C , 17-H ) :   0.9186 B(  6-C ,  7-C ) :   0.9774
B(  6-C , 18-H ) :   0.9206 B(  7-C ,  8-O ) :   0.9495 B(  7-C , 19-H ) :   0.9201
B(  7-C , 20-H ) :   0.9015

MP2 TOTAL ENERGY:     -423.523473826 Eh
FINAL SINGLE POINT ENERGY      -423.523473825593

DIPOLE MOMENT
-------------
                                X             Y             Z
Electronic contribution:      2.06936       3.17448      -3.20888
Nuclear contribution   :     -2.34124      -4.21370       3.35105
                        -----------------------------------------
Total Dipole Moment    :     -0.27188      -1.03922       0.14217
                        -----------------------------------------
Magnitude (a.u.)       :      1.08356
Magnitude (Debye)      :      2.75419

                             ****ORCA TERMINATED NORMALLY****
TOTAL RUN TIME: 0 days 0 hours 18 minutes 34 seconds 496 msec
