                         Program Version 3.0.3 - RELEASE   -
|  1> ! RI-MP2 RIJK def2-TZVP def2-TZVP/C def2-TZVP/JK TIGHTSCF
|  2> % maxcore 2000
|  3> % mp2 density relaxed end
|  4> *xyz 0 1
|  5>  C       -0.0195468552     1.5897489344     0.0944907993
|  6>  C        0.0335074023     0.0718833528     0.0081961687
|  7>  C        1.0725411528    -0.5921343092    -0.9742077041
|  8>  C        1.6906733607    -1.3073792220     0.2375911089
|  9>  O        2.1018972862    -0.2970538123     1.1687732827
| 10>  C        0.7253753943    -0.6730035802     1.1655176032
| 11>  C        2.3343320559    -2.5829712020     0.2832799324
| 12>  N        2.8398859519    -3.6231108311     0.2776528455
| 13>  H        0.9702351435     1.9938662768     0.3238330645
| 14>  H       -0.3556972408     2.0219372453    -0.8533023034
| 15>  H       -0.7138834272     1.9163287392     0.8757959375
| 16>  H       -0.9610030251    -0.3495214930    -0.1667694385
| 17>  H        0.6089821767    -1.2747588362    -1.6879926322
| 18>  H        1.7602623180     0.0795459972    -1.4920173946
| 19>  H        0.3134646860    -1.0453482496     2.0966046400
| 20> *
| 21>
| 22>                          ****END OF INPUT****

CARTESIAN COORDINATES (ANGSTROEM)
---------------------------------
  C     -0.019547    1.589749    0.094491
  C      0.033507    0.071883    0.008196
  C      1.072541   -0.592134   -0.974208
  C      1.690673   -1.307379    0.237591
  O      2.101897   -0.297054    1.168773
  C      0.725375   -0.673004    1.165518
  C      2.334332   -2.582971    0.283280
  N      2.839886   -3.623111    0.277653
  H      0.970235    1.993866    0.323833
  H     -0.355697    2.021937   -0.853302
  H     -0.713883    1.916329    0.875796
  H     -0.961003   -0.349521   -0.166769
  H      0.608982   -1.274759   -1.687993
  H      1.760262    0.079546   -1.492017
  H      0.313465   -1.045348    2.096605

 Total Charge           Charge          ....    0
 Multiplicity           Mult            ....    1
 Number of Electrons    NEL             ....   58
 Basis Dimension        Dim             ....  290

ORBITAL ENERGIES
----------------

  NO   OCC          E(Eh)            E(eV)
   0   2.0000     -20.605018      -560.6911
   1   2.0000     -15.585408      -424.1005
   2   2.0000     -11.342646      -308.6491
   3   2.0000     -11.321583      -308.0759
   4   2.0000     -11.285543      -307.0952
   5   2.0000     -11.266883      -306.5875
   6   2.0000     -11.263162      -306.4862
   7   2.0000     -11.232818      -305.6605
   8   2.0000      -1.457639       -39.6644
   9   2.0000      -1.228107       -33.4185
  10   2.0000      -1.124890       -30.6098
  11   2.0000      -1.013588       -27.5811
  12   2.0000      -0.932206       -25.3666
  13   2.0000      -0.915596       -24.9146
  14   2.0000      -0.789670       -21.4880
  15   2.0000      -0.765025       -20.8174
  16   2.0000      -0.678379       -18.4596
  17   2.0000      -0.639574       -17.4037
  18   2.0000      -0.623029       -16.9535
  19   2.0000      -0.592951       -16.1350
  20   2.0000      -0.574024       -15.6200
  21   2.0000      -0.570727       -15.5303
  22   2.0000      -0.532585       -14.4924
  23   2.0000      -0.519710       -14.1420
  24   2.0000      -0.505451       -13.7540
  25   2.0000      -0.505015       -13.7422
  26   2.0000      -0.471442       -12.8286
  27   2.0000      -0.462559       -12.5869
  28   2.0000      -0.412492       -11.2245
  29   0.0000       0.124527         3.3885
  30   0.0000       0.136973         3.7272
  31   0.0000       0.147212         4.0058
  32   0.0000       0.153757         4.1839
  33   0.0000       0.167666         4.5624

MULLIKEN ATOMIC CHARGES
-----------------------
   0 C :   -0.445217
   1 C :    0.018563
   2 C :   -0.245757
   3 C :    0.281619
   4 O :   -0.302809
   5 C :   -0.001114
   6 C :   -0.241961
   7 N :   -0.040468
   8 H :    0.152372
   9 H :    0.137303
  10 H :    0.135631
  11 H :    0.114949
  12 H :    0.146641
  13 H :    0.134183
  14 H :    0.156065
Sum of atomic charges:   -0.0000000

LOEWDIN ATOMIC CHARGES
----------------------
   0 C :   -0.294154
   1 C :   -0.227158
   2 C :   -0.149381
   3 C :   -0.276492
   4 O :    0.223517
   5 C :   -0.180040
   6 C :   -0.146441
   7 N :    0.086262
   8 H :    0.131240
   9 H :    0.127278
  10 H :    0.127205
  11 H :    0.154550
  12 H :    0.144239
  13 H :    0.140982
  14 H :    0.138391

  Mayer bond orders larger than 0.1
B(  0-C ,  1-C ) :   0.8935 B(  0-C ,  8-H ) :   0.9358 B(  0-C ,  9-H ) :   0.9367
B(  0-C , 10-H ) :   0.9369 B(  1-C ,  2-C ) :   0.9612 B(  1-C ,  5-C ) :   0.8899
B(  1-C , 11-H ) :   0.9082 B(  2-C ,  3-C ) :   0.9134 B(  2-C , 12-H ) :   0.9161
B(  2-C , 13-H ) :   0.9039 B(  3-C ,  4-O ) :   0.8865 B(  3-C ,  5-C ) :   0.8513
B(  3-C ,  6-C ) :   0.9165 B(  4-O ,  5-C ) :   0.8894 B(  5-C , 14-H ) :   0.9139
B(  6-C ,  7-N ) :   2.8543

MP2 TOTAL ENERGY:     -362.013141122 Eh
FINAL SINGLE POINT ENERGY      -362.013141121585

DIPOLE MOMENT
-------------
                                X             Y             Z
Electronic contribution:      5.83087      -7.73145       2.41372
Nuclear contribution   :     -7.19314       8.79129      -2.72852
                        -----------------------------------------
Total Dipole Moment    :     -1.36227       1.05985      -0.31480
                        -----------------------------------------
Magnitude (a.u.)       :      1.75447
Magnitude (Debye)      :      4.45951

                             ****ORCA TERMINATED NORMALLY****
TOTAL RUN TIME: 0 days 0 hours 11 minutes 29 seconds 18 msec
