                         Program Version 3.0.3 - RELEASE   -
|  1> ! RI-MP2 RIJK def2-TZVP def2-TZVP/C def2-TZVP/JK TIGHTSCF
|  2> % maxcore 2000
|  3> % mp2 density relaxed end
|  4> *xyz 0 1
|  5>  C       -0.0636394473     1.4988488700    -0.1209232256
|  6>  C       -0.0290771966     0.0044482810     0.0663150449
|  7>  O        1.2693132415    -0.6244511313    -0.0002450818
|  8>  C        0.5729346649    -0.6432934887     1.2351318051
|  9>  C        1.2108784301    -0.0701374976     2.5162651752
| 10>  C        0.8553633202    -1.3908086183     3.2338005459
| 11>  C        1.7363389756    -2.0699194914     4.2414102076
| 12>  C       -0.6278132945    -1.6115348082     3.1449317831
| 13>  C        0.2259870665    -1.9349870784     1.9398498164
| 14>  H        0.7123392852     1.9859966336     0.4752889528
| 15>  H        0.0973642737     1.7613224336    -1.1720006045
| 16>  H       -1.0382258673     1.8995100858     0.1792025370
| 17>  H       -0.8033874576    -0.5503660964    -0.4679355427
| 18>  H        2.2878113075     0.0567043050     2.3751217856
| 19>  H        0.7909997106     0.8496342629     2.9381785490
| 20>  H        1.7626924148    -1.5118414967     5.1854844677
| 21>  H        1.3745538989    -3.0787563449     4.4661341463
| 22>  H        2.7667312302    -2.1556360914     3.8783070552
| 23>  H       -1.0022661260    -2.4759831904     3.6852922928
| 24>  H       -1.3204467811    -0.7727021278     3.1171183199
| 25>  H        0.2759443906    -2.9246121205     1.5015488000
| 26> *
| 27>
| 28>                          ****END OF INPUT****

CARTESIAN COORDINATES (ANGSTROEM)
---------------------------------
  C     -0.063639    1.498849   -0.120923
  C     -0.029077    0.004448    0.066315
  O      1.269313   -0.624451   -0.000245
  C      0.572935   -0.643293    1.235132
  C      1.210878   -0.070137    2.516265
  C      0.855363   -1.390809    3.233801
  C      1.736339   -2.069919    4.241410
  C     -0.627813   -1.611535    3.144932
  C      0.225987   -1.934987    1.939850
  H      0.712339    1.985997    0.475289
  H      0.097364    1.761322   -1.172001
  H     -1.038226    1.899510    0.179203
  H     -0.803387   -0.550366   -0.467936
  H      2.287811    0.056704    2.375122
  H      0.791000    0.849634    2.938179
  H      1.762692   -1.511841    5.185484
  H      1.374554   -3.078756    4.466134
  H      2.766731   -2.155636    3.878307
  H     -1.002266   -2.475983    3.685292
  H     -1.320447   -0.772702    3.117118
  H      0.275944   -2.924612    1.501549

 Total Charge           Charge          ....    0
 Multiplicity           Mult            ....    1
 Number of Electrons    NEL             ....   68
 Basis Dimension        Dim             ....  351

ORBITAL ENERGIES
----------------

  NO   OCC          E(Eh)            E(eV)
   0   2.0000     -20.555196      -559.3353
   1   2.0000     -11.286332      -307.1167
   2   2.0000     -11.277865      -306.8863
   3   2.0000     -11.243931      -305.9629
   4   2.0000     -11.231716      -305.6305
   5   2.0000     -11.230765      -305.6046
   6   2.0000     -11.227977      -305.5288
   7   2.0000     -11.221956      -305.3649
   8   2.0000     -11.221618      -305.3558
   9   2.0000      -1.402282       -38.1580
  10   2.0000      -1.192558       -32.4512
  11   2.0000      -1.006992       -27.4016
  12   2.0000      -0.982922       -26.7467
  13   2.0000      -0.971148       -26.4263
  14   2.0000      -0.872382       -23.7387
  15   2.0000      -0.831393       -22.6234
  16   2.0000      -0.768052       -20.8997
  17   2.0000      -0.718208       -19.5434
  18   2.0000      -0.683577       -18.6011
  19   2.0000      -0.648661       -17.6510
  20   2.0000      -0.621519       -16.9124
  21   2.0000      -0.604166       -16.4402
  22   2.0000      -0.580841       -15.8055
  23   2.0000      -0.570043       -15.5117
  24   2.0000      -0.556399       -15.1404
  25   2.0000      -0.544845       -14.8260
  26   2.0000      -0.534431       -14.5426
  27   2.0000      -0.516295       -14.0491
  28   2.0000      -0.494285       -13.4502
  29   2.0000      -0.480893       -13.0858
  30   2.0000      -0.436469       -11.8769
  31   2.0000      -0.421007       -11.4562
  32   2.0000      -0.405943       -11.0463
  33   2.0000      -0.364074        -9.9070
  34   0.0000       0.135440         3.6855
  35   0.0000       0.149723         4.0742
  36   0.0000       0.170274         4.6334
  37   0.0000       0.178848         4.8667
  38   0.0000       0.185802         5.0559

MULLIKEN ATOMIC CHARGES
-----------------------
   0 C :   -0.398012
   1 C :    0.046928
   2 O :   -0.339778
   3 C :    0.059250
   4 C :   -0.189218
   5 C :    0.068391
   6 C :   -0.410622
   7 C :   -0.284490
   8 C :   -0.105934
   9 H :    0.140536
  10 H :    0.139457
  11 H :    0.125865
  12 H :    0.112814
  13 H :    0.119780
  14 H :    0.121176
  15 H :    0.134384
  16 H :    0.128513
  17 H :    0.133834
  18 H :    0.128116
  19 H :    0.129670
  20 H :    0.139340
Sum of atomic charges:    0.0000000

LOEWDIN ATOMIC CHARGES
----------------------
   0 C :   -0.294382
   1 C :   -0.265918
   2 O :    0.181092
   3 C :   -0.277206
   4 C :   -0.150280
   5 C :   -0.218560
   6 C :   -0.274678
   7 C :   -0.181837
   8 C :   -0.124969
   9 H :    0.129972
  10 H :    0.128897
  11 H :    0.129239
  12 H :    0.137833
  13 H :    0.146624
  14 H :    0.131676
  15 H :    0.129153
  16 H :    0.130110
  17 H :    0.128555
  18 H :    0.140821
  19 H :    0.132605
  20 H :    0.141254

  Mayer bond orders larger than 0.1
B(  0-C ,  1-C ) :   0.8811 B(  0-C ,  9-H ) :   0.9442 B(  0-C , 10-H ) :   0.9357
B(  0-C , 11-H ) :   0.9244 B(  1-C ,  2-O ) :   0.8778 B(  1-C ,  3-C ) :   0.9813
B(  1-C , 12-H ) :   0.9075 B(  2-O ,  3-C ) :   0.9303 B(  3-C ,  4-C ) :   0.9506
B(  3-C ,  8-C ) :   0.8923 B(  4-C ,  5-C ) :   0.9378 B(  4-C , 13-H ) :   0.9112
B(  4-C , 14-H ) :   0.9070 B(  5-C ,  6-C ) :   0.8965 B(  5-C ,  7-C ) :   0.8946
B(  5-C ,  8-C ) :   0.8469 B(  6-C , 15-H ) :   0.9381 B(  6-C , 16-H ) :   0.9362
B(  6-C , 17-H ) :   0.9404 B(  7-C ,  8-C ) :   0.8502 B(  7-C , 18-H ) :   0.9245
B(  7-C , 19-H ) :   0.9170 B(  8-C , 20-H ) :   0.9061

MP2 TOTAL ENERGY:     -386.369267386 Eh
FINAL SINGLE POINT ENERGY      -386.369267386490

DIPOLE MOMENT
-------------
                                X             Y             Z
Electronic contribution:      0.57950      -1.69627      -3.90114
Nuclear contribution   :     -1.05733       1.82039       4.42576
                        -----------------------------------------
Total Dipole Moment    :     -0.47783       0.12411       0.52462
                        -----------------------------------------
Magnitude (a.u.)       :      0.72038
Magnitude (Debye)      :      1.83107

                             ****ORCA TERMINATED NORMALLY****
TOTAL RUN TIME: 0 days 0 hours 17 minutes 38 seconds 785 msec
