                         Program Version 3.0.3 - RELEASE   -
|  1> ! RI-MP2 RIJK def2-TZVP def2-TZVP/C def2-TZVP/JK TIGHTSCF
|  2> % maxcore 2000
|  3> % mp2 density relaxed end
|  4> *xyz 0 1
|  5>  O        0.0481118752     1.4341880348    -0.0097803046
|  6>  C        0.0278644538     0.0224995766     0.0808037143
|  7>  C       -1.3881765815    -0.4588607060     0.0166573872
|  8>  C       -2.4499036972     0.3414300142    -0.0416992249
|  9>  N       -3.7340011528    -0.2104634114    -0.0722715878
| 10>  C       -4.0124852040    -1.4914955247     0.3687903654
| 11>  O       -5.1262689908    -1.8892204529     0.5892608896
| 12>  O       -2.9287362425    -2.2746735519     0.5824888603
| 13>  C       -1.6589052808    -1.9357292556    -0.0075170181
| 14>  H        0.9591262066     1.7289433247     0.0716160173
| 15>  H        0.6129382398    -0.4379316539    -0.7367462950
| 16>  H        0.4911041877    -0.3261906735     1.0216662361
| 17>  H       -2.3848441708     1.4203600162    -0.0599438222
| 18>  H       -4.5400934618     0.3917478941    -0.1033919633
| 19>  H       -1.6392751722    -2.3318332581    -1.0351528906
| 20>  H       -0.9198070986    -2.4977676125     0.5723115563
| 21> *
| 22>
| 23>                          ****END OF INPUT****

CARTESIAN COORDINATES (ANGSTROEM)
---------------------------------
  O      0.048112    1.434188   -0.009780
  C      0.027864    0.022500    0.080804
  C     -1.388177   -0.458861    0.016657
  C     -2.449904    0.341430   -0.041699
  N     -3.734001   -0.210463   -0.072272
  C     -4.012485   -1.491496    0.368790
  O     -5.126269   -1.889220    0.589261
  O     -2.928736   -2.274674    0.582489
  C     -1.658905   -1.935729   -0.007517
  H      0.959126    1.728943    0.071616
  H      0.612938   -0.437932   -0.736746
  H      0.491104   -0.326191    1.021666
  H     -2.384844    1.420360   -0.059944
  H     -4.540093    0.391748   -0.103392
  H     -1.639275   -2.331833   -1.035153
  H     -0.919807   -2.497768    0.572312

 Total Charge           Charge          ....    0
 Multiplicity           Mult            ....    1
 Number of Electrons    NEL             ....   68
 Basis Dimension        Dim             ....  321

ORBITAL ENERGIES
----------------

  NO   OCC          E(Eh)            E(eV)
   0   2.0000     -20.602273      -560.6163
   1   2.0000     -20.578282      -559.9635
   2   2.0000     -20.522788      -558.4534
   3   2.0000     -15.604935      -424.6319
   4   2.0000     -11.405041      -310.3470
   5   2.0000     -11.311318      -307.7966
   6   2.0000     -11.305801      -307.6465
   7   2.0000     -11.285247      -307.0872
   8   2.0000     -11.241810      -305.9052
   9   2.0000      -1.463201       -39.8157
  10   2.0000      -1.384805       -37.6825
  11   2.0000      -1.360033       -37.0084
  12   2.0000      -1.258998       -34.2591
  13   2.0000      -1.097621       -29.8678
  14   2.0000      -0.959888       -26.1199
  15   2.0000      -0.946342       -25.7513
  16   2.0000      -0.861062       -23.4307
  17   2.0000      -0.755283       -20.5523
  18   2.0000      -0.735049       -20.0017
  19   2.0000      -0.719023       -19.5656
  20   2.0000      -0.685148       -18.6438
  21   2.0000      -0.683208       -18.5910
  22   2.0000      -0.650685       -17.7060
  23   2.0000      -0.633725       -17.2445
  24   2.0000      -0.617960       -16.8155
  25   2.0000      -0.599448       -16.3118
  26   2.0000      -0.578962       -15.7543
  27   2.0000      -0.530349       -14.4315
  28   2.0000      -0.526751       -14.3336
  29   2.0000      -0.499643       -13.5960
  30   2.0000      -0.473314       -12.8795
  31   2.0000      -0.454719       -12.3735
  32   2.0000      -0.452325       -12.3084
  33   2.0000      -0.332200        -9.0396
  34   0.0000       0.118938         3.2365
  35   0.0000       0.136109         3.7037
  36   0.0000       0.141190         3.8420
  37   0.0000       0.143948         3.9170
  38   0.0000       0.186362         5.0712

MULLIKEN ATOMIC CHARGES
-----------------------
   0 O :   -0.466951
   1 C :   -0.080859
   2 C :   -0.034301
   3 C :   -0.058123
   4 N :   -0.315415
   5 C :    0.345920
   6 O :   -0.330971
   7 O :   -0.229763
   8 C :   -0.063418
   9 H :    0.320935
  10 H :    0.108775
  11 H :    0.115684
  12 H :    0.168281
  13 H :    0.258902
  14 H :    0.125110
  15 H :    0.136194
Sum of atomic charges:   -0.0000000

LOEWDIN ATOMIC CHARGES
----------------------
   0 O :   -0.033323
   1 C :   -0.313470
   2 C :   -0.212545
   3 C :   -0.183844
   4 N :    0.131863
   5 C :   -0.569984
   6 O :    0.098389
   7 O :    0.256810
   8 C :   -0.232322
   9 H :    0.177309
  10 H :    0.125330
  11 H :    0.126462
  12 H :    0.151754
  13 H :    0.201993
  14 H :    0.135254
  15 H :    0.140324

  Mayer bond orders larger than 0.1
B(  0-O ,  1-C ) :   1.0297 B(  0-O ,  2-C ) :  -0.1090 B(  0-O ,  9-H ) :   0.8447
B(  1-C ,  2-C ) :   0.9112 B(  1-C , 10-H ) :   0.9282 B(  1-C , 11-H ) :   0.9322
B(  2-C ,  3-C ) :   1.7695 B(  2-C ,  8-C ) :   0.9150 B(  3-C ,  4-N ) :   0.9942
B(  3-C , 12-H ) :   0.8953 B(  4-N ,  5-C ) :   1.0819 B(  4-N , 13-H ) :   0.8670
B(  5-C ,  6-O ) :   2.0050 B(  5-C ,  7-O ) :   1.1119 B(  7-O ,  8-C ) :   0.8575
B(  8-C , 14-H ) :   0.9233 B(  8-C , 15-H ) :   0.9316

MP2 TOTAL ENERGY:     -474.310348279 Eh
FINAL SINGLE POINT ENERGY      -474.310348279365

DIPOLE MOMENT
-------------
                                X             Y             Z
Electronic contribution:     -6.46615      -1.73101       0.96742
Nuclear contribution   :      8.36450       2.69613      -1.37984
                        -----------------------------------------
Total Dipole Moment    :      1.89835       0.96512      -0.41241
                        -----------------------------------------
Magnitude (a.u.)       :      2.16916
Magnitude (Debye)      :      5.51358

                             ****ORCA TERMINATED NORMALLY****
TOTAL RUN TIME: 0 days 0 hours 13 minutes 37 seconds 523 msec
