                         Program Version 3.0.3 - RELEASE   -
|  1> ! RI-MP2 RIJK def2-TZVP def2-TZVP/C def2-TZVP/JK TIGHTSCF
|  2> % maxcore 2000
|  3> % mp2 density relaxed end
|  4> *xyz 0 1
|  5>  C       -0.1386363388     1.5563088216     0.1232315587
|  6>  C        0.0613421416     0.0446258279     0.0078453314
|  7>  C       -1.2681851570    -0.6538665121    -0.3375080585
|  8>  C       -1.8769983673    -0.1969563178    -1.6441183376
|  9>  O       -3.0261888206     0.1342920861    -1.7897383995
| 10>  C        1.2467849076    -0.4625026552    -0.9032484822
| 11>  C        1.8380889350    -1.2080316099     0.2981303272
| 12>  C        2.1561173007    -0.2380675093     1.3982472357
| 13>  C        0.7294786709    -0.6684539191     1.2035832597
| 14>  H        0.7854488334     2.0656228621     0.4093332037
| 15>  H       -0.4721727962     1.9896431452    -0.8268044561
| 16>  H       -0.8989639356     1.7916942468     0.8765257916
| 17>  H       -1.0882853237    -1.7360287332    -0.4190476695
| 18>  H       -2.0096311998    -0.5007751275     0.4540026619
| 19>  H       -1.1734851462    -0.1914808175    -2.5092345339
| 20>  H        0.9124834547    -1.1219496543    -1.7074124821
| 21>  H        1.8848118812     0.3141065115    -1.3383213827
| 22>  H        2.2677266920    -2.2016125658     0.2676138215
| 23>  H        2.6418981998    -0.6641382055     2.2703903332
| 24>  H        2.4802075958     0.7730882194     1.1650168635
| 25>  H        0.1800819422    -1.1766253036     1.9887506537
| 26> *
| 27>
| 28>                          ****END OF INPUT****

CARTESIAN COORDINATES (ANGSTROEM)
---------------------------------
  C     -0.138636    1.556309    0.123232
  C      0.061342    0.044626    0.007845
  C     -1.268185   -0.653867   -0.337508
  C     -1.876998   -0.196956   -1.644118
  O     -3.026189    0.134292   -1.789738
  C      1.246785   -0.462503   -0.903248
  C      1.838089   -1.208032    0.298130
  C      2.156117   -0.238068    1.398247
  C      0.729479   -0.668454    1.203583
  H      0.785449    2.065623    0.409333
  H     -0.472173    1.989643   -0.826804
  H     -0.898964    1.791694    0.876526
  H     -1.088285   -1.736029   -0.419048
  H     -2.009631   -0.500775    0.454003
  H     -1.173485   -0.191481   -2.509235
  H      0.912483   -1.121950   -1.707412
  H      1.884812    0.314107   -1.338321
  H      2.267727   -2.201613    0.267614
  H      2.641898   -0.664138    2.270390
  H      2.480208    0.773088    1.165017
  H      0.180082   -1.176625    1.988751

 Total Charge           Charge          ....    0
 Multiplicity           Mult            ....    1
 Number of Electrons    NEL             ....   68
 Basis Dimension        Dim             ....  351

ORBITAL ENERGIES
----------------

  NO   OCC          E(Eh)            E(eV)
   0   2.0000     -20.553948      -559.3014
   1   2.0000     -11.329201      -308.2832
   2   2.0000     -11.255930      -306.2894
   3   2.0000     -11.239871      -305.8524
   4   2.0000     -11.238587      -305.8175
   5   2.0000     -11.238498      -305.8151
   6   2.0000     -11.235087      -305.7223
   7   2.0000     -11.233974      -305.6920
   8   2.0000     -11.220518      -305.3258
   9   2.0000      -1.392506       -37.8920
  10   2.0000      -1.202607       -32.7246
  11   2.0000      -1.071206       -29.1490
  12   2.0000      -0.971103       -26.4251
  13   2.0000      -0.953502       -25.9461
  14   2.0000      -0.869188       -23.6518
  15   2.0000      -0.796573       -21.6759
  16   2.0000      -0.790551       -21.5120
  17   2.0000      -0.720900       -19.6167
  18   2.0000      -0.694829       -18.9073
  19   2.0000      -0.660078       -17.9616
  20   2.0000      -0.642421       -17.4812
  21   2.0000      -0.613028       -16.6813
  22   2.0000      -0.605580       -16.4787
  23   2.0000      -0.590573       -16.0703
  24   2.0000      -0.566670       -15.4199
  25   2.0000      -0.541460       -14.7339
  26   2.0000      -0.535293       -14.5661
  27   2.0000      -0.519736       -14.1427
  28   2.0000      -0.485247       -13.2043
  29   2.0000      -0.468007       -12.7351
  30   2.0000      -0.452604       -12.3160
  31   2.0000      -0.432147       -11.7593
  32   2.0000      -0.401589       -10.9278
  33   2.0000      -0.385115       -10.4795
  34   0.0000       0.131951         3.5906
  35   0.0000       0.138235         3.7616
  36   0.0000       0.150394         4.0924
  37   0.0000       0.159181         4.3315
  38   0.0000       0.167549         4.5593

MULLIKEN ATOMIC CHARGES
-----------------------
   0 C :   -0.416884
   1 C :    0.125444
   2 C :   -0.226761
   3 C :    0.075744
   4 O :   -0.261063
   5 C :   -0.276695
   6 C :   -0.129450
   7 C :   -0.271829
   8 C :   -0.139949
   9 H :    0.127421
  10 H :    0.140508
  11 H :    0.136666
  12 H :    0.146978
  13 H :    0.125361
  14 H :    0.080806
  15 H :    0.121770
  16 H :    0.119620
  17 H :    0.132084
  18 H :    0.132914
  19 H :    0.127861
  20 H :    0.129454
Sum of atomic charges:    0.0000000

LOEWDIN ATOMIC CHARGES
----------------------
   0 C :   -0.264903
   1 C :   -0.253152
   2 C :   -0.221682
   3 C :   -0.293956
   4 O :    0.130415
   5 C :   -0.176000
   6 C :   -0.181035
   7 C :   -0.205726
   8 C :   -0.150280
   9 H :    0.124784
  10 H :    0.128646
  11 H :    0.131146
  12 H :    0.160457
  13 H :    0.150509
  14 H :    0.110980
  15 H :    0.134821
  16 H :    0.132140
  17 H :    0.133875
  18 H :    0.141106
  19 H :    0.129935
  20 H :    0.137919

  Mayer bond orders larger than 0.1
B(  0-C ,  1-C ) :   0.9308 B(  0-C ,  9-H ) :   0.9309 B(  0-C , 10-H ) :   0.9284
B(  0-C , 11-H ) :   0.9353 B(  1-C ,  2-C ) :   0.8588 B(  1-C ,  5-C ) :   0.9158
B(  1-C ,  8-C ) :   0.8877 B(  2-C ,  3-C ) :   0.8711 B(  2-C , 12-H ) :   0.9147
B(  2-C , 13-H ) :   0.9069 B(  3-C ,  4-O ) :   2.0078 B(  3-C , 14-H ) :   0.9472
B(  5-C ,  6-C ) :   0.9396 B(  5-C , 15-H ) :   0.9298 B(  5-C , 16-H ) :   0.9083
B(  6-C ,  7-C ) :   0.8941 B(  6-C ,  8-C ) :   0.8568 B(  6-C , 17-H ) :   0.9305
B(  7-C ,  8-C ) :   0.8778 B(  7-C , 18-H ) :   0.9333 B(  7-C , 19-H ) :   0.9180
B(  8-C , 20-H ) :   0.9242

MP2 TOTAL ENERGY:     -386.390973897 Eh
FINAL SINGLE POINT ENERGY      -386.390973896804

DIPOLE MOMENT
-------------
                                X             Y             Z
Electronic contribution:     -4.99228      -1.57893      -2.56734
Nuclear contribution   :      6.01937       1.24140       2.94756
                        -----------------------------------------
Total Dipole Moment    :      1.02709      -0.33753       0.38022
                        -----------------------------------------
Magnitude (a.u.)       :      1.14604
Magnitude (Debye)      :      2.91300

                             ****ORCA TERMINATED NORMALLY****
TOTAL RUN TIME: 0 days 0 hours 20 minutes 4 seconds 541 msec
