                         Program Version 3.0.3 - RELEASE   -
|  1> ! RI-MP2 RIJK def2-TZVP def2-TZVP/C def2-TZVP/JK TIGHTSCF
|  2> % maxcore 2000
|  3> % mp2 density relaxed end
|  4> *xyz 0 1
|  5>  O        0.2487524480     1.3065996095     0.3573948342
|  6>  C        0.1722575906    -0.0825168301     0.1233681496
|  7>  C       -1.2176939880    -0.4741789817    -0.3427415731
|  8>  C       -1.6146247768    -1.9626113245    -0.2627564970
|  9>  C       -2.6219169930    -1.4907705498     0.8185099669
| 10>  O       -2.2009226604    -0.1204564891     0.6796380219
| 11>  C       -4.0415809528    -1.6788084997     0.5055074390
| 12>  N       -5.1570825614    -1.8457875594     0.2546956927
| 13>  H       -0.4559274726     1.5189901594     0.9814586980
| 14>  H        0.9082534312    -0.3217077045    -0.6528410001
| 15>  H        0.4318491031    -0.6641109768     1.0240360732
| 16>  H       -1.4585855906     0.0297087291    -1.2849484021
| 17>  H       -2.0662342239    -2.3825460340    -1.1600074101
| 18>  H       -0.8395296972    -2.6337776586     0.1103208009
| 19>  H       -2.4340618763    -1.8724422801     1.8287077260
| 20> *
| 21>
| 22>                          ****END OF INPUT****

CARTESIAN COORDINATES (ANGSTROEM)
---------------------------------
  O      0.248752    1.306600    0.357395
  C      0.172258   -0.082517    0.123368
  C     -1.217694   -0.474179   -0.342742
  C     -1.614625   -1.962611   -0.262756
  C     -2.621917   -1.490771    0.818510
  O     -2.200923   -0.120456    0.679638
  C     -4.041581   -1.678808    0.505507
  N     -5.157083   -1.845788    0.254696
  H     -0.455927    1.518990    0.981459
  H      0.908253   -0.321708   -0.652841
  H      0.431849   -0.664111    1.024036
  H     -1.458586    0.029709   -1.284948
  H     -2.066234   -2.382546   -1.160007
  H     -0.839530   -2.633778    0.110321
  H     -2.434062   -1.872442    1.828708

 Total Charge           Charge          ....    0
 Multiplicity           Mult            ....    1
 Number of Electrons    NEL             ....   60
 Basis Dimension        Dim             ....  290

ORBITAL ENERGIES
----------------

  NO   OCC          E(Eh)            E(eV)
   0   2.0000     -20.591248      -560.3163
   1   2.0000     -20.568997      -559.7109
   2   2.0000     -15.585402      -424.1003
   3   2.0000     -11.353862      -308.9543
   4   2.0000     -11.313429      -307.8540
   5   2.0000     -11.295929      -307.3779
   6   2.0000     -11.282291      -307.0068
   7   2.0000     -11.273121      -306.7572
   8   2.0000      -1.424780       -38.7702
   9   2.0000      -1.373881       -37.3852
  10   2.0000      -1.229084       -33.4451
  11   2.0000      -1.066426       -29.0189
  12   2.0000      -1.033519       -28.1235
  13   2.0000      -0.925803       -25.1924
  14   2.0000      -0.818274       -22.2664
  15   2.0000      -0.753195       -20.4955
  16   2.0000      -0.723648       -19.6915
  17   2.0000      -0.698355       -19.0032
  18   2.0000      -0.664715       -18.0878
  19   2.0000      -0.616010       -16.7625
  20   2.0000      -0.609165       -16.5762
  21   2.0000      -0.592081       -16.1113
  22   2.0000      -0.575593       -15.6627
  23   2.0000      -0.559664       -15.2292
  24   2.0000      -0.516643       -14.0586
  25   2.0000      -0.504861       -13.7380
  26   2.0000      -0.486674       -13.2431
  27   2.0000      -0.476769       -12.9735
  28   2.0000      -0.458549       -12.4777
  29   2.0000      -0.446784       -12.1576
  30   0.0000       0.117319         3.1924
  31   0.0000       0.125862         3.4249
  32   0.0000       0.144934         3.9439
  33   0.0000       0.148881         4.0513
  34   0.0000       0.172046         4.6816

MULLIKEN ATOMIC CHARGES
-----------------------
   0 O :   -0.469703
   1 C :   -0.029261
   2 C :    0.083997
   3 C :   -0.330543
   4 C :    0.251100
   5 O :   -0.344889
   6 C :   -0.215458
   7 N :   -0.050294
   8 H :    0.330659
   9 H :    0.118370
  10 H :    0.094988
  11 H :    0.112977
  12 H :    0.162578
  13 H :    0.147807
  14 H :    0.137671
Sum of atomic charges:   -0.0000000

LOEWDIN ATOMIC CHARGES
----------------------
   0 O :   -0.034306
   1 C :   -0.338991
   2 C :   -0.273723
   3 C :   -0.180311
   4 C :   -0.269508
   5 O :    0.160443
   6 C :   -0.163199
   7 N :    0.078474
   8 H :    0.181509
   9 H :    0.135322
  10 H :    0.120416
  11 H :    0.142015
  12 H :    0.143559
  13 H :    0.139855
  14 H :    0.158446

  Mayer bond orders larger than 0.1
B(  0-O ,  1-C ) :   0.9279 B(  0-O ,  8-H ) :   0.8318 B(  1-C ,  2-C ) :   0.9594
B(  1-C ,  9-H ) :   0.9264 B(  1-C , 10-H ) :   0.9048 B(  2-C ,  3-C ) :   0.9119
B(  2-C ,  5-O ) :   0.8645 B(  2-C , 11-H ) :   0.9112 B(  3-C ,  4-C ) :   0.9000
B(  3-C , 12-H ) :   0.9288 B(  3-C , 13-H ) :   0.9284 B(  4-C ,  5-O ) :   0.9378
B(  4-C ,  6-C ) :   0.9346 B(  4-C , 14-H ) :   0.9007 B(  6-C ,  7-N ) :   2.8391

MP2 TOTAL ENERGY:     -399.136453661 Eh
FINAL SINGLE POINT ENERGY      -399.136453661284

DIPOLE MOMENT
-------------
                                X             Y             Z
Electronic contribution:     -6.09777       0.38541       1.11636
Nuclear contribution   :      7.31761      -1.16563      -1.00554
                        -----------------------------------------
Total Dipole Moment    :      1.21984      -0.78022       0.11082
                        -----------------------------------------
Magnitude (a.u.)       :      1.45225
Magnitude (Debye)      :      3.69133

                             ****ORCA TERMINATED NORMALLY****
TOTAL RUN TIME: 0 days 0 hours 10 minutes 38 seconds 595 msec
