                         Program Version 3.0.3 - RELEASE   -
|  1> ! RI-MP2 RIJK def2-TZVP def2-TZVP/C def2-TZVP/JK TIGHTSCF
|  2> % maxcore 2000
|  3> % mp2 density relaxed end
|  4> *xyz 0 1
|  5>  C       -0.0047457937    -0.8070714104     0.9339804107
|  6>  C       -0.1847885190    -0.0700449959    -0.3991698287
|  7>  C        0.8536408152    -0.3904743223    -1.4969248241
|  8>  C        2.2902886559     0.0240335427    -1.1145758889
|  9>  C        2.4667132549     1.5177565832    -0.8234856801
| 10>  C        0.8112008785    -1.8894806200    -1.9259929005
| 11>  C       -0.5906664122    -2.3952646408    -2.3271666959
| 12>  C        1.7355028020    -2.1268085649    -3.0418718010
| 13>  N        2.4445850574    -2.3154594106    -3.9355318721
| 14>  H       -0.0856131595    -1.8934742752     0.8214927989
| 15>  H        0.9659206318    -0.5944090896     1.3918310617
| 16>  H       -0.7762967804    -0.4986892493     1.6458734350
| 17>  H       -1.1900698596    -0.2654850257    -0.7870517825
| 18>  H       -0.1538678549     1.0091295286    -0.2158773576
| 19>  H        0.5678870917     0.1938853902    -2.3830281934
| 20>  H        2.6232505995    -0.5610022921    -0.2474447779
| 21>  H        2.9589291855    -0.2534402553    -1.9363796505
| 22>  H        2.1091132965     2.1289960611    -1.6596845357
| 23>  H        1.9282834199     1.8343690114     0.0749763410
| 24>  H        3.5236828719     1.7551610146    -0.6698288066
| 25>  H        1.1736968728    -2.4991146143    -1.0880804924
| 26>  H       -1.0217584974    -1.7632619520    -3.1092953754
| 27>  H       -0.5344463240    -3.4168367053    -2.7107797338
| 28>  H       -1.2640607428    -2.3924313281    -1.4679622604
| 29> *
| 30>
| 31>                          ****END OF INPUT****

CARTESIAN COORDINATES (ANGSTROEM)
---------------------------------
  C     -0.004746   -0.807071    0.933980
  C     -0.184789   -0.070045   -0.399170
  C      0.853641   -0.390474   -1.496925
  C      2.290289    0.024034   -1.114576
  C      2.466713    1.517757   -0.823486
  C      0.811201   -1.889481   -1.925993
  C     -0.590666   -2.395265   -2.327167
  C      1.735503   -2.126809   -3.041872
  N      2.444585   -2.315459   -3.935532
  H     -0.085613   -1.893474    0.821493
  H      0.965921   -0.594409    1.391831
  H     -0.776297   -0.498689    1.645873
  H     -1.190070   -0.265485   -0.787052
  H     -0.153868    1.009130   -0.215877
  H      0.567887    0.193885   -2.383028
  H      2.623251   -0.561002   -0.247445
  H      2.958929   -0.253440   -1.936380
  H      2.109113    2.128996   -1.659685
  H      1.928283    1.834369    0.074976
  H      3.523683    1.755161   -0.669829
  H      1.173697   -2.499115   -1.088080
  H     -1.021758   -1.763262   -3.109295
  H     -0.534446   -3.416837   -2.710780
  H     -1.264061   -2.392431   -1.467962

 Total Charge           Charge          ....    0
 Multiplicity           Mult            ....    1
 Number of Electrons    NEL             ....   70
 Basis Dimension        Dim             ....  369

ORBITAL ENERGIES
----------------

  NO   OCC          E(Eh)            E(eV)
   0   2.0000     -15.561108      -423.4393
   1   2.0000     -11.280868      -306.9680
   2   2.0000     -11.264871      -306.5327
   3   2.0000     -11.249725      -306.1206
   4   2.0000     -11.240841      -305.8788
   5   2.0000     -11.233905      -305.6901
   6   2.0000     -11.227666      -305.5203
   7   2.0000     -11.226798      -305.4967
   8   2.0000     -11.220261      -305.3188
   9   2.0000      -1.213726       -33.0272
  10   2.0000      -1.129474       -30.7345
  11   2.0000      -1.050142       -28.5758
  12   2.0000      -1.022194       -27.8153
  13   2.0000      -0.942718       -25.6527
  14   2.0000      -0.892263       -24.2797
  15   2.0000      -0.850572       -23.1452
  16   2.0000      -0.770680       -20.9713
  17   2.0000      -0.709972       -19.3193
  18   2.0000      -0.659000       -17.9323
  19   2.0000      -0.626014       -17.0347
  20   2.0000      -0.599197       -16.3050
  21   2.0000      -0.593516       -16.1504
  22   2.0000      -0.578613       -15.7449
  23   2.0000      -0.568386       -15.4666
  24   2.0000      -0.564994       -15.3743
  25   2.0000      -0.543764       -14.7966
  26   2.0000      -0.536941       -14.6109
  27   2.0000      -0.521392       -14.1878
  28   2.0000      -0.510937       -13.9033
  29   2.0000      -0.500726       -13.6254
  30   2.0000      -0.483233       -13.1494
  31   2.0000      -0.468196       -12.7403
  32   2.0000      -0.466045       -12.6817
  33   2.0000      -0.442635       -12.0447
  34   2.0000      -0.438952       -11.9445
  35   0.0000       0.118651         3.2287
  36   0.0000       0.138664         3.7732
  37   0.0000       0.144840         3.9413
  38   0.0000       0.162823         4.4307
  39   0.0000       0.178425         4.8552

MULLIKEN ATOMIC CHARGES
-----------------------
   0 C :   -0.439600
   1 C :   -0.236496
   2 C :   -0.048378
   3 C :   -0.244112
   4 C :   -0.413443
   5 C :    0.032354
   6 C :   -0.412592
   7 C :   -0.210778
   8 N :   -0.051594
   9 H :    0.129460
  10 H :    0.136420
  11 H :    0.143252
  12 H :    0.133756
  13 H :    0.135936
  14 H :    0.102519
  15 H :    0.115220
  16 H :    0.148090
  17 H :    0.129733
  18 H :    0.129212
  19 H :    0.142368
  20 H :    0.131932
  21 H :    0.143673
  22 H :    0.156647
  23 H :    0.146420
Sum of atomic charges:   -0.0000000

LOEWDIN ATOMIC CHARGES
----------------------
   0 C :   -0.316155
   1 C :   -0.269610
   2 C :   -0.226319
   3 C :   -0.266534
   4 C :   -0.315803
   5 C :   -0.242755
   6 C :   -0.266204
   7 C :   -0.177856
   8 N :    0.054280
   9 H :    0.119360
  10 H :    0.122409
  11 H :    0.124978
  12 H :    0.138266
  13 H :    0.141830
  14 H :    0.161375
  15 H :    0.137294
  16 H :    0.149000
  17 H :    0.123521
  18 H :    0.118605
  19 H :    0.124341
  20 H :    0.175830
  21 H :    0.131589
  22 H :    0.132444
  23 H :    0.126114

  Mayer bond orders larger than 0.1
B(  0-C ,  1-C ) :   0.9051 B(  0-C ,  9-H ) :   0.9367 B(  0-C , 10-H ) :   0.9375
B(  0-C , 11-H ) :   0.9382 B(  1-C ,  2-C ) :   0.8754 B(  1-C , 12-H ) :   0.9395
B(  1-C , 13-H ) :   0.9382 B(  2-C ,  3-C ) :   0.9262 B(  2-C ,  5-C ) :   0.9038
B(  2-C , 14-H ) :   0.9183 B(  3-C ,  4-C ) :   0.9126 B(  3-C , 15-H ) :   0.9267
B(  3-C , 16-H ) :   0.9311 B(  4-C , 17-H ) :   0.9368 B(  4-C , 18-H ) :   0.9404
B(  4-C , 19-H ) :   0.9408 B(  5-C ,  6-C ) :   0.8806 B(  5-C ,  7-C ) :   0.9187
B(  5-C , 20-H ) :   0.9060 B(  6-C , 21-H ) :   0.9298 B(  6-C , 22-H ) :   0.9349
B(  6-C , 23-H ) :   0.9359 B(  7-C ,  8-N ) :   2.8975

MP2 TOTAL ENERGY:     -367.783595589 Eh
FINAL SINGLE POINT ENERGY      -367.783595589116

DIPOLE MOMENT
-------------
                                X             Y             Z
Electronic contribution:      3.90755      -5.56196      -8.54211
Nuclear contribution   :     -4.86993       5.96913       9.76432
                        -----------------------------------------
Total Dipole Moment    :     -0.96238       0.40717       1.22221
                        -----------------------------------------
Magnitude (a.u.)       :      1.60803
Magnitude (Debye)      :      4.08729

                             ****ORCA TERMINATED NORMALLY****
TOTAL RUN TIME: 0 days 0 hours 22 minutes 57 seconds 233 msec
