                         Program Version 3.0.3 - RELEASE   -
|  1> ! RI-MP2 RIJK def2-TZVP def2-TZVP/C def2-TZVP/JK TIGHTSCF
|  2> % maxcore 2000
|  3> % mp2 density relaxed end
|  4> *xyz 0 1
|  5>  O       -0.0373110728    -0.1071695019     0.0025165630
|  6>  C       -0.0135533187     1.1064461825     0.0358741639
|  7>  C       -1.2855047728     1.9434888341    -0.0900210829
|  8>  O       -1.3678040883     3.0058155271     0.8320705890
|  9>  C       -0.8192310259     4.2264038323     0.3834416482
| 10>  C        0.6646385734     4.2056794428     0.1630013237
| 11>  C        1.4779263612     3.1484414279     0.1086583155
| 12>  N        1.1801284455     1.7845548758     0.1741123921
| 13>  H       -1.3726873126     2.3028131877    -1.1282607038
| 14>  H       -2.1154862727     1.2615896908     0.1061273229
| 15>  H       -1.3373607355     4.5653220597    -0.5328625368
| 16>  H       -1.0610346976     4.9571950262     1.1646464925
| 17>  H        1.1310383595     5.1797954218     0.0496431304
| 18>  H        2.5422157577     3.3168906955    -0.0188850839
| 19>  H        1.9669613797     1.1531098876     0.2229152363
| 20> *
| 21>
| 22>                          ****END OF INPUT****

CARTESIAN COORDINATES (ANGSTROEM)
---------------------------------
  O     -0.037311   -0.107170    0.002517
  C     -0.013553    1.106446    0.035874
  C     -1.285505    1.943489   -0.090021
  O     -1.367804    3.005816    0.832071
  C     -0.819231    4.226404    0.383442
  C      0.664639    4.205679    0.163001
  C      1.477926    3.148441    0.108658
  N      1.180128    1.784555    0.174112
  H     -1.372687    2.302813   -1.128261
  H     -2.115486    1.261590    0.106127
  H     -1.337361    4.565322   -0.532863
  H     -1.061035    4.957195    1.164646
  H      1.131038    5.179795    0.049643
  H      2.542216    3.316891   -0.018885
  H      1.966961    1.153110    0.222915

 Total Charge           Charge          ....    0
 Multiplicity           Mult            ....    1
 Number of Electrons    NEL             ....   60
 Basis Dimension        Dim             ....  290

ORBITAL ENERGIES
----------------

  NO   OCC          E(Eh)            E(eV)
   0   2.0000     -20.576761      -559.9221
   1   2.0000     -20.532623      -558.7211
   2   2.0000     -15.604316      -424.6150
   3   2.0000     -11.360954      -309.1473
   4   2.0000     -11.299303      -307.4697
   5   2.0000     -11.296534      -307.3943
   6   2.0000     -11.292598      -307.2872
   7   2.0000     -11.237284      -305.7821
   8   2.0000      -1.408009       -38.3139
   9   2.0000      -1.388692       -37.7882
  10   2.0000      -1.254016       -34.1235
  11   2.0000      -1.073168       -29.2024
  12   2.0000      -0.994029       -27.0489
  13   2.0000      -0.940280       -25.5863
  14   2.0000      -0.828441       -22.5430
  15   2.0000      -0.776503       -21.1297
  16   2.0000      -0.714949       -19.4548
  17   2.0000      -0.702734       -19.1224
  18   2.0000      -0.664027       -18.0691
  19   2.0000      -0.647059       -17.6074
  20   2.0000      -0.630399       -17.1540
  21   2.0000      -0.608468       -16.5573
  22   2.0000      -0.584248       -15.8982
  23   2.0000      -0.573223       -15.5982
  24   2.0000      -0.541474       -14.7343
  25   2.0000      -0.497259       -13.5311
  26   2.0000      -0.475354       -12.9350
  27   2.0000      -0.468701       -12.7540
  28   2.0000      -0.423344       -11.5198
  29   2.0000      -0.335938        -9.1413
  30   0.0000       0.123139         3.3508
  31   0.0000       0.131891         3.5889
  32   0.0000       0.154176         4.1953
  33   0.0000       0.164705         4.4818
  34   0.0000       0.194115         5.2822

MULLIKEN ATOMIC CHARGES
-----------------------
   0 O :   -0.330177
   1 C :    0.208909
   2 C :   -0.040562
   3 O :   -0.311695
   4 C :   -0.043984
   5 C :   -0.218618
   6 C :   -0.035254
   7 N :   -0.267162
   8 H :    0.114871
   9 H :    0.153146
  10 H :    0.117586
  11 H :    0.135605
  12 H :    0.134616
  13 H :    0.137076
  14 H :    0.245646
Sum of atomic charges:   -0.0000000

LOEWDIN ATOMIC CHARGES
----------------------
   0 O :    0.100673
   1 C :   -0.434147
   2 C :   -0.278189
   3 O :    0.171896
   4 C :   -0.318944
   5 C :   -0.211024
   6 C :   -0.228405
   7 N :    0.142191
   8 H :    0.137736
   9 H :    0.146615
  10 H :    0.127247
  11 H :    0.141267
  12 H :    0.152932
  13 H :    0.148180
  14 H :    0.201971

  Mayer bond orders larger than 0.1
B(  0-O ,  1-C ) :   1.9849 B(  1-C ,  2-C ) :   0.9062 B(  1-C ,  7-N ) :   1.1138
B(  2-C ,  3-O ) :   0.8813 B(  2-C ,  8-H ) :   0.9019 B(  2-C ,  9-H ) :   0.9269
B(  3-O ,  4-C ) :   0.9634 B(  4-C ,  5-C ) :   0.9013 B(  4-C , 10-H ) :   0.9586
B(  4-C , 11-H ) :   0.9270 B(  5-C ,  6-C ) :   1.7649 B(  5-C , 12-H ) :   0.9094
B(  6-C ,  7-N ) :   1.0233 B(  6-C , 13-H ) :   0.9174 B(  7-N , 14-H ) :   0.8596

MP2 TOTAL ENERGY:     -399.167789022 Eh
FINAL SINGLE POINT ENERGY      -399.167789021740

DIPOLE MOMENT
-------------
                                X             Y             Z
Electronic contribution:      0.47238      -4.42462       1.03434
Nuclear contribution   :      0.09938       5.62349      -1.44989
                        -----------------------------------------
Total Dipole Moment    :      0.57176       1.19887      -0.41555
                        -----------------------------------------
Magnitude (a.u.)       :      1.39172
Magnitude (Debye)      :      3.53746

                             ****ORCA TERMINATED NORMALLY****
TOTAL RUN TIME: 0 days 0 hours 11 minutes 0 seconds 149 msec
