                         Program Version 3.0.3 - RELEASE   -
|  1> ! RI-MP2 RIJK def2-TZVP def2-TZVP/C def2-TZVP/JK TIGHTSCF
|  2> % maxcore 2000
|  3> % mp2 density relaxed end
|  4> *xyz 0 1
|  5>  C       -0.0151881866     1.4734006297     0.0825137250
|  6>  C       -0.0184325522    -0.0297052641    -0.0193406919
|  7>  C        0.7932484322    -0.6910851875    -1.1685166573
|  8>  O        1.0831416556    -1.9964555437    -0.6368548075
|  9>  C        0.5087912532    -1.9691960088     0.6770415313
| 10>  O        0.6540140429    -0.6381711049     1.1010153291
| 11>  C       -1.0038277869    -2.1211977105     0.4715899213
| 12>  N       -1.7996512315    -1.2089640469     1.3207091720
| 13>  C       -1.3665887382    -0.7736169403    -0.0220653516
| 14>  H        1.0079920407     1.8526744070     0.1569558569
| 15>  H       -0.4863020253     1.9182879593    -0.7997076952
| 16>  H       -0.5715307636     1.7895781654     0.9686460481
| 17>  H        0.2254542930    -0.7791608548    -2.1015453394
| 18>  H        1.7297101933    -0.1547077647    -1.3605000568
| 19>  H        1.0373481233    -2.6606961725     1.3310857363
| 20>  H       -1.4184175521    -3.0389259217     0.0735171197
| 21>  H       -2.7755297033    -1.4932772788     1.2588077336
| 22>  H       -2.0839332046    -0.6067865522    -0.8176090135
| 23> *
| 24>
| 25>                          ****END OF INPUT****

CARTESIAN COORDINATES (ANGSTROEM)
---------------------------------
  C     -0.015188    1.473401    0.082514
  C     -0.018433   -0.029705   -0.019341
  C      0.793248   -0.691085   -1.168517
  O      1.083142   -1.996456   -0.636855
  C      0.508791   -1.969196    0.677042
  O      0.654014   -0.638171    1.101015
  C     -1.003828   -2.121198    0.471590
  N     -1.799651   -1.208964    1.320709
  C     -1.366589   -0.773617   -0.022065
  H      1.007992    1.852674    0.156956
  H     -0.486302    1.918288   -0.799708
  H     -0.571531    1.789578    0.968646
  H      0.225454   -0.779161   -2.101545
  H      1.729710   -0.154708   -1.360500
  H      1.037348   -2.660696    1.331086
  H     -1.418418   -3.038926    0.073517
  H     -2.775530   -1.493277    1.258808
  H     -2.083933   -0.606787   -0.817609

 Total Charge           Charge          ....    0
 Multiplicity           Mult            ....    1
 Number of Electrons    NEL             ....   68
 Basis Dimension        Dim             ....  333

ORBITAL ENERGIES
----------------

  NO   OCC          E(Eh)            E(eV)
   0   2.0000     -20.562067      -559.5223
   1   2.0000     -20.558686      -559.4303
   2   2.0000     -15.569098      -423.6567
   3   2.0000     -11.335028      -308.4418
   4   2.0000     -11.299132      -307.4650
   5   2.0000     -11.280618      -306.9612
   6   2.0000     -11.267121      -306.5939
   7   2.0000     -11.264136      -306.5127
   8   2.0000     -11.226064      -305.4767
   9   2.0000      -1.450542       -39.4713
  10   2.0000      -1.330017       -36.1916
  11   2.0000      -1.263134       -34.3716
  12   2.0000      -1.067258       -29.0416
  13   2.0000      -0.962716       -26.1968
  14   2.0000      -0.945391       -25.7254
  15   2.0000      -0.866661       -23.5831
  16   2.0000      -0.801609       -21.8129
  17   2.0000      -0.774510       -21.0755
  18   2.0000      -0.735021       -20.0009
  19   2.0000      -0.698509       -19.0074
  20   2.0000      -0.676745       -18.4152
  21   2.0000      -0.618454       -16.8290
  22   2.0000      -0.603153       -16.4126
  23   2.0000      -0.572668       -15.5831
  24   2.0000      -0.569898       -15.5077
  25   2.0000      -0.543725       -14.7955
  26   2.0000      -0.530278       -14.4296
  27   2.0000      -0.515321       -14.0226
  28   2.0000      -0.507112       -13.7992
  29   2.0000      -0.499870       -13.6022
  30   2.0000      -0.474928       -12.9235
  31   2.0000      -0.450411       -12.2563
  32   2.0000      -0.420178       -11.4336
  33   2.0000      -0.378164       -10.2904
  34   0.0000       0.128674         3.5014
  35   0.0000       0.147634         4.0173
  36   0.0000       0.169027         4.5995
  37   0.0000       0.179639         4.8882
  38   0.0000       0.195977         5.3328

MULLIKEN ATOMIC CHARGES
-----------------------
   0 C :   -0.430535
   1 C :    0.233832
   2 C :   -0.056843
   3 O :   -0.327041
   4 C :    0.197892
   5 O :   -0.294642
   6 C :   -0.110233
   7 N :   -0.373689
   8 C :   -0.117854
   9 H :    0.145554
  10 H :    0.132385
  11 H :    0.158326
  12 H :    0.098378
  13 H :    0.106428
  14 H :    0.135209
  15 H :    0.135865
  16 H :    0.222266
  17 H :    0.144701
Sum of atomic charges:    0.0000000

LOEWDIN ATOMIC CHARGES
----------------------
   0 C :   -0.260732
   1 C :   -0.344201
   2 C :   -0.242449
   3 O :    0.153568
   4 C :   -0.352740
   5 O :    0.243500
   6 C :   -0.234634
   7 N :    0.014206
   8 C :   -0.219072
   9 H :    0.133763
  10 H :    0.132436
  11 H :    0.138892
  12 H :    0.125765
  13 H :    0.125391
  14 H :    0.137069
  15 H :    0.137607
  16 H :    0.172259
  17 H :    0.139373

  Mayer bond orders larger than 0.1
B(  0-C ,  1-C ) :   0.8437 B(  0-C ,  9-H ) :   0.9411 B(  0-C , 10-H ) :   0.9372
B(  0-C , 11-H ) :   0.9435 B(  1-C ,  2-C ) :   0.9665 B(  1-C ,  5-O ) :   0.9118
B(  1-C ,  8-C ) :   0.8846 B(  2-C ,  3-O ) :   0.9405 B(  2-C , 12-H ) :   0.9030
B(  2-C , 13-H ) :   0.9245 B(  3-O ,  4-C ) :   0.9656 B(  4-C ,  5-O ) :   1.0146
B(  4-C ,  6-C ) :   0.9314 B(  4-C , 14-H ) :   0.9101 B(  6-C ,  7-N ) :   0.9715
B(  6-C ,  8-C ) :   0.9298 B(  6-C , 15-H ) :   0.9129 B(  7-N ,  8-C ) :   0.9940
B(  7-N , 16-H ) :   0.8643 B(  8-C , 17-H ) :   0.9080

MP2 TOTAL ENERGY:     -438.347621961 Eh
FINAL SINGLE POINT ENERGY      -438.347621960626

DIPOLE MOMENT
-------------
                                X             Y             Z
Electronic contribution:      1.35291      -4.29293       2.11513
Nuclear contribution   :     -2.17876       4.42409      -2.85556
                        -----------------------------------------
Total Dipole Moment    :     -0.82586       0.13115      -0.74042
                        -----------------------------------------
Magnitude (a.u.)       :      1.11690
Magnitude (Debye)      :      2.83893

                             ****ORCA TERMINATED NORMALLY****
TOTAL RUN TIME: 0 days 0 hours 18 minutes 23 seconds 191 msec
