                         Program Version 3.0.3 - RELEASE   -
|  1> ! RI-MP2 RIJK def2-TZVP def2-TZVP/C def2-TZVP/JK TIGHTSCF
|  2> % maxcore 2000
|  3> % mp2 density relaxed end
|  4> *xyz 0 1
|  5>  C       -0.0297867016     1.4371090846     0.0903866157
|  6>  C        1.4283427482     1.9592765928     0.0166672382
|  7>  N        2.2999449511     1.4164919440     1.0622027142
|  8>  C        1.9790202208     0.0895468817     1.3623543393
|  9>  C        0.9113128562    -0.5823572549     0.8083543886
| 10>  N        1.0141228819    -1.8302353153     1.3326069365
| 11>  N        2.0826396046    -1.9237474406     2.1574235701
| 12>  N        2.6643941204    -0.7528349300     2.1784996084
| 13>  N       -0.1182391577    -0.0342889963     0.0389739903
| 14>  H       -0.4869366139     1.7685076954     1.0300150722
| 15>  H       -0.6209066210     1.8492396604    -0.7312664731
| 16>  H        1.8450767397     1.6849894777    -0.9620290328
| 17>  H        1.4378193535     3.0506803759     0.0778460760
| 18>  H        2.3752947629     2.0055982925     1.8814335046
| 19>  H        0.4314861664    -2.6370422582     1.1797077498
| 20>  H       -0.1298072215    -0.3762478296    -0.9163456180
| 21> *
| 22>
| 23>                          ****END OF INPUT****

CARTESIAN COORDINATES (ANGSTROEM)
---------------------------------
  C     -0.029787    1.437109    0.090387
  C      1.428343    1.959277    0.016667
  N      2.299945    1.416492    1.062203
  C      1.979020    0.089547    1.362354
  C      0.911313   -0.582357    0.808354
  N      1.014123   -1.830235    1.332607
  N      2.082640   -1.923747    2.157424
  N      2.664394   -0.752835    2.178500
  N     -0.118239   -0.034289    0.038974
  H     -0.486937    1.768508    1.030015
  H     -0.620907    1.849240   -0.731266
  H      1.845077    1.684989   -0.962029
  H      1.437819    3.050680    0.077846
  H      2.375295    2.005598    1.881434
  H      0.431486   -2.637042    1.179708
  H     -0.129807   -0.376248   -0.916346

 Total Charge           Charge          ....    0
 Multiplicity           Mult            ....    1
 Number of Electrons    NEL             ....   66
 Basis Dimension        Dim             ....  321

ORBITAL ENERGIES
----------------

  NO   OCC          E(Eh)            E(eV)
   0   2.0000     -15.645752      -425.7426
   1   2.0000     -15.629178      -425.2915
   2   2.0000     -15.587137      -424.1476
   3   2.0000     -15.586328      -424.1255
   4   2.0000     -15.564582      -423.5338
   5   2.0000     -11.300027      -307.4894
   6   2.0000     -11.275855      -306.8316
   7   2.0000     -11.271838      -306.7223
   8   2.0000     -11.271207      -306.7051
   9   2.0000      -1.425295       -38.7843
  10   2.0000      -1.269495       -34.5447
  11   2.0000      -1.230463       -33.4826
  12   2.0000      -1.168765       -31.8037
  13   2.0000      -1.059559       -28.8321
  14   2.0000      -0.966484       -26.2994
  15   2.0000      -0.881788       -23.9947
  16   2.0000      -0.860744       -23.4220
  17   2.0000      -0.789069       -21.4717
  18   2.0000      -0.764813       -20.8116
  19   2.0000      -0.699528       -19.0351
  20   2.0000      -0.651051       -17.7160
  21   2.0000      -0.638023       -17.3615
  22   2.0000      -0.631550       -17.1854
  23   2.0000      -0.616526       -16.7765
  24   2.0000      -0.594529       -16.1780
  25   2.0000      -0.557818       -15.1790
  26   2.0000      -0.521301       -14.1853
  27   2.0000      -0.508860       -13.8468
  28   2.0000      -0.475259       -12.9325
  29   2.0000      -0.447181       -12.1684
  30   2.0000      -0.422506       -11.4970
  31   2.0000      -0.373896       -10.1742
  32   2.0000      -0.303111        -8.2481
  33   0.0000       0.116692         3.1753
  34   0.0000       0.135372         3.6837
  35   0.0000       0.140983         3.8363
  36   0.0000       0.159630         4.3437
  37   0.0000       0.177433         4.8282

MULLIKEN ATOMIC CHARGES
-----------------------
   0 C :   -0.146721
   1 C :   -0.146490
   2 N :   -0.334554
   3 C :    0.064559
   4 C :    0.024969
   5 N :   -0.080507
   6 N :   -0.142081
   7 N :   -0.142933
   8 N :   -0.332833
   9 H :    0.119007
  10 H :    0.139195
  11 H :    0.111472
  12 H :    0.137808
  13 H :    0.235479
  14 H :    0.259754
  15 H :    0.233877
Sum of atomic charges:    0.0000000

LOEWDIN ATOMIC CHARGES
----------------------
   0 C :   -0.284477
   1 C :   -0.291165
   2 N :    0.049690
   3 C :   -0.354985
   4 C :   -0.329633
   5 N :    0.130711
   6 N :   -0.060636
   7 N :    0.013350
   8 N :    0.034651
   9 H :    0.136103
  10 H :    0.134826
  11 H :    0.133735
  12 H :    0.135878
  13 H :    0.182766
  14 H :    0.188731
  15 H :    0.180454

  Mayer bond orders larger than 0.1
B(  0-C ,  1-C ) :   0.8918 B(  0-C ,  8-N ) :   0.9326 B(  0-C ,  9-H ) :   0.9327
B(  0-C , 10-H ) :   0.9316 B(  1-C ,  2-N ) :   0.9568 B(  1-C , 11-H ) :   0.9304
B(  1-C , 12-H ) :   0.9296 B(  2-N ,  3-C ) :   1.0810 B(  2-N , 13-H ) :   0.8666
B(  3-C ,  4-C ) :   1.3706 B(  3-C ,  7-N ) :   1.4251 B(  4-C ,  5-N ) :   1.1731
B(  4-C ,  6-N ) :   0.1395 B(  4-C ,  8-N ) :   1.0754 B(  5-N ,  6-N ) :   1.0289
B(  5-N , 14-H ) :   0.8584 B(  6-N ,  7-N ) :   1.2628 B(  8-N , 15-H ) :   0.8634

MP2 TOTAL ENERGY:     -429.520922049 Eh
FINAL SINGLE POINT ENERGY      -429.520922048712

DIPOLE MOMENT
-------------
                                X             Y             Z
Electronic contribution:      2.67801      -6.16829       3.67192
Nuclear contribution   :     -4.24011       6.95275      -5.02172
                        -----------------------------------------
Total Dipole Moment    :     -1.56210       0.78447      -1.34980
                        -----------------------------------------
Magnitude (a.u.)       :      2.20850
Magnitude (Debye)      :      5.61357

                             ****ORCA TERMINATED NORMALLY****
TOTAL RUN TIME: 0 days 0 hours 15 minutes 51 seconds 422 msec
