                         Program Version 3.0.3 - RELEASE   -
|  1> ! RI-MP2 RIJK def2-TZVP def2-TZVP/C def2-TZVP/JK TIGHTSCF
|  2> % maxcore 2000
|  3> % mp2 density relaxed end
|  4> *xyz 0 1
|  5>  C        0.2179608674     1.3940352576    -0.0900450495
|  6>  C        0.0667906383    -0.0891191739    -0.0821689487
|  7>  N        0.2842452888    -0.9152138010    -1.0918411353
|  8>  C        0.0391595332    -2.1487361873    -0.5574218981
|  9>  C        0.1581178127    -3.3819479222    -1.4033569370
| 10>  O        1.2195724238    -3.2690257825    -2.3291197367
| 11>  N       -0.3172323417    -2.1398276341     0.7142757067
| 12>  N       -0.3009552512    -0.8105727692     0.9980386050
| 13>  H        1.2530407555     1.6845554143     0.1206561761
| 14>  H       -0.0430707465     1.7830937758    -1.0758124021
| 15>  H       -0.4251005035     1.8670564378     0.6572737822
| 16>  H        0.3475858470    -4.2500883851    -0.7656699599
| 17>  H       -0.8015418780    -3.5578671357    -1.9189165382
| 18>  H        1.2270790551    -2.3472761795    -2.6165637984
| 19>  H       -0.5296044609    -0.4950638450     1.9265690040
| 20> *
| 21>
| 22>                          ****END OF INPUT****

CARTESIAN COORDINATES (ANGSTROEM)
---------------------------------
  C      0.217961    1.394035   -0.090045
  C      0.066791   -0.089119   -0.082169
  N      0.284245   -0.915214   -1.091841
  C      0.039160   -2.148736   -0.557422
  C      0.158118   -3.381948   -1.403357
  O      1.219572   -3.269026   -2.329120
  N     -0.317232   -2.139828    0.714276
  N     -0.300955   -0.810573    0.998039
  H      1.253041    1.684555    0.120656
  H     -0.043071    1.783094   -1.075812
  H     -0.425101    1.867056    0.657274
  H      0.347586   -4.250088   -0.765670
  H     -0.801542   -3.557867   -1.918917
  H      1.227079   -2.347276   -2.616564
  H     -0.529604   -0.495064    1.926569

 Total Charge           Charge          ....    0
 Multiplicity           Mult            ....    1
 Number of Electrons    NEL             ....   60
 Basis Dimension        Dim             ....  290

ORBITAL ENERGIES
----------------

  NO   OCC          E(Eh)            E(eV)
   0   2.0000     -20.547484      -559.1255
   1   2.0000     -15.649260      -425.8380
   2   2.0000     -15.591202      -424.2582
   3   2.0000     -15.556387      -423.3108
   4   2.0000     -11.331398      -308.3430
   5   2.0000     -11.292210      -307.2766
   6   2.0000     -11.280390      -306.9550
   7   2.0000     -11.259061      -306.3746
   8   2.0000      -1.414172       -38.4816
   9   2.0000      -1.355773       -36.8925
  10   2.0000      -1.199777       -32.6476
  11   2.0000      -1.136116       -30.9153
  12   2.0000      -1.005784       -27.3688
  13   2.0000      -0.951303       -25.8863
  14   2.0000      -0.842989       -22.9389
  15   2.0000      -0.800785       -21.7905
  16   2.0000      -0.730219       -19.8703
  17   2.0000      -0.677755       -18.4427
  18   2.0000      -0.657078       -17.8800
  19   2.0000      -0.626270       -17.0417
  20   2.0000      -0.612403       -16.6643
  21   2.0000      -0.591537       -16.0965
  22   2.0000      -0.581396       -15.8206
  23   2.0000      -0.568979       -15.4827
  24   2.0000      -0.512008       -13.9325
  25   2.0000      -0.504601       -13.7309
  26   2.0000      -0.451398       -12.2832
  27   2.0000      -0.448761       -12.2114
  28   2.0000      -0.417892       -11.3714
  29   2.0000      -0.364736        -9.9250
  30   0.0000       0.115988         3.1562
  31   0.0000       0.144526         3.9327
  32   0.0000       0.156883         4.2690
  33   0.0000       0.167997         4.5714
  34   0.0000       0.189477         5.1559

MULLIKEN ATOMIC CHARGES
-----------------------
   0 C :   -0.446367
   1 C :    0.220985
   2 N :   -0.371617
   3 C :    0.132820
   4 C :   -0.004451
   5 O :   -0.482072
   6 N :   -0.198749
   7 N :   -0.142448
   8 H :    0.159010
   9 H :    0.169173
  10 H :    0.139541
  11 H :    0.126783
  12 H :    0.103909
  13 H :    0.331160
  14 H :    0.262323
Sum of atomic charges:    0.0000000

LOEWDIN ATOMIC CHARGES
----------------------
   0 C :   -0.269619
   1 C :   -0.349281
   2 N :    0.103945
   3 C :   -0.367629
   4 C :   -0.311802
   5 O :   -0.042990
   6 N :    0.044102
   7 N :    0.144498
   8 H :    0.139455
   9 H :    0.144282
  10 H :    0.132094
  11 H :    0.137092
  12 H :    0.126500
  13 H :    0.177252
  14 H :    0.192101

  Mayer bond orders larger than 0.1
B(  0-C ,  1-C ) :   0.8481 B(  0-C ,  8-H ) :   0.9228 B(  0-C ,  9-H ) :   0.9460
B(  0-C , 10-H ) :   0.9509 B(  1-C ,  2-N ) :   1.5109 B(  1-C ,  7-N ) :   1.2398
B(  2-N ,  3-C ) :   1.2443 B(  3-C ,  4-C ) :   0.9087 B(  3-C ,  6-N ) :   1.6028
B(  4-C ,  5-O ) :   0.9475 B(  4-C , 11-H ) :   0.9375 B(  4-C , 12-H ) :   0.9239
B(  5-O , 13-H ) :   0.8265 B(  6-N ,  7-N ) :   1.0628 B(  7-N , 14-H ) :   0.8626

MP2 TOTAL ENERGY:     -395.366641373 Eh
FINAL SINGLE POINT ENERGY      -395.366641372575

DIPOLE MOMENT
-------------
                                X             Y             Z
Electronic contribution:     -0.24469      -2.89533       1.10757
Nuclear contribution   :     -0.28251       4.42593      -0.09937
                        -----------------------------------------
Total Dipole Moment    :     -0.52720       1.53060       1.00820
                        -----------------------------------------
Magnitude (a.u.)       :      1.90713
Magnitude (Debye)      :      4.84754

                             ****ORCA TERMINATED NORMALLY****
TOTAL RUN TIME: 0 days 0 hours 13 minutes 31 seconds 415 msec
