                         Program Version 3.0.3 - RELEASE   -
|  1> ! RI-MP2 RIJK def2-TZVP def2-TZVP/C def2-TZVP/JK TIGHTSCF
|  2> % maxcore 2000
|  3> % mp2 density relaxed end
|  4> *xyz 0 1
|  5>  C       -0.3841061386     1.5988876974    -0.2257919020
|  6>  C        0.0637993215     0.1418735657    -0.0108492389
|  7>  C        0.8800963328    -0.4043452294    -1.1260088056
|  8>  C        2.1485864317    -0.8501765438    -1.2857417034
|  9>  C        3.2543173708    -0.9546353884    -0.2906729364
| 10>  N        2.3429828615    -1.2542052713    -2.6147474563
| 11>  C        1.2005001826    -1.0229370832    -3.1778147216
| 12>  N        0.8651074259    -1.1713509024    -4.5024797023
| 13>  O        0.2500816999    -0.5130104032    -2.3683585129
| 14>  H        0.4805968822     2.2628956461    -0.3180974912
| 15>  H       -0.9766228645     1.6907890114    -1.1403561084
| 16>  H       -0.9960073636     1.9448235065     0.6130105997
| 17>  H        0.6560545737     0.0655366524     0.9067847292
| 18>  H       -0.8234659393    -0.4877653616     0.1427579577
| 19>  H        3.6030816944    -1.9895664434    -0.2032763389
| 20>  H        4.1152175960    -0.3519759846    -0.6005669694
| 21>  H        2.9380666630    -0.6150247569     0.6988758371
| 22>  H        1.4943003568    -1.7891409257    -4.9937130974
| 23>  H       -0.1090192868    -1.3794407254    -4.6678139391
| 24> *
| 25>
| 26>                          ****END OF INPUT****

CARTESIAN COORDINATES (ANGSTROEM)
---------------------------------
  C     -0.384106    1.598888   -0.225792
  C      0.063799    0.141874   -0.010849
  C      0.880096   -0.404345   -1.126009
  C      2.148586   -0.850177   -1.285742
  C      3.254317   -0.954635   -0.290673
  N      2.342983   -1.254205   -2.614747
  C      1.200500   -1.022937   -3.177815
  N      0.865107   -1.171351   -4.502480
  O      0.250082   -0.513010   -2.368359
  H      0.480597    2.262896   -0.318097
  H     -0.976623    1.690789   -1.140356
  H     -0.996007    1.944824    0.613011
  H      0.656055    0.065537    0.906785
  H     -0.823466   -0.487765    0.142758
  H      3.603082   -1.989566   -0.203276
  H      4.115218   -0.351976   -0.600567
  H      2.938067   -0.615025    0.698876
  H      1.494300   -1.789141   -4.993713
  H     -0.109019   -1.379441   -4.667814

 Total Charge           Charge          ....    0
 Multiplicity           Mult            ....    1
 Number of Electrons    NEL             ....   68
 Basis Dimension        Dim             ....  339

ORBITAL ENERGIES
----------------

  NO   OCC          E(Eh)            E(eV)
   0   2.0000     -20.617523      -561.0313
   1   2.0000     -15.584627      -424.0793
   2   2.0000     -15.532874      -422.6710
   3   2.0000     -11.361553      -309.1636
   4   2.0000     -11.269738      -306.6652
   5   2.0000     -11.251718      -306.1748
   6   2.0000     -11.236594      -305.7633
   7   2.0000     -11.220881      -305.3357
   8   2.0000     -11.216954      -305.2288
   9   2.0000      -1.472593       -40.0713
  10   2.0000      -1.243114       -33.8268
  11   2.0000      -1.201124       -32.6842
  12   2.0000      -1.070266       -29.1234
  13   2.0000      -1.007554       -27.4169
  14   2.0000      -0.935423       -25.4542
  15   2.0000      -0.855695       -23.2846
  16   2.0000      -0.814457       -22.1625
  17   2.0000      -0.772408       -21.0183
  18   2.0000      -0.709467       -19.3056
  19   2.0000      -0.678104       -18.4521
  20   2.0000      -0.662216       -18.0198
  21   2.0000      -0.628888       -17.1129
  22   2.0000      -0.597640       -16.2626
  23   2.0000      -0.594224       -16.1697
  24   2.0000      -0.564911       -15.3720
  25   2.0000      -0.543431       -14.7875
  26   2.0000      -0.536858       -14.6087
  27   2.0000      -0.526053       -14.3146
  28   2.0000      -0.508537       -13.8380
  29   2.0000      -0.497326       -13.5329
  30   2.0000      -0.486126       -13.2282
  31   2.0000      -0.440571       -11.9885
  32   2.0000      -0.420464       -11.4414
  33   2.0000      -0.296177        -8.0594
  34   0.0000       0.129834         3.5330
  35   0.0000       0.143580         3.9070
  36   0.0000       0.161428         4.3927
  37   0.0000       0.184925         5.0321
  38   0.0000       0.186656         5.0792

MULLIKEN ATOMIC CHARGES
-----------------------
   0 C :   -0.377651
   1 C :   -0.215783
   2 C :    0.111545
   3 C :    0.043968
   4 C :   -0.418483
   5 N :   -0.325364
   6 C :    0.353325
   7 N :   -0.509721
   8 O :   -0.249791
   9 H :    0.128006
  10 H :    0.135680
  11 H :    0.130369
  12 H :    0.123454
  13 H :    0.124275
  14 H :    0.144342
  15 H :    0.145738
  16 H :    0.123961
  17 H :    0.269974
  18 H :    0.262157
Sum of atomic charges:   -0.0000000

LOEWDIN ATOMIC CHARGES
----------------------
   0 C :   -0.307768
   1 C :   -0.263055
   2 C :   -0.228471
   3 C :   -0.261808
   4 C :   -0.271276
   5 N :    0.103527
   6 C :   -0.465306
   7 N :   -0.056992
   8 O :    0.337332
   9 H :    0.122896
  10 H :    0.124003
  11 H :    0.120205
  12 H :    0.149511
  13 H :    0.146645
  14 H :    0.133153
  15 H :    0.133494
  16 H :    0.127483
  17 H :    0.181263
  18 H :    0.175164

  Mayer bond orders larger than 0.1
B(  0-C ,  1-C ) :   0.9151 B(  0-C ,  9-H ) :   0.9348 B(  0-C , 10-H ) :   0.9376
B(  0-C , 11-H ) :   0.9361 B(  1-C ,  2-C ) :   0.9038 B(  1-C , 12-H ) :   0.9456
B(  1-C , 13-H ) :   0.9261 B(  2-C ,  3-C ) :   1.6158 B(  2-C ,  8-O ) :   0.9520
B(  3-C ,  4-C ) :   0.8689 B(  3-C ,  5-N ) :   1.1714 B(  4-C , 14-H ) :   0.9376
B(  4-C , 15-H ) :   0.9359 B(  4-C , 16-H ) :   0.9523 B(  5-N ,  6-C ) :   1.6626
B(  6-C ,  7-N ) :   1.0900 B(  6-C ,  8-O ) :   1.1163 B(  7-N , 17-H ) :   0.8681
B(  7-N , 18-H ) :   0.8677

MP2 TOTAL ENERGY:     -418.552343477 Eh
FINAL SINGLE POINT ENERGY      -418.552343477225

DIPOLE MOMENT
-------------
                                X             Y             Z
Electronic contribution:      0.42669      -4.09160      -7.30221
Nuclear contribution   :     -1.08357       3.90029       7.41131
                        -----------------------------------------
Total Dipole Moment    :     -0.65688      -0.19131       0.10911
                        -----------------------------------------
Magnitude (a.u.)       :      0.69282
Magnitude (Debye)      :      1.76100

                             ****ORCA TERMINATED NORMALLY****
TOTAL RUN TIME: 0 days 0 hours 17 minutes 55 seconds 847 msec
