                         Program Version 3.0.3 - RELEASE   -
|  1> ! RI-MP2 RIJK def2-TZVP def2-TZVP/C def2-TZVP/JK TIGHTSCF
|  2> % maxcore 2000
|  3> % mp2 density relaxed end
|  4> *xyz 0 1
|  5>  C        0.0949750387     1.4001816288    -0.0930317719
|  6>  N        0.0545042309    -0.0380841329    -0.0008052614
|  7>  N        0.0201300979    -0.8086784053    -1.1366849228
|  8>  C        0.0303416630    -2.0480011773    -0.6792513121
|  9>  O        0.0007732972    -3.1128373347    -1.5110696707
| 10>  C        0.0780004575    -2.1424379956     0.7307570948
| 11>  C        0.1030920524    -3.3641092908     1.5932742952
| 12>  C        0.0932498591    -0.8095621135     1.1061055410
| 13>  O        0.1473413339    -0.2147354285     2.3201698215
| 14>  H        1.0361334656     1.7380185565    -0.5399432781
| 15>  H       -0.7341965289     1.7568585912    -0.7102754628
| 16>  H        0.0050693443     1.8156972547     0.9111057642
| 17>  H       -0.0059513766    -2.7630618429    -2.4110927984
| 18>  H        0.5467419878    -3.1569892471     2.5755770901
| 19>  H       -0.8948411591    -3.7852080048     1.7690780340
| 20>  H        0.7073042074    -4.1517038516     1.1329908302
| 21>  H        0.0923925789    -0.8985545960     2.9955512072
| 22> *
| 23>
| 24>                          ****END OF INPUT****

CARTESIAN COORDINATES (ANGSTROEM)
---------------------------------
  C      0.094975    1.400182   -0.093032
  N      0.054504   -0.038084   -0.000805
  N      0.020130   -0.808678   -1.136685
  C      0.030342   -2.048001   -0.679251
  O      0.000773   -3.112837   -1.511070
  C      0.078000   -2.142438    0.730757
  C      0.103092   -3.364109    1.593274
  C      0.093250   -0.809562    1.106106
  O      0.147341   -0.214735    2.320170
  H      1.036133    1.738019   -0.539943
  H     -0.734197    1.756859   -0.710275
  H      0.005069    1.815697    0.911106
  H     -0.005951   -2.763062   -2.411093
  H      0.546742   -3.156989    2.575577
  H     -0.894841   -3.785208    1.769078
  H      0.707304   -4.151704    1.132991
  H      0.092393   -0.898555    2.995551

 Total Charge           Charge          ....    0
 Multiplicity           Mult            ....    1
 Number of Electrons    NEL             ....   68
 Basis Dimension        Dim             ....  327

ORBITAL ENERGIES
----------------

  NO   OCC          E(Eh)            E(eV)
   0   2.0000     -20.615914      -560.9875
   1   2.0000     -20.586615      -560.1903
   2   2.0000     -15.621271      -425.0764
   3   2.0000     -15.558585      -423.3706
   4   2.0000     -11.339907      -308.5746
   5   2.0000     -11.312428      -307.8268
   6   2.0000     -11.263907      -306.5065
   7   2.0000     -11.232221      -305.6443
   8   2.0000     -11.215048      -305.1770
   9   2.0000      -1.442616       -39.2556
  10   2.0000      -1.413756       -38.4703
  11   2.0000      -1.345567       -36.6147
  12   2.0000      -1.113359       -30.2960
  13   2.0000      -1.067695       -29.0534
  14   2.0000      -0.975891       -26.5553
  15   2.0000      -0.909832       -24.7578
  16   2.0000      -0.819316       -22.2947
  17   2.0000      -0.808777       -22.0079
  18   2.0000      -0.734946       -19.9989
  19   2.0000      -0.689165       -18.7531
  20   2.0000      -0.668812       -18.1993
  21   2.0000      -0.659090       -17.9348
  22   2.0000      -0.599076       -16.3017
  23   2.0000      -0.594080       -16.1657
  24   2.0000      -0.590860       -16.0781
  25   2.0000      -0.585603       -15.9351
  26   2.0000      -0.565255       -15.3814
  27   2.0000      -0.562334       -15.3019
  28   2.0000      -0.539539       -14.6816
  29   2.0000      -0.531863       -14.4727
  30   2.0000      -0.503661       -13.7053
  31   2.0000      -0.451492       -12.2857
  32   2.0000      -0.327682        -8.9167
  33   2.0000      -0.321772        -8.7559
  34   0.0000       0.117747         3.2041
  35   0.0000       0.157195         4.2775
  36   0.0000       0.159950         4.3525
  37   0.0000       0.177067         4.8182
  38   0.0000       0.181897         4.9497

MULLIKEN ATOMIC CHARGES
-----------------------
   0 C :   -0.318479
   1 N :    0.071692
   2 N :   -0.285578
   3 C :    0.182655
   4 O :   -0.438394
   5 C :   -0.113315
   6 C :   -0.410461
   7 C :    0.191609
   8 O :   -0.438430
   9 H :    0.144829
  10 H :    0.151179
  11 H :    0.162914
  12 H :    0.336734
  13 H :    0.108219
  14 H :    0.150923
  15 H :    0.160548
  16 H :    0.343354
Sum of atomic charges:   -0.0000000

LOEWDIN ATOMIC CHARGES
----------------------
   0 C :   -0.279907
   1 N :    0.178411
   2 N :    0.024600
   3 C :   -0.409080
   4 O :    0.068238
   5 C :   -0.208009
   6 C :   -0.278780
   7 C :   -0.340475
   8 O :    0.075689
   9 H :    0.122578
  10 H :    0.125175
  11 H :    0.131557
  12 H :    0.197599
  13 H :    0.122360
  14 H :    0.130204
  15 H :    0.139125
  16 H :    0.200717

  Mayer bond orders larger than 0.1
B(  0-C ,  1-N ) :   0.8745 B(  0-C ,  9-H ) :   0.9291 B(  0-C , 10-H ) :   0.9311
B(  0-C , 11-H ) :   0.9268 B(  1-N ,  2-N ) :   0.9377 B(  1-N ,  7-C ) :   1.2578
B(  2-N ,  3-C ) :   1.5566 B(  3-C ,  4-O ) :   1.1178 B(  3-C ,  5-C ) :   1.2789
B(  4-O , 12-H ) :   0.8213 B(  5-C ,  6-C ) :   0.8629 B(  5-C ,  7-C ) :   1.3755
B(  6-C , 13-H ) :   0.9396 B(  6-C , 14-H ) :   0.9350 B(  6-C , 15-H ) :   0.9402
B(  7-C ,  8-O ) :   1.0967 B(  8-O , 16-H ) :   0.8236

MP2 TOTAL ENERGY:     -454.436437761 Eh
FINAL SINGLE POINT ENERGY      -454.436437760946

DIPOLE MOMENT
-------------
                                X             Y             Z
Electronic contribution:     -0.17882      -0.11485      -2.59963
Nuclear contribution   :      0.18021       0.40565       3.33105
                        -----------------------------------------
Total Dipole Moment    :      0.00140       0.29079       0.73142
                        -----------------------------------------
Magnitude (a.u.)       :      0.78711
Magnitude (Debye)      :      2.00066

                             ****ORCA TERMINATED NORMALLY****
TOTAL RUN TIME: 0 days 0 hours 17 minutes 23 seconds 618 msec
