                         Program Version 3.0.3 - RELEASE   -
|  1> ! RI-MP2 RIJK def2-TZVP def2-TZVP/C def2-TZVP/JK TIGHTSCF
|  2> % maxcore 2000
|  3> % mp2 density relaxed end
|  4> *xyz 0 1
|  5>  C        0.0747290777     1.5992918501     0.1041843364
|  6>  C        0.1666355064     0.0940737804    -0.0029466202
|  7>  C        1.4596085106    -0.6917834668    -0.1876789673
|  8>  C        2.5473681114    -0.0970689451     0.7094818381
|  9>  O        1.6712566133    -0.1458381459     1.8628319026
| 10>  C        0.6456802373    -0.8089212441     1.0940002837
| 11>  C       -0.1094749928    -1.9042125790     1.7718727154
| 12>  C        3.7223936562    -1.0387559537     0.8903508898
| 13>  O        4.7589929869    -0.9363270390     0.2893514118
| 14>  H        0.7902239515     1.9845766616     0.8340095830
| 15>  H        0.2664290518     2.0806145526    -0.8603779220
| 16>  H       -0.9251912593     1.8985380457     0.4351090655
| 17>  H       -0.6334274199    -0.3699208428    -0.5784119438
| 18>  H        1.6285074260    -1.3870179513    -0.9994673832
| 19>  H        2.9077870875     0.9115989578     0.4804641749
| 20>  H       -0.7048842043    -1.5019446589     2.5993580571
| 21>  H       -0.7931923302    -2.3876674512     1.0684739610
| 22>  H        0.5687227170    -2.6606948479     2.1786826132
| 23>  H        3.5307071430    -1.8543557426     1.6233478238
| 24> *
| 25>
| 26>                          ****END OF INPUT****

CARTESIAN COORDINATES (ANGSTROEM)
---------------------------------
  C      0.074729    1.599292    0.104184
  C      0.166636    0.094074   -0.002947
  C      1.459609   -0.691783   -0.187679
  C      2.547368   -0.097069    0.709482
  O      1.671257   -0.145838    1.862832
  C      0.645680   -0.808921    1.094000
  C     -0.109475   -1.904213    1.771873
  C      3.722394   -1.038756    0.890351
  O      4.758993   -0.936327    0.289351
  H      0.790224    1.984577    0.834010
  H      0.266429    2.080615   -0.860378
  H     -0.925191    1.898538    0.435109
  H     -0.633427   -0.369921   -0.578412
  H      1.628507   -1.387018   -0.999467
  H      2.907787    0.911599    0.480464
  H     -0.704884   -1.501945    2.599358
  H     -0.793192   -2.387667    1.068474
  H      0.568723   -2.660695    2.178683
  H      3.530707   -1.854356    1.623348

 Total Charge           Charge          ....    0
 Multiplicity           Mult            ....    1
 Number of Electrons    NEL             ....   68
 Basis Dimension        Dim             ....  339

ORBITAL ENERGIES
----------------

  NO   OCC          E(Eh)            E(eV)
   0   2.0000     -20.571236      -559.7718
   1   2.0000     -20.564825      -559.5973
   2   2.0000     -11.335212      -308.4468
   3   2.0000     -11.306890      -307.6761
   4   2.0000     -11.304415      -307.6088
   5   2.0000     -11.252073      -306.1845
   6   2.0000     -11.251294      -306.1633
   7   2.0000     -11.236761      -305.7678
   8   2.0000     -11.224532      -305.4350
   9   2.0000      -1.415308       -38.5125
  10   2.0000      -1.399069       -38.0706
  11   2.0000      -1.140300       -31.0291
  12   2.0000      -1.026558       -27.9341
  13   2.0000      -0.994697       -27.0671
  14   2.0000      -0.948011       -25.7967
  15   2.0000      -0.821282       -22.3482
  16   2.0000      -0.789014       -21.4702
  17   2.0000      -0.751583       -20.4516
  18   2.0000      -0.701008       -19.0754
  19   2.0000      -0.677287       -18.4299
  20   2.0000      -0.646530       -17.5930
  21   2.0000      -0.634577       -17.2677
  22   2.0000      -0.610119       -16.6022
  23   2.0000      -0.595307       -16.1991
  24   2.0000      -0.570621       -15.5274
  25   2.0000      -0.563431       -15.3317
  26   2.0000      -0.549940       -14.9646
  27   2.0000      -0.538458       -14.6522
  28   2.0000      -0.517295       -14.0763
  29   2.0000      -0.506974       -13.7955
  30   2.0000      -0.474563       -12.9135
  31   2.0000      -0.444156       -12.0861
  32   2.0000      -0.403219       -10.9721
  33   2.0000      -0.384238       -10.4557
  34   0.0000       0.120972         3.2918
  35   0.0000       0.129633         3.5275
  36   0.0000       0.147393         4.0108
  37   0.0000       0.164417         4.4740
  38   0.0000       0.180902         4.9226

MULLIKEN ATOMIC CHARGES
-----------------------
   0 C :   -0.412832
   1 C :   -0.108049
   2 C :   -0.204716
   3 C :    0.184880
   4 O :   -0.353735
   5 C :    0.177822
   6 C :   -0.388621
   7 C :    0.020759
   8 O :   -0.254546
   9 H :    0.155601
  10 H :    0.136074
  11 H :    0.135773
  12 H :    0.121440
  13 H :    0.151272
  14 H :    0.125740
  15 H :    0.147059
  16 H :    0.134077
  17 H :    0.136150
  18 H :    0.095849
Sum of atomic charges:   -0.0000000

LOEWDIN ATOMIC CHARGES
----------------------
   0 C :   -0.289028
   1 C :   -0.195882
   2 C :   -0.140261
   3 C :   -0.255200
   4 O :    0.193258
   5 C :   -0.279871
   6 C :   -0.266955
   7 C :   -0.266857
   8 O :    0.144318
   9 H :    0.133151
  10 H :    0.127339
  11 H :    0.128284
  12 H :    0.161721
  13 H :    0.142509
  14 H :    0.144960
  15 H :    0.136626
  16 H :    0.135560
  17 H :    0.130230
  18 H :    0.116098

  Mayer bond orders larger than 0.1
B(  0-C ,  1-C ) :   0.8995 B(  0-C ,  9-H ) :   0.9325 B(  0-C , 10-H ) :   0.9358
B(  0-C , 11-H ) :   0.9364 B(  1-C ,  2-C ) :   0.8509 B(  1-C ,  5-C ) :   0.8923
B(  1-C , 12-H ) :   0.9264 B(  2-C ,  3-C ) :   0.8976 B(  2-C ,  5-C ) :   0.8573
B(  2-C , 13-H ) :   0.9125 B(  3-C ,  4-O ) :   0.8602 B(  3-C ,  7-C ) :   0.8166
B(  3-C , 14-H ) :   0.8974 B(  4-O ,  5-C ) :   0.9124 B(  5-C ,  6-C ) :   0.8875
B(  6-C , 15-H ) :   0.9361 B(  6-C , 16-H ) :   0.9343 B(  6-C , 17-H ) :   0.9310
B(  7-C ,  8-O ) :   2.0065 B(  7-C , 18-H ) :   0.9497

MP2 TOTAL ENERGY:     -422.285020506 Eh
FINAL SINGLE POINT ENERGY      -422.285020506339

DIPOLE MOMENT
-------------
                                X             Y             Z
Electronic contribution:      8.25968      -1.23635       0.42392
Nuclear contribution   :     -9.47580       0.99099      -0.60887
                        -----------------------------------------
Total Dipole Moment    :     -1.21612      -0.24536      -0.18496
                        -----------------------------------------
Magnitude (a.u.)       :      1.25434
Magnitude (Debye)      :      3.18828

                             ****ORCA TERMINATED NORMALLY****
TOTAL RUN TIME: 0 days 0 hours 17 minutes 48 seconds 950 msec
