                         Program Version 3.0.3 - RELEASE   -
|  1> ! RI-MP2 RIJK def2-TZVP def2-TZVP/C def2-TZVP/JK TIGHTSCF
|  2> % maxcore 2000
|  3> % mp2 density relaxed end
|  4> *xyz 0 1
|  5>  O       -0.5265398987     0.6543485510    -0.6002666517
|  6>  C        0.2133885297     0.9349971301     0.3060668202
|  7>  C        1.3967618945     1.8726316845     0.1883726657
|  8>  C        1.5003773723     2.6698910823    -1.1590098645
|  9>  N        1.2372819327     3.8907146207    -0.3563776745
| 10>  C        1.0951068782     5.2227129882    -0.1283190053
| 11>  N        0.9266478294     5.4300791398     1.1673120846
| 12>  C        0.9733321504     4.2044337970     1.8004217439
| 13>  C        1.1709281402     3.2419425449     0.8423058846
| 14>  H        0.0595759574     0.5264539045     1.3290181280
| 15>  H        2.3101976988     1.3553621111     0.5021178751
| 16>  H        2.4838973741     2.6658565190    -1.6321030890
| 17>  H        0.7164503685     2.4338954148    -1.8792017732
| 18>  H        1.1119165254     5.9809494502    -0.8948273360
| 19>  H        0.8631250772     4.1201973420     2.8694092922
| 20> *
| 21>
| 22>                          ****END OF INPUT****

CARTESIAN COORDINATES (ANGSTROEM)
---------------------------------
  O     -0.526540    0.654349   -0.600267
  C      0.213389    0.934997    0.306067
  C      1.396762    1.872632    0.188373
  C      1.500377    2.669891   -1.159010
  N      1.237282    3.890715   -0.356378
  C      1.095107    5.222713   -0.128319
  N      0.926648    5.430079    1.167312
  C      0.973332    4.204434    1.800422
  C      1.170928    3.241943    0.842306
  H      0.059576    0.526454    1.329018
  H      2.310198    1.355362    0.502118
  H      2.483897    2.665857   -1.632103
  H      0.716450    2.433895   -1.879202
  H      1.111917    5.980949   -0.894827
  H      0.863125    4.120197    2.869409

 Total Charge           Charge          ....    0
 Multiplicity           Mult            ....    1
 Number of Electrons    NEL             ....   64
 Basis Dimension        Dim             ....  315

ORBITAL ENERGIES
----------------

  NO   OCC          E(Eh)            E(eV)
   0   2.0000     -20.576525      -559.9157
   1   2.0000     -15.616511      -424.9469
   2   2.0000     -15.548473      -423.0955
   3   2.0000     -11.352805      -308.9255
   4   2.0000     -11.310401      -307.7717
   5   2.0000     -11.298779      -307.4554
   6   2.0000     -11.290627      -307.2336
   7   2.0000     -11.272012      -306.7270
   8   2.0000     -11.251859      -306.1786
   9   2.0000      -1.416739       -38.5514
  10   2.0000      -1.364189       -37.1215
  11   2.0000      -1.208818       -32.8936
  12   2.0000      -1.066061       -29.0090
  13   2.0000      -0.990082       -26.9415
  14   2.0000      -0.945943       -25.7404
  15   2.0000      -0.836128       -22.7522
  16   2.0000      -0.797531       -21.7019
  17   2.0000      -0.742933       -20.2162
  18   2.0000      -0.729464       -19.8497
  19   2.0000      -0.718066       -19.5396
  20   2.0000      -0.669307       -18.2128
  21   2.0000      -0.612321       -16.6621
  22   2.0000      -0.591014       -16.0823
  23   2.0000      -0.583095       -15.8668
  24   2.0000      -0.577384       -15.7114
  25   2.0000      -0.563356       -15.3297
  26   2.0000      -0.531244       -14.4559
  27   2.0000      -0.519095       -14.1253
  28   2.0000      -0.447103       -12.1663
  29   2.0000      -0.431493       -11.7415
  30   2.0000      -0.387601       -10.5472
  31   2.0000      -0.322054        -8.7635
  32   0.0000       0.115941         3.1549
  33   0.0000       0.129147         3.5143
  34   0.0000       0.145685         3.9643
  35   0.0000       0.159065         4.3284
  36   0.0000       0.168002         4.5716

MULLIKEN ATOMIC CHARGES
-----------------------
   0 O :   -0.263938
   1 C :    0.090362
   2 C :    0.040068
   3 C :   -0.196923
   4 N :   -0.064496
   5 C :    0.010232
   6 N :   -0.280426
   7 C :   -0.145943
   8 C :   -0.027867
   9 H :    0.092525
  10 H :    0.145048
  11 H :    0.142995
  12 H :    0.167919
  13 H :    0.152363
  14 H :    0.138079
Sum of atomic charges:    0.0000000

LOEWDIN ATOMIC CHARGES
----------------------
   0 O :    0.144809
   1 C :   -0.266018
   2 C :   -0.192409
   3 C :   -0.152261
   4 N :    0.285597
   5 C :   -0.305122
   6 N :    0.091705
   7 C :   -0.244215
   8 C :   -0.181149
   9 H :    0.119190
  10 H :    0.161948
  11 H :    0.133849
  12 H :    0.140158
  13 H :    0.131460
  14 H :    0.132457

  Mayer bond orders larger than 0.1
B(  0-O ,  1-C ) :   1.9867 B(  1-C ,  2-C ) :   0.8459 B(  1-C ,  9-H ) :   0.9356
B(  2-C ,  3-C ) :   0.9113 B(  2-C ,  8-C ) :   0.8722 B(  2-C , 10-H ) :   0.8849
B(  3-C ,  4-N ) :   0.8577 B(  3-C , 11-H ) :   0.9152 B(  3-C , 12-H ) :   0.9054
B(  4-N ,  5-C ) :   1.1502 B(  4-N ,  8-C ) :   1.1139 B(  5-C ,  6-N ) :   1.5114
B(  5-C , 13-H ) :   0.9229 B(  6-N ,  7-C ) :   1.3126 B(  7-C ,  8-C ) :   1.4452
B(  7-C , 14-H ) :   0.9437

MP2 TOTAL ENERGY:     -416.095794137 Eh
FINAL SINGLE POINT ENERGY      -416.095794137183

DIPOLE MOMENT
-------------
                                X             Y             Z
Electronic contribution:     -1.27604       0.44550       0.41319
Nuclear contribution   :      2.18580      -1.33180      -0.85199
                        -----------------------------------------
Total Dipole Moment    :      0.90976      -0.88630      -0.43880
                        -----------------------------------------
Magnitude (a.u.)       :      1.34377
Magnitude (Debye)      :      3.41560

                             ****ORCA TERMINATED NORMALLY****
TOTAL RUN TIME: 0 days 0 hours 15 minutes 3 seconds 300 msec
