                         Program Version 3.0.3 - RELEASE   -
|  1> ! RI-MP2 RIJK def2-TZVP def2-TZVP/C def2-TZVP/JK TIGHTSCF
|  2> % maxcore 2000
|  3> % mp2 density relaxed end
|  4> *xyz 0 1
|  5>  C       -0.0590576027     1.3710366858    -0.1020290034
|  6>  O        0.0454161422    -0.0425744975    -0.0107326608
|  7>  C        0.6667445164    -0.5058450156     1.1246031175
|  8>  C        0.1438735652    -1.6937088784     1.8473905127
|  9>  C        0.3443508921    -0.3811157384     2.6005406327
| 10>  N        1.7458361244     0.0882532469     2.9395325454
| 11>  C        2.8030254536    -0.8929696920     2.5817728122
| 12>  C        2.8546660825    -2.3770861880     2.9261830658
| 13>  C        2.1239637089    -0.1402335986     1.4935283550
| 14>  H        0.9216661371     1.8522757095    -0.2098530241
| 15>  H       -0.6539994684     1.5832914120    -0.9928483857
| 16>  H       -0.5598817745     1.7899647779     0.7804890456
| 17>  H       -0.9122268307    -1.8471386878     1.6389207513
| 18>  H        0.6927318267    -2.6092609334     2.0066430453
| 19>  H       -0.4654037499     0.0873359150     3.1442474562
| 20>  H        3.7527425756    -0.4077933303     2.8109027250
| 21>  H        2.0704905768    -2.6610349415     3.6312020216
| 22>  H        2.7770610771    -3.0180086300     2.0437463382
| 23>  H        3.8130036548    -2.5968006669     3.4047732778
| 24>  H        2.6515308227     0.6352643915     0.9439797316
| 25> *
| 26>
| 27>                          ****END OF INPUT****

CARTESIAN COORDINATES (ANGSTROEM)
---------------------------------
  C     -0.059058    1.371037   -0.102029
  O      0.045416   -0.042574   -0.010733
  C      0.666745   -0.505845    1.124603
  C      0.143874   -1.693709    1.847391
  C      0.344351   -0.381116    2.600541
  N      1.745836    0.088253    2.939533
  C      2.803025   -0.892970    2.581773
  C      2.854666   -2.377086    2.926183
  C      2.123964   -0.140234    1.493528
  H      0.921666    1.852276   -0.209853
  H     -0.653999    1.583291   -0.992848
  H     -0.559882    1.789965    0.780489
  H     -0.912227   -1.847139    1.638921
  H      0.692732   -2.609261    2.006643
  H     -0.465404    0.087336    3.144247
  H      3.752743   -0.407793    2.810903
  H      2.070491   -2.661035    3.631202
  H      2.777061   -3.018009    2.043746
  H      3.813004   -2.596801    3.404773
  H      2.651531    0.635264    0.943980

 Total Charge           Charge          ....    0
 Multiplicity           Mult            ....    1
 Number of Electrons    NEL             ....   68
 Basis Dimension        Dim             ....  345

ORBITAL ENERGIES
----------------

  NO   OCC          E(Eh)            E(eV)
   0   2.0000     -20.569572      -559.7265
   1   2.0000     -15.558718      -423.3742
   2   2.0000     -11.294378      -307.3357
   3   2.0000     -11.274990      -306.8081
   4   2.0000     -11.271144      -306.7034
   5   2.0000     -11.263317      -306.4904
   6   2.0000     -11.260863      -306.4237
   7   2.0000     -11.232105      -305.6411
   8   2.0000     -11.226858      -305.4983
   9   2.0000      -1.393776       -37.9266
  10   2.0000      -1.290690       -35.1215
  11   2.0000      -1.109301       -30.1856
  12   2.0000      -0.998847       -27.1800
  13   2.0000      -0.946812       -25.7641
  14   2.0000      -0.895606       -24.3707
  15   2.0000      -0.858080       -23.3495
  16   2.0000      -0.764006       -20.7897
  17   2.0000      -0.735732       -20.0203
  18   2.0000      -0.710291       -19.3280
  19   2.0000      -0.662950       -18.0398
  20   2.0000      -0.633607       -17.2413
  21   2.0000      -0.629623       -17.1329
  22   2.0000      -0.606550       -16.5051
  23   2.0000      -0.581180       -15.8147
  24   2.0000      -0.564747       -15.3675
  25   2.0000      -0.547818       -14.9069
  26   2.0000      -0.533962       -14.5298
  27   2.0000      -0.506686       -13.7876
  28   2.0000      -0.494690       -13.4612
  29   2.0000      -0.473044       -12.8722
  30   2.0000      -0.456939       -12.4339
  31   2.0000      -0.430521       -11.7151
  32   2.0000      -0.366660        -9.9773
  33   2.0000      -0.334021        -9.0892
  34   0.0000       0.143824         3.9137
  35   0.0000       0.150673         4.1000
  36   0.0000       0.168376         4.5817
  37   0.0000       0.176690         4.8080
  38   0.0000       0.184276         5.0144

MULLIKEN ATOMIC CHARGES
-----------------------
   0 C :   -0.206033
   1 O :   -0.306371
   2 C :    0.146531
   3 C :   -0.225768
   4 C :   -0.133749
   5 N :   -0.234438
   6 C :   -0.022000
   7 C :   -0.425606
   8 C :   -0.082896
   9 H :    0.116587
  10 H :    0.143165
  11 H :    0.123556
  12 H :    0.126675
  13 H :    0.147538
  14 H :    0.143343
  15 H :    0.110554
  16 H :    0.157309
  17 H :    0.146839
  18 H :    0.145257
  19 H :    0.129506
Sum of atomic charges:    0.0000000

LOEWDIN ATOMIC CHARGES
----------------------
   0 C :   -0.330461
   1 O :    0.200931
   2 C :   -0.322812
   3 C :   -0.183327
   4 C :   -0.194702
   5 N :    0.129865
   6 C :   -0.252201
   7 C :   -0.303137
   8 C :   -0.165666
   9 H :    0.103886
  10 H :    0.114112
  11 H :    0.107160
  12 H :    0.152595
  13 H :    0.129678
  14 H :    0.134844
  15 H :    0.156022
  16 H :    0.131370
  17 H :    0.127411
  18 H :    0.127756
  19 H :    0.136676

  Mayer bond orders larger than 0.1
B(  0-C ,  1-O ) :   0.8812 B(  0-C ,  9-H ) :   0.9333 B(  0-C , 10-H ) :   0.9394
B(  0-C , 11-H ) :   0.9329 B(  1-O ,  2-C ) :   1.0259 B(  2-C ,  3-C ) :   0.8958
B(  2-C ,  4-C ) :   0.8933 B(  2-C ,  8-C ) :   0.9197 B(  3-C ,  4-C ) :   0.8704
B(  3-C , 12-H ) :   0.9165 B(  3-C , 13-H ) :   0.9087 B(  4-C ,  5-N ) :   0.9071
B(  4-C , 14-H ) :   0.9165 B(  5-N ,  6-C ) :   0.9201 B(  5-N ,  8-C ) :   0.8441
B(  6-C ,  7-C ) :   0.8515 B(  6-C ,  8-C ) :   0.9734 B(  6-C , 15-H ) :   0.9257
B(  7-C , 16-H ) :   0.9426 B(  7-C , 17-H ) :   0.9322 B(  7-C , 18-H ) :   0.9348
B(  8-C , 19-H ) :   0.8867

MP2 TOTAL ENERGY:     -402.335475040 Eh
FINAL SINGLE POINT ENERGY      -402.335475039706

DIPOLE MOMENT
-------------
                                X             Y             Z
Electronic contribution:     -1.09441       1.52079      -0.79120
Nuclear contribution   :      1.16537      -1.61044       0.67006
                        -----------------------------------------
Total Dipole Moment    :      0.07096      -0.08965      -0.12113
                        -----------------------------------------
Magnitude (a.u.)       :      0.16657
Magnitude (Debye)      :      0.42339

                             ****ORCA TERMINATED NORMALLY****
TOTAL RUN TIME: 0 days 0 hours 19 minutes 42 seconds 905 msec
