                         Program Version 3.0.3 - RELEASE   -
|  1> ! RI-MP2 RIJK def2-TZVP def2-TZVP/C def2-TZVP/JK TIGHTSCF
|  2> % maxcore 2000
|  3> % mp2 density relaxed end
|  4> *xyz 0 1
|  5>  C        0.3543039598     1.3707745938     0.0716710627
|  6>  N        0.0564562250    -0.0434558602    -0.0004504695
|  7>  C       -0.7189414339    -0.6480886054    -0.9571279790
|  8>  C       -0.6780899344    -2.0071960864    -0.7520497203
|  9>  C        0.1615163642    -2.2418415119     0.3754242532
| 10>  C        0.4829945709    -3.5888551189     0.9761850853
| 11>  C        1.3919676424    -3.5348581549     2.1172683981
| 12>  C        2.1394858781    -3.4893940580     3.0574261003
| 13>  C        0.5990499480    -1.0113684582     0.8093497846
| 14>  H        1.2615356355     1.6274495765    -0.4882355027
| 15>  H       -0.4816155194     1.9424173075    -0.3384839748
| 16>  H        0.4936332920     1.6664549006     1.1145311289
| 17>  H       -1.2323732969    -0.0581067298    -1.7002785238
| 18>  H       -1.2038631462    -2.7514504191    -1.3317004009
| 19>  H       -0.4445856996    -4.0897454792     1.2882477513
| 20>  H        0.9192674167    -4.2432975162     0.2082427028
| 21>  H        2.7998186141    -3.4598627703     3.8880889357
| 22>  H        1.2504231335    -0.7530501699     1.6284174180
| 23> *
| 24>
| 25>                          ****END OF INPUT****

CARTESIAN COORDINATES (ANGSTROEM)
---------------------------------
  C      0.354304    1.370775    0.071671
  N      0.056456   -0.043456   -0.000450
  C     -0.718941   -0.648089   -0.957128
  C     -0.678090   -2.007196   -0.752050
  C      0.161516   -2.241842    0.375424
  C      0.482995   -3.588855    0.976185
  C      1.391968   -3.534858    2.117268
  C      2.139486   -3.489394    3.057426
  C      0.599050   -1.011368    0.809350
  H      1.261536    1.627450   -0.488236
  H     -0.481616    1.942417   -0.338484
  H      0.493633    1.666455    1.114531
  H     -1.232373   -0.058107   -1.700279
  H     -1.203863   -2.751450   -1.331700
  H     -0.444586   -4.089745    1.288248
  H      0.919267   -4.243298    0.208243
  H      2.799819   -3.459863    3.888089
  H      1.250423   -0.753050    1.628417

 Total Charge           Charge          ....    0
 Multiplicity           Mult            ....    1
 Number of Electrons    NEL             ....   64
 Basis Dimension        Dim             ....  333

ORBITAL ENERGIES
----------------

  NO   OCC          E(Eh)            E(eV)
   0   2.0000     -15.602509      -424.5658
   1   2.0000     -11.272318      -306.7354
   2   2.0000     -11.252260      -306.1896
   3   2.0000     -11.248968      -306.1000
   4   2.0000     -11.242139      -305.9141
   5   2.0000     -11.230068      -305.5857
   6   2.0000     -11.218188      -305.2624
   7   2.0000     -11.214531      -305.1629
   8   2.0000     -11.206206      -304.9364
   9   2.0000      -1.298783       -35.3417
  10   2.0000      -1.098430       -29.8898
  11   2.0000      -1.046995       -28.4902
  12   2.0000      -0.984138       -26.7797
  13   2.0000      -0.959837       -26.1185
  14   2.0000      -0.910026       -24.7631
  15   2.0000      -0.767085       -20.8735
  16   2.0000      -0.755794       -20.5662
  17   2.0000      -0.715882       -19.4801
  18   2.0000      -0.694686       -18.9034
  19   2.0000      -0.634513       -17.2660
  20   2.0000      -0.624618       -16.9967
  21   2.0000      -0.600609       -16.3434
  22   2.0000      -0.596590       -16.2341
  23   2.0000      -0.566326       -15.4105
  24   2.0000      -0.563577       -15.3357
  25   2.0000      -0.531436       -14.4611
  26   2.0000      -0.517608       -14.0848
  27   2.0000      -0.516456       -14.0535
  28   2.0000      -0.383910       -10.4467
  29   2.0000      -0.383202       -10.4274
  30   2.0000      -0.328742        -8.9455
  31   2.0000      -0.295184        -8.0324
  32   0.0000       0.138529         3.7696
  33   0.0000       0.150206         4.0873
  34   0.0000       0.155603         4.2342
  35   0.0000       0.169613         4.6154
  36   0.0000       0.176837         4.8120

MULLIKEN ATOMIC CHARGES
-----------------------
   0 C :   -0.323076
   1 N :    0.002167
   2 C :   -0.114777
   3 C :   -0.261652
   4 C :    0.046050
   5 C :   -0.362075
   6 C :   -0.014752
   7 C :   -0.150658
   8 C :   -0.175040
   9 H :    0.149775
  10 H :    0.147931
  11 H :    0.150573
  12 H :    0.142508
  13 H :    0.123715
  14 H :    0.148194
  15 H :    0.149612
  16 H :    0.186324
  17 H :    0.155179
Sum of atomic charges:   -0.0000000

LOEWDIN ATOMIC CHARGES
----------------------
   0 C :   -0.273081
   1 N :    0.226996
   2 C :   -0.223223
   3 C :   -0.176563
   4 C :   -0.182472
   5 C :   -0.209760
   6 C :   -0.098891
   7 C :   -0.113956
   8 C :   -0.191838
   9 H :    0.121226
  10 H :    0.126183
  11 H :    0.126442
  12 H :    0.133466
  13 H :    0.139515
  14 H :    0.164713
  15 H :    0.164874
  16 H :    0.124997
  17 H :    0.141371

  Mayer bond orders larger than 0.1
B(  0-C ,  1-N ) :   0.8682 B(  0-C ,  9-H ) :   0.9260 B(  0-C , 10-H ) :   0.9343
B(  0-C , 11-H ) :   0.9337 B(  1-N ,  2-C ) :   1.1393 B(  1-N ,  8-C ) :   1.1455
B(  2-C ,  3-C ) :   1.4678 B(  2-C , 12-H ) :   0.9141 B(  3-C ,  4-C ) :   1.2377
B(  3-C , 13-H ) :   0.9336 B(  4-C ,  5-C ) :   0.9256 B(  4-C ,  8-C ) :   1.4794
B(  5-C ,  6-C ) :   1.1430 B(  5-C ,  7-C ) :  -0.1081 B(  5-C , 14-H ) :   0.9120
B(  5-C , 15-H ) :   0.9194 B(  6-C ,  7-C ) :   2.6061 B(  7-C , 16-H ) :   0.9024
B(  8-C , 17-H ) :   0.8932

MP2 TOTAL ENERGY:     -364.135626948 Eh
FINAL SINGLE POINT ENERGY      -364.135626948005

DIPOLE MOMENT
-------------
                                X             Y             Z
Electronic contribution:      0.31091      -3.31283       1.01580
Nuclear contribution   :     -0.32007       4.17491      -1.15224
                        -----------------------------------------
Total Dipole Moment    :     -0.00916       0.86208      -0.13644
                        -----------------------------------------
Magnitude (a.u.)       :      0.87286
Magnitude (Debye)      :      2.21863

                             ****ORCA TERMINATED NORMALLY****
TOTAL RUN TIME: 0 days 0 hours 15 minutes 58 seconds 286 msec
