                         Program Version 3.0.3 - RELEASE   -
|  1> ! RI-MP2 RIJK def2-TZVP def2-TZVP/C def2-TZVP/JK TIGHTSCF
|  2> % maxcore 2000
|  3> % mp2 density relaxed end
|  4> *xyz 0 1
|  5>  C        0.0360879208     1.5344976410     0.1533355423
|  6>  C       -0.0181532274     0.0151849117    -0.0278239672
|  7>  O        0.7804622629    -0.6534668753     0.9433332311
|  8>  C       -1.4375616188    -0.5029867971    -0.0364688678
|  9>  C       -2.2011677031    -0.9538933822     1.1811733649
| 10>  C       -1.9386512947    -1.9343977228     0.0619924533
| 11>  C       -2.8541333635    -1.6830862394    -1.1702616135
| 12>  N       -3.7882800557    -0.5683187163    -0.8617569636
| 13>  C       -2.3852450052    -0.2890006618    -1.2639599284
| 14>  H        1.0720091546     1.8844189712     0.1314374854
| 15>  H       -0.5216526213     2.0484198864    -0.6361866040
| 16>  H       -0.4120877888     1.8216608343     1.1123406900
| 17>  H        0.4496451819    -0.2418708903    -0.9883147506
| 18>  H        0.5397345151    -0.3007748680     1.8068652444
| 19>  H       -1.5859599527    -1.1337427383     2.0572679798
| 20>  H       -3.2021047145    -0.5926108945     1.3783348055
| 21>  H       -1.3501875148    -2.8315358172     0.2006105502
| 22>  H       -3.0772722801    -2.4006294819    -1.9489364091
| 23>  H       -4.3652900994    -0.4288049992    -1.6910917585
| 24>  H       -2.1587131553     0.3218968897    -2.1289688542
| 25> *
| 26>
| 27>                          ****END OF INPUT****

CARTESIAN COORDINATES (ANGSTROEM)
---------------------------------
  C      0.036088    1.534498    0.153336
  C     -0.018153    0.015185   -0.027824
  O      0.780462   -0.653467    0.943333
  C     -1.437562   -0.502987   -0.036469
  C     -2.201168   -0.953893    1.181173
  C     -1.938651   -1.934398    0.061992
  C     -2.854133   -1.683086   -1.170262
  N     -3.788280   -0.568319   -0.861757
  C     -2.385245   -0.289001   -1.263960
  H      1.072009    1.884419    0.131437
  H     -0.521653    2.048420   -0.636187
  H     -0.412088    1.821661    1.112341
  H      0.449645   -0.241871   -0.988315
  H      0.539735   -0.300775    1.806865
  H     -1.585960   -1.133743    2.057268
  H     -3.202105   -0.592611    1.378335
  H     -1.350188   -2.831536    0.200611
  H     -3.077272   -2.400629   -1.948936
  H     -4.365290   -0.428805   -1.691092
  H     -2.158713    0.321897   -2.128969

 Total Charge           Charge          ....    0
 Multiplicity           Mult            ....    1
 Number of Electrons    NEL             ....   68
 Basis Dimension        Dim             ....  345

ORBITAL ENERGIES
----------------

  NO   OCC          E(Eh)            E(eV)
   0   2.0000     -20.554315      -559.3113
   1   2.0000     -15.561461      -423.4489
   2   2.0000     -11.284336      -307.0624
   3   2.0000     -11.263356      -306.4915
   4   2.0000     -11.262439      -306.4666
   5   2.0000     -11.234946      -305.7184
   6   2.0000     -11.228594      -305.5456
   7   2.0000     -11.222714      -305.3856
   8   2.0000     -11.219339      -305.2937
   9   2.0000      -1.361388       -37.0453
  10   2.0000      -1.285384       -34.9771
  11   2.0000      -1.131594       -30.7922
  12   2.0000      -1.018064       -27.7029
  13   2.0000      -0.918949       -25.0059
  14   2.0000      -0.889090       -24.1934
  15   2.0000      -0.841423       -22.8963
  16   2.0000      -0.766615       -20.8606
  17   2.0000      -0.730373       -19.8744
  18   2.0000      -0.726933       -19.7809
  19   2.0000      -0.653750       -17.7894
  20   2.0000      -0.643047       -17.4982
  21   2.0000      -0.621717       -16.9178
  22   2.0000      -0.607655       -16.5351
  23   2.0000      -0.563507       -15.3338
  24   2.0000      -0.541177       -14.7262
  25   2.0000      -0.537358       -14.6223
  26   2.0000      -0.521716       -14.1966
  27   2.0000      -0.506343       -13.7783
  28   2.0000      -0.487502       -13.2656
  29   2.0000      -0.475642       -12.9429
  30   2.0000      -0.438873       -11.9423
  31   2.0000      -0.409084       -11.1317
  32   2.0000      -0.403815       -10.9884
  33   2.0000      -0.326528        -8.8853
  34   0.0000       0.131149         3.5687
  35   0.0000       0.146425         3.9844
  36   0.0000       0.156618         4.2618
  37   0.0000       0.170340         4.6352
  38   0.0000       0.191416         5.2087

MULLIKEN ATOMIC CHARGES
-----------------------
   0 C :   -0.401249
   1 C :    0.089819
   2 O :   -0.469959
   3 C :    0.163836
   4 C :   -0.348140
   5 C :   -0.102719
   6 C :   -0.082490
   7 N :   -0.376635
   8 C :   -0.199432
   9 H :    0.146173
  10 H :    0.127939
  11 H :    0.124313
  12 H :    0.094068
  13 H :    0.311247
  14 H :    0.115576
  15 H :    0.166502
  16 H :    0.144338
  17 H :    0.140173
  18 H :    0.215053
  19 H :    0.141589
Sum of atomic charges:    0.0000000

LOEWDIN ATOMIC CHARGES
----------------------
   0 C :   -0.295716
   1 C :   -0.340458
   2 O :   -0.011595
   3 C :   -0.177722
   4 C :   -0.186080
   5 C :   -0.142350
   6 C :   -0.207731
   7 N :    0.000186
   8 C :   -0.191302
   9 H :    0.125108
  10 H :    0.127256
  11 H :    0.124123
  12 H :    0.149226
  13 H :    0.172698
  14 H :    0.138046
  15 H :    0.139888
  16 H :    0.141645
  17 H :    0.130517
  18 H :    0.172200
  19 H :    0.132062

  Mayer bond orders larger than 0.1
B(  0-C ,  1-C ) :   0.9591 B(  0-C ,  9-H ) :   0.9412 B(  0-C , 10-H ) :   0.9319
B(  0-C , 11-H ) :   0.9212 B(  1-C ,  2-O ) :   0.9157 B(  1-C ,  3-C ) :   0.9241
B(  1-C , 12-H ) :   0.9103 B(  2-O , 13-H ) :   0.8433 B(  3-C ,  4-C ) :   0.8851
B(  3-C ,  5-C ) :   0.8639 B(  3-C ,  6-C ) :  -0.1183 B(  3-C ,  8-C ) :   0.7842
B(  4-C ,  5-C ) :   0.9098 B(  4-C , 14-H ) :   0.9330 B(  4-C , 15-H ) :   0.8864
B(  5-C ,  6-C ) :   0.9019 B(  5-C , 16-H ) :   0.9108 B(  6-C ,  7-N ) :   0.9427
B(  6-C ,  8-C ) :   1.0374 B(  6-C , 17-H ) :   0.9263 B(  7-N ,  8-C ) :   0.9857
B(  7-N , 18-H ) :   0.8685 B(  8-C , 19-H ) :   0.9188

MP2 TOTAL ENERGY:     -402.369007006 Eh
FINAL SINGLE POINT ENERGY      -402.369007005579

DIPOLE MOMENT
-------------
                                X             Y             Z
Electronic contribution:     -1.70627      -3.39499      -0.75488
Nuclear contribution   :      1.56557       3.70783       0.24890
                        -----------------------------------------
Total Dipole Moment    :     -0.14070       0.31284      -0.50598
                        -----------------------------------------
Magnitude (a.u.)       :      0.61129
Magnitude (Debye)      :      1.55379

                             ****ORCA TERMINATED NORMALLY****
TOTAL RUN TIME: 0 days 0 hours 21 minutes 1 seconds 421 msec
