                         Program Version 3.0.3 - RELEASE   -
|  1> ! RI-MP2 RIJK def2-TZVP def2-TZVP/C def2-TZVP/JK TIGHTSCF
|  2> % maxcore 2000
|  3> % mp2 density relaxed end
|  4> *xyz 0 1
|  5>  C       -0.0140616466     1.5574070018     0.0295829306
|  6>  O        1.3259785629     2.0764699326     0.0332561826
|  7>  C        2.2862957673     1.0621271924    -0.0527743406
|  8>  O        2.2044506470     0.1789926100     1.0613614028
|  9>  C        0.9115676309    -0.4397287511     1.1490352072
| 10>  C        0.0299682253     0.0251205915    -0.0296129374
| 11>  C        0.7641340721    -0.4132689311    -1.2937079058
| 12>  N        1.0832951755     0.6459334519    -2.2724404486
| 13>  C        2.1090654376     0.2060999407    -1.3114817359
| 14>  H       -0.5083542834     1.8810974242     0.9548726987
| 15>  H       -0.5485903872     1.9739083449    -0.8282602291
| 16>  H        3.2626630298     1.5438836600     0.0173741223
| 17>  H        1.0402963916    -1.5302208953     1.1441544110
| 18>  H        0.4542218900    -0.1549791927     2.1057090823
| 19>  H       -0.9783632883    -0.3903083426     0.0522466326
| 20>  H        0.6211049162    -1.4317771388    -1.6423205712
| 21>  H        1.2702760027     0.2193720011    -3.1764161245
| 22>  H        2.9781271766    -0.3425253295    -1.6603750870
| 23> *
| 24>
| 25>                          ****END OF INPUT****

CARTESIAN COORDINATES (ANGSTROEM)
---------------------------------
  C     -0.014062    1.557407    0.029583
  O      1.325979    2.076470    0.033256
  C      2.286296    1.062127   -0.052774
  O      2.204451    0.178993    1.061361
  C      0.911568   -0.439729    1.149035
  C      0.029968    0.025121   -0.029613
  C      0.764134   -0.413269   -1.293708
  N      1.083295    0.645933   -2.272440
  C      2.109065    0.206100   -1.311482
  H     -0.508354    1.881097    0.954873
  H     -0.548590    1.973908   -0.828260
  H      3.262663    1.543884    0.017374
  H      1.040296   -1.530221    1.144154
  H      0.454222   -0.154979    2.105709
  H     -0.978363   -0.390308    0.052247
  H      0.621105   -1.431777   -1.642321
  H      1.270276    0.219372   -3.176416
  H      2.978127   -0.342525   -1.660375

 Total Charge           Charge          ....    0
 Multiplicity           Mult            ....    1
 Number of Electrons    NEL             ....   68
 Basis Dimension        Dim             ....  333

ORBITAL ENERGIES
----------------

  NO   OCC          E(Eh)            E(eV)
   0   2.0000     -20.554455      -559.3152
   1   2.0000     -20.552217      -559.2542
   2   2.0000     -15.568025      -423.6275
   3   2.0000     -11.331782      -308.3535
   4   2.0000     -11.280590      -306.9605
   5   2.0000     -11.273930      -306.7792
   6   2.0000     -11.267447      -306.6028
   7   2.0000     -11.261956      -306.4534
   8   2.0000     -11.244633      -305.9820
   9   2.0000      -1.419072       -38.6149
  10   2.0000      -1.333843       -36.2957
  11   2.0000      -1.270962       -34.5846
  12   2.0000      -1.076953       -29.3054
  13   2.0000      -0.973311       -26.4851
  14   2.0000      -0.912616       -24.8335
  15   2.0000      -0.859692       -23.3934
  16   2.0000      -0.846178       -23.0257
  17   2.0000      -0.744963       -20.2715
  18   2.0000      -0.707301       -19.2466
  19   2.0000      -0.695569       -18.9274
  20   2.0000      -0.683071       -18.5873
  21   2.0000      -0.647922       -17.6309
  22   2.0000      -0.602184       -16.3863
  23   2.0000      -0.577834       -15.7237
  24   2.0000      -0.570735       -15.5305
  25   2.0000      -0.562494       -15.3062
  26   2.0000      -0.533950       -14.5295
  27   2.0000      -0.524072       -14.2607
  28   2.0000      -0.509274       -13.8581
  29   2.0000      -0.478014       -13.0074
  30   2.0000      -0.454108       -12.3569
  31   2.0000      -0.419448       -11.4138
  32   2.0000      -0.412580       -11.2269
  33   2.0000      -0.380658       -10.3582
  34   0.0000       0.125970         3.4278
  35   0.0000       0.150322         4.0905
  36   0.0000       0.169083         4.6010
  37   0.0000       0.175783         4.7833
  38   0.0000       0.190946         5.1959

MULLIKEN ATOMIC CHARGES
-----------------------
   0 C :   -0.058428
   1 O :   -0.307182
   2 C :    0.226905
   3 O :   -0.319035
   4 C :   -0.078015
   5 C :    0.003077
   6 C :   -0.173978
   7 N :   -0.367651
   8 C :   -0.077989
   9 H :    0.104248
  10 H :    0.112073
  11 H :    0.120553
  12 H :    0.102313
  13 H :    0.110198
  14 H :    0.128010
  15 H :    0.128868
  16 H :    0.219370
  17 H :    0.126663
Sum of atomic charges:   -0.0000000

LOEWDIN ATOMIC CHARGES
----------------------
   0 C :   -0.261481
   1 O :    0.186216
   2 C :   -0.382994
   3 O :    0.162662
   4 C :   -0.263412
   5 C :   -0.246051
   6 C :   -0.232895
   7 N :    0.017701
   8 C :   -0.234436
   9 H :    0.126319
  10 H :    0.130816
  11 H :    0.141710
  12 H :    0.124794
  13 H :    0.126762
  14 H :    0.157173
  15 H :    0.137765
  16 H :    0.170709
  17 H :    0.138641

  Mayer bond orders larger than 0.1
B(  0-C ,  1-O ) :   0.9186 B(  0-C ,  5-C ) :   0.9465 B(  0-C ,  9-H ) :   0.9127
B(  0-C , 10-H ) :   0.9229 B(  1-O ,  2-C ) :   1.0136 B(  2-C ,  3-O ) :   0.9694
B(  2-C ,  8-C ) :   0.9213 B(  2-C , 11-H ) :   0.9259 B(  3-O ,  4-C ) :   0.9250
B(  4-C ,  5-C ) :   0.9159 B(  4-C , 12-H ) :   0.9249 B(  4-C , 13-H ) :   0.9211
B(  5-C ,  6-C ) :   0.8645 B(  5-C , 14-H ) :   0.9062 B(  6-C ,  7-N ) :   1.0174
B(  6-C ,  8-C ) :   0.9943 B(  6-C , 15-H ) :   0.9220 B(  7-N ,  8-C ) :   0.9605
B(  7-N , 16-H ) :   0.8676 B(  8-C , 17-H ) :   0.9200

MP2 TOTAL ENERGY:     -438.345329345 Eh
FINAL SINGLE POINT ENERGY      -438.345329344567

DIPOLE MOMENT
-------------
                                X             Y             Z
Electronic contribution:      2.56643       1.97429      -0.01482
Nuclear contribution   :     -2.98405      -3.03271      -0.47456
                        -----------------------------------------
Total Dipole Moment    :     -0.41762      -1.05842      -0.48938
                        -----------------------------------------
Magnitude (a.u.)       :      1.23861
Magnitude (Debye)      :      3.14829

                             ****ORCA TERMINATED NORMALLY****
TOTAL RUN TIME: 0 days 0 hours 17 minutes 45 seconds 588 msec
