                         Program Version 3.0.3 - RELEASE   -
|  1> ! RI-MP2 RIJK def2-TZVP def2-TZVP/C def2-TZVP/JK TIGHTSCF
|  2> % maxcore 2000
|  3> % mp2 density relaxed end
|  4> *xyz 0 1
|  5>  C        0.0270511975     1.5682414321    -0.0229797738
|  6>  C        0.0284913302     0.0427881990     0.0834811440
|  7>  O        0.6694775079    -0.3862164349     1.2850171734
|  8>  C       -1.3786113225    -0.5544235793    -0.0500488757
|  9>  C       -1.3995468627    -2.0867091802    -0.0188069936
| 10>  C       -2.8001482933    -2.6771958977    -0.0972369105
| 11>  C       -3.6130751827    -2.5561059049    -1.4211018961
| 12>  C       -4.1376745409    -3.9981639483    -1.1870133036
| 13>  C       -2.9634254646    -4.2210344621    -0.1967054423
| 14>  H        1.0414706498     1.9589894899     0.0943496165
| 15>  H       -0.3648544472     1.8992904755    -0.9902851375
| 16>  H       -0.6026929591     2.0112157937     0.7593370525
| 17>  H        0.6603068208    -0.3682063315    -0.7147219687
| 18>  H        0.1753055256    -0.0134300344     2.0240265385
| 19>  H       -2.0056209809    -0.1580684184     0.7640197295
| 20>  H       -1.8296629790    -0.1915058307    -0.9829737494
| 21>  H       -0.7997710903    -2.4729699271    -0.8555741918
| 22>  H       -0.9003235881    -2.4282874461     0.8957118649
| 23>  H       -3.4063112396    -2.2992675176     0.7363704268
| 24>  H       -4.3473354159    -1.7507683762    -1.5053568199
| 25>  H       -2.9453007484    -2.5079209049    -2.2886683453
| 26>  H       -5.1044055663    -3.9985312947    -0.6748377769
| 27>  H       -4.2067843021    -4.6610471577    -2.0528149760
| 28>  H       -2.0993916674    -4.6760241584    -0.6929052379
| 29>  H       -3.1638612109    -4.7752998949     0.7239088629
| 30> *
| 31>
| 32>                          ****END OF INPUT****

CARTESIAN COORDINATES (ANGSTROEM)
---------------------------------
  C      0.027051    1.568241   -0.022980
  C      0.028491    0.042788    0.083481
  O      0.669478   -0.386216    1.285017
  C     -1.378611   -0.554424   -0.050049
  C     -1.399547   -2.086709   -0.018807
  C     -2.800148   -2.677196   -0.097237
  C     -3.613075   -2.556106   -1.421102
  C     -4.137675   -3.998164   -1.187013
  C     -2.963425   -4.221034   -0.196705
  H      1.041471    1.958989    0.094350
  H     -0.364854    1.899290   -0.990285
  H     -0.602693    2.011216    0.759337
  H      0.660307   -0.368206   -0.714722
  H      0.175306   -0.013430    2.024027
  H     -2.005621   -0.158068    0.764020
  H     -1.829663   -0.191506   -0.982974
  H     -0.799771   -2.472970   -0.855574
  H     -0.900324   -2.428287    0.895712
  H     -3.406311   -2.299268    0.736370
  H     -4.347335   -1.750768   -1.505357
  H     -2.945301   -2.507921   -2.288668
  H     -5.104406   -3.998531   -0.674838
  H     -4.206784   -4.661047   -2.052815
  H     -2.099392   -4.676024   -0.692905
  H     -3.163861   -4.775300    0.723909

 Total Charge           Charge          ....    0
 Multiplicity           Mult            ....    1
 Number of Electrons    NEL             ....   72
 Basis Dimension        Dim             ....  375

ORBITAL ENERGIES
----------------

  NO   OCC          E(Eh)            E(eV)
   0   2.0000     -20.548850      -559.1626
   1   2.0000     -11.276118      -306.8388
   2   2.0000     -11.220452      -305.3240
   3   2.0000     -11.218606      -305.2738
   4   2.0000     -11.216118      -305.2061
   5   2.0000     -11.215758      -305.1963
   6   2.0000     -11.214591      -305.1645
   7   2.0000     -11.213485      -305.1344
   8   2.0000     -11.210998      -305.0668
   9   2.0000      -1.354860       -36.8676
  10   2.0000      -1.128005       -30.6946
  11   2.0000      -1.057048       -28.7637
  12   2.0000      -0.993235       -27.0273
  13   2.0000      -0.906053       -24.6550
  14   2.0000      -0.890532       -24.2326
  15   2.0000      -0.827709       -22.5231
  16   2.0000      -0.799119       -21.7451
  17   2.0000      -0.741369       -20.1737
  18   2.0000      -0.655239       -17.8299
  19   2.0000      -0.652289       -17.7497
  20   2.0000      -0.637718       -17.3532
  21   2.0000      -0.628767       -17.1096
  22   2.0000      -0.598102       -16.2752
  23   2.0000      -0.577255       -15.7079
  24   2.0000      -0.556963       -15.1557
  25   2.0000      -0.533438       -14.5156
  26   2.0000      -0.531362       -14.4591
  27   2.0000      -0.517998       -14.0954
  28   2.0000      -0.507684       -13.8148
  29   2.0000      -0.484404       -13.1813
  30   2.0000      -0.468566       -12.7503
  31   2.0000      -0.459642       -12.5075
  32   2.0000      -0.450049       -12.2465
  33   2.0000      -0.438530       -11.9330
  34   2.0000      -0.422547       -11.4981
  35   2.0000      -0.411089       -11.1863
  36   0.0000       0.129667         3.5284
  37   0.0000       0.146550         3.9878
  38   0.0000       0.151394         4.1196
  39   0.0000       0.165654         4.5077
  40   0.0000       0.170297         4.6340

MULLIKEN ATOMIC CHARGES
-----------------------
   0 C :   -0.383583
   1 C :    0.134551
   2 O :   -0.474511
   3 C :   -0.308524
   4 C :   -0.241023
   5 C :   -0.010849
   6 C :   -0.265683
   7 C :   -0.191800
   8 C :   -0.233103
   9 H :    0.147185
  10 H :    0.124658
  11 H :    0.111822
  12 H :    0.085477
  13 H :    0.307722
  14 H :    0.105226
  15 H :    0.116575
  16 H :    0.101954
  17 H :    0.122725
  18 H :    0.089423
  19 H :    0.114867
  20 H :    0.104609
  21 H :    0.108623
  22 H :    0.112273
  23 H :    0.107562
  24 H :    0.113825
Sum of atomic charges:    0.0000000

LOEWDIN ATOMIC CHARGES
----------------------
   0 C :   -0.306798
   1 C :   -0.373952
   2 O :   -0.026525
   3 C :   -0.258233
   4 C :   -0.255741
   5 C :   -0.239592
   6 C :   -0.228245
   7 C :   -0.246838
   8 C :   -0.223856
   9 H :    0.125502
  10 H :    0.125280
  11 H :    0.119898
  12 H :    0.143850
  13 H :    0.172632
  14 H :    0.136234
  15 H :    0.143012
  16 H :    0.138750
  17 H :    0.143515
  18 H :    0.148754
  19 H :    0.120674
  20 H :    0.133612
  21 H :    0.131803
  22 H :    0.120441
  23 H :    0.134395
  24 H :    0.121427

  Mayer bond orders larger than 0.1
B(  0-C ,  1-C ) :   0.9394 B(  0-C ,  9-H ) :   0.9444 B(  0-C , 10-H ) :   0.9348
B(  0-C , 11-H ) :   0.9209 B(  1-C ,  2-O ) :   0.8837 B(  1-C ,  3-C ) :   0.9441
B(  1-C , 12-H ) :   0.9216 B(  2-O , 13-H ) :   0.8455 B(  3-C ,  4-C ) :   0.9152
B(  3-C , 14-H ) :   0.9265 B(  3-C , 15-H ) :   0.9247 B(  4-C ,  5-C ) :   0.9050
B(  4-C , 16-H ) :   0.9208 B(  4-C , 17-H ) :   0.9382 B(  5-C ,  6-C ) :   0.9204
B(  5-C ,  8-C ) :   0.9346 B(  5-C , 18-H ) :   0.9252 B(  6-C ,  7-C ) :   0.9410
B(  6-C , 19-H ) :   0.9288 B(  6-C , 20-H ) :   0.9225 B(  7-C ,  8-C ) :   0.9371
B(  7-C , 21-H ) :   0.9280 B(  7-C , 22-H ) :   0.9272 B(  8-C , 23-H ) :   0.9227
B(  8-C , 24-H ) :   0.9318

MP2 TOTAL ENERGY:     -388.811632900 Eh
FINAL SINGLE POINT ENERGY      -388.811632900286

DIPOLE MOMENT
-------------
                                X             Y             Z
Electronic contribution:      2.41929      -0.69807       2.17054
Nuclear contribution   :     -2.90938       1.06854      -2.19746
                        -----------------------------------------
Total Dipole Moment    :     -0.49009       0.37047      -0.02691
                        -----------------------------------------
Magnitude (a.u.)       :      0.61494
Magnitude (Debye)      :      1.56306

                             ****ORCA TERMINATED NORMALLY****
TOTAL RUN TIME: 0 days 0 hours 20 minutes 48 seconds 156 msec
