                         Program Version 3.0.3 - RELEASE   -
|  1> ! RI-MP2 RIJK def2-TZVP def2-TZVP/C def2-TZVP/JK TIGHTSCF
|  2> % maxcore 2000
|  3> % mp2 density relaxed end
|  4> *xyz 0 1
|  5>  O       -0.0217275380    -0.0487750238    -0.0150135626
|  6>  C       -0.0017535396     1.1609358564     0.0334337198
|  7>  C        1.2476671908     1.9369168981     0.0489418603
|  8>  C        1.3308644142     3.2846801508     0.0670818268
|  9>  C        2.7696622406     3.7631531448     0.0343963702
| 10>  C        3.5673037116     2.4725429085     0.3491705397
| 11>  C        2.6145856669     1.3019110308     0.0025018364
| 12>  C        0.2322328281     4.1858603633     0.0717951019
| 13>  N       -0.6356938529     4.9537823789     0.0786894832
| 14>  H       -0.9355573511     1.7582149574     0.0711715678
| 15>  H        2.9976333515     4.1637148015    -0.9622520684
| 16>  H        2.9539449456     4.5740394921     0.7450210594
| 17>  H        4.5121761824     2.4251407769    -0.1955115129
| 18>  H        3.8047711169     2.4465461247     1.4167091419
| 19>  H        2.6941353005     0.4539235037     0.6876845837
| 20>  H        2.7969794624     0.8994183159    -1.0025299073
| 21> *
| 22>
| 23>                          ****END OF INPUT****

CARTESIAN COORDINATES (ANGSTROEM)
---------------------------------
  O     -0.021728   -0.048775   -0.015014
  C     -0.001754    1.160936    0.033434
  C      1.247667    1.936917    0.048942
  C      1.330864    3.284680    0.067082
  C      2.769662    3.763153    0.034396
  C      3.567304    2.472543    0.349171
  C      2.614586    1.301911    0.002502
  C      0.232233    4.185860    0.071795
  N     -0.635694    4.953782    0.078689
  H     -0.935557    1.758215    0.071172
  H      2.997633    4.163715   -0.962252
  H      2.953945    4.574039    0.745021
  H      4.512176    2.425141   -0.195512
  H      3.804771    2.446546    1.416709
  H      2.694135    0.453924    0.687685
  H      2.796979    0.899418   -1.002530

 Total Charge           Charge          ....    0
 Multiplicity           Mult            ....    1
 Number of Electrons    NEL             ....   64
 Basis Dimension        Dim             ....  321

ORBITAL ENERGIES
----------------

  NO   OCC          E(Eh)            E(eV)
   0   2.0000     -20.575800      -559.8960
   1   2.0000     -15.594051      -424.3357
   2   2.0000     -11.350847      -308.8722
   3   2.0000     -11.308572      -307.7219
   4   2.0000     -11.294324      -307.3342
   5   2.0000     -11.285557      -307.0956
   6   2.0000     -11.267732      -306.6106
   7   2.0000     -11.255751      -306.2846
   8   2.0000     -11.254094      -306.2395
   9   2.0000      -1.410545       -38.3829
  10   2.0000      -1.241453       -33.7817
  11   2.0000      -1.185410       -32.2567
  12   2.0000      -1.039902       -28.2972
  13   2.0000      -1.017465       -27.6866
  14   2.0000      -0.892400       -24.2834
  15   2.0000      -0.848248       -23.0820
  16   2.0000      -0.807815       -21.9818
  17   2.0000      -0.732130       -19.9223
  18   2.0000      -0.678906       -18.4740
  19   2.0000      -0.667115       -18.1531
  20   2.0000      -0.604691       -16.4545
  21   2.0000      -0.597131       -16.2488
  22   2.0000      -0.590396       -16.0655
  23   2.0000      -0.566191       -15.4068
  24   2.0000      -0.561128       -15.2691
  25   2.0000      -0.546414       -14.8687
  26   2.0000      -0.525856       -14.3093
  27   2.0000      -0.516474       -14.0540
  28   2.0000      -0.500401       -13.6166
  29   2.0000      -0.479197       -13.0396
  30   2.0000      -0.445483       -12.1222
  31   2.0000      -0.381641       -10.3850
  32   0.0000       0.038666         1.0522
  33   0.0000       0.115780         3.1505
  34   0.0000       0.144972         3.9449
  35   0.0000       0.149560         4.0697
  36   0.0000       0.160498         4.3674

MULLIKEN ATOMIC CHARGES
-----------------------
   0 O :   -0.264653
   1 C :    0.058683
   2 C :   -0.069283
   3 C :    0.189853
   4 C :   -0.227866
   5 C :   -0.229746
   6 C :   -0.192875
   7 C :   -0.187593
   8 N :   -0.040153
   9 H :    0.114214
  10 H :    0.142160
  11 H :    0.151974
  12 H :    0.138067
  13 H :    0.127524
  14 H :    0.151806
  15 H :    0.137887
Sum of atomic charges:   -0.0000000

LOEWDIN ATOMIC CHARGES
----------------------
   0 O :    0.143935
   1 C :   -0.257259
   2 C :   -0.111263
   3 C :   -0.110144
   4 C :   -0.187925
   5 C :   -0.226783
   6 C :   -0.196855
   7 C :   -0.152413
   8 N :    0.088215
   9 H :    0.128682
  10 H :    0.152203
  11 H :    0.147722
  12 H :    0.136974
  13 H :    0.142296
  14 H :    0.149866
  15 H :    0.152748

  Mayer bond orders larger than 0.1
B(  0-O ,  1-C ) :   1.9784 B(  1-C ,  2-C ) :   0.8870 B(  1-C ,  9-H ) :   0.9765
B(  2-C ,  3-C ) :   1.5517 B(  2-C ,  6-C ) :   0.9296 B(  3-C ,  4-C ) :   0.9057
B(  3-C ,  7-C ) :   0.9033 B(  4-C ,  5-C ) :   0.9387 B(  4-C , 10-H ) :   0.9035
B(  4-C , 11-H ) :   0.9271 B(  5-C ,  6-C ) :   0.9358 B(  5-C , 12-H ) :   0.9390
B(  5-C , 13-H ) :   0.9310 B(  6-C , 14-H ) :   0.9264 B(  6-C , 15-H ) :   0.9041
B(  7-C ,  8-N ) :   2.8238

MP2 TOTAL ENERGY:     -400.094013312 Eh
FINAL SINGLE POINT ENERGY      -400.094013311606

DIPOLE MOMENT
-------------
                                X             Y             Z
Electronic contribution:     -7.87036       0.80641      -0.21864
Nuclear contribution   :      9.44626      -0.75968       0.22827
                        -----------------------------------------
Total Dipole Moment    :      1.57590       0.04672       0.00964
                        -----------------------------------------
Magnitude (a.u.)       :      1.57662
Magnitude (Debye)      :      4.00745

                             ****ORCA TERMINATED NORMALLY****
TOTAL RUN TIME: 0 days 0 hours 16 minutes 12 seconds 52 msec
