                         Program Version 3.0.3 - RELEASE   -
|  1> ! RI-MP2 RIJK def2-TZVP def2-TZVP/C def2-TZVP/JK TIGHTSCF
|  2> % maxcore 2000
|  3> % mp2 density relaxed end
|  4> *xyz 0 1
|  5>  C       -0.6193153305     0.4179388283     0.2567112258
|  6>  N        0.6668355253    -0.1606425374    -0.0727069945
|  7>  C        0.7214458963    -0.9489907965    -1.0441329123
|  8>  O        1.9137241777    -1.4960753507    -1.4093541411
|  9>  C        1.8616133488    -2.4456229959    -2.4643943625
| 10>  C        1.3591676021    -3.7493097913    -2.0359249199
| 11>  C        0.9393290398    -4.8212286658    -1.6720313514
| 12>  C        0.4627734524    -6.0351056210    -1.2662286573
| 13>  N        0.0553833326    -7.0676344259    -0.9248440776
| 14>  H       -0.5516439694     1.5099720842     0.2031609244
| 15>  H       -1.4411831036     0.0871467036    -0.3982508639
| 16>  H       -0.8768885238     0.1645716810     1.2906948644
| 17>  H       -0.1294166610    -1.2538687346    -1.6726299825
| 18>  H        1.2532025039    -2.0751679507    -3.3018628351
| 19>  H        2.8895207393    -2.5463697474    -2.8251534363
| 20> *
| 21>
| 22>                          ****END OF INPUT****

CARTESIAN COORDINATES (ANGSTROEM)
---------------------------------
  C     -0.619315    0.417939    0.256711
  N      0.666836   -0.160643   -0.072707
  C      0.721446   -0.948991   -1.044133
  O      1.913724   -1.496075   -1.409354
  C      1.861613   -2.445623   -2.464394
  C      1.359168   -3.749310   -2.035925
  C      0.939329   -4.821229   -1.672031
  C      0.462773   -6.035106   -1.266229
  N      0.055383   -7.067634   -0.924844
  H     -0.551644    1.509972    0.203161
  H     -1.441183    0.087147   -0.398251
  H     -0.876889    0.164572    1.290695
  H     -0.129417   -1.253869   -1.672630
  H      1.253203   -2.075168   -3.301863
  H      2.889521   -2.546370   -2.825153

 Total Charge           Charge          ....    0
 Multiplicity           Mult            ....    1
 Number of Electrons    NEL             ....   64
 Basis Dimension        Dim             ....  315

ORBITAL ENERGIES
----------------

  NO   OCC          E(Eh)            E(eV)
   0   2.0000     -20.619471      -561.0843
   1   2.0000     -15.606209      -424.6665
   2   2.0000     -15.561854      -423.4596
   3   2.0000     -11.356322      -309.0212
   4   2.0000     -11.347427      -308.7792
   5   2.0000     -11.311693      -307.8068
   6   2.0000     -11.306059      -307.6535
   7   2.0000     -11.297054      -307.4085
   8   2.0000     -11.259413      -306.3842
   9   2.0000      -1.452077       -39.5130
  10   2.0000      -1.245407       -33.8892
  11   2.0000      -1.239494       -33.7283
  12   2.0000      -1.116816       -30.3901
  13   2.0000      -1.027656       -27.9639
  14   2.0000      -0.952679       -25.9237
  15   2.0000      -0.890339       -24.2274
  16   2.0000      -0.833035       -22.6680
  17   2.0000      -0.746820       -20.3220
  18   2.0000      -0.721618       -19.6362
  19   2.0000      -0.690766       -18.7967
  20   2.0000      -0.629287       -17.1238
  21   2.0000      -0.609812       -16.5938
  22   2.0000      -0.589667       -16.0457
  23   2.0000      -0.584459       -15.9039
  24   2.0000      -0.561064       -15.2673
  25   2.0000      -0.554645       -15.0927
  26   2.0000      -0.545356       -14.8399
  27   2.0000      -0.536989       -14.6122
  28   2.0000      -0.432175       -11.7601
  29   2.0000      -0.424060       -11.5393
  30   2.0000      -0.418086       -11.3767
  31   2.0000      -0.403462       -10.9788
  32   0.0000       0.074916         2.0386
  33   0.0000       0.082850         2.2545
  34   0.0000       0.117305         3.1920
  35   0.0000       0.141803         3.8586
  36   0.0000       0.150018         4.0822

MULLIKEN ATOMIC CHARGES
-----------------------
   0 C :   -0.251072
   1 N :   -0.182814
   2 C :    0.071349
   3 O :   -0.208822
   4 C :   -0.177930
   5 C :   -0.067103
   6 C :    0.264006
   7 C :   -0.217290
   8 N :   -0.033985
   9 H :    0.141298
  10 H :    0.095368
  11 H :    0.143427
  12 H :    0.071913
  13 H :    0.178656
  14 H :    0.172999
Sum of atomic charges:    0.0000000

LOEWDIN ATOMIC CHARGES
----------------------
   0 C :   -0.331906
   1 N :    0.073249
   2 C :   -0.354878
   3 O :    0.245194
   4 C :   -0.290439
   5 C :    0.001734
   6 C :   -0.045611
   7 C :   -0.169864
   8 N :    0.109230
   9 H :    0.119815
  10 H :    0.102596
  11 H :    0.120564
  12 H :    0.112046
  13 H :    0.148856
  14 H :    0.159415

  Mayer bond orders larger than 0.1
B(  0-C ,  1-N ) :   0.8765 B(  0-C ,  9-H ) :   0.9307 B(  0-C , 10-H ) :   0.9276
B(  0-C , 11-H ) :   0.9310 B(  1-N ,  2-C ) :   1.9013 B(  2-C ,  3-O ) :   1.0168
B(  2-C , 12-H ) :   0.9170 B(  3-O ,  4-C ) :   0.9372 B(  4-C ,  5-C ) :   0.8862
B(  4-C , 13-H ) :   0.9950 B(  4-C , 14-H ) :   0.9095 B(  5-C ,  6-C ) :   2.6104
B(  5-C ,  8-N ) :   0.1114 B(  6-C ,  7-C ) :   1.0081 B(  7-C ,  8-N ) :   2.7487

MP2 TOTAL ENERGY:     -416.048780700 Eh
FINAL SINGLE POINT ENERGY      -416.048780699953

DIPOLE MOMENT
-------------
                                X             Y             Z
Electronic contribution:      3.24049     -10.78910      -1.44232
Nuclear contribution   :     -3.46211      11.84536       0.26289
                        -----------------------------------------
Total Dipole Moment    :     -0.22162       1.05626      -1.17943
                        -----------------------------------------
Magnitude (a.u.)       :      1.59871
Magnitude (Debye)      :      4.06359

                             ****ORCA TERMINATED NORMALLY****
TOTAL RUN TIME: 0 days 0 hours 11 minutes 32 seconds 882 msec
