                         Program Version 3.0.3 - RELEASE   -
|  1> ! RI-MP2 RIJK def2-TZVP def2-TZVP/C def2-TZVP/JK TIGHTSCF
|  2> % maxcore 2000
|  3> % mp2 density relaxed end
|  4> *xyz 0 1
|  5>  C        0.0967697803     1.4921216573     0.0245018162
|  6>  C        0.0373020017     0.0386922129     0.0374496103
|  7>  C       -0.0096523084    -1.1646835219     0.0576043993
|  8>  C       -0.0419892946    -2.5990032298     0.0437404165
|  9>  N       -0.5686906000    -3.3031880288     1.2311306478
| 10>  C       -1.3484959374    -3.3668300541    -0.0177902174
| 11>  C       -2.6888653306    -2.6638718202    -0.0126676742
| 12>  C       -1.2987776281    -4.6051159858    -0.7657907505
| 13>  N       -1.2633464783    -5.6037573419    -1.3492155831
| 14>  H        1.0719370931     1.8432513771    -0.3296763932
| 15>  H       -0.6692625423     1.9158931871    -0.6339651471
| 16>  H       -0.0609743427     1.9017275870     1.0280010717
| 17>  H        0.7885282046    -3.0722195151    -0.4756282159
| 18>  H       -0.0513573887    -4.1673376598     1.3768212941
| 19>  H       -2.6042495296    -1.7286738168     0.5421293873
| 20>  H       -3.0129066130    -2.4443265957    -1.0338154443
| 21>  H       -3.4452392459    -3.2924804214     0.4653509825
| 22> *
| 23>
| 24>                          ****END OF INPUT****

CARTESIAN COORDINATES (ANGSTROEM)
---------------------------------
  C      0.096770    1.492122    0.024502
  C      0.037302    0.038692    0.037450
  C     -0.009652   -1.164684    0.057604
  C     -0.041989   -2.599003    0.043740
  N     -0.568691   -3.303188    1.231131
  C     -1.348496   -3.366830   -0.017790
  C     -2.688865   -2.663872   -0.012668
  C     -1.298778   -4.605116   -0.765791
  N     -1.263346   -5.603757   -1.349216
  H      1.071937    1.843251   -0.329676
  H     -0.669263    1.915893   -0.633965
  H     -0.060974    1.901728    1.028001
  H      0.788528   -3.072220   -0.475628
  H     -0.051357   -4.167338    1.376821
  H     -2.604250   -1.728674    0.542129
  H     -3.012907   -2.444327   -1.033815
  H     -3.445239   -3.292480    0.465351

 Total Charge           Charge          ....    0
 Multiplicity           Mult            ....    1
 Number of Electrons    NEL             ....   64
 Basis Dimension        Dim             ....  327

ORBITAL ENERGIES
----------------

  NO   OCC          E(Eh)            E(eV)
   0   2.0000     -15.598053      -424.4446
   1   2.0000     -15.581703      -423.9997
   2   2.0000     -11.327687      -308.2420
   3   2.0000     -11.315475      -307.9097
   4   2.0000     -11.282452      -307.0111
   5   2.0000     -11.258804      -306.3676
   6   2.0000     -11.245992      -306.0190
   7   2.0000     -11.242565      -305.9257
   8   2.0000     -11.234869      -305.7163
   9   2.0000      -1.311444       -35.6862
  10   2.0000      -1.223385       -33.2900
  11   2.0000      -1.076033       -29.2803
  12   2.0000      -1.033471       -28.1222
  13   2.0000      -0.995730       -27.0952
  14   2.0000      -0.916267       -24.9329
  15   2.0000      -0.890013       -24.2185
  16   2.0000      -0.769417       -20.9369
  17   2.0000      -0.703492       -19.1430
  18   2.0000      -0.639155       -17.3923
  19   2.0000      -0.613639       -16.6980
  20   2.0000      -0.608375       -16.5547
  21   2.0000      -0.599131       -16.3032
  22   2.0000      -0.596851       -16.2411
  23   2.0000      -0.585393       -15.9294
  24   2.0000      -0.566000       -15.4016
  25   2.0000      -0.536367       -14.5953
  26   2.0000      -0.518262       -14.1026
  27   2.0000      -0.487023       -13.2526
  28   2.0000      -0.471395       -12.8273
  29   2.0000      -0.433251       -11.7894
  30   2.0000      -0.389198       -10.5906
  31   2.0000      -0.370668       -10.0864
  32   0.0000       0.119667         3.2563
  33   0.0000       0.129315         3.5188
  34   0.0000       0.144123         3.9218
  35   0.0000       0.151223         4.1150
  36   0.0000       0.167113         4.5474

MULLIKEN ATOMIC CHARGES
-----------------------
   0 C :   -0.475469
   1 C :    0.087029
   2 C :    0.062586
   3 C :   -0.318947
   4 N :   -0.326814
   5 C :    0.262486
   6 C :   -0.404259
   7 C :   -0.177860
   8 N :   -0.054515
   9 H :    0.166585
  10 H :    0.165174
  11 H :    0.168317
  12 H :    0.159512
  13 H :    0.236951
  14 H :    0.159347
  15 H :    0.142893
  16 H :    0.146984
Sum of atomic charges:    0.0000000

LOEWDIN ATOMIC CHARGES
----------------------
   0 C :   -0.289579
   1 C :   -0.079354
   2 C :   -0.066573
   3 C :   -0.206184
   4 N :    0.069863
   5 C :   -0.289597
   6 C :   -0.237266
   7 C :   -0.158905
   8 N :    0.071719
   9 H :    0.144014
  10 H :    0.142904
  11 H :    0.144283
  12 H :    0.162606
  13 H :    0.177658
  14 H :    0.141546
  15 H :    0.136602
  16 H :    0.136264

  Mayer bond orders larger than 0.1
B(  0-C ,  1-C ) :   0.8708 B(  0-C ,  9-H ) :   0.9462 B(  0-C , 10-H ) :   0.9433
B(  0-C , 11-H ) :   0.9406 B(  1-C ,  2-C ) :   2.6747 B(  1-C ,  3-C ) :  -0.1576
B(  2-C ,  3-C ) :   1.0631 B(  3-C ,  4-N ) :   1.0602 B(  3-C ,  5-C ) :   0.8755
B(  3-C , 12-H ) :   0.9361 B(  4-N ,  5-C ) :   0.8958 B(  4-N , 13-H ) :   0.8646
B(  5-C ,  6-C ) :   0.9241 B(  5-C ,  7-C ) :   0.9227 B(  6-C , 14-H ) :   0.9306
B(  6-C , 15-H ) :   0.9313 B(  6-C , 16-H ) :   0.9304 B(  7-C ,  8-N ) :   2.8371

MP2 TOTAL ENERGY:     -380.150604841 Eh
FINAL SINGLE POINT ENERGY      -380.150604841434

DIPOLE MOMENT
-------------
                                X             Y             Z
Electronic contribution:      1.62722      -8.14227      -1.10960
Nuclear contribution   :     -1.44392       9.50972       1.40032
                        -----------------------------------------
Total Dipole Moment    :      0.18329       1.36746       0.29072
                        -----------------------------------------
Magnitude (a.u.)       :      1.40998
Magnitude (Debye)      :      3.58389

                             ****ORCA TERMINATED NORMALLY****
TOTAL RUN TIME: 0 days 0 hours 16 minutes 3 seconds 717 msec
