                         Program Version 3.0.3 - RELEASE   -
|  1> ! RI-MP2 RIJK def2-TZVP def2-TZVP/C def2-TZVP/JK TIGHTSCF
|  2> % maxcore 2000
|  3> % mp2 density relaxed end
|  4> *xyz 0 1
|  5>  C       -0.0927952766     1.5360431708    -0.0238851603
|  6>  C       -0.0001209172     0.0088967716    -0.0116174339
|  7>  C        0.9150914705    -0.5395834156    -1.1506586799
|  8>  C        1.9883687331    -1.3195650696    -0.3307580082
|  9>  O        2.1193133411    -0.4824661725     0.8226989822
| 10>  C        0.7485433675    -0.5715260919     1.2569757199
| 11>  C        0.5456913463     0.1182954686     2.5864923021
| 12>  C        0.5153335183    -2.0839822404     1.2160459924
| 13>  C        1.2941372450    -2.5506411276     0.2426586244
| 14>  H        0.8989224639     1.9836685396     0.0985857438
| 15>  H       -0.5042448083     1.8894932254    -0.9752399897
| 16>  H       -0.7402396441     1.9122922671     0.7745874417
| 17>  H       -1.0075112517    -0.4137980676    -0.0740201639
| 18>  H        0.3894252563    -1.1706482082    -1.8711012580
| 19>  H        1.3865058431     0.2830177043    -1.6956856957
| 20>  H        2.9528329264    -1.4618177228    -0.8174025272
| 21>  H        0.8496408492     1.1665931187     2.5390175683
| 22>  H       -0.5075871700     0.0787342473     2.8824631621
| 23>  H        1.1390302019    -0.3753358372     3.3610921193
| 24>  H       -0.2169406798    -2.6103760015     1.8142063732
| 25>  H        1.3548936752    -3.5531968586    -0.1591041525
| 26> *
| 27>
| 28>                          ****END OF INPUT****

CARTESIAN COORDINATES (ANGSTROEM)
---------------------------------
  C     -0.092795    1.536043   -0.023885
  C     -0.000121    0.008897   -0.011617
  C      0.915091   -0.539583   -1.150659
  C      1.988369   -1.319565   -0.330758
  O      2.119313   -0.482466    0.822699
  C      0.748543   -0.571526    1.256976
  C      0.545691    0.118295    2.586492
  C      0.515334   -2.083982    1.216046
  C      1.294137   -2.550641    0.242659
  H      0.898922    1.983669    0.098586
  H     -0.504245    1.889493   -0.975240
  H     -0.740240    1.912292    0.774587
  H     -1.007511   -0.413798   -0.074020
  H      0.389425   -1.170648   -1.871101
  H      1.386506    0.283018   -1.695686
  H      2.952833   -1.461818   -0.817403
  H      0.849641    1.166593    2.539018
  H     -0.507587    0.078734    2.882463
  H      1.139030   -0.375336    3.361092
  H     -0.216941   -2.610376    1.814206
  H      1.354894   -3.553197   -0.159104

 Total Charge           Charge          ....    0
 Multiplicity           Mult            ....    1
 Number of Electrons    NEL             ....   68
 Basis Dimension        Dim             ....  351

ORBITAL ENERGIES
----------------

  NO   OCC          E(Eh)            E(eV)
   0   2.0000     -20.544595      -559.0469
   1   2.0000     -11.284536      -307.0678
   2   2.0000     -11.279679      -306.9357
   3   2.0000     -11.229257      -305.5636
   4   2.0000     -11.226054      -305.4765
   5   2.0000     -11.223822      -305.4157
   6   2.0000     -11.220442      -305.3237
   7   2.0000     -11.215193      -305.1809
   8   2.0000     -11.210881      -305.0636
   9   2.0000      -1.386823       -37.7374
  10   2.0000      -1.092375       -29.7250
  11   2.0000      -1.044524       -28.4229
  12   2.0000      -1.028816       -27.9955
  13   2.0000      -0.939296       -25.5596
  14   2.0000      -0.894823       -24.3494
  15   2.0000      -0.793616       -21.5954
  16   2.0000      -0.763280       -20.7699
  17   2.0000      -0.737947       -20.0806
  18   2.0000      -0.684653       -18.6304
  19   2.0000      -0.669066       -18.2062
  20   2.0000      -0.606755       -16.5107
  21   2.0000      -0.589219       -16.0335
  22   2.0000      -0.583525       -15.8785
  23   2.0000      -0.554096       -15.0777
  24   2.0000      -0.543093       -14.7783
  25   2.0000      -0.535501       -14.5717
  26   2.0000      -0.524740       -14.2789
  27   2.0000      -0.509987       -13.8775
  28   2.0000      -0.488680       -13.2977
  29   2.0000      -0.469451       -12.7744
  30   2.0000      -0.462880       -12.5956
  31   2.0000      -0.440989       -11.9999
  32   2.0000      -0.415652       -11.3105
  33   2.0000      -0.350262        -9.5311
  34   0.0000       0.135305         3.6818
  35   0.0000       0.142042         3.8652
  36   0.0000       0.162304         4.4165
  37   0.0000       0.172263         4.6875
  38   0.0000       0.178443         4.8557

MULLIKEN ATOMIC CHARGES
-----------------------
   0 C :   -0.470551
   1 C :   -0.032189
   2 C :   -0.232330
   3 C :    0.066669
   4 O :   -0.305303
   5 C :    0.274747
   6 C :   -0.440888
   7 C :   -0.230092
   8 C :   -0.198602
   9 H :    0.147348
  10 H :    0.138630
  11 H :    0.132346
  12 H :    0.094889
  13 H :    0.109795
  14 H :    0.120330
  15 H :    0.134428
  16 H :    0.148167
  17 H :    0.132031
  18 H :    0.146143
  19 H :    0.131526
  20 H :    0.132906
Sum of atomic charges:   -0.0000000

LOEWDIN ATOMIC CHARGES
----------------------
   0 C :   -0.299674
   1 C :   -0.216923
   2 C :   -0.204217
   3 C :   -0.273428
   4 O :    0.217420
   5 C :   -0.316386
   6 C :   -0.264532
   7 C :   -0.115105
   8 C :   -0.132459
   9 H :    0.128561
  10 H :    0.124376
  11 H :    0.121555
  12 H :    0.148744
  13 H :    0.134155
  14 H :    0.139228
  15 H :    0.137367
  16 H :    0.131872
  17 H :    0.131870
  18 H :    0.133152
  19 H :    0.138482
  20 H :    0.135946

  Mayer bond orders larger than 0.1
B(  0-C ,  1-C ) :   0.8619 B(  0-C ,  9-H ) :   0.9423 B(  0-C , 10-H ) :   0.9390
B(  0-C , 11-H ) :   0.9403 B(  1-C ,  2-C ) :   0.9721 B(  1-C ,  5-C ) :   0.9107
B(  1-C , 12-H ) :   0.9124 B(  2-C ,  3-C ) :   0.9254 B(  2-C , 13-H ) :   0.9109
B(  2-C , 14-H ) :   0.9199 B(  3-C ,  4-O ) :   0.9461 B(  3-C ,  8-C ) :   0.9455
B(  3-C , 15-H ) :   0.9069 B(  4-O ,  5-C ) :   0.9421 B(  5-C ,  6-C ) :   0.8287
B(  5-C ,  7-C ) :   0.8945 B(  6-C , 16-H ) :   0.9473 B(  6-C , 17-H ) :   0.9413
B(  6-C , 18-H ) :   0.9434 B(  7-C ,  8-C ) :   1.8002 B(  7-C , 19-H ) :   0.9226
B(  8-C , 20-H ) :   0.9254

MP2 TOTAL ENERGY:     -386.427343661 Eh
FINAL SINGLE POINT ENERGY      -386.427343660762

DIPOLE MOMENT
-------------
                                X             Y             Z
Electronic contribution:      3.87015      -4.85377       0.06743
Nuclear contribution   :     -4.41944       4.66042      -0.33356
                        -----------------------------------------
Total Dipole Moment    :     -0.54929      -0.19335      -0.26613
                        -----------------------------------------
Magnitude (a.u.)       :      0.64026
Magnitude (Debye)      :      1.62741

                             ****ORCA TERMINATED NORMALLY****
TOTAL RUN TIME: 0 days 0 hours 20 minutes 26 seconds 318 msec
