                         Program Version 3.0.3 - RELEASE   -
|  1> ! RI-MP2 RIJK def2-TZVP def2-TZVP/C def2-TZVP/JK TIGHTSCF
|  2> % maxcore 2000
|  3> % mp2 density relaxed end
|  4> *xyz 0 1
|  5>  C        0.1956293056     1.4087381965    -0.4489281632
|  6>  C        0.4473151468    -0.0830126704    -0.2479399568
|  7>  C        1.1054892258    -0.9459253877    -1.3397043870
|  8>  C        2.5824053269    -0.7498299492    -1.5423618682
|  9>  C        3.3886057578     0.5312012331    -1.5926446351
| 10>  O        4.7389809360     0.3161353152    -1.2011453741
| 11>  C        2.1171890166    -1.4980531211    -0.3147943720
| 12>  C        1.4983445413    -0.6327352777     0.7969647770
| 13>  C        2.3728276582     0.2954268118     1.6378323460
| 14>  H        1.1048537605     1.9828295071    -0.6386179987
| 15>  H       -0.4749462992     1.5682945951    -1.3008826995
| 16>  H       -0.2886651566     1.8405411298     0.4343753249
| 17>  H       -0.5171953004    -0.5432556001    -0.0079854414
| 18>  H        0.5315391004    -1.5067595750    -2.0696085534
| 19>  H        2.9595795703    -1.4610057385    -2.2777592574
| 20>  H        3.4349404136     0.8926379318    -2.6260458554
| 21>  H        2.9317909066     1.3290361561    -0.9987419189
| 22>  H        4.7140756938    -0.1431844957    -0.3547960571
| 23>  H        2.4096215415    -2.5323172565    -0.1689213744
| 24>  H        0.9652175072    -1.2924739322     1.4893726316
| 25>  H        2.9760030019     0.9844324667     1.0423662670
| 26>  H        1.7610427305     0.8983246989     2.3182336703
| 27>  H        3.0606210449    -0.2931268682     2.2565155756
| 28> *
| 29>
| 30>                          ****END OF INPUT****

CARTESIAN COORDINATES (ANGSTROEM)
---------------------------------
  C      0.195629    1.408738   -0.448928
  C      0.447315   -0.083013   -0.247940
  C      1.105489   -0.945925   -1.339704
  C      2.582405   -0.749830   -1.542362
  C      3.388606    0.531201   -1.592645
  O      4.738981    0.316135   -1.201145
  C      2.117189   -1.498053   -0.314794
  C      1.498345   -0.632735    0.796965
  C      2.372828    0.295427    1.637832
  H      1.104854    1.982830   -0.638618
  H     -0.474946    1.568295   -1.300883
  H     -0.288665    1.840541    0.434375
  H     -0.517195   -0.543256   -0.007985
  H      0.531539   -1.506760   -2.069609
  H      2.959580   -1.461006   -2.277759
  H      3.434940    0.892638   -2.626046
  H      2.931791    1.329036   -0.998742
  H      4.714076   -0.143184   -0.354796
  H      2.409622   -2.532317   -0.168921
  H      0.965218   -1.292474    1.489373
  H      2.976003    0.984432    1.042366
  H      1.761043    0.898325    2.318234
  H      3.060621   -0.293127    2.256516

 Total Charge           Charge          ....    0
 Multiplicity           Mult            ....    1
 Number of Electrons    NEL             ....   70
 Basis Dimension        Dim             ....  363

ORBITAL ENERGIES
----------------

  NO   OCC          E(Eh)            E(eV)
   0   2.0000     -20.548409      -559.1506
   1   2.0000     -11.270076      -306.6744
   2   2.0000     -11.235078      -305.7220
   3   2.0000     -11.234733      -305.7126
   4   2.0000     -11.234475      -305.7056
   5   2.0000     -11.233618      -305.6823
   6   2.0000     -11.231888      -305.6352
   7   2.0000     -11.217233      -305.2364
   8   2.0000     -11.214732      -305.1684
   9   2.0000      -1.352626       -36.8068
  10   2.0000      -1.189164       -32.3588
  11   2.0000      -1.038939       -28.2710
  12   2.0000      -0.993408       -27.0320
  13   2.0000      -0.953114       -25.9356
  14   2.0000      -0.880940       -23.9716
  15   2.0000      -0.842165       -22.9165
  16   2.0000      -0.756928       -20.5971
  17   2.0000      -0.712289       -19.3824
  18   2.0000      -0.707113       -19.2415
  19   2.0000      -0.667479       -18.1630
  20   2.0000      -0.619825       -16.8663
  21   2.0000      -0.599106       -16.3025
  22   2.0000      -0.594851       -16.1867
  23   2.0000      -0.581967       -15.8361
  24   2.0000      -0.570035       -15.5114
  25   2.0000      -0.553114       -15.0510
  26   2.0000      -0.543010       -14.7761
  27   2.0000      -0.514552       -14.0017
  28   2.0000      -0.500604       -13.6221
  29   2.0000      -0.490724       -13.3533
  30   2.0000      -0.450830       -12.2677
  31   2.0000      -0.446586       -12.1522
  32   2.0000      -0.428221       -11.6525
  33   2.0000      -0.401345       -10.9212
  34   2.0000      -0.372106       -10.1255
  35   0.0000       0.128899         3.5075
  36   0.0000       0.145905         3.9703
  37   0.0000       0.153548         4.1783
  38   0.0000       0.167518         4.5584
  39   0.0000       0.189258         5.1500

MULLIKEN ATOMIC CHARGES
-----------------------
   0 C :   -0.384185
   1 C :   -0.101891
   2 C :   -0.090251
   3 C :   -0.179854
   4 C :   -0.012822
   5 O :   -0.469856
   6 C :   -0.169574
   7 C :   -0.036492
   8 C :   -0.439260
   9 H :    0.112975
  10 H :    0.134759
  11 H :    0.128537
  12 H :    0.099346
  13 H :    0.128536
  14 H :    0.114635
  15 H :    0.116457
  16 H :    0.094301
  17 H :    0.317018
  18 H :    0.128721
  19 H :    0.102387
  20 H :    0.135579
  21 H :    0.133248
  22 H :    0.137686
Sum of atomic charges:   -0.0000000

LOEWDIN ATOMIC CHARGES
----------------------
   0 C :   -0.297807
   1 C :   -0.212325
   2 C :   -0.140602
   3 C :   -0.207089
   4 C :   -0.330749
   5 O :   -0.048510
   6 C :   -0.149853
   7 C :   -0.212109
   8 C :   -0.301455
   9 H :    0.116868
  10 H :    0.127424
  11 H :    0.124442
  12 H :    0.155300
  13 H :    0.135570
  14 H :    0.164247
  15 H :    0.132347
  16 H :    0.111379
  17 H :    0.171173
  18 H :    0.134814
  19 H :    0.153894
  20 H :    0.120909
  21 H :    0.126013
  22 H :    0.126120

  Mayer bond orders larger than 0.1
B(  0-C ,  1-C ) :   0.9154 B(  0-C ,  9-H ) :   0.9321 B(  0-C , 10-H ) :   0.9357
B(  0-C , 11-H ) :   0.9375 B(  1-C ,  2-C ) :   0.9151 B(  1-C ,  7-C ) :   0.9600
B(  1-C , 12-H ) :   0.9289 B(  2-C ,  3-C ) :   0.8474 B(  2-C ,  6-C ) :   0.7890
B(  2-C , 13-H ) :   0.9202 B(  3-C ,  4-C ) :   0.9349 B(  3-C ,  6-C ) :   0.8958
B(  3-C , 14-H ) :   0.9319 B(  4-C ,  5-O ) :   0.9125 B(  4-C , 15-H ) :   0.9264
B(  4-C , 16-H ) :   0.9316 B(  5-O , 17-H ) :   0.8452 B(  6-C ,  7-C ) :   0.9029
B(  6-C , 18-H ) :   0.9275 B(  7-C ,  8-C ) :   0.8994 B(  7-C , 19-H ) :   0.9274
B(  8-C , 20-H ) :   0.9360 B(  8-C , 21-H ) :   0.9348 B(  8-C , 22-H ) :   0.9376

MP2 TOTAL ENERGY:     -387.579708578 Eh
FINAL SINGLE POINT ENERGY      -387.579708577980

DIPOLE MOMENT
-------------
                                X             Y             Z
Electronic contribution:      2.94479      -3.31247      -2.99337
Nuclear contribution   :     -3.68258       3.00922       3.38534
                        -----------------------------------------
Total Dipole Moment    :     -0.73779      -0.30325       0.39197
                        -----------------------------------------
Magnitude (a.u.)       :      0.88878
Magnitude (Debye)      :      2.25911

                             ****ORCA TERMINATED NORMALLY****
TOTAL RUN TIME: 0 days 0 hours 20 minutes 54 seconds 246 msec
