                         Program Version 3.0.3 - RELEASE   -
|  1> ! RI-MP2 RIJK def2-TZVP def2-TZVP/C def2-TZVP/JK TIGHTSCF
|  2> % maxcore 2000
|  3> % mp2 density relaxed end
|  4> *xyz 0 1
|  5>  C       -0.0034055886     1.4247627060     0.0291501602
|  6>  C       -0.0498618144    -0.0742293138    -0.0057855113
|  7>  O        0.9633418806    -0.6619911841    -0.7988326906
|  8>  C        0.4656029004    -1.9256361167    -1.2583997911
|  9>  C       -0.6706438792    -2.2419272915    -0.2965742196
| 10>  N       -0.0748744360    -2.2500485064     1.0957175435
| 11>  C       -0.5042713698    -0.8439585336     1.2479364551
| 12>  C       -1.3221327684    -0.8397031446    -0.0463767761
| 13>  O       -2.5265999234    -0.3341373133    -0.4842689519
| 14>  H        0.9602357209     1.7684422018     0.4167554005
| 15>  H       -0.1374823651     1.8354899466    -0.9757338456
| 16>  H       -0.7975595282     1.8192014658     0.6685959532
| 17>  H        0.1030936604    -1.8455704448    -2.2952794574
| 18>  H        1.2767613428    -2.6568668869    -1.2074466470
| 19>  H       -1.2955423127    -3.0985562920    -0.5496383003
| 20>  H       -0.6706426274    -2.8242876056     1.6893786414
| 21>  H       -0.6275538071    -0.3706165082     2.2163385585
| 22>  H       -3.2398047548    -0.7910446187    -0.0238935715
| 23> *
| 24>
| 25>                          ****END OF INPUT****

CARTESIAN COORDINATES (ANGSTROEM)
---------------------------------
  C     -0.003406    1.424763    0.029150
  C     -0.049862   -0.074229   -0.005786
  O      0.963342   -0.661991   -0.798833
  C      0.465603   -1.925636   -1.258400
  C     -0.670644   -2.241927   -0.296574
  N     -0.074874   -2.250049    1.095718
  C     -0.504271   -0.843959    1.247936
  C     -1.322133   -0.839703   -0.046377
  O     -2.526600   -0.334137   -0.484269
  H      0.960236    1.768442    0.416755
  H     -0.137482    1.835490   -0.975734
  H     -0.797560    1.819201    0.668596
  H      0.103094   -1.845570   -2.295279
  H      1.276761   -2.656867   -1.207447
  H     -1.295542   -3.098556   -0.549638
  H     -0.670643   -2.824288    1.689379
  H     -0.627554   -0.370617    2.216339
  H     -3.239805   -0.791045   -0.023894

 Total Charge           Charge          ....    0
 Multiplicity           Mult            ....    1
 Number of Electrons    NEL             ....   68
 Basis Dimension        Dim             ....  333

ORBITAL ENERGIES
----------------

  NO   OCC          E(Eh)            E(eV)
   0   2.0000     -20.583829      -560.1145
   1   2.0000     -20.550003      -559.1940
   2   2.0000     -15.554075      -423.2479
   3   2.0000     -11.289807      -307.2113
   4   2.0000     -11.284891      -307.0775
   5   2.0000     -11.272068      -306.7286
   6   2.0000     -11.270378      -306.6826
   7   2.0000     -11.264344      -306.5184
   8   2.0000     -11.218961      -305.2835
   9   2.0000      -1.401008       -38.1234
  10   2.0000      -1.376457       -37.4553
  11   2.0000      -1.244769       -33.8719
  12   2.0000      -1.081992       -29.4425
  13   2.0000      -0.998749       -27.1773
  14   2.0000      -0.949674       -25.8419
  15   2.0000      -0.855576       -23.2814
  16   2.0000      -0.787173       -21.4201
  17   2.0000      -0.749591       -20.3974
  18   2.0000      -0.720281       -19.5998
  19   2.0000      -0.678222       -18.4554
  20   2.0000      -0.667255       -18.1569
  21   2.0000      -0.630846       -17.1662
  22   2.0000      -0.605757       -16.4835
  23   2.0000      -0.582019       -15.8375
  24   2.0000      -0.562928       -15.3181
  25   2.0000      -0.561425       -15.2772
  26   2.0000      -0.541944       -14.7470
  27   2.0000      -0.523061       -14.2332
  28   2.0000      -0.503273       -13.6947
  29   2.0000      -0.497009       -13.5243
  30   2.0000      -0.470857       -12.8127
  31   2.0000      -0.423377       -11.5207
  32   2.0000      -0.370145       -10.0722
  33   2.0000      -0.353786        -9.6270
  34   0.0000       0.122415         3.3311
  35   0.0000       0.149040         4.0556
  36   0.0000       0.159631         4.3438
  37   0.0000       0.169648         4.6163
  38   0.0000       0.195089         5.3086

MULLIKEN ATOMIC CHARGES
-----------------------
   0 C :   -0.437719
   1 C :    0.272977
   2 O :   -0.313985
   3 C :   -0.023568
   4 C :   -0.028020
   5 N :   -0.327628
   6 C :   -0.153462
   7 C :    0.009061
   8 O :   -0.435010
   9 H :    0.147339
  10 H :    0.140723
  11 H :    0.135196
  12 H :    0.088098
  13 H :    0.113361
  14 H :    0.140723
  15 H :    0.204887
  16 H :    0.138267
  17 H :    0.328763
Sum of atomic charges:    0.0000000

LOEWDIN ATOMIC CHARGES
----------------------
   0 C :   -0.253871
   1 C :   -0.302651
   2 O :    0.199268
   3 C :   -0.268847
   4 C :   -0.213458
   5 N :    0.008334
   6 C :   -0.184567
   7 C :   -0.302066
   8 O :    0.038572
   9 H :    0.133800
  10 H :    0.134441
  11 H :    0.135879
  12 H :    0.123161
  13 H :    0.130778
  14 H :    0.138101
  15 H :    0.165536
  16 H :    0.132478
  17 H :    0.185111

  Mayer bond orders larger than 0.1
B(  0-C ,  1-C ) :   0.8764 B(  0-C ,  9-H ) :   0.9440 B(  0-C , 10-H ) :   0.9345
B(  0-C , 11-H ) :   0.9349 B(  1-C ,  2-O ) :   0.9534 B(  1-C ,  6-C ) :   0.8202
B(  1-C ,  7-C ) :   0.9008 B(  2-O ,  3-C ) :   0.9597 B(  3-C ,  4-C ) :   0.9575
B(  3-C , 12-H ) :   0.9259 B(  3-C , 13-H ) :   0.9032 B(  4-C ,  5-N ) :   0.9766
B(  4-C ,  7-C ) :   0.9489 B(  4-C , 14-H ) :   0.9020 B(  5-N ,  6-C ) :   0.9537
B(  5-N , 15-H ) :   0.8731 B(  6-C ,  7-C ) :   0.8328 B(  6-C , 16-H ) :   0.9135
B(  7-C ,  8-O ) :   1.1012 B(  8-O , 17-H ) :   0.8335

MP2 TOTAL ENERGY:     -438.310665073 Eh
FINAL SINGLE POINT ENERGY      -438.310665073296

DIPOLE MOMENT
-------------
                                X             Y             Z
Electronic contribution:     -0.68499      -1.85158      -0.11318
Nuclear contribution   :     -0.47298       1.37386       0.54383
                        -----------------------------------------
Total Dipole Moment    :     -1.15797      -0.47772       0.43065
                        -----------------------------------------
Magnitude (a.u.)       :      1.32460
Magnitude (Debye)      :      3.36687

                             ****ORCA TERMINATED NORMALLY****
TOTAL RUN TIME: 0 days 0 hours 16 minutes 23 seconds 713 msec
