                         Program Version 3.0.3 - RELEASE   -
|  1> ! RI-MP2 RIJK def2-TZVP def2-TZVP/C def2-TZVP/JK TIGHTSCF
|  2> % maxcore 2000
|  3> % mp2 density relaxed end
|  4> *xyz 0 1
|  5>  O        0.0345401084    -0.0417493804     0.0170540182
|  6>  C       -0.0405911739     1.1554731413     0.0207573493
|  7>  C       -1.1648721150     2.2166346378     0.1015404230
|  8>  C       -0.0261862839     3.2665828236     0.0117022974
|  9>  C        0.0640780124     4.3990552779    -1.0734016927
| 10>  C        0.2301197669     5.4092487902     0.0702448225
| 11>  O       -0.9167104746     5.2689389100     0.9169600430
| 12>  C        0.1670093739     4.3491428989     1.0898741696
| 13>  N        0.9119815818     2.1510418229    -0.0569447962
| 14>  H       -1.8552592479     2.2032090358    -0.7433411636
| 15>  H       -1.7280049556     2.2179729348     1.0362008793
| 16>  H        0.9620327713     4.2862534671    -1.6870877021
| 17>  H       -0.8066650336     4.5500892163    -1.7153977111
| 18>  H        0.7395133835     6.3652290732     0.0759641390
| 19>  H        0.6093150519     4.2609646046     2.0763662253
| 20>  H        1.9171115946     2.1133870761    -0.1483708509
| 21> *
| 22>
| 23>                          ****END OF INPUT****

CARTESIAN COORDINATES (ANGSTROEM)
---------------------------------
  O      0.034540   -0.041749    0.017054
  C     -0.040591    1.155473    0.020757
  C     -1.164872    2.216635    0.101540
  C     -0.026186    3.266583    0.011702
  C      0.064078    4.399055   -1.073402
  C      0.230120    5.409249    0.070245
  O     -0.916710    5.268939    0.916960
  C      0.167009    4.349143    1.089874
  N      0.911982    2.151042   -0.056945
  H     -1.855259    2.203209   -0.743341
  H     -1.728005    2.217973    1.036201
  H      0.962033    4.286253   -1.687088
  H     -0.806665    4.550089   -1.715398
  H      0.739513    6.365229    0.075964
  H      0.609315    4.260965    2.076366
  H      1.917112    2.113387   -0.148371

 Total Charge           Charge          ....    0
 Multiplicity           Mult            ....    1
 Number of Electrons    NEL             ....   66
 Basis Dimension        Dim             ....  321

ORBITAL ENERGIES
----------------

  NO   OCC          E(Eh)            E(eV)
   0   2.0000     -20.585607      -560.1628
   1   2.0000     -20.530276      -558.6572
   2   2.0000     -15.592474      -424.2928
   3   2.0000     -11.356997      -309.0396
   4   2.0000     -11.305713      -307.6441
   5   2.0000     -11.304498      -307.6110
   6   2.0000     -11.300986      -307.5155
   7   2.0000     -11.251941      -306.1809
   8   2.0000     -11.250855      -306.1513
   9   2.0000      -1.437020       -39.1033
  10   2.0000      -1.392920       -37.9033
  11   2.0000      -1.278724       -34.7958
  12   2.0000      -1.083509       -29.4838
  13   2.0000      -1.006688       -27.3934
  14   2.0000      -0.919427       -25.0189
  15   2.0000      -0.872035       -23.7293
  16   2.0000      -0.793937       -21.6041
  17   2.0000      -0.775803       -21.1107
  18   2.0000      -0.740327       -20.1453
  19   2.0000      -0.672930       -18.3114
  20   2.0000      -0.663743       -18.0614
  21   2.0000      -0.639434       -17.3999
  22   2.0000      -0.614230       -16.7140
  23   2.0000      -0.604503       -16.4493
  24   2.0000      -0.572420       -15.5763
  25   2.0000      -0.541098       -14.7240
  26   2.0000      -0.535447       -14.5703
  27   2.0000      -0.514947       -14.0124
  28   2.0000      -0.501709       -13.6522
  29   2.0000      -0.476609       -12.9692
  30   2.0000      -0.427729       -11.6391
  31   2.0000      -0.415167       -11.2973
  32   2.0000      -0.394747       -10.7416
  33   0.0000       0.127091         3.4583
  34   0.0000       0.148685         4.0459
  35   0.0000       0.155561         4.2330
  36   0.0000       0.165288         4.4977
  37   0.0000       0.179707         4.8901

MULLIKEN ATOMIC CHARGES
-----------------------
   0 O :   -0.303932
   1 C :    0.210340
   2 C :   -0.249398
   3 C :    0.297175
   4 C :   -0.234877
   5 C :   -0.015984
   6 O :   -0.312471
   7 C :   -0.080024
   8 N :   -0.371888
   9 H :    0.137550
  10 H :    0.143930
  11 H :    0.125823
  12 H :    0.127831
  13 H :    0.141563
  14 H :    0.149784
  15 H :    0.234578
Sum of atomic charges:    0.0000000

LOEWDIN ATOMIC CHARGES
----------------------
   0 O :    0.107707
   1 C :   -0.429255
   2 C :   -0.158414
   3 C :   -0.235896
   4 C :   -0.179819
   5 C :   -0.240060
   6 O :    0.181935
   7 C :   -0.213024
   8 N :    0.159123
   9 H :    0.145500
  10 H :    0.147547
  11 H :    0.140849
  12 H :    0.136327
  13 H :    0.130633
  14 H :    0.134109
  15 H :    0.172738

  Mayer bond orders larger than 0.1
B(  0-O ,  1-C ) :   2.0417 B(  1-C ,  2-C ) :   0.8925 B(  1-C ,  8-N ) :   1.1350
B(  2-C ,  3-C ) :   0.8725 B(  2-C ,  9-H ) :   0.9043 B(  2-C , 10-H ) :   0.9011
B(  3-C ,  4-C ) :   0.9287 B(  3-C ,  7-C ) :   0.8377 B(  3-C ,  8-N ) :   0.8677
B(  4-C ,  5-C ) :   0.9303 B(  4-C , 11-H ) :   0.9152 B(  4-C , 12-H ) :   0.9028
B(  5-C ,  6-O ) :   0.9142 B(  5-C ,  7-C ) :   0.9312 B(  5-C , 13-H ) :   0.9293
B(  6-O ,  7-C ) :   0.9264 B(  7-C , 14-H ) :   0.9256 B(  8-N , 15-H ) :   0.8558

MP2 TOTAL ENERGY:     -437.135121558 Eh
FINAL SINGLE POINT ENERGY      -437.135121557620

DIPOLE MOMENT
-------------
                                X             Y             Z
Electronic contribution:      0.37546      -2.65559       1.58038
Nuclear contribution   :      0.40761       3.91404      -1.85128
                        -----------------------------------------
Total Dipole Moment    :      0.78307       1.25846      -0.27090
                        -----------------------------------------
Magnitude (a.u.)       :      1.50675
Magnitude (Debye)      :      3.82986

                             ****ORCA TERMINATED NORMALLY****
TOTAL RUN TIME: 0 days 0 hours 16 minutes 29 seconds 523 msec
