                         Program Version 3.0.3 - RELEASE   -
|  1> ! RI-MP2 RIJK def2-TZVP def2-TZVP/C def2-TZVP/JK TIGHTSCF
|  2> % maxcore 2000
|  3> % mp2 density relaxed end
|  4> *xyz 0 1
|  5>  C        0.0452966930     1.5308256303    -0.0054672563
|  6>  C        1.3270162526     0.7160009072     0.0413232959
|  7>  C        0.0011318414     0.0271601679    -0.0129071997
|  8>  O       -0.4357705268    -0.6461552017     1.1608824044
|  9>  C       -1.4604542953    -1.5272028627     0.7260372130
| 10>  C       -2.5786353396    -0.7638638248    -0.0249782264
| 11>  N       -1.9350317612    -1.0497445002    -1.3559540068
| 12>  C       -1.0383019503    -2.0511581744    -0.6699043786
| 13>  C       -0.4670845220    -0.7953668466    -1.1816977243
| 14>  H       -0.2627377617     2.0230629980     0.9099416257
| 15>  H       -0.2023007751     2.0609221688    -0.9191954335
| 16>  H        1.9646642715     0.6909887341    -0.8359791309
| 17>  H        1.8524914785     0.6683582664     0.9884650085
| 18>  H       -1.7133362735    -2.2059346208     1.5387112146
| 19>  H       -3.5437725057    -1.2757042732     0.0036529754
| 20>  H       -2.7082083575     0.2938192581     0.2223343066
| 21>  H       -0.8655882887    -3.0584745481    -1.0271243379
| 22>  H        0.0710490404    -0.7514069683    -2.1210017997
| 23> *
| 24>
| 25>                          ****END OF INPUT****

CARTESIAN COORDINATES (ANGSTROEM)
---------------------------------
  C      0.045297    1.530826   -0.005467
  C      1.327016    0.716001    0.041323
  C      0.001132    0.027160   -0.012907
  O     -0.435771   -0.646155    1.160882
  C     -1.460454   -1.527203    0.726037
  C     -2.578635   -0.763864   -0.024978
  N     -1.935032   -1.049745   -1.355954
  C     -1.038302   -2.051158   -0.669904
  C     -0.467085   -0.795367   -1.181698
  H     -0.262738    2.023063    0.909942
  H     -0.202301    2.060922   -0.919195
  H      1.964664    0.690989   -0.835979
  H      1.852491    0.668358    0.988465
  H     -1.713336   -2.205935    1.538711
  H     -3.543773   -1.275704    0.003653
  H     -2.708208    0.293819    0.222334
  H     -0.865588   -3.058475   -1.027124
  H      0.071049   -0.751407   -2.121002

 Total Charge           Charge          ....    0
 Multiplicity           Mult            ....    1
 Number of Electrons    NEL             ....   66
 Basis Dimension        Dim             ....  333

ORBITAL ENERGIES
----------------

  NO   OCC          E(Eh)            E(eV)
   0   2.0000     -20.563600      -559.5640
   1   2.0000     -15.566812      -423.5945
   2   2.0000     -11.293952      -307.3241
   3   2.0000     -11.293532      -307.3126
   4   2.0000     -11.268739      -306.6380
   5   2.0000     -11.263082      -306.4840
   6   2.0000     -11.255356      -306.2738
   7   2.0000     -11.230522      -305.5980
   8   2.0000     -11.228543      -305.5442
   9   2.0000      -1.403809       -38.1996
  10   2.0000      -1.280747       -34.8509
  11   2.0000      -1.141050       -31.0496
  12   2.0000      -1.001818       -27.2609
  13   2.0000      -0.930081       -25.3088
  14   2.0000      -0.873332       -23.7646
  15   2.0000      -0.834595       -22.7105
  16   2.0000      -0.796022       -21.6609
  17   2.0000      -0.744469       -20.2580
  18   2.0000      -0.707082       -19.2407
  19   2.0000      -0.663924       -18.0663
  20   2.0000      -0.640954       -17.4413
  21   2.0000      -0.609593       -16.5879
  22   2.0000      -0.603537       -16.4231
  23   2.0000      -0.580612       -15.7993
  24   2.0000      -0.555305       -15.1106
  25   2.0000      -0.536735       -14.6053
  26   2.0000      -0.523007       -14.2317
  27   2.0000      -0.484669       -13.1885
  28   2.0000      -0.455939       -12.4067
  29   2.0000      -0.445979       -12.1357
  30   2.0000      -0.412112       -11.2141
  31   2.0000      -0.403157       -10.9705
  32   2.0000      -0.356557        -9.7024
  33   0.0000       0.149080         4.0567
  34   0.0000       0.161079         4.3832
  35   0.0000       0.163180         4.4404
  36   0.0000       0.178843         4.8666
  37   0.0000       0.187876         5.1124

MULLIKEN ATOMIC CHARGES
-----------------------
   0 C :   -0.282490
   1 C :   -0.304325
   2 C :    0.171425
   3 O :   -0.290979
   4 C :    0.043355
   5 C :   -0.131183
   6 N :   -0.233498
   7 C :   -0.083075
   8 C :   -0.077291
   9 H :    0.133208
  10 H :    0.132106
  11 H :    0.130660
  12 H :    0.137385
  13 H :    0.132143
  14 H :    0.124425
  15 H :    0.115439
  16 H :    0.142740
  17 H :    0.139954
Sum of atomic charges:   -0.0000000

LOEWDIN ATOMIC CHARGES
----------------------
   0 C :   -0.204187
   1 C :   -0.199028
   2 C :   -0.305414
   3 O :    0.223815
   4 C :   -0.268160
   5 C :   -0.227169
   6 N :    0.116460
   7 C :   -0.171880
   8 C :   -0.194109
   9 H :    0.138349
  10 H :    0.135156
  11 H :    0.134662
  12 H :    0.141191
  13 H :    0.136058
  14 H :    0.133067
  15 H :    0.125481
  16 H :    0.132497
  17 H :    0.153210

  Mayer bond orders larger than 0.1
B(  0-C ,  1-C ) :   0.9440 B(  0-C ,  2-C ) :   0.8693 B(  0-C ,  9-H ) :   0.9179
B(  0-C , 10-H ) :   0.9135 B(  1-C ,  2-C ) :   0.8749 B(  1-C , 11-H ) :   0.9192
B(  1-C , 12-H ) :   0.9160 B(  2-C ,  3-O ) :   0.9622 B(  2-C ,  8-C ) :   0.9083
B(  3-O ,  4-C ) :   0.9761 B(  4-C ,  5-C ) :   0.9082 B(  4-C ,  7-C ) :   0.9070
B(  4-C , 13-H ) :   0.9302 B(  5-C ,  6-N ) :   0.9231 B(  5-C , 14-H ) :   0.9200
B(  5-C , 15-H ) :   0.9162 B(  6-N ,  7-C ) :   0.8568 B(  6-N ,  8-C ) :   0.9590
B(  7-C ,  8-C ) :   0.9503 B(  7-C , 16-H ) :   0.9059 B(  8-C , 17-H ) :   0.9101

MP2 TOTAL ENERGY:     -401.187101663 Eh
FINAL SINGLE POINT ENERGY      -401.187101663109

DIPOLE MOMENT
-------------
                                X             Y             Z
Electronic contribution:     -0.89923      -2.81771       0.21282
Nuclear contribution   :      1.06902       2.71886      -0.10826
                        -----------------------------------------
Total Dipole Moment    :      0.16978      -0.09885       0.10456
                        -----------------------------------------
Magnitude (a.u.)       :      0.22255
Magnitude (Debye)      :      0.56569

                             ****ORCA TERMINATED NORMALLY****
TOTAL RUN TIME: 0 days 0 hours 18 minutes 42 seconds 284 msec
