                         Program Version 3.0.3 - RELEASE   -
|  1> ! RI-MP2 RIJK def2-TZVP def2-TZVP/C def2-TZVP/JK TIGHTSCF
|  2> % maxcore 2000
|  3> % mp2 density relaxed end
|  4> *xyz 0 1
|  5>  O       -0.0178233853    -0.0734654937     0.0274078542
|  6>  C        0.0063405324     1.1461861801     0.0030273046
|  7>  N       -1.1491665630     1.8918457670    -0.0471127733
|  8>  C       -1.2378954866     3.3132012490     0.0744662880
|  9>  C       -0.7939368418     4.0221516904     1.3259448364
| 10>  C        0.0696597412     4.0765474382     0.0670784486
| 11>  C        1.2977046196     3.2617901685    -0.0180083427
| 12>  C        1.2678812479     1.9246161900    -0.0155804889
| 13>  H       -1.9979045445     1.3482658394     0.0051442911
| 14>  H       -2.0732804223     3.7368376084    -0.4738946232
| 15>  H       -1.3126698545     4.9301443427     1.6124725664
| 16>  H       -0.4299020206     3.4126519636     2.1451998019
| 17>  H        0.0948394860     5.0281263923    -0.4534805555
| 18>  H        2.2457550219     3.7890809895    -0.0902242362
| 19>  H        2.1672922097     1.3222320945    -0.0576688413
| 20> *
| 21>
| 22>                          ****END OF INPUT****

CARTESIAN COORDINATES (ANGSTROEM)
---------------------------------
  O     -0.017823   -0.073465    0.027408
  C      0.006341    1.146186    0.003027
  N     -1.149167    1.891846   -0.047113
  C     -1.237895    3.313201    0.074466
  C     -0.793937    4.022152    1.325945
  C      0.069660    4.076547    0.067078
  C      1.297705    3.261790   -0.018008
  C      1.267881    1.924616   -0.015580
  H     -1.997905    1.348266    0.005144
  H     -2.073280    3.736838   -0.473895
  H     -1.312670    4.930144    1.612473
  H     -0.429902    3.412652    2.145200
  H      0.094839    5.028126   -0.453481
  H      2.245755    3.789081   -0.090224
  H      2.167292    1.322232   -0.057669

 Total Charge           Charge          ....    0
 Multiplicity           Mult            ....    1
 Number of Electrons    NEL             ....   58
 Basis Dimension        Dim             ....  290

ORBITAL ENERGIES
----------------

  NO   OCC          E(Eh)            E(eV)
   0   2.0000     -20.510821      -558.1278
   1   2.0000     -15.583419      -424.0464
   2   2.0000     -11.347472      -308.7804
   3   2.0000     -11.292236      -307.2774
   4   2.0000     -11.266957      -306.5895
   5   2.0000     -11.259879      -306.3969
   6   2.0000     -11.247061      -306.0481
   7   2.0000     -11.239313      -305.8373
   8   2.0000      -1.375391       -37.4263
   9   2.0000      -1.254262       -34.1302
  10   2.0000      -1.140811       -31.0430
  11   2.0000      -1.072076       -29.1727
  12   2.0000      -0.900369       -24.5003
  13   2.0000      -0.866849       -23.5882
  14   2.0000      -0.827202       -22.5093
  15   2.0000      -0.740797       -20.1581
  16   2.0000      -0.700000       -19.0480
  17   2.0000      -0.683733       -18.6053
  18   2.0000      -0.646810       -17.6006
  19   2.0000      -0.632774       -17.2186
  20   2.0000      -0.583282       -15.8719
  21   2.0000      -0.572761       -15.5856
  22   2.0000      -0.565816       -15.3966
  23   2.0000      -0.527377       -14.3506
  24   2.0000      -0.495215       -13.4755
  25   2.0000      -0.468722       -12.7546
  26   2.0000      -0.422109       -11.4862
  27   2.0000      -0.371644       -10.1129
  28   2.0000      -0.363442        -9.8897
  29   0.0000       0.098539         2.6814
  30   0.0000       0.134031         3.6472
  31   0.0000       0.155574         4.2334
  32   0.0000       0.168696         4.5904
  33   0.0000       0.172770         4.7013

MULLIKEN ATOMIC CHARGES
-----------------------
   0 O :   -0.354640
   1 C :    0.242439
   2 N :   -0.308080
   3 C :   -0.000480
   4 C :   -0.278697
   5 C :   -0.036734
   6 C :   -0.168105
   7 C :   -0.180317
   8 H :    0.240735
   9 H :    0.137767
  10 H :    0.136187
  11 H :    0.152971
  12 H :    0.138420
  13 H :    0.135263
  14 H :    0.143271
Sum of atomic charges:    0.0000000

LOEWDIN ATOMIC CHARGES
----------------------
   0 O :    0.079071
   1 C :   -0.442257
   2 N :    0.141549
   3 C :   -0.233486
   4 C :   -0.192635
   5 C :   -0.185405
   6 C :   -0.120845
   7 C :   -0.122947
   8 H :    0.194059
   9 H :    0.146537
  10 H :    0.135181
  11 H :    0.142084
  12 H :    0.153602
  13 H :    0.149881
  14 H :    0.155609

  Mayer bond orders larger than 0.1
B(  0-O ,  1-C ) :   1.9508 B(  1-C ,  2-N ) :   1.1614 B(  1-C ,  7-C ) :   0.9796
B(  2-N ,  3-C ) :   0.9314 B(  2-N ,  8-H ) :   0.8593 B(  3-C ,  4-C ) :   0.8900
B(  3-C ,  5-C ) :   0.8765 B(  3-C ,  9-H ) :   0.9271 B(  4-C ,  5-C ) :   0.8255
B(  4-C , 10-H ) :   0.9223 B(  4-C , 11-H ) :   0.9241 B(  5-C ,  6-C ) :   0.9580
B(  5-C , 12-H ) :   0.9214 B(  6-C ,  7-C ) :   1.6848 B(  6-C , 13-H ) :   0.9237
B(  7-C , 14-H ) :   0.9302

MP2 TOTAL ENERGY:     -362.064452337 Eh
FINAL SINGLE POINT ENERGY      -362.064452337448

DIPOLE MOMENT
-------------
                                X             Y             Z
Electronic contribution:      0.24621      -4.59550      -1.25801
Nuclear contribution   :     -0.60549       6.29138       1.32953
                        -----------------------------------------
Total Dipole Moment    :     -0.35928       1.69588       0.07152
                        -----------------------------------------
Magnitude (a.u.)       :      1.73499
Magnitude (Debye)      :      4.41001

                             ****ORCA TERMINATED NORMALLY****
TOTAL RUN TIME: 0 days 0 hours 12 minutes 21 seconds 74 msec
