                         Program Version 3.0.3 - RELEASE   -
|  1> ! RI-MP2 RIJK def2-TZVP def2-TZVP/C def2-TZVP/JK TIGHTSCF
|  2> % maxcore 2000
|  3> % mp2 density relaxed end
|  4> *xyz 0 1
|  5>  N       -0.1758443773     1.3062358538    -0.0943725008
|  6>  C        0.0675411258    -0.0368992424    -0.0359128941
|  7>  O        1.1589590640    -0.5539563290    -0.0335865240
|  8>  O       -1.1084822400    -0.7168237403    -0.0154911614
|  9>  C       -0.9813299054    -2.1440529002    -0.0074382382
| 10>  C       -2.4046171552    -2.7064686331    -0.0042617488
| 11>  C       -2.4085298637    -4.1632294573     0.0074199032
| 12>  C       -2.3830053869    -5.3643452559     0.0171683758
| 13>  H        0.6076469132     1.9076099842     0.0928420856
| 14>  H       -1.0966620226     1.6444933751     0.1269780605
| 15>  H       -0.4257093230    -2.4742082846    -0.8892231981
| 16>  H       -0.4257450143    -2.4649154239     0.8780230730
| 17>  H       -2.9399220925    -2.3193825304     0.8710906395
| 18>  H       -2.9380595525    -2.3330254930    -0.8865514049
| 19>  H       -2.3722344897    -6.4260608230     0.0253737827
| 20> *
| 21>
| 22>                          ****END OF INPUT****

CARTESIAN COORDINATES (ANGSTROEM)
---------------------------------
  N     -0.175844    1.306236   -0.094373
  C      0.067541   -0.036899   -0.035913
  O      1.158959   -0.553956   -0.033587
  O     -1.108482   -0.716824   -0.015491
  C     -0.981330   -2.144053   -0.007438
  C     -2.404617   -2.706469   -0.004262
  C     -2.408530   -4.163229    0.007420
  C     -2.383005   -5.364345    0.017168
  H      0.607647    1.907610    0.092842
  H     -1.096662    1.644493    0.126978
  H     -0.425709   -2.474208   -0.889223
  H     -0.425745   -2.464915    0.878023
  H     -2.939922   -2.319383    0.871091
  H     -2.938060   -2.333025   -0.886551
  H     -2.372234   -6.426061    0.025374

 Total Charge           Charge          ....    0
 Multiplicity           Mult            ....    1
 Number of Electrons    NEL             ....   60
 Basis Dimension        Dim             ....  290

ORBITAL ENERGIES
----------------

  NO   OCC          E(Eh)            E(eV)
   0   2.0000     -20.605829      -560.7131
   1   2.0000     -20.529766      -558.6433
   2   2.0000     -15.589667      -424.2164
   3   2.0000     -11.406298      -310.3811
   4   2.0000     -11.297802      -307.4288
   5   2.0000     -11.262525      -306.4689
   6   2.0000     -11.240098      -305.8586
   7   2.0000     -11.227492      -305.5156
   8   2.0000      -1.467734       -39.9391
   9   2.0000      -1.361275       -37.0422
  10   2.0000      -1.222237       -33.2588
  11   2.0000      -1.090502       -29.6741
  12   2.0000      -1.004113       -27.3233
  13   2.0000      -0.901781       -24.5387
  14   2.0000      -0.809573       -22.0296
  15   2.0000      -0.757558       -20.6142
  16   2.0000      -0.726251       -19.7623
  17   2.0000      -0.707642       -19.2559
  18   2.0000      -0.696344       -18.9485
  19   2.0000      -0.655006       -17.8236
  20   2.0000      -0.618677       -16.8351
  21   2.0000      -0.617166       -16.7939
  22   2.0000      -0.595114       -16.1939
  23   2.0000      -0.545709       -14.8495
  24   2.0000      -0.532448       -14.4886
  25   2.0000      -0.470859       -12.8127
  26   2.0000      -0.462961       -12.5978
  27   2.0000      -0.434299       -11.8179
  28   2.0000      -0.394675       -10.7397
  29   2.0000      -0.392700       -10.6859
  30   0.0000       0.127386         3.4663
  31   0.0000       0.143920         3.9163
  32   0.0000       0.167082         4.5465
  33   0.0000       0.174640         4.7522
  34   0.0000       0.178434         4.8554

MULLIKEN ATOMIC CHARGES
-----------------------
   0 N :   -0.510409
   1 C :    0.413902
   2 O :   -0.370670
   3 O :   -0.284133
   4 C :   -0.049006
   5 C :   -0.262990
   6 C :   -0.071384
   7 C :   -0.153662
   8 H :    0.270695
   9 H :    0.267739
  10 H :    0.132997
  11 H :    0.131301
  12 H :    0.145458
  13 H :    0.147471
  14 H :    0.192691
Sum of atomic charges:   -0.0000000

LOEWDIN ATOMIC CHARGES
----------------------
   0 N :   -0.034980
   1 C :   -0.612137
   2 O :    0.079798
   3 O :    0.223533
   4 C :   -0.263933
   5 C :   -0.248985
   6 C :   -0.112028
   7 C :   -0.098788
   8 H :    0.178266
   9 H :    0.174610
  10 H :    0.134973
  11 H :    0.134253
  12 H :    0.158718
  13 H :    0.159300
  14 H :    0.127401

  Mayer bond orders larger than 0.1
B(  0-N ,  1-C ) :   1.1601 B(  0-N ,  8-H ) :   0.8667 B(  0-N ,  9-H ) :   0.8647
B(  1-C ,  2-O ) :   1.9390 B(  1-C ,  3-O ) :   1.0654 B(  3-O ,  4-C ) :   0.8627
B(  4-C ,  5-C ) :   0.9290 B(  4-C , 10-H ) :   0.9348 B(  4-C , 11-H ) :   0.9356
B(  5-C ,  6-C ) :   1.0473 B(  5-C , 12-H ) :   0.9197 B(  5-C , 13-H ) :   0.9195
B(  6-C ,  7-C ) :   2.6319 B(  7-C , 14-H ) :   0.9031

MP2 TOTAL ENERGY:     -399.156750301 Eh
FINAL SINGLE POINT ENERGY      -399.156750301154

DIPOLE MOMENT
-------------
                                X             Y             Z
Electronic contribution:      1.88216       1.38941      -0.08635
Nuclear contribution   :     -2.65158      -0.74857       0.33005
                        -----------------------------------------
Total Dipole Moment    :     -0.76942       0.64085       0.24369
                        -----------------------------------------
Magnitude (a.u.)       :      1.03057
Magnitude (Debye)      :      2.61950

                             ****ORCA TERMINATED NORMALLY****
TOTAL RUN TIME: 0 days 0 hours 9 minutes 41 seconds 514 msec
