                         Program Version 3.0.3 - RELEASE   -
|  1> ! RI-MP2 RIJK def2-TZVP def2-TZVP/C def2-TZVP/JK TIGHTSCF
|  2> % maxcore 2000
|  3> % mp2 density relaxed end
|  4> *xyz 0 1
|  5>  C       -0.0312905878     1.4707109569     0.0496892495
|  6>  C        0.0063032546    -0.0173366601    -0.0225099860
|  7>  N        0.0673099863    -0.6862378819    -1.1083420154
|  8>  C        0.0699329976    -2.1191398491    -0.7460099826
|  9>  C        1.1910838379    -2.8284192558    -1.3749907608
| 10>  N        2.0772243024    -3.4042225178    -1.8414273681
| 11>  C        0.1022404616    -2.1431178263     0.7918616071
| 12>  C        1.2220779449    -1.4547464588     1.4701480511
| 13>  N       -0.0614552035    -0.7404529027     1.2185621299
| 14>  H        0.7911177485     1.8383017375     0.6729104310
| 15>  H        0.0424799925     1.9015107352    -0.9484351676
| 16>  H       -0.9610228007     1.7960076536     0.5272643804
| 17>  H       -0.8574084425    -2.5789705841    -1.1100178728
| 18>  H       -0.4847085738    -2.8886474461     1.3152788835
| 19>  H        1.4251774784    -1.6629587022     2.5151696390
| 20>  H        2.0823095638    -1.1610387081     0.8745575119
| 21> *
| 22>
| 23>                          ****END OF INPUT****

CARTESIAN COORDINATES (ANGSTROEM)
---------------------------------
  C     -0.031291    1.470711    0.049689
  C      0.006303   -0.017337   -0.022510
  N      0.067310   -0.686238   -1.108342
  C      0.069933   -2.119140   -0.746010
  C      1.191084   -2.828419   -1.374991
  N      2.077224   -3.404223   -1.841427
  C      0.102240   -2.143118    0.791862
  C      1.222078   -1.454746    1.470148
  N     -0.061455   -0.740453    1.218562
  H      0.791118    1.838302    0.672910
  H      0.042480    1.901511   -0.948435
  H     -0.961023    1.796008    0.527264
  H     -0.857408   -2.578971   -1.110018
  H     -0.484709   -2.888647    1.315279
  H      1.425177   -1.662959    2.515170
  H      2.082310   -1.161039    0.874558

 Total Charge           Charge          ....    0
 Multiplicity           Mult            ....    1
 Number of Electrons    NEL             ....   64
 Basis Dimension        Dim             ....  321

ORBITAL ENERGIES
----------------

  NO   OCC          E(Eh)            E(eV)
   0   2.0000     -15.600979      -424.5242
   1   2.0000     -15.574070      -423.7920
   2   2.0000     -15.573332      -423.7719
   3   2.0000     -11.334059      -308.4154
   4   2.0000     -11.323975      -308.1410
   5   2.0000     -11.299735      -307.4814
   6   2.0000     -11.295571      -307.3681
   7   2.0000     -11.275637      -306.8257
   8   2.0000     -11.246561      -306.0345
   9   2.0000      -1.358911       -36.9778
  10   2.0000      -1.228153       -33.4197
  11   2.0000      -1.211780       -32.9742
  12   2.0000      -1.081347       -29.4249
  13   2.0000      -0.983138       -26.7525
  14   2.0000      -0.931583       -25.3497
  15   2.0000      -0.861052       -23.4304
  16   2.0000      -0.768836       -20.9211
  17   2.0000      -0.727624       -19.7997
  18   2.0000      -0.718525       -19.5521
  19   2.0000      -0.649563       -17.6755
  20   2.0000      -0.616244       -16.7688
  21   2.0000      -0.599997       -16.3268
  22   2.0000      -0.583346       -15.8737
  23   2.0000      -0.573461       -15.6047
  24   2.0000      -0.558302       -15.1922
  25   2.0000      -0.537721       -14.6321
  26   2.0000      -0.515664       -14.0319
  27   2.0000      -0.489865       -13.3299
  28   2.0000      -0.465924       -12.6785
  29   2.0000      -0.447328       -12.1724
  30   2.0000      -0.435577       -11.8527
  31   2.0000      -0.402117       -10.9422
  32   0.0000       0.125147         3.4054
  33   0.0000       0.135610         3.6901
  34   0.0000       0.139260         3.7895
  35   0.0000       0.163868         4.4591
  36   0.0000       0.169508         4.6125

MULLIKEN ATOMIC CHARGES
-----------------------
   0 C :   -0.413935
   1 C :    0.157430
   2 N :   -0.228719
   3 C :    0.117299
   4 C :   -0.169617
   5 N :   -0.052726
   6 C :   -0.071799
   7 C :   -0.184259
   8 N :   -0.223669
   9 H :    0.148612
  10 H :    0.162064
  11 H :    0.155762
  12 H :    0.145839
  13 H :    0.151840
  14 H :    0.146183
  15 H :    0.159694
Sum of atomic charges:   -0.0000000

LOEWDIN ATOMIC CHARGES
----------------------
   0 C :   -0.257696
   1 C :   -0.317043
   2 N :    0.143427
   3 C :   -0.246548
   4 C :   -0.161104
   5 N :    0.071208
   6 C :   -0.200962
   7 C :   -0.201589
   8 N :    0.152648
   9 H :    0.140175
  10 H :    0.139582
  11 H :    0.142474
  12 H :    0.174725
  13 H :    0.147461
  14 H :    0.133366
  15 H :    0.139876

  Mayer bond orders larger than 0.1
B(  0-C ,  1-C ) :   0.8946 B(  0-C ,  9-H ) :   0.9213 B(  0-C , 10-H ) :   0.9461
B(  0-C , 11-H ) :   0.9223 B(  1-C ,  2-N ) :   1.8572 B(  1-C ,  8-N ) :   0.9737
B(  2-N ,  3-C ) :   0.9517 B(  3-C ,  4-C ) :   0.9363 B(  3-C ,  6-C ) :   0.9042
B(  3-C , 12-H ) :   0.8980 B(  4-C ,  5-N ) :   2.8517 B(  6-C ,  7-C ) :   0.9555
B(  6-C ,  8-N ) :   0.9011 B(  6-C , 13-H ) :   0.9037 B(  7-C ,  8-N ) :   0.8405
B(  7-C , 14-H ) :   0.9249 B(  7-C , 15-H ) :   0.9057

MP2 TOTAL ENERGY:     -396.235664285 Eh
FINAL SINGLE POINT ENERGY      -396.235664285467

DIPOLE MOMENT
-------------
                                X             Y             Z
Electronic contribution:      0.74168      -5.25461      -3.38738
Nuclear contribution   :     -1.44523       5.84583       4.59672
                        -----------------------------------------
Total Dipole Moment    :     -0.70356       0.59123       1.20934
                        -----------------------------------------
Magnitude (a.u.)       :      1.51890
Magnitude (Debye)      :      3.86073

                             ****ORCA TERMINATED NORMALLY****
TOTAL RUN TIME: 0 days 0 hours 16 minutes 2 seconds 198 msec
