                         Program Version 3.0.3 - RELEASE   -
|  1> ! RI-MP2 RIJK def2-TZVP def2-TZVP/C def2-TZVP/JK TIGHTSCF
|  2> % maxcore 2000
|  3> % mp2 density relaxed end
|  4> *xyz 0 1
|  5>  O       -0.0400762159    -0.1083107488     0.3781326485
|  6>  C       -0.0554018628     1.0779957772     0.1096388008
|  7>  N        1.0607531501     1.8156795181    -0.1839832807
|  8>  C        2.3830423388     1.2565006673    -0.2053496011
|  9>  C        3.2823556001     1.5227545314    -1.4367172884
| 10>  O        4.3557281507     1.9805860430    -0.5923177932
| 11>  C        3.5084320984     1.9806174975     0.5725128461
| 12>  C       -1.2854093118     1.8586777293     0.0702292499
| 13>  C       -2.3159437491     2.4773073492     0.0453062688
| 14>  H        0.9359036156     2.7945507823    -0.3928457629
| 15>  H        2.2840740833     0.2018737129     0.0461086542
| 16>  H        3.5678951599     0.6569344614    -2.0433820454
| 17>  H        2.9044599400     2.3169812650    -2.0971940621
| 18>  H        3.2408804938     2.9983214010     0.8927143576
| 19>  H        3.9571249083     1.4452315737     1.4158730403
| 20>  H       -3.2348612395     3.0112780095     0.0271920476
| 21> *
| 22>
| 23>                          ****END OF INPUT****

CARTESIAN COORDINATES (ANGSTROEM)
---------------------------------
  O     -0.040076   -0.108311    0.378133
  C     -0.055402    1.077996    0.109639
  N      1.060753    1.815680   -0.183983
  C      2.383042    1.256501   -0.205350
  C      3.282356    1.522755   -1.436717
  O      4.355728    1.980586   -0.592318
  C      3.508432    1.980617    0.572513
  C     -1.285409    1.858678    0.070229
  C     -2.315944    2.477307    0.045306
  H      0.935904    2.794551   -0.392846
  H      2.284074    0.201874    0.046109
  H      3.567895    0.656934   -2.043382
  H      2.904460    2.316981   -2.097194
  H      3.240880    2.998321    0.892714
  H      3.957125    1.445232    1.415873
  H     -3.234861    3.011278    0.027192

 Total Charge           Charge          ....    0
 Multiplicity           Mult            ....    1
 Number of Electrons    NEL             ....   66
 Basis Dimension        Dim             ....  321

ORBITAL ENERGIES
----------------

  NO   OCC          E(Eh)            E(eV)
   0   2.0000     -20.560281      -559.4737
   1   2.0000     -20.540270      -558.9292
   2   2.0000     -15.607296      -424.6961
   3   2.0000     -11.390673      -309.9560
   4   2.0000     -11.290705      -307.2357
   5   2.0000     -11.290682      -307.2351
   6   2.0000     -11.285092      -307.0830
   7   2.0000     -11.269359      -306.6549
   8   2.0000     -11.261859      -306.4508
   9   2.0000      -1.406542       -38.2739
  10   2.0000      -1.391647       -37.8686
  11   2.0000      -1.255162       -34.1547
  12   2.0000      -1.072398       -29.1814
  13   2.0000      -1.015847       -27.6426
  14   2.0000      -0.948429       -25.8081
  15   2.0000      -0.887685       -24.1551
  16   2.0000      -0.809900       -22.0385
  17   2.0000      -0.775020       -21.0894
  18   2.0000      -0.729688       -19.8558
  19   2.0000      -0.702981       -19.1291
  20   2.0000      -0.685714       -18.6592
  21   2.0000      -0.642159       -17.4740
  22   2.0000      -0.637203       -17.3392
  23   2.0000      -0.591421       -16.0934
  24   2.0000      -0.576762       -15.6945
  25   2.0000      -0.574546       -15.6342
  26   2.0000      -0.509098       -13.8533
  27   2.0000      -0.491632       -13.3780
  28   2.0000      -0.466812       -12.7026
  29   2.0000      -0.429735       -11.6937
  30   2.0000      -0.428115       -11.6496
  31   2.0000      -0.425804       -11.5867
  32   2.0000      -0.401502       -10.9254
  33   0.0000       0.096610         2.6289
  34   0.0000       0.127744         3.4761
  35   0.0000       0.148608         4.0438
  36   0.0000       0.157276         4.2797
  37   0.0000       0.161272         4.3884

MULLIKEN ATOMIC CHARGES
-----------------------
   0 O :   -0.339168
   1 C :    0.167113
   2 N :   -0.333252
   3 C :   -0.051685
   4 C :   -0.014034
   5 O :   -0.319741
   6 C :   -0.014041
   7 C :   -0.029115
   8 C :   -0.083021
   9 H :    0.246342
  10 H :    0.159353
  11 H :    0.115327
  12 H :    0.088492
  13 H :    0.088489
  14 H :    0.115328
  15 H :    0.203614
Sum of atomic charges:   -0.0000000

LOEWDIN ATOMIC CHARGES
----------------------
   0 O :    0.112849
   1 C :   -0.448938
   2 N :    0.141427
   3 C :   -0.260128
   4 C :   -0.254047
   5 O :    0.114165
   6 C :   -0.254051
   7 C :   -0.061998
   8 C :   -0.052161
   9 H :    0.195232
  10 H :    0.160192
  11 H :    0.120824
  12 H :    0.116779
  13 H :    0.116778
  14 H :    0.120825
  15 H :    0.132252

  Mayer bond orders larger than 0.1
B(  0-O ,  1-C ) :   1.9419 B(  1-C ,  2-N ) :   1.2258 B(  1-C ,  7-C ) :   1.0282
B(  1-C ,  8-C ) :  -0.1042 B(  2-N ,  3-C ) :   0.8671 B(  2-N ,  9-H ) :   0.8633
B(  3-C ,  4-C ) :   0.9660 B(  3-C ,  6-C ) :   0.9660 B(  3-C , 10-H ) :   0.9087
B(  4-C ,  5-O ) :   0.9610 B(  4-C , 11-H ) :   0.9239 B(  4-C , 12-H ) :   0.8926
B(  5-O ,  6-C ) :   0.9610 B(  6-C , 13-H ) :   0.8926 B(  6-C , 14-H ) :   0.9239
B(  7-C ,  8-C ) :   2.6385 B(  8-C , 15-H ) :   0.8907

MP2 TOTAL ENERGY:     -437.114163603 Eh
FINAL SINGLE POINT ENERGY      -437.114163602776

DIPOLE MOMENT
-------------
                                X             Y             Z
Electronic contribution:     -4.55929      -1.40134       0.83209
Nuclear contribution   :      4.23092       2.54856      -1.05634
                        -----------------------------------------
Total Dipole Moment    :     -0.32837       1.14722      -0.22425
                        -----------------------------------------
Magnitude (a.u.)       :      1.21418
Magnitude (Debye)      :      3.08619

                             ****ORCA TERMINATED NORMALLY****
TOTAL RUN TIME: 0 days 0 hours 19 minutes 53 seconds 140 msec
