                         Program Version 3.0.3 - RELEASE   -
|  1> ! RI-MP2 RIJK def2-TZVP def2-TZVP/C def2-TZVP/JK TIGHTSCF
|  2> % maxcore 2000
|  3> % mp2 density relaxed end
|  4> *xyz 0 1
|  5>  O       -0.2414957056     1.3902247036    -0.0802960808
|  6>  C        0.0076709386    -0.0139823686    -0.0195603692
|  7>  C        0.7028228784    -0.4844056102    -1.2218916665
|  8>  C        1.3049885403    -0.8420489703    -2.1994750964
|  9>  C        0.7534161578    -0.4273249961     1.2678751814
| 10>  C        2.1459845336     0.2007655918     1.4539926230
| 11>  C        2.4331445706    -0.0313251249     2.9440890825
| 12>  C        1.0753911572     0.2328277124     3.6377303735
| 13>  C       -0.0111130799    -0.0399823668     2.5577570580
| 14>  H        0.5657026493     1.8156137434    -0.3879446195
| 15>  H       -0.9906455563    -0.4693522016     0.0076554931
| 16>  H        1.8209399328    -1.1646607518    -3.0700364879
| 17>  H        0.8725202280    -1.5176719890     1.2257870980
| 18>  H        2.9011012877    -0.2256790556     0.7887355939
| 19>  H        2.0940188477     1.2795589662     1.2537004186
| 20>  H        2.7399047888    -1.0731789117     3.0967708559
| 21>  H        3.2382574709     0.5995209287     3.3315169482
| 22>  H        0.9445303406    -0.3906798389     4.5263435270
| 23>  H        1.0190163487     1.2725887365     3.9749113639
| 24>  H       -0.5995503355     0.8616093441     2.3679731090
| 25>  H       -0.7099833235    -0.8259349714     2.8583738142
| 26> *
| 27>
| 28>                          ****END OF INPUT****

CARTESIAN COORDINATES (ANGSTROEM)
---------------------------------
  O     -0.241496    1.390225   -0.080296
  C      0.007671   -0.013982   -0.019560
  C      0.702823   -0.484406   -1.221892
  C      1.304989   -0.842049   -2.199475
  C      0.753416   -0.427325    1.267875
  C      2.145985    0.200766    1.453993
  C      2.433145   -0.031325    2.944089
  C      1.075391    0.232828    3.637730
  C     -0.011113   -0.039982    2.557757
  H      0.565703    1.815614   -0.387945
  H     -0.990646   -0.469352    0.007655
  H      1.820940   -1.164661   -3.070036
  H      0.872520   -1.517672    1.225787
  H      2.901101   -0.225679    0.788736
  H      2.094019    1.279559    1.253700
  H      2.739905   -1.073179    3.096771
  H      3.238257    0.599521    3.331517
  H      0.944530   -0.390680    4.526344
  H      1.019016    1.272589    3.974911
  H     -0.599550    0.861609    2.367973
  H     -0.709983   -0.825935    2.858374

 Total Charge           Charge          ....    0
 Multiplicity           Mult            ....    1
 Number of Electrons    NEL             ....   68
 Basis Dimension        Dim             ....  351

ORBITAL ENERGIES
----------------

  NO   OCC          E(Eh)            E(eV)
   0   2.0000     -20.563362      -559.5575
   1   2.0000     -11.308035      -307.7073
   2   2.0000     -11.237929      -305.7996
   3   2.0000     -11.231425      -305.6226
   4   2.0000     -11.231001      -305.6111
   5   2.0000     -11.218946      -305.2830
   6   2.0000     -11.218000      -305.2573
   7   2.0000     -11.216549      -305.2178
   8   2.0000     -11.214553      -305.1635
   9   2.0000      -1.370582       -37.2954
  10   2.0000      -1.125720       -30.6324
  11   2.0000      -1.054844       -28.7038
  12   2.0000      -0.991187       -26.9716
  13   2.0000      -0.961472       -26.1630
  14   2.0000      -0.905834       -24.6490
  15   2.0000      -0.784229       -21.3399
  16   2.0000      -0.769344       -20.9349
  17   2.0000      -0.744862       -20.2687
  18   2.0000      -0.692927       -18.8555
  19   2.0000      -0.665864       -18.1191
  20   2.0000      -0.650616       -17.7042
  21   2.0000      -0.627585       -17.0775
  22   2.0000      -0.583564       -15.8796
  23   2.0000      -0.574808       -15.6413
  24   2.0000      -0.543464       -14.7884
  25   2.0000      -0.518555       -14.1106
  26   2.0000      -0.480375       -13.0717
  27   2.0000      -0.471543       -12.8313
  28   2.0000      -0.467150       -12.7118
  29   2.0000      -0.461148       -12.5485
  30   2.0000      -0.454519       -12.3681
  31   2.0000      -0.452234       -12.3059
  32   2.0000      -0.400860       -10.9080
  33   2.0000      -0.389725       -10.6050
  34   0.0000       0.130193         3.5427
  35   0.0000       0.145742         3.9659
  36   0.0000       0.154298         4.1987
  37   0.0000       0.161000         4.3810
  38   0.0000       0.169892         4.6230

MULLIKEN ATOMIC CHARGES
-----------------------
   0 O :   -0.467910
   1 C :   -0.037796
   2 C :   -0.060115
   3 C :   -0.133611
   4 C :   -0.001241
   5 C :   -0.281080
   6 C :   -0.197504
   7 C :   -0.230700
   8 C :   -0.264016
   9 H :    0.323020
  10 H :    0.123365
  11 H :    0.193160
  12 H :    0.096352
  13 H :    0.134863
  14 H :    0.088937
  15 H :    0.106474
  16 H :    0.122584
  17 H :    0.115931
  18 H :    0.114140
  19 H :    0.137242
  20 H :    0.117904
Sum of atomic charges:    0.0000000

LOEWDIN ATOMIC CHARGES
----------------------
   0 O :   -0.003686
   1 C :   -0.314761
   2 C :   -0.091639
   3 C :   -0.090981
   4 C :   -0.226066
   5 C :   -0.239235
   6 C :   -0.259545
   7 C :   -0.252255
   8 C :   -0.228927
   9 H :    0.176583
  10 H :    0.164911
  11 H :    0.127946
  12 H :    0.159801
  13 H :    0.136805
  14 H :    0.135291
  15 H :    0.135654
  16 H :    0.131002
  17 H :    0.130756
  18 H :    0.133839
  19 H :    0.142340
  20 H :    0.132166

  Mayer bond orders larger than 0.1
B(  0-O ,  1-C ) :   0.9014 B(  0-O ,  9-H ) :   0.8381 B(  1-C ,  2-C ) :   1.1483
B(  1-C ,  4-C ) :   0.8725 B(  1-C , 10-H ) :   0.9266 B(  2-C ,  3-C ) :   2.5657
B(  3-C , 11-H ) :   0.8966 B(  4-C ,  5-C ) :   0.9069 B(  4-C ,  8-C ) :   0.9048
B(  4-C , 12-H ) :   0.9112 B(  5-C ,  6-C ) :   0.9285 B(  5-C , 13-H ) :   0.9264
B(  5-C , 14-H ) :   0.9250 B(  6-C ,  7-C ) :   0.9373 B(  6-C , 15-H ) :   0.9321
B(  6-C , 16-H ) :   0.9347 B(  7-C ,  8-C ) :   0.9353 B(  7-C , 17-H ) :   0.9341
B(  7-C , 18-H ) :   0.9361 B(  8-C , 19-H ) :   0.9277 B(  8-C , 20-H ) :   0.9296

MP2 TOTAL ENERGY:     -386.390217574 Eh
FINAL SINGLE POINT ENERGY      -386.390217574268

DIPOLE MOMENT
-------------
                                X             Y             Z
Electronic contribution:     -2.40175       0.08481      -7.80733
Nuclear contribution   :      2.94030      -0.32916       7.84567
                        -----------------------------------------
Total Dipole Moment    :      0.53854      -0.24435       0.03835
                        -----------------------------------------
Magnitude (a.u.)       :      0.59262
Magnitude (Debye)      :      1.50633

                             ****ORCA TERMINATED NORMALLY****
TOTAL RUN TIME: 0 days 0 hours 23 minutes 5 seconds 386 msec
