                         Program Version 3.0.3 - RELEASE   -
|  1> ! RI-MP2 RIJK def2-TZVP def2-TZVP/C def2-TZVP/JK TIGHTSCF
|  2> % maxcore 2000
|  3> % mp2 density relaxed end
|  4> *xyz 0 1
|  5>  C        0.4581121419     1.6005475020    -0.2153504772
|  6>  C        0.8986471220     0.1624880443    -0.4999802175
|  7>  C        2.3075870271     0.1077817260    -1.0901616629
|  8>  N        0.8940950707    -0.5613504562     0.7829201171
|  9>  C       -0.3391924037    -1.1273997444     1.2637633211
| 10>  C        0.7790986335    -2.0333433144     0.8300799361
| 11>  C        0.5750162269    -2.8720505989    -0.3988374778
| 12>  C        1.3692080473    -4.1643198890    -0.4427379493
| 13>  O       -0.1711884525    -2.5481095117    -1.3005010903
| 14>  H        1.1352332480     2.0780788025     0.5000761462
| 15>  H        0.4555344958     2.1875059087    -1.1388352051
| 16>  H       -0.5528253781     1.6268498290     0.2033054458
| 17>  H        0.1980697154    -0.2902614430    -1.2127072314
| 18>  H        3.0355661252     0.5299468539    -0.3897379000
| 19>  H        2.6063189904    -0.9216177740    -1.3123744033
| 20>  H        2.3531335457     0.6754773655    -2.0243926438
| 21>  H       -0.5463011424    -1.0157224775     2.3253220082
| 22>  H       -1.2060156087    -1.1125388939     0.6046821940
| 23>  H        1.4132635497    -2.4849359967     1.5894735198
| 24>  H        1.1442257288    -4.7788163761     0.4368112397
| 25>  H        1.1293392303    -4.7171582738    -1.3512735946
| 26>  H        2.4438675068    -3.9502436523    -0.4104469049
| 27> *
| 28>
| 29>                          ****END OF INPUT****

CARTESIAN COORDINATES (ANGSTROEM)
---------------------------------
  C      0.458112    1.600548   -0.215350
  C      0.898647    0.162488   -0.499980
  C      2.307587    0.107782   -1.090162
  N      0.894095   -0.561350    0.782920
  C     -0.339192   -1.127400    1.263763
  C      0.779099   -2.033343    0.830080
  C      0.575016   -2.872051   -0.398837
  C      1.369208   -4.164320   -0.442738
  O     -0.171188   -2.548110   -1.300501
  H      1.135233    2.078079    0.500076
  H      0.455534    2.187506   -1.138835
  H     -0.552825    1.626850    0.203305
  H      0.198070   -0.290261   -1.212707
  H      3.035566    0.529947   -0.389738
  H      2.606319   -0.921618   -1.312374
  H      2.353134    0.675477   -2.024393
  H     -0.546301   -1.015722    2.325322
  H     -1.206016   -1.112539    0.604682
  H      1.413264   -2.484936    1.589474
  H      1.144226   -4.778816    0.436811
  H      1.129339   -4.717158   -1.351274
  H      2.443868   -3.950244   -0.410447

 Total Charge           Charge          ....    0
 Multiplicity           Mult            ....    1
 Number of Electrons    NEL             ....   70
 Basis Dimension        Dim             ....  357

ORBITAL ENERGIES
----------------

  NO   OCC          E(Eh)            E(eV)
   0   2.0000     -20.545590      -559.0739
   1   2.0000     -15.568857      -423.6501
   2   2.0000     -11.337054      -308.4969
   3   2.0000     -11.268037      -306.6189
   4   2.0000     -11.264105      -306.5119
   5   2.0000     -11.250960      -306.1542
   6   2.0000     -11.238871      -305.8252
   7   2.0000     -11.209682      -305.0310
   8   2.0000     -11.208722      -305.0048
   9   2.0000      -1.391251       -37.8579
  10   2.0000      -1.278604       -34.7926
  11   2.0000      -1.069091       -29.0914
  12   2.0000      -1.023780       -27.8585
  13   2.0000      -0.930953       -25.3325
  14   2.0000      -0.910011       -24.7627
  15   2.0000      -0.870420       -23.6853
  16   2.0000      -0.790471       -21.5098
  17   2.0000      -0.729197       -19.8425
  18   2.0000      -0.687423       -18.7057
  19   2.0000      -0.669028       -18.2052
  20   2.0000      -0.622404       -16.9365
  21   2.0000      -0.610945       -16.6247
  22   2.0000      -0.594777       -16.1847
  23   2.0000      -0.591957       -16.1080
  24   2.0000      -0.571144       -15.5416
  25   2.0000      -0.548944       -14.9375
  26   2.0000      -0.539605       -14.6834
  27   2.0000      -0.533679       -14.5221
  28   2.0000      -0.513323       -13.9682
  29   2.0000      -0.500745       -13.6260
  30   2.0000      -0.478595       -13.0232
  31   2.0000      -0.468634       -12.7522
  32   2.0000      -0.445203       -12.1146
  33   2.0000      -0.416646       -11.3375
  34   2.0000      -0.373042       -10.1510
  35   0.0000       0.128195         3.4884
  36   0.0000       0.130243         3.5441
  37   0.0000       0.151337         4.1181
  38   0.0000       0.167932         4.5697
  39   0.0000       0.183017         4.9801

MULLIKEN ATOMIC CHARGES
-----------------------
   0 C :   -0.393011
   1 C :    0.029074
   2 C :   -0.394790
   3 N :   -0.208629
   4 C :   -0.163069
   5 C :   -0.106081
   6 C :    0.223219
   7 C :   -0.421417
   8 O :   -0.312707
   9 H :    0.127613
  10 H :    0.128405
  11 H :    0.129208
  12 H :    0.121404
  13 H :    0.126925
  14 H :    0.121601
  15 H :    0.129028
  16 H :    0.136091
  17 H :    0.143488
  18 H :    0.130740
  19 H :    0.148867
  20 H :    0.154600
  21 H :    0.149442
Sum of atomic charges:    0.0000000

LOEWDIN ATOMIC CHARGES
----------------------
   0 C :   -0.290827
   1 C :   -0.338518
   2 C :   -0.290789
   3 N :    0.149039
   4 C :   -0.228060
   5 C :   -0.227964
   6 C :   -0.348243
   7 C :   -0.277227
   8 O :    0.141835
   9 H :    0.125142
  10 H :    0.125097
  11 H :    0.122701
  12 H :    0.146092
  13 H :    0.125452
  14 H :    0.121492
  15 H :    0.126101
  16 H :    0.126563
  17 H :    0.135144
  18 H :    0.147842
  19 H :    0.137987
  20 H :    0.133121
  21 H :    0.138020

  Mayer bond orders larger than 0.1
B(  0-C ,  1-C ) :   0.9017 B(  0-C ,  9-H ) :   0.9336 B(  0-C , 10-H ) :   0.9408
B(  0-C , 11-H ) :   0.9378 B(  1-C ,  2-C ) :   0.9149 B(  1-C ,  3-N ) :   0.8392
B(  1-C , 12-H ) :   0.9222 B(  2-C , 13-H ) :   0.9309 B(  2-C , 14-H ) :   0.9375
B(  2-C , 15-H ) :   0.9391 B(  3-N ,  4-C ) :   0.9095 B(  3-N ,  5-C ) :   0.8884
B(  4-C ,  5-C ) :   0.8944 B(  4-C , 16-H ) :   0.9171 B(  4-C , 17-H ) :   0.9152
B(  5-C ,  6-C ) :   0.9153 B(  5-C , 18-H ) :   0.9133 B(  6-C ,  7-C ) :   0.9146
B(  6-C ,  8-O ) :   1.9064 B(  7-C , 19-H ) :   0.9178 B(  7-C , 20-H ) :   0.9413
B(  7-C , 21-H ) :   0.9136

MP2 TOTAL ENERGY:     -403.649778608 Eh
FINAL SINGLE POINT ENERGY      -403.649778607673

DIPOLE MOMENT
-------------
                                X             Y             Z
Electronic contribution:     -3.26662      -4.33352       0.70512
Nuclear contribution   :      3.53488       3.99396      -0.26573
                        -----------------------------------------
Total Dipole Moment    :      0.26825      -0.33956       0.43939
                        -----------------------------------------
Magnitude (a.u.)       :      0.61670
Magnitude (Debye)      :      1.56754

                             ****ORCA TERMINATED NORMALLY****
TOTAL RUN TIME: 0 days 0 hours 24 minutes 23 seconds 63 msec
