                         Program Version 3.0.3 - RELEASE   -
|  1> ! RI-MP2 RIJK def2-TZVP def2-TZVP/C def2-TZVP/JK TIGHTSCF
|  2> % maxcore 2000
|  3> % mp2 density relaxed end
|  4> *xyz 0 1
|  5>  C       -0.0777106247     1.5429190473    -0.0230631809
|  6>  C        0.0098646108     0.0253075968    -0.0242472148
|  7>  O       -1.2649340875    -0.4602331297    -0.3113784123
|  8>  C        1.2263948414    -0.5722171434    -0.8375451947
|  9>  C        2.0766793072    -0.4113528753     0.4514525380
| 10>  C        0.7391603934    -0.6310129123     1.2010520131
| 11>  O        0.3668207075    -2.0231070227     1.1856219000
| 12>  C        0.9655005370    -2.7122318394     0.1002556887
| 13>  O        0.9518295968    -1.9560108516    -1.0882446239
| 14>  H        0.8874014267     2.0292139256     0.1328158677
| 15>  H       -0.4797102845     1.8799661301    -0.9833770937
| 16>  H       -0.7646636388     1.8732065506     0.7619126503
| 17>  H       -1.2697156835    -1.3894763152    -0.0501341498
| 18>  H        1.5377461678    -0.1263420017    -1.7835049049
| 19>  H        2.9016238235    -1.1010440359     0.6279891946
| 20>  H        2.4406651971     0.6075813301     0.5755070831
| 21>  H        0.5833420382    -0.2657107504     2.2178026858
| 22>  H        1.9949611223    -2.9943854976     0.3644083627
| 23>  H        0.3777092393    -3.6170750252    -0.0748140990
| 24> *
| 25>
| 26>                          ****END OF INPUT****

CARTESIAN COORDINATES (ANGSTROEM)
---------------------------------
  C     -0.077711    1.542919   -0.023063
  C      0.009865    0.025308   -0.024247
  O     -1.264934   -0.460233   -0.311378
  C      1.226395   -0.572217   -0.837545
  C      2.076679   -0.411353    0.451453
  C      0.739160   -0.631013    1.201052
  O      0.366821   -2.023107    1.185622
  C      0.965501   -2.712232    0.100256
  O      0.951830   -1.956011   -1.088245
  H      0.887401    2.029214    0.132816
  H     -0.479710    1.879966   -0.983377
  H     -0.764664    1.873207    0.761913
  H     -1.269716   -1.389476   -0.050134
  H      1.537746   -0.126342   -1.783505
  H      2.901624   -1.101044    0.627989
  H      2.440665    0.607581    0.575507
  H      0.583342   -0.265711    2.217803
  H      1.994961   -2.994385    0.364408
  H      0.377709   -3.617075   -0.074814

 Total Charge           Charge          ....    0
 Multiplicity           Mult            ....    1
 Number of Electrons    NEL             ....   70
 Basis Dimension        Dim             ....  339

ORBITAL ENERGIES
----------------

  NO   OCC          E(Eh)            E(eV)
   0   2.0000     -20.575417      -559.8856
   1   2.0000     -20.569683      -559.7295
   2   2.0000     -20.550034      -559.1949
   3   2.0000     -11.336773      -308.4893
   4   2.0000     -11.295933      -307.3780
   5   2.0000     -11.293016      -307.2986
   6   2.0000     -11.289037      -307.1903
   7   2.0000     -11.240219      -305.8619
   8   2.0000     -11.221972      -305.3654
   9   2.0000      -1.439780       -39.1784
  10   2.0000      -1.362399       -37.0728
  11   2.0000      -1.347669       -36.6719
  12   2.0000      -1.132325       -30.8121
  13   2.0000      -0.987804       -26.8795
  14   2.0000      -0.935191       -25.4478
  15   2.0000      -0.895427       -24.3658
  16   2.0000      -0.850996       -23.1568
  17   2.0000      -0.742718       -20.2104
  18   2.0000      -0.735134       -20.0040
  19   2.0000      -0.720329       -19.6011
  20   2.0000      -0.657112       -17.8809
  21   2.0000      -0.636417       -17.3178
  22   2.0000      -0.620893       -16.8954
  23   2.0000      -0.613293       -16.6886
  24   2.0000      -0.588968       -16.0266
  25   2.0000      -0.573732       -15.6120
  26   2.0000      -0.558038       -15.1850
  27   2.0000      -0.543535       -14.7903
  28   2.0000      -0.538674       -14.6581
  29   2.0000      -0.524425       -14.2703
  30   2.0000      -0.499673       -13.5968
  31   2.0000      -0.474413       -12.9094
  32   2.0000      -0.453475       -12.3397
  33   2.0000      -0.414428       -11.2772
  34   2.0000      -0.389243       -10.5918
  35   0.0000       0.136473         3.7136
  36   0.0000       0.153181         4.1683
  37   0.0000       0.172175         4.6851
  38   0.0000       0.181044         4.9265
  39   0.0000       0.186298         5.0694

MULLIKEN ATOMIC CHARGES
-----------------------
   0 C :   -0.441974
   1 C :    0.141475
   2 O :   -0.458294
   3 C :    0.120442
   4 C :   -0.356656
   5 C :    0.140269
   6 O :   -0.362685
   7 C :    0.052406
   8 O :   -0.331928
   9 H :    0.124422
  10 H :    0.146012
  11 H :    0.138680
  12 H :    0.326380
  13 H :    0.125158
  14 H :    0.133966
  15 H :    0.140550
  16 H :    0.126535
  17 H :    0.095844
  18 H :    0.139398
Sum of atomic charges:    0.0000000

LOEWDIN ATOMIC CHARGES
----------------------
   0 C :   -0.264761
   1 C :   -0.371705
   2 O :    0.036845
   3 C :   -0.238429
   4 C :   -0.213487
   5 C :   -0.239310
   6 O :    0.155240
   7 C :   -0.386893
   8 O :    0.171562
   9 H :    0.125318
  10 H :    0.134906
  11 H :    0.132281
  12 H :    0.180712
  13 H :    0.133143
  14 H :    0.133469
  15 H :    0.145145
  16 H :    0.132892
  17 H :    0.108837
  18 H :    0.124235

  Mayer bond orders larger than 0.1
B(  0-C ,  1-C ) :   0.9090 B(  0-C ,  9-H ) :   0.9371 B(  0-C , 10-H ) :   0.9383
B(  0-C , 11-H ) :   0.9361 B(  1-C ,  2-O ) :   1.0142 B(  1-C ,  3-C ) :   0.8412
B(  1-C ,  5-C ) :   0.8802 B(  2-O , 12-H ) :   0.8170 B(  3-C ,  4-C ) :   0.9287
B(  3-C ,  8-O ) :   0.8747 B(  3-C , 13-H ) :   0.9168 B(  4-C ,  5-C ) :   0.9394
B(  4-C , 14-H ) :   0.9054 B(  4-C , 15-H ) :   0.9208 B(  5-C ,  6-O ) :   0.8336
B(  5-C , 16-H ) :   0.9205 B(  6-O ,  7-C ) :   0.9398 B(  7-C ,  8-O ) :   0.9791
B(  7-C , 17-H ) :   0.9259 B(  7-C , 18-H ) :   0.9304

MP2 TOTAL ENERGY:     -459.413664980 Eh
FINAL SINGLE POINT ENERGY      -459.413664979649

DIPOLE MOMENT
-------------
                                X             Y             Z
Electronic contribution:     -1.86262      -4.59011      -0.67214
Nuclear contribution   :      2.74359       4.79291       1.03723
                        -----------------------------------------
Total Dipole Moment    :      0.88097       0.20281       0.36509
                        -----------------------------------------
Magnitude (a.u.)       :      0.97496
Magnitude (Debye)      :      2.47814

                             ****ORCA TERMINATED NORMALLY****
TOTAL RUN TIME: 0 days 0 hours 19 minutes 16 seconds 180 msec
