                         Program Version 3.0.3 - RELEASE   -
|  1> ! RI-MP2 RIJK def2-TZVP def2-TZVP/C def2-TZVP/JK TIGHTSCF
|  2> % maxcore 2000
|  3> % mp2 density relaxed end
|  4> *xyz 0 1
|  5>  C       -0.0225374958     1.4462539763    -0.0119395043
|  6>  N        0.0169617072     0.0033210004     0.0029803342
|  7>  C        0.0619782980    -0.8174976757    -1.1227495899
|  8>  C        0.0686185001    -2.1182473624    -0.6810108516
|  9>  O        0.0967178969    -3.2822494646    -1.3988759279
| 10>  C        0.0498282922    -2.1075059984     0.7450063955
| 11>  N        0.0407464676    -3.1927599880     1.6704540178
| 12>  C        0.0235037816    -0.7783377620     1.1249773105
| 13>  N       -0.0850015704    -0.2322779556     2.4144786810
| 14>  H        0.9779025552     1.8928918539    -0.0901042760
| 15>  H       -0.6196161115     1.7907671592    -0.8609206391
| 16>  H       -0.4910056156     1.7951824367     0.9112244144
| 17>  H        0.0899987115    -0.3959772202    -2.1143055755
| 18>  H        0.0946224399    -3.0661258669    -2.3360308475
| 19>  H        0.8646117507    -3.7766898437     1.5526801964
| 20>  H       -0.7544169089    -3.8034202503     1.5027544727
| 21>  H       -0.1991128230    -1.0077406058     3.0614551164
| 22>  H        0.7491445244     0.2776978971     2.6928330928
| 23> *
| 24>
| 25>                          ****END OF INPUT****

CARTESIAN COORDINATES (ANGSTROEM)
---------------------------------
  C     -0.022537    1.446254   -0.011940
  N      0.016962    0.003321    0.002980
  C      0.061978   -0.817498   -1.122750
  C      0.068619   -2.118247   -0.681011
  O      0.096718   -3.282249   -1.398876
  C      0.049828   -2.107506    0.745006
  N      0.040746   -3.192760    1.670454
  C      0.023504   -0.778338    1.124977
  N     -0.085002   -0.232278    2.414479
  H      0.977903    1.892892   -0.090104
  H     -0.619616    1.790767   -0.860921
  H     -0.491006    1.795182    0.911224
  H      0.089999   -0.395977   -2.114306
  H      0.094622   -3.066126   -2.336031
  H      0.864612   -3.776690    1.552680
  H     -0.754417   -3.803420    1.502754
  H     -0.199113   -1.007741    3.061455
  H      0.749145    0.277698    2.692833

 Total Charge           Charge          ....    0
 Multiplicity           Mult            ....    1
 Number of Electrons    NEL             ....   68
 Basis Dimension        Dim             ....  333

ORBITAL ENERGIES
----------------

  NO   OCC          E(Eh)            E(eV)
   0   2.0000     -20.575378      -559.8845
   1   2.0000     -15.590117      -424.2287
   2   2.0000     -15.558051      -423.3561
   3   2.0000     -15.541106      -422.8950
   4   2.0000     -11.279674      -306.9355
   5   2.0000     -11.268699      -306.6369
   6   2.0000     -11.263113      -306.4849
   7   2.0000     -11.227401      -305.5131
   8   2.0000     -11.218629      -305.2744
   9   2.0000      -1.387313       -37.7507
  10   2.0000      -1.299865       -35.3711
  11   2.0000      -1.187746       -32.3202
  12   2.0000      -1.168453       -31.7952
  13   2.0000      -1.047940       -28.5159
  14   2.0000      -0.939340       -25.5607
  15   2.0000      -0.912961       -24.8429
  16   2.0000      -0.792443       -21.5635
  17   2.0000      -0.752508       -20.4768
  18   2.0000      -0.712609       -19.3911
  19   2.0000      -0.665706       -18.1148
  20   2.0000      -0.652233       -17.7482
  21   2.0000      -0.642926       -17.4949
  22   2.0000      -0.624367       -16.9899
  23   2.0000      -0.607969       -16.5437
  24   2.0000      -0.594511       -16.1775
  25   2.0000      -0.576681       -15.6923
  26   2.0000      -0.569194       -15.4885
  27   2.0000      -0.545614       -14.8469
  28   2.0000      -0.525652       -14.3037
  29   2.0000      -0.503775       -13.7084
  30   2.0000      -0.442938       -12.0529
  31   2.0000      -0.403635       -10.9835
  32   2.0000      -0.310490        -8.4489
  33   2.0000      -0.267867        -7.2890
  34   0.0000       0.128831         3.5057
  35   0.0000       0.143883         3.9153
  36   0.0000       0.154147         4.1945
  37   0.0000       0.171878         4.6770
  38   0.0000       0.178795         4.8653

MULLIKEN ATOMIC CHARGES
-----------------------
   0 C :   -0.356672
   1 N :   -0.011603
   2 C :   -0.251443
   3 C :    0.156839
   4 O :   -0.449162
   5 C :    0.003927
   6 N :   -0.574350
   7 C :    0.112180
   8 N :   -0.555030
   9 H :    0.140725
  10 H :    0.143271
  11 H :    0.174195
  12 H :    0.133918
  13 H :    0.327952
  14 H :    0.243472
  15 H :    0.245558
  16 H :    0.266443
  17 H :    0.249781
Sum of atomic charges:   -0.0000000

LOEWDIN ATOMIC CHARGES
----------------------
   0 C :   -0.281832
   1 N :    0.232128
   2 C :   -0.243538
   3 C :   -0.311349
   4 O :    0.046103
   5 C :   -0.270747
   6 N :   -0.128878
   7 C :   -0.300110
   8 N :   -0.104396
   9 H :    0.116555
  10 H :    0.124444
  11 H :    0.131599
  12 H :    0.129897
  13 H :    0.189787
  14 H :    0.163383
  15 H :    0.163782
  16 H :    0.177831
  17 H :    0.165341

  Mayer bond orders larger than 0.1
B(  0-C ,  1-N ) :   0.8654 B(  0-C ,  9-H ) :   0.9255 B(  0-C , 10-H ) :   0.9331
B(  0-C , 11-H ) :   0.9283 B(  1-N ,  2-C ) :   1.0479 B(  1-N ,  7-C ) :   1.2041
B(  2-C ,  3-C ) :   1.4167 B(  2-C , 12-H ) :   0.9137 B(  3-C ,  4-O ) :   1.0877
B(  3-C ,  5-C ) :   1.2706 B(  4-O , 13-H ) :   0.8388 B(  5-C ,  6-N ) :   1.0051
B(  5-C ,  7-C ) :   1.4674 B(  6-N , 14-H ) :   0.8955 B(  6-N , 15-H ) :   0.8983
B(  7-C ,  8-N ) :   1.0168 B(  8-N , 16-H ) :   0.8723 B(  8-N , 17-H ) :   0.8701

MP2 TOTAL ENERGY:     -434.563403682 Eh
FINAL SINGLE POINT ENERGY      -434.563403681897

DIPOLE MOMENT
-------------
                                X             Y             Z
Electronic contribution:     -0.02787      -4.06504      -1.83335
Nuclear contribution   :      0.39866       4.64876       1.39585
                        -----------------------------------------
Total Dipole Moment    :      0.37079       0.58372      -0.43750
                        -----------------------------------------
Magnitude (a.u.)       :      0.81830
Magnitude (Debye)      :      2.07994

                             ****ORCA TERMINATED NORMALLY****
TOTAL RUN TIME: 0 days 0 hours 17 minutes 8 seconds 28 msec
