                         Program Version 3.0.3 - RELEASE   -
|  1> ! RI-MP2 RIJK def2-TZVP def2-TZVP/C def2-TZVP/JK TIGHTSCF
|  2> % maxcore 2000
|  3> % mp2 density relaxed end
|  4> *xyz 0 1
|  5>  N       -0.0958745645     1.2794605393    -0.2180162858
|  6>  C       -0.0550215819     0.0455353489     0.0408990976
|  7>  O        1.1079337476    -0.6112511282     0.3559305556
|  8>  C        1.0719963882    -1.9853377743     0.7876124418
|  9>  C       -0.3266560409    -2.5947581119     0.6232365632
| 10>  N       -0.9466847878    -2.1497822756    -0.6585650774
| 11>  C       -1.2833334908    -0.8381869317    -0.0186225162
| 12>  C       -1.3144359099    -1.6343989963     1.3062906576
| 13>  O       -1.8715510598    -1.5608471791     2.3537385228
| 14>  H        0.8311789603     1.7003077522    -0.1261004513
| 15>  H        1.8021275151    -2.5257201825     0.1747729698
| 16>  H        1.3958188312    -2.0276264040     1.8339173174
| 17>  H       -0.3422624263    -3.6644883639     0.8437671442
| 18>  H       -0.2790060159    -2.0600580399    -1.4228719032
| 19>  H       -2.1540412946    -0.2977392128    -0.3844127562
| 20> *
| 21>
| 22>                          ****END OF INPUT****

CARTESIAN COORDINATES (ANGSTROEM)
---------------------------------
  N     -0.095875    1.279461   -0.218016
  C     -0.055022    0.045535    0.040899
  O      1.107934   -0.611251    0.355931
  C      1.071996   -1.985338    0.787612
  C     -0.326656   -2.594758    0.623237
  N     -0.946685   -2.149782   -0.658565
  C     -1.283333   -0.838187   -0.018623
  C     -1.314436   -1.634399    1.306291
  O     -1.871551   -1.560847    2.353739
  H      0.831179    1.700308   -0.126100
  H      1.802128   -2.525720    0.174773
  H      1.395819   -2.027626    1.833917
  H     -0.342262   -3.664488    0.843767
  H     -0.279006   -2.060058   -1.422872
  H     -2.154041   -0.297739   -0.384413

 Total Charge           Charge          ....    0
 Multiplicity           Mult            ....    1
 Number of Electrons    NEL             ....   66
 Basis Dimension        Dim             ....  315

ORBITAL ENERGIES
----------------

  NO   OCC          E(Eh)            E(eV)
   0   2.0000     -20.614672      -560.9537
   1   2.0000     -20.583431      -560.1036
   2   2.0000     -15.591766      -424.2735
   3   2.0000     -15.552251      -423.1983
   4   2.0000     -11.361886      -309.1726
   5   2.0000     -11.359117      -309.0973
   6   2.0000     -11.326412      -308.2073
   7   2.0000     -11.304618      -307.6143
   8   2.0000     -11.301504      -307.5296
   9   2.0000      -1.449122       -39.4326
  10   2.0000      -1.426508       -38.8173
  11   2.0000      -1.281789       -34.8792
  12   2.0000      -1.217043       -33.1174
  13   2.0000      -1.039710       -28.2920
  14   2.0000      -0.991477       -26.9795
  15   2.0000      -0.915067       -24.9002
  16   2.0000      -0.840732       -22.8775
  17   2.0000      -0.738694       -20.1009
  18   2.0000      -0.718320       -19.5465
  19   2.0000      -0.708940       -19.2913
  20   2.0000      -0.695279       -18.9195
  21   2.0000      -0.682273       -18.5656
  22   2.0000      -0.657463       -17.8905
  23   2.0000      -0.602670       -16.3995
  24   2.0000      -0.597769       -16.2661
  25   2.0000      -0.566122       -15.4050
  26   2.0000      -0.558207       -15.1896
  27   2.0000      -0.535281       -14.5657
  28   2.0000      -0.531338       -14.4584
  29   2.0000      -0.467120       -12.7110
  30   2.0000      -0.433542       -11.7973
  31   2.0000      -0.418024       -11.3750
  32   2.0000      -0.407177       -11.0799
  33   0.0000       0.109691         2.9848
  34   0.0000       0.122323         3.3286
  35   0.0000       0.155381         4.2281
  36   0.0000       0.158717         4.3189
  37   0.0000       0.173643         4.7251

MULLIKEN ATOMIC CHARGES
-----------------------
   0 N :   -0.350860
   1 C :    0.032399
   2 O :   -0.257811
   3 C :   -0.088890
   4 C :   -0.033515
   5 N :   -0.318955
   6 C :    0.111811
   7 C :    0.091485
   8 O :   -0.218834
   9 H :    0.227315
  10 H :    0.140457
  11 H :    0.131372
  12 H :    0.152210
  13 H :    0.218534
  14 H :    0.163281
Sum of atomic charges:    0.0000000

LOEWDIN ATOMIC CHARGES
----------------------
   0 N :   -0.036547
   1 C :   -0.400351
   2 O :    0.232366
   3 C :   -0.257127
   4 C :   -0.240478
   5 N :    0.045982
   6 C :   -0.190525
   7 C :   -0.268282
   8 O :    0.197144
   9 H :    0.170916
  10 H :    0.134231
  11 H :    0.137989
  12 H :    0.149393
  13 H :    0.166939
  14 H :    0.158351

  Mayer bond orders larger than 0.1
B(  0-N ,  1-C ) :   2.0481 B(  0-N ,  9-H ) :   0.8495 B(  1-C ,  2-O ) :   1.0899
B(  1-C ,  6-C ) :   0.8887 B(  2-O ,  3-C ) :   0.8815 B(  3-C ,  4-C ) :   0.9323
B(  3-C , 10-H ) :   0.9215 B(  3-C , 11-H ) :   0.9198 B(  4-C ,  5-N ) :   0.9614
B(  4-C ,  7-C ) :   0.8463 B(  4-C , 12-H ) :   0.8871 B(  5-N ,  6-C ) :   0.9514
B(  5-N , 13-H ) :   0.8731 B(  6-C ,  7-C ) :   0.8162 B(  6-C , 14-H ) :   0.8941
B(  7-C ,  8-O ) :   2.0811

MP2 TOTAL ENERGY:     -453.198171923 Eh
FINAL SINGLE POINT ENERGY      -453.198171922768

DIPOLE MOMENT
-------------
                                X             Y             Z
Electronic contribution:     -2.20218       1.15085       1.66066
Nuclear contribution   :      3.33815      -2.06737      -2.02031
                        -----------------------------------------
Total Dipole Moment    :      1.13596      -0.91652      -0.35964
                        -----------------------------------------
Magnitude (a.u.)       :      1.50325
Magnitude (Debye)      :      3.82096

                             ****ORCA TERMINATED NORMALLY****
TOTAL RUN TIME: 0 days 0 hours 14 minutes 31 seconds 187 msec
