                         Program Version 3.0.3 - RELEASE   -
|  1> ! RI-MP2 RIJK def2-TZVP def2-TZVP/C def2-TZVP/JK TIGHTSCF
|  2> % maxcore 2000
|  3> % mp2 density relaxed end
|  4> *xyz 0 1
|  5>  C        0.0735233189     1.5333089603     0.0110951048
|  6>  C       -0.0013359228     0.0423065513     0.0059607771
|  7>  C        0.7594658185    -1.0036286664    -0.7668165013
|  8>  C        0.8740947548    -0.9891626899     0.7366474636
|  9>  C       -0.3321552023    -1.9663057716     0.7736685347
| 10>  C       -0.6417649692    -3.1552611314     1.6175830482
| 11>  N       -0.4046882883    -1.9875490750    -0.7388187042
| 12>  C       -1.1887934953    -0.9705671896     0.0640310325
| 13>  C       -2.6656044175    -0.8058058584    -0.0628596312
| 14>  H        1.1157226094     1.8649606139    -0.0555274960
| 15>  H       -0.4656505506     1.9689512756    -0.8382754022
| 16>  H       -0.3491768581     1.9574520833     0.9295885026
| 17>  H        1.4968692153    -0.9386111582    -1.5583253130
| 18>  H        1.7195510477    -0.8198467824     1.3898092621
| 19>  H       -0.7936818151    -2.8701552347     2.6649269245
| 20>  H       -1.5518154742    -3.6467844802     1.2597938556
| 21>  H        0.1727246921    -3.8874768972     1.5782949959
| 22>  H       -3.1539609630    -1.7852196875    -0.0733620561
| 23>  H       -3.0764995170    -0.2266402828     0.7719029539
| 24>  H       -2.9273876235    -0.2927943892    -0.9953211517
| 25> *
| 26>
| 27>                          ****END OF INPUT****

CARTESIAN COORDINATES (ANGSTROEM)
---------------------------------
  C      0.073523    1.533309    0.011095
  C     -0.001336    0.042307    0.005961
  C      0.759466   -1.003629   -0.766817
  C      0.874095   -0.989163    0.736647
  C     -0.332155   -1.966306    0.773669
  C     -0.641765   -3.155261    1.617583
  N     -0.404688   -1.987549   -0.738819
  C     -1.188793   -0.970567    0.064031
  C     -2.665604   -0.805806   -0.062860
  H      1.115723    1.864961   -0.055527
  H     -0.465651    1.968951   -0.838275
  H     -0.349177    1.957452    0.929589
  H      1.496869   -0.938611   -1.558325
  H      1.719551   -0.819847    1.389809
  H     -0.793682   -2.870155    2.664927
  H     -1.551815   -3.646784    1.259794
  H      0.172725   -3.887477    1.578295
  H     -3.153961   -1.785220   -0.073362
  H     -3.076500   -0.226640    0.771903
  H     -2.927388   -0.292794   -0.995321

 Total Charge           Charge          ....    0
 Multiplicity           Mult            ....    1
 Number of Electrons    NEL             ....   66
 Basis Dimension        Dim             ....  345

ORBITAL ENERGIES
----------------

  NO   OCC          E(Eh)            E(eV)
   0   2.0000     -15.545955      -423.0269
   1   2.0000     -11.263491      -306.4952
   2   2.0000     -11.261290      -306.4353
   3   2.0000     -11.257056      -306.3201
   4   2.0000     -11.242067      -305.9122
   5   2.0000     -11.233050      -305.6668
   6   2.0000     -11.227364      -305.5121
   7   2.0000     -11.222270      -305.3735
   8   2.0000     -11.221417      -305.3503
   9   2.0000      -1.331601       -36.2347
  10   2.0000      -1.073273       -29.2053
  11   2.0000      -1.006981       -27.4013
  12   2.0000      -0.995823       -27.0977
  13   2.0000      -0.955168       -25.9914
  14   2.0000      -0.880271       -23.9534
  15   2.0000      -0.825025       -22.4501
  16   2.0000      -0.700787       -19.0694
  17   2.0000      -0.685860       -18.6632
  18   2.0000      -0.650372       -17.6975
  19   2.0000      -0.635599       -17.2955
  20   2.0000      -0.589550       -16.0425
  21   2.0000      -0.577193       -15.7062
  22   2.0000      -0.568058       -15.4576
  23   2.0000      -0.562508       -15.3066
  24   2.0000      -0.554105       -15.0780
  25   2.0000      -0.550012       -14.9666
  26   2.0000      -0.529122       -14.3981
  27   2.0000      -0.524352       -14.2683
  28   2.0000      -0.471268       -12.8238
  29   2.0000      -0.417785       -11.3685
  30   2.0000      -0.403119       -10.9694
  31   2.0000      -0.357979        -9.7411
  32   2.0000      -0.319475        -8.6934
  33   0.0000       0.131214         3.5705
  34   0.0000       0.152124         4.1395
  35   0.0000       0.167910         4.5691
  36   0.0000       0.186592         5.0774
  37   0.0000       0.191140         5.2012

MULLIKEN ATOMIC CHARGES
-----------------------
   0 C :   -0.404482
   1 C :    0.030616
   2 C :   -0.118804
   3 C :   -0.115514
   4 C :    0.031999
   5 C :   -0.443532
   6 N :   -0.189149
   7 C :    0.125263
   8 C :   -0.439212
   9 H :    0.136364
  10 H :    0.140478
  11 H :    0.136928
  12 H :    0.135180
  13 H :    0.140630
  14 H :    0.134912
  15 H :    0.140909
  16 H :    0.138662
  17 H :    0.143124
  18 H :    0.137177
  19 H :    0.138450
Sum of atomic charges:   -0.0000000

LOEWDIN ATOMIC CHARGES
----------------------
   0 C :   -0.277808
   1 C :   -0.160017
   2 C :   -0.144994
   3 C :   -0.104562
   4 C :   -0.200714
   5 C :   -0.274123
   6 N :    0.160729
   7 C :   -0.181149
   8 C :   -0.273526
   9 H :    0.134454
  10 H :    0.130393
  11 H :    0.129483
  12 H :    0.129249
  13 H :    0.135017
  14 H :    0.130267
  15 H :    0.135801
  16 H :    0.132036
  17 H :    0.136732
  18 H :    0.130512
  19 H :    0.132219

  Mayer bond orders larger than 0.1
B(  0-C ,  1-C ) :   0.8138 B(  0-C ,  9-H ) :   0.9420 B(  0-C , 10-H ) :   0.9486
B(  0-C , 11-H ) :   0.9440 B(  1-C ,  2-C ) :   0.9343 B(  1-C ,  3-C ) :   0.7701
B(  1-C ,  7-C ) :   0.9277 B(  2-C ,  3-C ) :   0.8843 B(  2-C ,  6-N ) :   0.9958
B(  2-C , 12-H ) :   0.9087 B(  3-C ,  4-C ) :   0.8368 B(  3-C , 13-H ) :   0.9186
B(  4-C ,  5-C ) :   0.8253 B(  4-C ,  6-N ) :   0.9448 B(  4-C ,  7-C ) :   1.0005
B(  5-C , 14-H ) :   0.9463 B(  5-C , 15-H ) :   0.9423 B(  5-C , 16-H ) :   0.9418
B(  6-N ,  7-C ) :   0.8680 B(  7-C ,  8-C ) :   0.8030 B(  8-C , 17-H ) :   0.9409
B(  8-C , 18-H ) :   0.9541 B(  8-C , 19-H ) :   0.9475

MP2 TOTAL ENERGY:     -365.242621071 Eh
FINAL SINGLE POINT ENERGY      -365.242621070993

DIPOLE MOMENT
-------------
                                X             Y             Z
Electronic contribution:      3.05462      -1.86254      -2.21569
Nuclear contribution   :     -2.98280       2.45284       2.76679
                        -----------------------------------------
Total Dipole Moment    :      0.07182       0.59031       0.55110
                        -----------------------------------------
Magnitude (a.u.)       :      0.81076
Magnitude (Debye)      :      2.06078

                             ****ORCA TERMINATED NORMALLY****
TOTAL RUN TIME: 0 days 0 hours 25 minutes 48 seconds 927 msec
