                         Program Version 3.0.3 - RELEASE   -
|  1> ! RI-MP2 RIJK def2-TZVP def2-TZVP/C def2-TZVP/JK TIGHTSCF
|  2> % maxcore 2000
|  3> % mp2 density relaxed end
|  4> *xyz 0 1
|  5>  C        0.2352036645     1.4429615284     0.0732341022
|  6>  N        0.1639495717    -0.0113343933     0.0511947399
|  7>  C        0.4606045848    -0.5683791816    -1.2647516498
|  8>  C        0.4843382330    -2.0583742691    -1.2268202717
|  9>  N       -0.1727293642    -2.8991492977    -1.9687202140
| 10>  C        0.2375999552    -4.1417032156    -1.5281103629
| 11>  O       -0.2397177706    -5.2740576453    -2.0746688132
| 12>  C        1.1350139089    -4.0030139141    -0.5218330233
| 13>  O        1.3001702140    -2.6456938651    -0.3285822800
| 14>  H        1.1944831228     1.8555770535    -0.2892422870
| 15>  H       -0.5602368881     1.8580241670    -0.5562768568
| 16>  H        0.0716773434     1.7998920567     1.0936896862
| 17>  H        0.8153637034    -0.3991424890     0.7250932140
| 18>  H       -0.3216025702    -0.2734272010    -1.9706787513
| 19>  H        1.4216332574    -0.2028208947    -1.6793649803
| 20>  H       -0.8667468648    -5.0074200793    -2.7577565926
| 21>  H        1.6955350088    -4.6664558197     0.1092245806
| 22> *
| 23>
| 24>                          ****END OF INPUT****

CARTESIAN COORDINATES (ANGSTROEM)
---------------------------------
  C      0.235204    1.442962    0.073234
  N      0.163950   -0.011334    0.051195
  C      0.460605   -0.568379   -1.264752
  C      0.484338   -2.058374   -1.226820
  N     -0.172729   -2.899149   -1.968720
  C      0.237600   -4.141703   -1.528110
  O     -0.239718   -5.274058   -2.074669
  C      1.135014   -4.003014   -0.521833
  O      1.300170   -2.645694   -0.328582
  H      1.194483    1.855577   -0.289242
  H     -0.560237    1.858024   -0.556277
  H      0.071677    1.799892    1.093690
  H      0.815364   -0.399142    0.725093
  H     -0.321603   -0.273427   -1.970679
  H      1.421633   -0.202821   -1.679365
  H     -0.866747   -5.007420   -2.757757
  H      1.695535   -4.666456    0.109225

 Total Charge           Charge          ....    0
 Multiplicity           Mult            ....    1
 Number of Electrons    NEL             ....   68
 Basis Dimension        Dim             ....  327

ORBITAL ENERGIES
----------------

  NO   OCC          E(Eh)            E(eV)
   0   2.0000     -20.634435      -561.4915
   1   2.0000     -20.595980      -560.4451
   2   2.0000     -15.566818      -423.5947
   3   2.0000     -15.557961      -423.3537
   4   2.0000     -11.346733      -308.7603
   5   2.0000     -11.324174      -308.1464
   6   2.0000     -11.278104      -306.8928
   7   2.0000     -11.273508      -306.7677
   8   2.0000     -11.253678      -306.2282
   9   2.0000      -1.487093       -40.4659
  10   2.0000      -1.418723       -38.6054
  11   2.0000      -1.234253       -33.5857
  12   2.0000      -1.219855       -33.1939
  13   2.0000      -1.049423       -28.5563
  14   2.0000      -0.962011       -26.1777
  15   2.0000      -0.884640       -24.0723
  16   2.0000      -0.839287       -22.8382
  17   2.0000      -0.803262       -21.8579
  18   2.0000      -0.749779       -20.4025
  19   2.0000      -0.702359       -19.1122
  20   2.0000      -0.680403       -18.5147
  21   2.0000      -0.651051       -17.7160
  22   2.0000      -0.633390       -17.2354
  23   2.0000      -0.610033       -16.5998
  24   2.0000      -0.607463       -16.5299
  25   2.0000      -0.582732       -15.8569
  26   2.0000      -0.569121       -15.4866
  27   2.0000      -0.555676       -15.1207
  28   2.0000      -0.537457       -14.6249
  29   2.0000      -0.521953       -14.2031
  30   2.0000      -0.472185       -12.8488
  31   2.0000      -0.442130       -12.0310
  32   2.0000      -0.387973       -10.5573
  33   2.0000      -0.322343        -8.7714
  34   0.0000       0.130169         3.5421
  35   0.0000       0.147173         4.0048
  36   0.0000       0.154153         4.1947
  37   0.0000       0.174367         4.7448
  38   0.0000       0.177034         4.8173

MULLIKEN ATOMIC CHARGES
-----------------------
   0 C :   -0.303180
   1 N :   -0.336215
   2 C :   -0.173407
   3 C :    0.300415
   4 N :   -0.309244
   5 C :    0.213960
   6 O :   -0.437804
   7 C :   -0.085602
   8 O :   -0.222332
   9 H :    0.109452
  10 H :    0.131110
  11 H :    0.139537
  12 H :    0.213495
  13 H :    0.138765
  14 H :    0.114432
  15 H :    0.346632
  16 H :    0.159985
Sum of atomic charges:    0.0000000

LOEWDIN ATOMIC CHARGES
----------------------
   0 C :   -0.352535
   1 N :   -0.051275
   2 C :   -0.275989
   3 C :   -0.345721
   4 N :    0.127108
   5 C :   -0.408420
   6 O :    0.075578
   7 C :   -0.236998
   8 O :    0.346124
   9 H :    0.098986
  10 H :    0.116537
  11 H :    0.117290
  12 H :    0.170137
  13 H :    0.150907
  14 H :    0.130333
  15 H :    0.202777
  16 H :    0.135161

  Mayer bond orders larger than 0.1
B(  0-C ,  1-N ) :   0.9258 B(  0-C ,  9-H ) :   0.9305 B(  0-C , 10-H ) :   0.9389
B(  0-C , 11-H ) :   0.9389 B(  1-N ,  2-C ) :   0.9739 B(  1-N , 12-H ) :   0.8791
B(  2-C ,  3-C ) :   0.9101 B(  2-C , 13-H ) :   0.9188 B(  2-C , 14-H ) :   0.9134
B(  3-C ,  4-N ) :   1.6535 B(  3-C ,  8-O ) :   1.0920 B(  4-N ,  5-C ) :   1.1797
B(  5-C ,  6-O ) :   1.0956 B(  5-C ,  7-C ) :   1.5781 B(  6-O , 15-H ) :   0.8170
B(  7-C ,  8-O ) :   0.9920 B(  7-C , 16-H ) :   0.9233

MP2 TOTAL ENERGY:     -454.423604380 Eh
FINAL SINGLE POINT ENERGY      -454.423604380487

DIPOLE MOMENT
-------------
                                X             Y             Z
Electronic contribution:      0.14575     -11.39705      -2.23325
Nuclear contribution   :      0.24996      11.90308       2.28084
                        -----------------------------------------
Total Dipole Moment    :      0.39571       0.50603       0.04759
                        -----------------------------------------
Magnitude (a.u.)       :      0.64414
Magnitude (Debye)      :      1.63727

                             ****ORCA TERMINATED NORMALLY****
TOTAL RUN TIME: 0 days 0 hours 13 minutes 52 seconds 713 msec
