                         Program Version 3.0.3 - RELEASE   -
|  1> ! RI-MP2 RIJK def2-TZVP def2-TZVP/C def2-TZVP/JK TIGHTSCF
|  2> % maxcore 2000
|  3> % mp2 density relaxed end
|  4> *xyz 0 1
|  5>  C        0.0733358000     1.4565134397     0.0599723988
|  6>  C       -0.0580307330    -0.0289735121    -0.0384693543
|  7>  C       -0.1158707620    -0.7893754128    -1.1427087646
|  8>  C       -0.0187663807    -2.2338170665    -0.7356025175
|  9>  N        1.4135006091    -2.4023793569    -0.1889585168
| 10>  C        0.8748544742    -2.1863665848     1.1598320839
| 11>  C       -0.0785836108    -0.9281489436     1.1546391337
| 12>  C       -0.5657312565    -2.2801460464     0.7511009380
| 13>  O       -1.7080185557    -2.8530449726     1.2612885515
| 14>  H        1.0283845139     1.7373753158     0.5215900040
| 15>  H        0.0235688250     1.9277882150    -0.9252366071
| 16>  H       -0.7170853923     1.8882611672     0.6867919109
| 17>  H       -0.0498877024    -0.4390675030    -2.1651469135
| 18>  H       -0.3111820555    -2.9978810731    -1.4553170992
| 19>  H        1.6378096505    -3.3947399476    -0.2553821235
| 20>  H        1.4267402100    -2.4457786345     2.0559101952
| 21>  H       -0.3265265759    -0.5653380010     2.1462968267
| 22>  H       -1.6080369378    -3.8114910127     1.2373771839
| 23> *
| 24>
| 25>                          ****END OF INPUT****

CARTESIAN COORDINATES (ANGSTROEM)
---------------------------------
  C      0.073336    1.456513    0.059972
  C     -0.058031   -0.028974   -0.038469
  C     -0.115871   -0.789375   -1.142709
  C     -0.018766   -2.233817   -0.735603
  N      1.413501   -2.402379   -0.188959
  C      0.874854   -2.186367    1.159832
  C     -0.078584   -0.928149    1.154639
  C     -0.565731   -2.280146    0.751101
  O     -1.708019   -2.853045    1.261289
  H      1.028385    1.737375    0.521590
  H      0.023569    1.927788   -0.925237
  H     -0.717085    1.888261    0.686792
  H     -0.049888   -0.439068   -2.165147
  H     -0.311182   -2.997881   -1.455317
  H      1.637810   -3.394740   -0.255382
  H      1.426740   -2.445779    2.055910
  H     -0.326527   -0.565338    2.146297
  H     -1.608037   -3.811491    1.237377

 Total Charge           Charge          ....    0
 Multiplicity           Mult            ....    1
 Number of Electrons    NEL             ....   66
 Basis Dimension        Dim             ....  333

ORBITAL ENERGIES
----------------

  NO   OCC          E(Eh)            E(eV)
   0   2.0000     -20.577974      -559.9551
   1   2.0000     -15.548495      -423.0961
   2   2.0000     -11.289382      -307.1997
   3   2.0000     -11.267680      -306.6092
   4   2.0000     -11.265825      -306.5587
   5   2.0000     -11.231649      -305.6287
   6   2.0000     -11.230931      -305.6092
   7   2.0000     -11.220226      -305.3179
   8   2.0000     -11.208266      -304.9924
   9   2.0000      -1.388191       -37.7746
  10   2.0000      -1.265057       -34.4240
  11   2.0000      -1.099841       -29.9282
  12   2.0000      -1.036952       -28.2169
  13   2.0000      -0.973123       -26.4800
  14   2.0000      -0.880652       -23.9638
  15   2.0000      -0.813256       -22.1298
  16   2.0000      -0.772509       -21.0210
  17   2.0000      -0.739944       -20.1349
  18   2.0000      -0.692300       -18.8384
  19   2.0000      -0.666562       -18.1381
  20   2.0000      -0.614022       -16.7084
  21   2.0000      -0.605618       -16.4797
  22   2.0000      -0.587687       -15.9918
  23   2.0000      -0.570313       -15.5190
  24   2.0000      -0.564620       -15.3641
  25   2.0000      -0.528748       -14.3880
  26   2.0000      -0.523931       -14.2569
  27   2.0000      -0.504943       -13.7402
  28   2.0000      -0.482403       -13.1269
  29   2.0000      -0.435657       -11.8548
  30   2.0000      -0.406593       -11.0640
  31   2.0000      -0.352474        -9.5913
  32   2.0000      -0.321636        -8.7522
  33   0.0000       0.129100         3.5130
  34   0.0000       0.142780         3.8852
  35   0.0000       0.150525         4.0960
  36   0.0000       0.165657         4.5078
  37   0.0000       0.178793         4.8652

MULLIKEN ATOMIC CHARGES
-----------------------
   0 C :   -0.463276
   1 C :    0.015127
   2 C :   -0.220603
   3 C :    0.041423
   4 N :   -0.315352
   5 C :   -0.135356
   6 C :   -0.073229
   7 C :    0.083062
   8 O :   -0.430545
   9 H :    0.145184
  10 H :    0.138847
  11 H :    0.141124
  12 H :    0.126189
  13 H :    0.138170
  14 H :    0.204641
  15 H :    0.135830
  16 H :    0.140850
  17 H :    0.327914
Sum of atomic charges:   -0.0000000

LOEWDIN ATOMIC CHARGES
----------------------
   0 C :   -0.270664
   1 C :   -0.158333
   2 C :   -0.125274
   3 C :   -0.172867
   4 N :    0.004534
   5 C :   -0.199723
   6 C :   -0.116184
   7 C :   -0.307460
   8 O :    0.039883
   9 H :    0.133866
  10 H :    0.131084
  11 H :    0.130910
  12 H :    0.136629
  13 H :    0.134047
  14 H :    0.166389
  15 H :    0.132551
  16 H :    0.155435
  17 H :    0.185175

  Mayer bond orders larger than 0.1
B(  0-C ,  1-C ) :   0.8648 B(  0-C ,  9-H ) :   0.9296 B(  0-C , 10-H ) :   0.9531
B(  0-C , 11-H ) :   0.9383 B(  1-C ,  2-C ) :   1.7609 B(  1-C ,  6-C ) :   0.9255
B(  2-C ,  3-C ) :   0.9335 B(  2-C , 12-H ) :   0.9078 B(  3-C ,  4-N ) :   0.9647
B(  3-C ,  7-C ) :   0.9346 B(  3-C , 13-H ) :   0.9126 B(  4-N ,  5-C ) :   1.0213
B(  4-N , 14-H ) :   0.8728 B(  5-C ,  6-C ) :   0.7946 B(  5-C ,  7-C ) :   0.9047
B(  5-C , 15-H ) :   0.9202 B(  6-C ,  7-C ) :   0.8845 B(  6-C , 16-H ) :   0.9148
B(  7-C ,  8-O ) :   1.1141 B(  8-O , 17-H ) :   0.8349

MP2 TOTAL ENERGY:     -401.201601501 Eh
FINAL SINGLE POINT ENERGY      -401.201601500945

DIPOLE MOMENT
-------------
                                X             Y             Z
Electronic contribution:     -1.32759      -4.80937       0.74408
Nuclear contribution   :      1.36715       4.12561      -0.58035
                        -----------------------------------------
Total Dipole Moment    :      0.03956      -0.68376       0.16373
                        -----------------------------------------
Magnitude (a.u.)       :      0.70421
Magnitude (Debye)      :      1.78995

                             ****ORCA TERMINATED NORMALLY****
TOTAL RUN TIME: 0 days 0 hours 18 minutes 31 seconds 477 msec
