                         Program Version 3.0.3 - RELEASE   -
|  1> ! RI-MP2 RIJK def2-TZVP def2-TZVP/C def2-TZVP/JK TIGHTSCF
|  2> % maxcore 2000
|  3> % mp2 density relaxed end
|  4> *xyz 0 1
|  5>  C        0.1509883542     1.4413859826     0.3736226269
|  6>  C        0.0727746659    -0.0511904754     0.0354350325
|  7>  C       -1.3622429161    -0.5723012303    -0.0017929076
|  8>  C       -1.6391020279    -2.0944308116    -0.2234780633
|  9>  C       -2.7140431261    -2.0805557477     0.8955771401
| 10>  O       -2.6799420460    -3.1567729012     1.7807171266
| 11>  C       -3.6714145525    -3.0839546272     2.7924683716
| 12>  C       -2.1063996730    -0.7254245060     1.3394183344
| 13>  O       -2.0568843383    -0.1458283819     2.3885448678
| 14>  H        1.1903331431     1.7816415494     0.4094641047
| 15>  H       -0.3712369435     2.0443545337    -0.3778457044
| 16>  H       -0.3095479792     1.6398195399     1.3449211012
| 17>  H        0.5463484608    -0.2454247713    -0.9351634436
| 18>  H        0.6393445647    -0.6281329189     0.7769753768
| 19>  H       -1.9677725521     0.0337532092    -0.6886966664
| 20>  H       -1.9701114955    -2.4036469233    -1.2148859751
| 21>  H       -0.7885983293    -2.7060908350     0.0883767852
| 22>  H       -3.7262510321    -1.9242501005     0.4818787875
| 23>  H       -3.5431550638    -2.1933688467     3.4184285890
| 24>  H       -4.6832513347    -3.0706776791     2.3576840263
| 25>  H       -3.5626185186    -3.9794452789     3.4082167099
| 26> *
| 27>
| 28>                          ****END OF INPUT****

CARTESIAN COORDINATES (ANGSTROEM)
---------------------------------
  C      0.150988    1.441386    0.373623
  C      0.072775   -0.051190    0.035435
  C     -1.362243   -0.572301   -0.001793
  C     -1.639102   -2.094431   -0.223478
  C     -2.714043   -2.080556    0.895577
  O     -2.679942   -3.156773    1.780717
  C     -3.671415   -3.083955    2.792468
  C     -2.106400   -0.725425    1.339418
  O     -2.056884   -0.145828    2.388545
  H      1.190333    1.781642    0.409464
  H     -0.371237    2.044355   -0.377846
  H     -0.309548    1.639820    1.344921
  H      0.546348   -0.245425   -0.935163
  H      0.639345   -0.628133    0.776975
  H     -1.967773    0.033753   -0.688697
  H     -1.970111   -2.403647   -1.214886
  H     -0.788598   -2.706091    0.088377
  H     -3.726251   -1.924250    0.481879
  H     -3.543155   -2.193369    3.418429
  H     -4.683251   -3.070678    2.357684
  H     -3.562619   -3.979445    3.408217

 Total Charge           Charge          ....    0
 Multiplicity           Mult            ....    1
 Number of Electrons    NEL             ....   70
 Basis Dimension        Dim             ....  351

ORBITAL ENERGIES
----------------

  NO   OCC          E(Eh)            E(eV)
   0   2.0000     -20.567683      -559.6751
   1   2.0000     -20.556132      -559.3608
   2   2.0000     -11.329403      -308.2887
   3   2.0000     -11.296173      -307.3845
   4   2.0000     -11.272054      -306.7282
   5   2.0000     -11.246324      -306.0280
   6   2.0000     -11.238880      -305.8255
   7   2.0000     -11.231728      -305.6309
   8   2.0000     -11.212803      -305.1159
   9   2.0000      -1.402403       -38.1613
  10   2.0000      -1.382897       -37.6306
  11   2.0000      -1.141237       -31.0546
  12   2.0000      -1.038899       -28.2699
  13   2.0000      -0.948661       -25.8144
  14   2.0000      -0.891357       -24.2550
  15   2.0000      -0.867743       -23.6125
  16   2.0000      -0.817967       -22.2580
  17   2.0000      -0.739995       -20.1363
  18   2.0000      -0.678316       -18.4579
  19   2.0000      -0.673483       -18.3264
  20   2.0000      -0.666572       -18.1384
  21   2.0000      -0.630634       -17.1604
  22   2.0000      -0.606257       -16.4971
  23   2.0000      -0.589395       -16.0382
  24   2.0000      -0.575492       -15.6599
  25   2.0000      -0.555160       -15.1067
  26   2.0000      -0.542844       -14.7715
  27   2.0000      -0.519438       -14.1346
  28   2.0000      -0.511826       -13.9275
  29   2.0000      -0.504755       -13.7351
  30   2.0000      -0.483098       -13.1458
  31   2.0000      -0.477243       -12.9865
  32   2.0000      -0.464051       -12.6275
  33   2.0000      -0.452104       -12.3024
  34   2.0000      -0.376395       -10.2422
  35   0.0000       0.113292         3.0828
  36   0.0000       0.150590         4.0978
  37   0.0000       0.154141         4.1944
  38   0.0000       0.165560         4.5051
  39   0.0000       0.167716         4.5638

MULLIKEN ATOMIC CHARGES
-----------------------
   0 C :   -0.407943
   1 C :   -0.213672
   2 C :   -0.029724
   3 C :   -0.232809
   4 C :    0.139577
   5 O :   -0.306199
   6 C :   -0.230963
   7 C :    0.041297
   8 O :   -0.268717
   9 H :    0.132458
  10 H :    0.117555
  11 H :    0.156221
  12 H :    0.118520
  13 H :    0.115759
  14 H :    0.123122
  15 H :    0.132572
  16 H :    0.128790
  17 H :    0.087751
  18 H :    0.147420
  19 H :    0.108567
  20 H :    0.140419
Sum of atomic charges:    0.0000000

LOEWDIN ATOMIC CHARGES
----------------------
   0 C :   -0.313989
   1 C :   -0.271223
   2 C :   -0.205066
   3 C :   -0.183956
   4 C :   -0.292508
   5 O :    0.163197
   6 C :   -0.341194
   7 C :   -0.276783
   8 O :    0.163680
   9 H :    0.121229
  10 H :    0.119776
  11 H :    0.128059
  12 H :    0.138782
  13 H :    0.141838
  14 H :    0.163126
  15 H :    0.129636
  16 H :    0.146740
  17 H :    0.142287
  18 H :    0.110486
  19 H :    0.101827
  20 H :    0.114056

  Mayer bond orders larger than 0.1
B(  0-C ,  1-C ) :   0.9181 B(  0-C ,  9-H ) :   0.9382 B(  0-C , 10-H ) :   0.9364
B(  0-C , 11-H ) :   0.9353 B(  1-C ,  2-C ) :   0.8938 B(  1-C , 12-H ) :   0.9380
B(  1-C , 13-H ) :   0.9286 B(  2-C ,  3-C ) :   0.9230 B(  2-C ,  7-C ) :   0.8656
B(  2-C , 14-H ) :   0.8922 B(  3-C ,  4-C ) :   0.9266 B(  3-C , 15-H ) :   0.9276
B(  3-C , 16-H ) :   0.9122 B(  4-C ,  5-O ) :   1.0061 B(  4-C ,  7-C ) :   0.8590
B(  4-C , 17-H ) :   0.9083 B(  5-O ,  6-C ) :   0.8896 B(  6-C , 18-H ) :   0.9337
B(  6-C , 19-H ) :   0.9344 B(  6-C , 20-H ) :   0.9386 B(  7-C ,  8-O ) :   1.9930

MP2 TOTAL ENERGY:     -423.511343388 Eh
FINAL SINGLE POINT ENERGY      -423.511343387753

DIPOLE MOMENT
-------------
                                X             Y             Z
Electronic contribution:     -3.02682      -2.41297       2.86402
Nuclear contribution   :      2.77117       2.28822      -3.62159
                        -----------------------------------------
Total Dipole Moment    :     -0.25566      -0.12475      -0.75757
                        -----------------------------------------
Magnitude (a.u.)       :      0.80922
Magnitude (Debye)      :      2.05687

                             ****ORCA TERMINATED NORMALLY****
TOTAL RUN TIME: 0 days 0 hours 28 minutes 58 seconds 869 msec
