                         Program Version 3.0.3 - RELEASE   -
|  1> ! RI-MP2 RIJK def2-TZVP def2-TZVP/C def2-TZVP/JK TIGHTSCF
|  2> % maxcore 2000
|  3> % mp2 density relaxed end
|  4> *xyz 0 1
|  5>  C       -0.1971182247     1.5138433365    -0.0621407814
|  6>  C        0.0030093440    -0.0108140148     0.0334769430
|  7>  C        0.7884630824    -0.4130373697     1.2825099134
|  8>  C        2.2761938983    -0.0931188941     1.1626760928
|  9>  N        2.9652154830    -0.1500139322     2.3406782135
| 10>  O        2.8181796218     0.1895191067     0.1094763543
| 11>  C       -1.3153684671    -0.7795586782    -0.0635938414
| 12>  C       -2.2159018549    -0.4625300327    -1.2471613383
| 13>  O       -1.6328361430    -1.6172484533     0.7521736459
| 14>  H        0.7762837269     2.0090206706    -0.0379231239
| 15>  H       -0.6927003837     1.8021858845    -0.9925865446
| 16>  H       -0.7989001212     1.8875085526     0.7742119826
| 17>  H        0.6014813143    -0.3072173419    -0.8395394132
| 18>  H        0.3740839703     0.0694811381     2.1758227485
| 19>  H        0.6765637304    -1.4898566374     1.4520014233
| 20>  H        2.5437716184    -0.5005113789     3.1833140360
| 21>  H        3.9681901862    -0.0671822131     2.3045915908
| 22>  H       -1.6421953436    -0.3264573306    -2.1689850540
| 23>  H       -2.9449764761    -1.2646465724    -1.3689931300
| 24>  H       -2.7553957915     0.4732124201    -1.0617707172
| 25> *
| 26>
| 27>                          ****END OF INPUT****

CARTESIAN COORDINATES (ANGSTROEM)
---------------------------------
  C     -0.197118    1.513843   -0.062141
  C      0.003009   -0.010814    0.033477
  C      0.788463   -0.413037    1.282510
  C      2.276194   -0.093119    1.162676
  N      2.965215   -0.150014    2.340678
  O      2.818180    0.189519    0.109476
  C     -1.315368   -0.779559   -0.063594
  C     -2.215902   -0.462530   -1.247161
  O     -1.632836   -1.617248    0.752174
  H      0.776284    2.009021   -0.037923
  H     -0.692700    1.802186   -0.992587
  H     -0.798900    1.887509    0.774212
  H      0.601481   -0.307217   -0.839539
  H      0.374084    0.069481    2.175823
  H      0.676564   -1.489857    1.452001
  H      2.543772   -0.500511    3.183314
  H      3.968190   -0.067182    2.304592
  H     -1.642195   -0.326457   -2.168985
  H     -2.944976   -1.264647   -1.368993
  H     -2.755396    0.473212   -1.061771

 Total Charge           Charge          ....    0
 Multiplicity           Mult            ....    1
 Number of Electrons    NEL             ....   70
 Basis Dimension        Dim             ....  345

ORBITAL ENERGIES
----------------

  NO   OCC          E(Eh)            E(eV)
   0   2.0000     -20.544941      -559.0563
   1   2.0000     -20.520430      -558.3893
   2   2.0000     -15.584362      -424.0720
   3   2.0000     -11.353936      -308.9563
   4   2.0000     -11.330951      -308.3308
   5   2.0000     -11.245589      -306.0080
   6   2.0000     -11.240807      -305.8779
   7   2.0000     -11.234534      -305.7072
   8   2.0000     -11.227703      -305.5213
   9   2.0000      -1.389722       -37.8163
  10   2.0000      -1.384532       -37.6750
  11   2.0000      -1.212660       -32.9982
  12   2.0000      -1.097166       -29.8554
  13   2.0000      -1.010600       -27.4998
  14   2.0000      -0.963076       -26.2066
  15   2.0000      -0.876420       -23.8486
  16   2.0000      -0.792322       -21.5602
  17   2.0000      -0.731427       -19.9031
  18   2.0000      -0.722182       -19.6516
  19   2.0000      -0.683128       -18.5889
  20   2.0000      -0.650339       -17.6966
  21   2.0000      -0.638999       -17.3880
  22   2.0000      -0.627356       -17.0712
  23   2.0000      -0.598958       -16.2985
  24   2.0000      -0.592362       -16.1190
  25   2.0000      -0.571948       -15.5635
  26   2.0000      -0.552926       -15.0459
  27   2.0000      -0.549661       -14.9570
  28   2.0000      -0.529900       -14.4193
  29   2.0000      -0.505861       -13.7652
  30   2.0000      -0.490623       -13.3505
  31   2.0000      -0.479716       -13.0537
  32   2.0000      -0.428785       -11.6678
  33   2.0000      -0.419205       -11.4071
  34   2.0000      -0.409348       -11.1389
  35   0.0000       0.121783         3.3139
  36   0.0000       0.132548         3.6068
  37   0.0000       0.147784         4.0214
  38   0.0000       0.164161         4.4671
  39   0.0000       0.178341         4.8529

MULLIKEN ATOMIC CHARGES
-----------------------
   0 C :   -0.459881
   1 C :   -0.046361
   2 C :   -0.274702
   3 C :    0.286818
   4 N :   -0.482666
   5 O :   -0.363617
   6 C :    0.223458
   7 C :   -0.429417
   8 O :   -0.298875
   9 H :    0.164595
  10 H :    0.138941
  11 H :    0.129987
  12 H :    0.133868
  13 H :    0.130545
  14 H :    0.168173
  15 H :    0.260748
  16 H :    0.259227
  17 H :    0.148337
  18 H :    0.157193
  19 H :    0.153629
Sum of atomic charges:    0.0000000

LOEWDIN ATOMIC CHARGES
----------------------
   0 C :   -0.279915
   1 C :   -0.252171
   2 C :   -0.215338
   3 C :   -0.472967
   4 N :   -0.023151
   5 O :    0.078990
   6 C :   -0.323111
   7 C :   -0.279639
   8 O :    0.143512
   9 H :    0.134121
  10 H :    0.124633
  11 H :    0.124423
  12 H :    0.176827
  13 H :    0.150210
  14 H :    0.161983
  15 H :    0.171269
  16 H :    0.172904
  17 H :    0.133842
  18 H :    0.134047
  19 H :    0.139531

  Mayer bond orders larger than 0.1
B(  0-C ,  1-C ) :   0.8777 B(  0-C ,  9-H ) :   0.9338 B(  0-C , 10-H ) :   0.9369
B(  0-C , 11-H ) :   0.9299 B(  1-C ,  2-C ) :   0.9335 B(  1-C ,  6-C ) :   0.8892
B(  1-C , 12-H ) :   0.8945 B(  2-C ,  3-C ) :   0.9069 B(  2-C , 13-H ) :   0.9116
B(  2-C , 14-H ) :   0.8926 B(  3-C ,  4-N ) :   1.1690 B(  3-C ,  5-O ) :   1.9372
B(  4-N , 15-H ) :   0.8706 B(  4-N , 16-H ) :   0.8595 B(  6-C ,  7-C ) :   0.9202
B(  6-C ,  8-O ) :   1.9688 B(  7-C , 17-H ) :   0.9255 B(  7-C , 18-H ) :   0.9351
B(  7-C , 19-H ) :   0.9123

MP2 TOTAL ENERGY:     -439.627111169 Eh
FINAL SINGLE POINT ENERGY      -439.627111168664

DIPOLE MOMENT
-------------
                                X             Y             Z
Electronic contribution:      4.10066      -3.84405       2.42729
Nuclear contribution   :     -4.08913       4.17351      -1.84062
                        -----------------------------------------
Total Dipole Moment    :      0.01153       0.32946       0.58666
                        -----------------------------------------
Magnitude (a.u.)       :      0.67294
Magnitude (Debye)      :      1.71048

                             ****ORCA TERMINATED NORMALLY****
TOTAL RUN TIME: 0 days 0 hours 19 minutes 30 seconds 921 msec
