                         Program Version 3.0.3 - RELEASE   -
|  1> ! RI-MP2 RIJK def2-TZVP def2-TZVP/C def2-TZVP/JK TIGHTSCF
|  2> % maxcore 2000
|  3> % mp2 density relaxed end
|  4> *xyz 0 1
|  5>  C       -0.0085118038     1.5480731052    -0.0180976801
|  6>  C       -0.0388838642     0.0166223502     0.0620695609
|  7>  C        0.7687995886    -0.5324310941     1.2448123276
|  8>  N       -1.4230481921    -0.5120288823     0.0431139988
|  9>  C       -1.8154619883    -1.3150240203    -1.0385549130
| 10>  O       -2.8894007481    -1.8188164667    -1.2076809442
| 11>  C       -2.2863181769    -0.1937623620     1.0988410369
| 12>  O       -3.4272028741    -0.5454599589     1.2210046353
| 13>  H        1.0234203579     1.8941873508    -0.1287852065
| 14>  H       -0.5852499854     1.9051495069    -0.8756626323
| 15>  H       -0.4170912756     2.0118174578     0.8850013549
| 16>  H        0.4175299812    -0.3697260236    -0.8552914097
| 17>  H        0.3940431993    -0.1591050019     2.2028130565
| 18>  H        0.7336685043    -1.6250467912     1.2672577596
| 19>  H        1.8144900310    -0.2231511289     1.1564444192
| 20>  H       -0.9741073121    -1.4337577150    -1.7519606172
| 21>  H       -1.7787821717     0.4480778139     1.8429657934
| 22> *
| 23>
| 24>                          ****END OF INPUT****

CARTESIAN COORDINATES (ANGSTROEM)
---------------------------------
  C     -0.008512    1.548073   -0.018098
  C     -0.038884    0.016622    0.062070
  C      0.768800   -0.532431    1.244812
  N     -1.423048   -0.512029    0.043114
  C     -1.815462   -1.315024   -1.038555
  O     -2.889401   -1.818816   -1.207681
  C     -2.286318   -0.193762    1.098841
  O     -3.427203   -0.545460    1.221005
  H      1.023420    1.894187   -0.128785
  H     -0.585250    1.905150   -0.875663
  H     -0.417091    2.011817    0.885001
  H      0.417530   -0.369726   -0.855291
  H      0.394043   -0.159105    2.202813
  H      0.733669   -1.625047    1.267258
  H      1.814490   -0.223151    1.156444
  H     -0.974107   -1.433758   -1.751961
  H     -1.778782    0.448078    1.842966

 Total Charge           Charge          ....    0
 Multiplicity           Mult            ....    1
 Number of Electrons    NEL             ....   62
 Basis Dimension        Dim             ....  302

ORBITAL ENERGIES
----------------

  NO   OCC          E(Eh)            E(eV)
   0   2.0000     -20.547603      -559.1287
   1   2.0000     -20.547597      -559.1285
   2   2.0000     -15.619438      -425.0265
   3   2.0000     -11.367443      -309.3238
   4   2.0000     -11.366629      -309.3017
   5   2.0000     -11.307535      -307.6937
   6   2.0000     -11.247653      -306.0642
   7   2.0000     -11.247637      -306.0638
   8   2.0000      -1.419221       -38.6190
   9   2.0000      -1.392016       -37.8787
  10   2.0000      -1.272538       -34.6275
  11   2.0000      -1.077430       -29.3184
  12   2.0000      -0.969318       -26.3765
  13   2.0000      -0.940043       -25.5799
  14   2.0000      -0.854861       -23.2620
  15   2.0000      -0.780384       -21.2353
  16   2.0000      -0.712725       -19.3942
  17   2.0000      -0.680725       -18.5235
  18   2.0000      -0.656689       -17.8694
  19   2.0000      -0.645579       -17.5671
  20   2.0000      -0.631488       -17.1837
  21   2.0000      -0.627056       -17.0631
  22   2.0000      -0.582552       -15.8520
  23   2.0000      -0.566961       -15.4278
  24   2.0000      -0.565041       -15.3756
  25   2.0000      -0.529823       -14.4172
  26   2.0000      -0.523963       -14.2578
  27   2.0000      -0.521792       -14.1987
  28   2.0000      -0.472369       -12.8538
  29   2.0000      -0.420375       -11.4390
  30   2.0000      -0.410656       -11.1745
  31   0.0000       0.112136         3.0514
  32   0.0000       0.114400         3.1130
  33   0.0000       0.146348         3.9823
  34   0.0000       0.151230         4.1152
  35   0.0000       0.167798         4.5660

MULLIKEN ATOMIC CHARGES
-----------------------
   0 C :   -0.372648
   1 C :   -0.076959
   2 C :   -0.372645
   3 N :   -0.042716
   4 C :    0.123921
   5 O :   -0.250841
   6 C :    0.126524
   7 O :   -0.252076
   8 H :    0.139363
   9 H :    0.147968
  10 H :    0.132038
  11 H :    0.099552
  12 H :    0.132042
  13 H :    0.147966
  14 H :    0.139363
  15 H :    0.082378
  16 H :    0.096770
Sum of atomic charges:    0.0000000

LOEWDIN ATOMIC CHARGES
----------------------
   0 C :   -0.288011
   1 C :   -0.305308
   2 C :   -0.288011
   3 N :    0.187593
   4 C :   -0.372347
   5 O :    0.137988
   6 C :   -0.363358
   7 O :    0.137382
   8 H :    0.130100
   9 H :    0.129490
  10 H :    0.125102
  11 H :    0.152074
  12 H :    0.125104
  13 H :    0.129490
  14 H :    0.130100
  15 H :    0.114792
  16 H :    0.117820

  Mayer bond orders larger than 0.1
B(  0-C ,  1-C ) :   0.9424 B(  0-C ,  8-H ) :   0.9315 B(  0-C ,  9-H ) :   0.9336
B(  0-C , 10-H ) :   0.9231 B(  1-C ,  2-C ) :   0.9424 B(  1-C ,  3-N ) :   0.8519
B(  1-C , 11-H ) :   0.9258 B(  2-C , 12-H ) :   0.9231 B(  2-C , 13-H ) :   0.9336
B(  2-C , 14-H ) :   0.9315 B(  3-N ,  4-C ) :   0.9858 B(  3-N ,  6-C ) :   0.9524
B(  4-C ,  5-O ) :   2.0037 B(  4-C , 15-H ) :   0.9245 B(  6-C ,  7-O ) :   2.0036
B(  6-C , 16-H ) :   0.9302

MP2 TOTAL ENERGY:     -400.387021747 Eh
FINAL SINGLE POINT ENERGY      -400.387021747436

DIPOLE MOMENT
-------------
                                X             Y             Z
Electronic contribution:    -10.09335      -4.92626      -1.90335
Nuclear contribution   :     12.34149       5.81283       1.98053
                        -----------------------------------------
Total Dipole Moment    :      2.24814       0.88656       0.07718
                        -----------------------------------------
Magnitude (a.u.)       :      2.41787
Magnitude (Debye)      :      6.14572

                             ****ORCA TERMINATED NORMALLY****
TOTAL RUN TIME: 0 days 0 hours 11 minutes 8 seconds 402 msec
