                         Program Version 3.0.3 - RELEASE   -
|  1> ! RI-MP2 RIJK def2-TZVP def2-TZVP/C def2-TZVP/JK TIGHTSCF
|  2> % maxcore 2000
|  3> % mp2 density relaxed end
|  4> *xyz 0 1
|  5>  C       -0.1868488698     1.4992145022     0.1862440906
|  6>  C       -0.1685930574     0.0087706119    -0.1620702309
|  7>  C        0.9680374268    -0.3564396780    -1.1173365726
|  8>  N        0.9818556219    -1.8001449978    -1.3487147757
|  9>  C        0.1901010908    -2.4674266736    -2.3506255230
| 10>  C        0.0966689090    -1.6796298485    -3.6707441192
| 11>  C        1.6617853096    -1.7455679020    -3.7617912571
| 12>  O        2.4214913588    -0.5584461053    -3.8313251647
| 13>  C        1.7075312351    -2.4602281503    -2.4056860370
| 14>  H        0.7460519442     1.8040866045     0.6734759813
| 15>  H       -0.3063460634     2.1172942073    -0.7106864081
| 16>  H       -1.0100257909     1.7385436117     0.8663717296
| 17>  H       -0.0712932351    -0.5943034543     0.7479257462
| 18>  H       -1.1256838816    -0.2768331388    -0.6180954883
| 19>  H        0.8956481726     0.2356908180    -2.0379102951
| 20>  H        1.9338406283    -0.1015239964    -0.6649805007
| 21>  H       -0.4734034939    -3.2699676273    -2.0475808515
| 22>  H       -0.3939527752    -2.2347026701    -4.4734902976
| 23>  H       -0.3444851010    -0.6810329010    -3.6073980027
| 24>  H        1.9567896759    -2.4457614863    -4.5558924714
| 25>  H        2.3490238490    -0.2052966372    -4.7238665116
| 26>  H        2.4240375765    -3.2296649687    -2.1370139304
| 27> *
| 28>
| 29>                          ****END OF INPUT****

CARTESIAN COORDINATES (ANGSTROEM)
---------------------------------
  C     -0.186849    1.499215    0.186244
  C     -0.168593    0.008771   -0.162070
  C      0.968037   -0.356440   -1.117337
  N      0.981856   -1.800145   -1.348715
  C      0.190101   -2.467427   -2.350626
  C      0.096669   -1.679630   -3.670744
  C      1.661785   -1.745568   -3.761791
  O      2.421491   -0.558446   -3.831325
  C      1.707531   -2.460228   -2.405686
  H      0.746052    1.804087    0.673476
  H     -0.306346    2.117294   -0.710686
  H     -1.010026    1.738544    0.866372
  H     -0.071293   -0.594303    0.747926
  H     -1.125684   -0.276833   -0.618095
  H      0.895648    0.235691   -2.037910
  H      1.933841   -0.101524   -0.664981
  H     -0.473403   -3.269968   -2.047581
  H     -0.393953   -2.234703   -4.473490
  H     -0.344485   -0.681033   -3.607398
  H      1.956790   -2.445761   -4.555892
  H      2.349024   -0.205297   -4.723867
  H      2.424038   -3.229665   -2.137014

 Total Charge           Charge          ....    0
 Multiplicity           Mult            ....    1
 Number of Electrons    NEL             ....   70
 Basis Dimension        Dim             ....  357

ORBITAL ENERGIES
----------------

  NO   OCC          E(Eh)            E(eV)
   0   2.0000     -20.559458      -559.4513
   1   2.0000     -15.553004      -423.2188
   2   2.0000     -11.288436      -307.1739
   3   2.0000     -11.258168      -306.3503
   4   2.0000     -11.252403      -306.1935
   5   2.0000     -11.234958      -305.7187
   6   2.0000     -11.229487      -305.5699
   7   2.0000     -11.209770      -305.0334
   8   2.0000     -11.207789      -304.9795
   9   2.0000      -1.368437       -37.2371
  10   2.0000      -1.283578       -34.9279
  11   2.0000      -1.074415       -29.2363
  12   2.0000      -1.022805       -27.8319
  13   2.0000      -0.937443       -25.5091
  14   2.0000      -0.898229       -24.4421
  15   2.0000      -0.822677       -22.3862
  16   2.0000      -0.761646       -20.7254
  17   2.0000      -0.749308       -20.3897
  18   2.0000      -0.711303       -19.3555
  19   2.0000      -0.688276       -18.7289
  20   2.0000      -0.640404       -17.4263
  21   2.0000      -0.626287       -17.0421
  22   2.0000      -0.588770       -16.0212
  23   2.0000      -0.576114       -15.6769
  24   2.0000      -0.566325       -15.4105
  25   2.0000      -0.542078       -14.7507
  26   2.0000      -0.523583       -14.2474
  27   2.0000      -0.512230       -13.9385
  28   2.0000      -0.488990       -13.3061
  29   2.0000      -0.470821       -12.8117
  30   2.0000      -0.469473       -12.7750
  31   2.0000      -0.441916       -12.0252
  32   2.0000      -0.425288       -11.5727
  33   2.0000      -0.394737       -10.7413
  34   2.0000      -0.371027       -10.0962
  35   0.0000       0.131482         3.5778
  36   0.0000       0.142030         3.8648
  37   0.0000       0.160733         4.3738
  38   0.0000       0.173577         4.7233
  39   0.0000       0.188780         5.1370

MULLIKEN ATOMIC CHARGES
-----------------------
   0 C :   -0.396767
   1 C :   -0.167256
   2 C :   -0.154456
   3 N :   -0.199781
   4 C :   -0.066620
   5 C :   -0.253236
   6 C :    0.048469
   7 O :   -0.462789
   8 C :   -0.079086
   9 H :    0.123260
  10 H :    0.121214
  11 H :    0.133375
  12 H :    0.111986
  13 H :    0.103257
  14 H :    0.107695
  15 H :    0.114187
  16 H :    0.134219
  17 H :    0.122669
  18 H :    0.121466
  19 H :    0.088609
  20 H :    0.315882
  21 H :    0.133704
Sum of atomic charges:   -0.0000000

LOEWDIN ATOMIC CHARGES
----------------------
   0 C :   -0.321723
   1 C :   -0.294430
   2 C :   -0.285499
   3 N :    0.153489
   4 C :   -0.216874
   5 C :   -0.219928
   6 C :   -0.320002
   7 O :   -0.018842
   8 C :   -0.203846
   9 H :    0.120818
  10 H :    0.119393
  11 H :    0.120548
  12 H :    0.136375
  13 H :    0.133449
  14 H :    0.125102
  15 H :    0.136640
  16 H :    0.130669
  17 H :    0.133643
  18 H :    0.128884
  19 H :    0.135030
  20 H :    0.175354
  21 H :    0.131748

  Mayer bond orders larger than 0.1
B(  0-C ,  1-C ) :   0.9151 B(  0-C ,  9-H ) :   0.9387 B(  0-C , 10-H ) :   0.9382
B(  0-C , 11-H ) :   0.9422 B(  1-C ,  2-C ) :   0.9244 B(  1-C , 12-H ) :   0.9308
B(  1-C , 13-H ) :   0.9296 B(  2-C ,  3-N ) :   0.8975 B(  2-C , 14-H ) :   0.9274
B(  2-C , 15-H ) :   0.9279 B(  3-N ,  4-C ) :   0.9305 B(  3-N ,  8-C ) :   0.9414
B(  4-C ,  5-C ) :   0.9007 B(  4-C ,  8-C ) :   0.7978 B(  4-C , 16-H ) :   0.9283
B(  5-C ,  6-C ) :   0.9433 B(  5-C , 17-H ) :   0.9159 B(  5-C , 18-H ) :   0.9184
B(  6-C ,  7-O ) :   1.0512 B(  6-C ,  8-C ) :   0.8759 B(  6-C , 19-H ) :   0.9381
B(  7-O , 20-H ) :   0.8443 B(  8-C , 21-H ) :   0.9307

MP2 TOTAL ENERGY:     -403.606720759 Eh
FINAL SINGLE POINT ENERGY      -403.606720759164

DIPOLE MOMENT
-------------
                                X             Y             Z
Electronic contribution:      4.06662      -5.57043      -4.25390
Nuclear contribution   :     -4.38939       5.55976       3.36699
                        -----------------------------------------
Total Dipole Moment    :     -0.32276      -0.01067      -0.88690
                        -----------------------------------------
Magnitude (a.u.)       :      0.94387
Magnitude (Debye)      :      2.39913

                             ****ORCA TERMINATED NORMALLY****
TOTAL RUN TIME: 0 days 0 hours 19 minutes 21 seconds 238 msec
