                         Program Version 3.0.3 - RELEASE   -
|  1> ! RI-MP2 RIJK def2-TZVP def2-TZVP/C def2-TZVP/JK TIGHTSCF
|  2> % maxcore 2000
|  3> % mp2 density relaxed end
|  4> *xyz 0 1
|  5>  O       -0.2562408859     1.4064149767     0.5741451566
|  6>  C        0.0106108499     0.1148020061     0.0322460946
|  7>  C        1.0063321333    -0.6324131370     0.8800760718
|  8>  C        0.8808021520    -1.9021848992     1.2575506570
|  9>  C       -0.2771117191    -2.7955843889     0.8974379589
| 10>  O       -0.7427627383    -3.5148822044     2.0371337469
| 11>  C       -1.4244668630    -2.0446879852     0.2531166604
| 12>  O       -1.9691574851    -0.9836800775     1.0542295004
| 13>  C       -1.2860075657    -0.6441357068    -0.1632366563
| 14>  H       -0.7215795513     1.2574191412     1.4066568185
| 15>  H        0.4455759638     0.3127505310    -0.9566840818
| 16>  H        1.8633825520    -0.0423361662     1.1945915419
| 17>  H        1.6331884359    -2.3708125671     1.8867955056
| 18>  H        0.0615379274    -3.5718864652     0.1981291915
| 19>  H       -1.1284375300    -2.8580020443     2.6300746476
| 20>  H       -2.1804362974    -2.6684068641    -0.2220234079
| 21>  H       -1.9416518586    -0.2530441291    -0.9400575958
| 22> *
| 23>
| 24>                          ****END OF INPUT****

CARTESIAN COORDINATES (ANGSTROEM)
---------------------------------
  O     -0.256241    1.406415    0.574145
  C      0.010611    0.114802    0.032246
  C      1.006332   -0.632413    0.880076
  C      0.880802   -1.902185    1.257551
  C     -0.277112   -2.795584    0.897438
  O     -0.742763   -3.514882    2.037134
  C     -1.424467   -2.044688    0.253117
  O     -1.969157   -0.983680    1.054230
  C     -1.286008   -0.644136   -0.163237
  H     -0.721580    1.257419    1.406657
  H      0.445576    0.312751   -0.956684
  H      1.863383   -0.042336    1.194592
  H      1.633188   -2.370813    1.886796
  H      0.061538   -3.571886    0.198129
  H     -1.128438   -2.858002    2.630075
  H     -2.180436   -2.668407   -0.222023
  H     -1.941652   -0.253044   -0.940058

 Total Charge           Charge          ....    0
 Multiplicity           Mult            ....    1
 Number of Electrons    NEL             ....   68
 Basis Dimension        Dim             ....  327

ORBITAL ENERGIES
----------------

  NO   OCC          E(Eh)            E(eV)
   0   2.0000     -20.583931      -560.1172
   1   2.0000     -20.565759      -559.6228
   2   2.0000     -20.565759      -559.6227
   3   2.0000     -11.302646      -307.5606
   4   2.0000     -11.302570      -307.5586
   5   2.0000     -11.301847      -307.5389
   6   2.0000     -11.301129      -307.5193
   7   2.0000     -11.244126      -305.9682
   8   2.0000     -11.242380      -305.9207
   9   2.0000      -1.431868       -38.9631
  10   2.0000      -1.372387       -37.3446
  11   2.0000      -1.368347       -37.2346
  12   2.0000      -1.102939       -30.0125
  13   2.0000      -1.004595       -27.3364
  14   2.0000      -0.977429       -26.5972
  15   2.0000      -0.858039       -23.3484
  16   2.0000      -0.857804       -23.3420
  17   2.0000      -0.752068       -20.4648
  18   2.0000      -0.749246       -20.3880
  19   2.0000      -0.693076       -18.8595
  20   2.0000      -0.652299       -17.7499
  21   2.0000      -0.649657       -17.6781
  22   2.0000      -0.635004       -17.2793
  23   2.0000      -0.629845       -17.1390
  24   2.0000      -0.614546       -16.7226
  25   2.0000      -0.550452       -14.9786
  26   2.0000      -0.546842       -14.8803
  27   2.0000      -0.543562       -14.7911
  28   2.0000      -0.509961       -13.8768
  29   2.0000      -0.489051       -13.3078
  30   2.0000      -0.461233       -12.5508
  31   2.0000      -0.447432       -12.1752
  32   2.0000      -0.445821       -12.1314
  33   2.0000      -0.378898       -10.3103
  34   0.0000       0.126739         3.4487
  35   0.0000       0.143950         3.9171
  36   0.0000       0.153618         4.1802
  37   0.0000       0.173549         4.7225
  38   0.0000       0.173635         4.7249

MULLIKEN ATOMIC CHARGES
-----------------------
   0 O :   -0.467405
   1 C :    0.236170
   2 C :   -0.237232
   3 C :   -0.237231
   4 C :    0.236170
   5 O :   -0.467405
   6 C :   -0.054536
   7 O :   -0.349639
   8 C :   -0.054536
   9 H :    0.325741
  10 H :    0.106356
  11 H :    0.135780
  12 H :    0.135781
  13 H :    0.106355
  14 H :    0.325741
  15 H :    0.129944
  16 H :    0.129944
Sum of atomic charges:    0.0000000

LOEWDIN ATOMIC CHARGES
----------------------
   0 O :   -0.012382
   1 C :   -0.319338
   2 C :   -0.145117
   3 C :   -0.145117
   4 C :   -0.319338
   5 O :   -0.012382
   6 C :   -0.236012
   7 O :    0.156540
   8 C :   -0.236012
   9 H :    0.182297
  10 H :    0.158367
  11 H :    0.150649
  12 H :    0.150649
  13 H :    0.158367
  14 H :    0.182297
  15 H :    0.143266
  16 H :    0.143265

  Mayer bond orders larger than 0.1
B(  0-O ,  1-C ) :   0.8936 B(  0-O ,  9-H ) :   0.8337 B(  1-C ,  2-C ) :   0.9605
B(  1-C ,  8-C ) :   0.9507 B(  1-C , 10-H ) :   0.8993 B(  2-C ,  3-C ) :   1.7134
B(  2-C , 11-H ) :   0.9318 B(  3-C ,  4-C ) :   0.9605 B(  3-C , 12-H ) :   0.9318
B(  4-C ,  5-O ) :   0.8936 B(  4-C ,  6-C ) :   0.9507 B(  4-C , 13-H ) :   0.8993
B(  5-O , 14-H ) :   0.8337 B(  6-C ,  7-O ) :   0.8697 B(  6-C ,  8-C ) :   0.9275
B(  6-C , 15-H ) :   0.9323 B(  7-O ,  8-C ) :   0.8697 B(  8-C , 16-H ) :   0.9323

MP2 TOTAL ENERGY:     -458.215952523 Eh
FINAL SINGLE POINT ENERGY      -458.215952523174

DIPOLE MOMENT
-------------
                                X             Y             Z
Electronic contribution:     -1.62569       0.36087       0.67328
Nuclear contribution   :      1.79578      -0.49514      -1.06838
                        -----------------------------------------
Total Dipole Moment    :      0.17009      -0.13427      -0.39510
                        -----------------------------------------
Magnitude (a.u.)       :      0.45063
Magnitude (Debye)      :      1.14540

                             ****ORCA TERMINATED NORMALLY****
TOTAL RUN TIME: 0 days 0 hours 16 minutes 15 seconds 745 msec
