                         Program Version 3.0.3 - RELEASE   -
|  1> ! RI-MP2 RIJK def2-TZVP def2-TZVP/C def2-TZVP/JK TIGHTSCF
|  2> % maxcore 2000
|  3> % mp2 density relaxed end
|  4> *xyz 0 1
|  5>  C        0.0607711270     1.5598847200    -0.2582522993
|  6>  O        1.3452881167     1.6785459476     0.3804884737
|  7>  C        1.4923365015     0.2477207052     0.5108269354
|  8>  C        1.3000907427    -0.2431037825     1.9961539555
|  9>  N       -0.0426006859    -0.8799465964     2.1230287191
| 10>  C       -0.5972164659    -0.6594902416     1.0138635397
| 11>  O       -1.5679219971    -1.2891604583     0.2744257291
| 12>  C       -0.7885489603    -0.9380039260    -0.9418865704
| 13>  C        0.0800090739     0.0342254049    -0.1064220271
| 14>  H       -0.7317617290     2.1084881894     0.2645580048
| 15>  H        0.1031943751     1.8913693579    -1.3042814253
| 16>  H        2.4103116155    -0.1105347328     0.0364214334
| 17>  H        2.0425259869    -0.9983967066     2.2748159437
| 18>  H        1.4200735066     0.6101408537     2.6718097039
| 19>  H       -0.2965627123    -1.8298557292    -1.3362313192
| 20>  H       -1.4281708253    -0.4701420653    -1.6933921669
| 21> *
| 22>
| 23>                          ****END OF INPUT****

CARTESIAN COORDINATES (ANGSTROEM)
---------------------------------
  C      0.060771    1.559885   -0.258252
  O      1.345288    1.678546    0.380488
  C      1.492337    0.247721    0.510827
  C      1.300091   -0.243104    1.996154
  N     -0.042601   -0.879947    2.123029
  C     -0.597216   -0.659490    1.013864
  O     -1.567922   -1.289160    0.274426
  C     -0.788549   -0.938004   -0.941887
  C      0.080009    0.034225   -0.106422
  H     -0.731762    2.108488    0.264558
  H      0.103194    1.891369   -1.304281
  H      2.410312   -0.110535    0.036421
  H      2.042526   -0.998397    2.274816
  H      1.420074    0.610141    2.671810
  H     -0.296563   -1.829856   -1.336231
  H     -1.428171   -0.470142   -1.693392

 Total Charge           Charge          ....    0
 Multiplicity           Mult            ....    1
 Number of Electrons    NEL             ....   66
 Basis Dimension        Dim             ....  321

ORBITAL ENERGIES
----------------

  NO   OCC          E(Eh)            E(eV)
   0   2.0000     -20.601769      -560.6026
   1   2.0000     -20.568119      -559.6870
   2   2.0000     -15.553471      -423.2315
   3   2.0000     -11.336231      -308.4745
   4   2.0000     -11.325407      -308.1800
   5   2.0000     -11.311281      -307.7956
   6   2.0000     -11.303640      -307.5877
   7   2.0000     -11.266158      -306.5678
   8   2.0000     -11.265575      -306.5519
   9   2.0000      -1.442420       -39.2502
  10   2.0000      -1.400492       -38.1093
  11   2.0000      -1.241889       -33.7935
  12   2.0000      -1.069355       -29.0986
  13   2.0000      -0.993030       -27.0217
  14   2.0000      -0.933263       -25.3954
  15   2.0000      -0.912869       -24.8404
  16   2.0000      -0.820879       -22.3373
  17   2.0000      -0.738579       -20.0978
  18   2.0000      -0.701578       -19.0909
  19   2.0000      -0.696931       -18.9645
  20   2.0000      -0.673569       -18.3287
  21   2.0000      -0.629354       -17.1256
  22   2.0000      -0.613935       -16.7060
  23   2.0000      -0.597561       -16.2605
  24   2.0000      -0.577058       -15.7025
  25   2.0000      -0.570703       -15.5296
  26   2.0000      -0.546180       -14.8623
  27   2.0000      -0.514416       -13.9980
  28   2.0000      -0.484738       -13.1904
  29   2.0000      -0.472284       -12.8515
  30   2.0000      -0.435581       -11.8528
  31   2.0000      -0.418450       -11.3866
  32   2.0000      -0.384117       -10.4524
  33   0.0000       0.130211         3.5432
  34   0.0000       0.142223         3.8701
  35   0.0000       0.151088         4.1113
  36   0.0000       0.162292         4.4162
  37   0.0000       0.179518         4.8849

MULLIKEN ATOMIC CHARGES
-----------------------
   0 C :   -0.028514
   1 O :   -0.324469
   2 C :    0.050647
   3 C :   -0.114447
   4 N :   -0.207778
   5 C :    0.111153
   6 O :   -0.257937
   7 C :    0.024578
   8 C :   -0.090348
   9 H :    0.116376
  10 H :    0.103164
  11 H :    0.117095
  12 H :    0.121936
  13 H :    0.130629
  14 H :    0.123184
  15 H :    0.124731
Sum of atomic charges:   -0.0000000

LOEWDIN ATOMIC CHARGES
----------------------
   0 C :   -0.223720
   1 O :    0.142081
   2 C :   -0.206278
   3 C :   -0.229010
   4 N :    0.110985
   5 C :   -0.358474
   6 O :    0.216081
   7 C :   -0.168935
   8 C :   -0.195979
   9 H :    0.126096
  10 H :    0.124930
  11 H :    0.133047
  12 H :    0.131472
  13 H :    0.137380
  14 H :    0.130571
  15 H :    0.129754

  Mayer bond orders larger than 0.1
B(  0-C ,  1-O ) :   0.9503 B(  0-C ,  8-C ) :   0.9484 B(  0-C ,  9-H ) :   0.9087
B(  0-C , 10-H ) :   0.9075 B(  1-O ,  2-C ) :   0.9869 B(  2-C ,  3-C ) :   0.8979
B(  2-C ,  8-C ) :   0.9547 B(  2-C , 11-H ) :   0.9143 B(  3-C ,  4-N ) :   0.8995
B(  3-C , 12-H ) :   0.9207 B(  3-C , 13-H ) :   0.9080 B(  4-N ,  5-C ) :   1.8636
B(  5-C ,  6-O ) :   1.0996 B(  5-C ,  8-C ) :   0.9594 B(  6-O ,  7-C ) :   0.8955
B(  7-C ,  8-C ) :   0.9240 B(  7-C , 14-H ) :   0.9023 B(  7-C , 15-H ) :   0.9004

MP2 TOTAL ENERGY:     -437.101402092 Eh
FINAL SINGLE POINT ENERGY      -437.101402092225

DIPOLE MOMENT
-------------
                                X             Y             Z
Electronic contribution:     -1.98546      -1.21774       1.42143
Nuclear contribution   :      2.35001       1.38470      -2.69529
                        -----------------------------------------
Total Dipole Moment    :      0.36456       0.16696      -1.27385
                        -----------------------------------------
Magnitude (a.u.)       :      1.33547
Magnitude (Debye)      :      3.39449

                             ****ORCA TERMINATED NORMALLY****
TOTAL RUN TIME: 0 days 0 hours 16 minutes 37 seconds 174 msec
