                         Program Version 3.0.3 - RELEASE   -
|  1> ! RI-MP2 RIJK def2-TZVP def2-TZVP/C def2-TZVP/JK TIGHTSCF
|  2> % maxcore 2000
|  3> % mp2 density relaxed end
|  4> *xyz 0 1
|  5>  C        0.2754845890     0.3920867164    -1.8492966953
|  6>  C       -0.2864832534     0.8323168152    -0.4911819525
|  7>  C       -1.5697761810     0.0932408314    -0.1640215376
|  8>  C       -1.5509511613    -1.1876359361     0.5992542279
|  9>  N       -2.1694303334     0.0046840039     1.1755129930
| 10>  C       -1.5076085460     0.6387516565     2.3154815197
| 11>  C       -2.0053587063     2.0828710313     2.4764594869
| 12>  C       -1.8082003492    -0.1492700640     3.5239268395
| 13>  N       -2.0236407149    -0.7594095984     4.4808602333
| 14>  H        1.1852292030     0.9468231207    -2.0959790294
| 15>  H        0.5187115065    -0.6751271290    -1.8470876897
| 16>  H       -0.4498198859     0.5663314511    -2.6511610514
| 17>  H        0.4693645032     0.6603763487     0.2821982233
| 18>  H       -0.4780338576     1.9130081427    -0.5110578699
| 19>  H       -2.3330327956     0.2024880371    -0.9343535912
| 20>  H       -2.2286217150    -2.0030318967     0.3637078188
| 21>  H       -0.5877335019    -1.5025184115     1.0005301080
| 22>  H       -0.4089167356     0.6485516714     2.2263031715
| 23>  H       -3.0920650356     2.0929729784     2.5831169525
| 24>  H       -1.5546935153     2.5521956531     3.3543641566
| 25>  H       -1.7355530237     2.6635148576     1.5909106360
| 26> *
| 27>
| 28>                          ****END OF INPUT****

CARTESIAN COORDINATES (ANGSTROEM)
---------------------------------
  C      0.275485    0.392087   -1.849297
  C     -0.286483    0.832317   -0.491182
  C     -1.569776    0.093241   -0.164022
  C     -1.550951   -1.187636    0.599254
  N     -2.169430    0.004684    1.175513
  C     -1.507609    0.638752    2.315482
  C     -2.005359    2.082871    2.476459
  C     -1.808200   -0.149270    3.523927
  N     -2.023641   -0.759410    4.480860
  H      1.185229    0.946823   -2.095979
  H      0.518712   -0.675127   -1.847088
  H     -0.449820    0.566331   -2.651161
  H      0.469365    0.660376    0.282198
  H     -0.478034    1.913008   -0.511058
  H     -2.333033    0.202488   -0.934354
  H     -2.228622   -2.003032    0.363708
  H     -0.587734   -1.502518    1.000530
  H     -0.408917    0.648552    2.226303
  H     -3.092065    2.092973    2.583117
  H     -1.554694    2.552196    3.354364
  H     -1.735553    2.663515    1.590911

 Total Charge           Charge          ....    0
 Multiplicity           Mult            ....    1
 Number of Electrons    NEL             ....   68
 Basis Dimension        Dim             ....  351

ORBITAL ENERGIES
----------------

  NO   OCC          E(Eh)            E(eV)
   0   2.0000     -15.578880      -423.9229
   1   2.0000     -15.565488      -423.5585
   2   2.0000     -11.314276      -307.8771
   3   2.0000     -11.276475      -306.8485
   4   2.0000     -11.266289      -306.5713
   5   2.0000     -11.266142      -306.5673
   6   2.0000     -11.246015      -306.0196
   7   2.0000     -11.239747      -305.8491
   8   2.0000     -11.231870      -305.6347
   9   2.0000      -1.295699       -35.2578
  10   2.0000      -1.212694       -32.9991
  11   2.0000      -1.090702       -29.6795
  12   2.0000      -1.052018       -28.6269
  13   2.0000      -0.932016       -25.3614
  14   2.0000      -0.890700       -24.2372
  15   2.0000      -0.862611       -23.4728
  16   2.0000      -0.797488       -21.7008
  17   2.0000      -0.716648       -19.5010
  18   2.0000      -0.688149       -18.7255
  19   2.0000      -0.662165       -18.0184
  20   2.0000      -0.622572       -16.9411
  21   2.0000      -0.595014       -16.1912
  22   2.0000      -0.580469       -15.7954
  23   2.0000      -0.564875       -15.3710
  24   2.0000      -0.556692       -15.1484
  25   2.0000      -0.543022       -14.7764
  26   2.0000      -0.536273       -14.5927
  27   2.0000      -0.518635       -14.1128
  28   2.0000      -0.506734       -13.7889
  29   2.0000      -0.483643       -13.1606
  30   2.0000      -0.467627       -12.7248
  31   2.0000      -0.454981       -12.3807
  32   2.0000      -0.448812       -12.2128
  33   2.0000      -0.389020       -10.5858
  34   0.0000       0.121428         3.3042
  35   0.0000       0.138166         3.7597
  36   0.0000       0.145368         3.9557
  37   0.0000       0.167991         4.5713
  38   0.0000       0.176713         4.8086

MULLIKEN ATOMIC CHARGES
-----------------------
   0 C :   -0.396908
   1 C :   -0.198209
   2 C :   -0.056288
   3 C :   -0.199896
   4 N :   -0.219510
   5 C :    0.132578
   6 C :   -0.393115
   7 C :   -0.175753
   8 N :   -0.052911
   9 H :    0.139609
  10 H :    0.134033
  11 H :    0.130226
  12 H :    0.107591
  13 H :    0.115348
  14 H :    0.125401
  15 H :    0.137560
  16 H :    0.126749
  17 H :    0.112920
  18 H :    0.149133
  19 H :    0.143800
  20 H :    0.137642
Sum of atomic charges:    0.0000000

LOEWDIN ATOMIC CHARGES
----------------------
   0 C :   -0.308025
   1 C :   -0.281407
   2 C :   -0.251350
   3 C :   -0.233027
   4 N :    0.140865
   5 C :   -0.309188
   6 C :   -0.263124
   7 C :   -0.162233
   8 N :    0.064427
   9 H :    0.123130
  10 H :    0.124126
  11 H :    0.123617
  12 H :    0.137278
  13 H :    0.138741
  14 H :    0.147251
  15 H :    0.127916
  16 H :    0.129994
  17 H :    0.158610
  18 H :    0.134545
  19 H :    0.131623
  20 H :    0.126232

  Mayer bond orders larger than 0.1
B(  0-C ,  1-C ) :   0.9236 B(  0-C ,  9-H ) :   0.9387 B(  0-C , 10-H ) :   0.9390
B(  0-C , 11-H ) :   0.9393 B(  1-C ,  2-C ) :   0.9077 B(  1-C , 12-H ) :   0.9276
B(  1-C , 13-H ) :   0.9315 B(  2-C ,  3-C ) :   0.9432 B(  2-C ,  4-N ) :   0.9014
B(  2-C , 14-H ) :   0.9202 B(  3-C ,  4-N ) :   0.8834 B(  3-C , 15-H ) :   0.9202
B(  3-C , 16-H ) :   0.9183 B(  4-N ,  5-C ) :   0.8544 B(  5-C ,  6-C ) :   0.8895
B(  5-C ,  7-C ) :   0.9047 B(  5-C , 17-H ) :   0.9189 B(  6-C , 18-H ) :   0.9303
B(  6-C , 19-H ) :   0.9319 B(  6-C , 20-H ) :   0.9357 B(  7-C ,  8-N ) :   2.8819

MP2 TOTAL ENERGY:     -382.578761779 Eh
FINAL SINGLE POINT ENERGY      -382.578761779484

DIPOLE MOMENT
-------------
                                X             Y             Z
Electronic contribution:     -4.63486      -4.05473       9.78804
Nuclear contribution   :      5.46375       4.83897     -11.29918
                        -----------------------------------------
Total Dipole Moment    :      0.82889       0.78424      -1.51114
                        -----------------------------------------
Magnitude (a.u.)       :      1.89358
Magnitude (Debye)      :      4.81309

                             ****ORCA TERMINATED NORMALLY****
TOTAL RUN TIME: 0 days 0 hours 32 minutes 4 seconds 557 msec
