                         Program Version 3.0.3 - RELEASE   -
|  1> ! RI-MP2 RIJK def2-TZVP def2-TZVP/C def2-TZVP/JK TIGHTSCF
|  2> % maxcore 2000
|  3> % mp2 density relaxed end
|  4> *xyz 0 1
|  5>  C        1.9242182395     2.5773265879    -3.1394719856
|  6>  C        2.0558690674     1.8414939104    -1.8071950240
|  7>  N        1.7221436755     0.4278476757    -1.9797164940
|  8>  C        1.6315335019    -0.4532001286    -0.8202770402
|  9>  C        1.8752943473     0.0207649358     0.5973157936
| 10>  O        3.2544372330     0.2690168888     0.8457692076
| 11>  C        0.4056493326    -0.1153111596    -1.6123037711
| 12>  C       -0.7423734749     0.7093091669    -1.0677985888
| 13>  O       -1.5636216516     1.2238922197    -2.1061193480
| 14>  H        2.5561948030     2.1106983987    -3.8996289325
| 15>  H        0.8934744434     2.5537713331    -3.5132189166
| 16>  H        2.2145027740     3.6270700401    -3.0331516266
| 17>  H        3.0912901518     1.8811318262    -1.4545287562
| 18>  H        1.4552354859     2.3571368042    -1.0426399274
| 19>  H        2.0747370379    -1.4366463837    -1.0011930393
| 20>  H        1.3692079789     0.9636981285     0.8115176276
| 21>  H        1.4740607724    -0.7291681871     1.2976614653
| 22>  H        3.7413032520    -0.5338914306     0.6311926448
| 23>  H        0.0488270973    -0.8652334688    -2.3185665301
| 24>  H       -1.3955531722     0.0583001887    -0.4761204370
| 25>  H       -0.3990966164     1.5098198883    -0.3995687826
| 26>  H       -1.0180096588     1.7924844154    -2.6588322088
| 27> *
| 28>
| 29>                          ****END OF INPUT****

CARTESIAN COORDINATES (ANGSTROEM)
---------------------------------
  C      1.924218    2.577327   -3.139472
  C      2.055869    1.841494   -1.807195
  N      1.722144    0.427848   -1.979716
  C      1.631534   -0.453200   -0.820277
  C      1.875294    0.020765    0.597316
  O      3.254437    0.269017    0.845769
  C      0.405649   -0.115311   -1.612304
  C     -0.742373    0.709309   -1.067799
  O     -1.563622    1.223892   -2.106119
  H      2.556195    2.110698   -3.899629
  H      0.893474    2.553771   -3.513219
  H      2.214503    3.627070   -3.033152
  H      3.091290    1.881132   -1.454529
  H      1.455235    2.357137   -1.042640
  H      2.074737   -1.436646   -1.001193
  H      1.369208    0.963698    0.811518
  H      1.474061   -0.729168    1.297661
  H      3.741303   -0.533891    0.631193
  H      0.048827   -0.865233   -2.318567
  H     -1.395553    0.058300   -0.476120
  H     -0.399097    1.509820   -0.399569
  H     -1.018010    1.792484   -2.658832

 Total Charge           Charge          ....    0
 Multiplicity           Mult            ....    1
 Number of Electrons    NEL             ....   72
 Basis Dimension        Dim             ....  357

ORBITAL ENERGIES
----------------

  NO   OCC          E(Eh)            E(eV)
   0   2.0000     -20.563949      -559.5735
   1   2.0000     -20.560564      -559.4814
   2   2.0000     -15.559750      -423.4023
   3   2.0000     -11.288299      -307.1702
   4   2.0000     -11.285942      -307.1061
   5   2.0000     -11.265459      -306.5487
   6   2.0000     -11.264502      -306.5227
   7   2.0000     -11.254270      -306.2443
   8   2.0000     -11.218956      -305.2833
   9   2.0000      -1.368653       -37.2429
  10   2.0000      -1.365591       -37.1596
  11   2.0000      -1.273980       -34.6668
  12   2.0000      -1.050962       -28.5981
  13   2.0000      -0.973196       -26.4820
  14   2.0000      -0.966672       -26.3045
  15   2.0000      -0.889165       -24.1954
  16   2.0000      -0.800037       -21.7701
  17   2.0000      -0.776497       -21.1295
  18   2.0000      -0.713901       -19.4262
  19   2.0000      -0.700564       -19.0633
  20   2.0000      -0.663011       -18.0414
  21   2.0000      -0.648089       -17.6354
  22   2.0000      -0.629134       -17.1196
  23   2.0000      -0.605261       -16.4700
  24   2.0000      -0.594201       -16.1690
  25   2.0000      -0.578291       -15.7361
  26   2.0000      -0.568285       -15.4638
  27   2.0000      -0.534142       -14.5347
  28   2.0000      -0.528664       -14.3857
  29   2.0000      -0.515743       -14.0341
  30   2.0000      -0.495448       -13.4818
  31   2.0000      -0.487846       -13.2750
  32   2.0000      -0.457295       -12.4436
  33   2.0000      -0.437863       -11.9149
  34   2.0000      -0.432515       -11.7693
  35   2.0000      -0.368958       -10.0398
  36   0.0000       0.129355         3.5199
  37   0.0000       0.134861         3.6697
  38   0.0000       0.155280         4.2254
  39   0.0000       0.162938         4.4338
  40   0.0000       0.184451         5.0192

MULLIKEN ATOMIC CHARGES
-----------------------
   0 C :   -0.350871
   1 C :   -0.137744
   2 N :   -0.206298
   3 C :   -0.121700
   4 C :    0.009924
   5 O :   -0.473446
   6 C :   -0.130827
   7 C :   -0.023671
   8 O :   -0.461573
   9 H :    0.135994
  10 H :    0.086640
  11 H :    0.131693
  12 H :    0.140190
  13 H :    0.093542
  14 H :    0.113621
  15 H :    0.098136
  16 H :    0.117504
  17 H :    0.314385
  18 H :    0.123343
  19 H :    0.125084
  20 H :    0.104320
  21 H :    0.311753
Sum of atomic charges:   -0.0000000

LOEWDIN ATOMIC CHARGES
----------------------
   0 C :   -0.315919
   1 C :   -0.317476
   2 N :    0.130907
   3 C :   -0.256694
   4 C :   -0.332080
   5 O :   -0.047383
   6 C :   -0.243409
   7 C :   -0.333392
   8 O :   -0.042620
   9 H :    0.125557
  10 H :    0.110182
  11 H :    0.123292
  12 H :    0.139144
  13 H :    0.119154
  14 H :    0.141351
  15 H :    0.129295
  16 H :    0.124949
  17 H :    0.173629
  18 H :    0.147309
  19 H :    0.137814
  20 H :    0.117347
  21 H :    0.169044

  Mayer bond orders larger than 0.1
B(  0-C ,  1-C ) :   0.9247 B(  0-C ,  9-H ) :   0.9368 B(  0-C , 10-H ) :   0.9355
B(  0-C , 11-H ) :   0.9386 B(  1-C ,  2-N ) :   0.8757 B(  1-C , 12-H ) :   0.9256
B(  1-C , 13-H ) :   0.9234 B(  2-N ,  3-C ) :   0.9133 B(  2-N ,  6-C ) :   0.8991
B(  3-C ,  4-C ) :   0.9442 B(  3-C ,  6-C ) :   0.8963 B(  3-C , 14-H ) :   0.8944
B(  4-C ,  5-O ) :   0.9059 B(  4-C , 15-H ) :   0.9252 B(  4-C , 16-H ) :   0.9223
B(  5-O , 17-H ) :   0.8469 B(  6-C ,  7-C ) :   0.9294 B(  6-C , 18-H ) :   0.9163
B(  7-C ,  8-O ) :   0.9098 B(  7-C , 19-H ) :   0.9224 B(  7-C , 20-H ) :   0.9321
B(  8-O , 21-H ) :   0.8488

MP2 TOTAL ENERGY:     -440.722345504 Eh
FINAL SINGLE POINT ENERGY      -440.722345503617

DIPOLE MOMENT
-------------
                                X             Y             Z
Electronic contribution:     -0.56093      -3.57046       1.42208
Nuclear contribution   :      0.85149       3.32715      -1.17159
                        -----------------------------------------
Total Dipole Moment    :      0.29056      -0.24331       0.25049
                        -----------------------------------------
Magnitude (a.u.)       :      0.45428
Magnitude (Debye)      :      1.15468

                             ****ORCA TERMINATED NORMALLY****
TOTAL RUN TIME: 0 days 0 hours 17 minutes 1 seconds 93 msec
