                         Program Version 3.0.3 - RELEASE   -
|  1> ! RI-MP2 RIJK def2-TZVP def2-TZVP/C def2-TZVP/JK TIGHTSCF
|  2> % maxcore 2000
|  3> % mp2 density relaxed end
|  4> *xyz 0 1
|  5>  C       -0.0518945705     1.5822773683     0.0480349921
|  6>  C        1.4787595153     1.3769998301    -0.0054485764
|  7>  O        1.7426544733     0.7337663627     1.2647102650
|  8>  C        0.7832900219    -0.3126164366     1.2612786464
|  9>  O        1.4476374245    -1.5745770957     1.1400011782
| 10>  C        2.1709540094    -1.6905721634    -0.0053231931
| 11>  N        2.1601961427    -0.9196114539    -1.0097664848
| 12>  C        1.2106917074     0.1656797344    -0.9498911264
| 13>  C       -0.0283550439     0.0316785840     0.0028965268
| 14>  H       -0.4409410213     2.0753566580     0.9408951455
| 15>  H       -0.4751573825     2.0188996711    -0.8584577233
| 16>  H        2.2144531901     2.1580100843    -0.1834888688
| 17>  H        0.2492607699    -0.3598789109     2.2108823446
| 18>  H        2.7960444153    -2.5799278832     0.0245482397
| 19>  H        0.9302015017     0.4839811166    -1.9548099626
| 20>  H       -0.8905263032    -0.5925269559    -0.2207966329
| 21> *
| 22>
| 23>                          ****END OF INPUT****

CARTESIAN COORDINATES (ANGSTROEM)
---------------------------------
  C     -0.051895    1.582277    0.048035
  C      1.478760    1.377000   -0.005449
  O      1.742654    0.733766    1.264710
  C      0.783290   -0.312616    1.261279
  O      1.447637   -1.574577    1.140001
  C      2.170954   -1.690572   -0.005323
  N      2.160196   -0.919611   -1.009766
  C      1.210692    0.165680   -0.949891
  C     -0.028355    0.031679    0.002897
  H     -0.440941    2.075357    0.940895
  H     -0.475157    2.018900   -0.858458
  H      2.214453    2.158010   -0.183489
  H      0.249261   -0.359879    2.210882
  H      2.796044   -2.579928    0.024548
  H      0.930202    0.483981   -1.954810
  H     -0.890526   -0.592527   -0.220797

 Total Charge           Charge          ....    0
 Multiplicity           Mult            ....    1
 Number of Electrons    NEL             ....   66
 Basis Dimension        Dim             ....  321

ORBITAL ENERGIES
----------------

  NO   OCC          E(Eh)            E(eV)
   0   2.0000     -20.600268      -560.5618
   1   2.0000     -20.570661      -559.7562
   2   2.0000     -15.547554      -423.0704
   3   2.0000     -11.350996      -308.8763
   4   2.0000     -11.337186      -308.5005
   5   2.0000     -11.299403      -307.4724
   6   2.0000     -11.273211      -306.7597
   7   2.0000     -11.253157      -306.2140
   8   2.0000     -11.244494      -305.9782
   9   2.0000      -1.459668       -39.7196
  10   2.0000      -1.382486       -37.6194
  11   2.0000      -1.228209       -33.4213
  12   2.0000      -1.129985       -30.7484
  13   2.0000      -0.993538       -27.0355
  14   2.0000      -0.930989       -25.3335
  15   2.0000      -0.858853       -23.3706
  16   2.0000      -0.808633       -22.0040
  17   2.0000      -0.760064       -20.6824
  18   2.0000      -0.740436       -20.1483
  19   2.0000      -0.704774       -19.1779
  20   2.0000      -0.671299       -18.2670
  21   2.0000      -0.631948       -17.1962
  22   2.0000      -0.616987       -16.7891
  23   2.0000      -0.580579       -15.7983
  24   2.0000      -0.566108       -15.4046
  25   2.0000      -0.537931       -14.6378
  26   2.0000      -0.531744       -14.4695
  27   2.0000      -0.523220       -14.2376
  28   2.0000      -0.498683       -13.5699
  29   2.0000      -0.478590       -13.0231
  30   2.0000      -0.446283       -12.1440
  31   2.0000      -0.404786       -11.0148
  32   2.0000      -0.378834       -10.3086
  33   0.0000       0.139971         3.8088
  34   0.0000       0.151221         4.1149
  35   0.0000       0.168258         4.5785
  36   0.0000       0.173908         4.7323
  37   0.0000       0.186921         5.0864

MULLIKEN ATOMIC CHARGES
-----------------------
   0 C :   -0.267691
   1 C :    0.059238
   2 O :   -0.312855
   3 C :    0.181741
   4 O :   -0.261743
   5 C :    0.098581
   6 N :   -0.288571
   7 C :   -0.032306
   8 C :   -0.120228
   9 H :    0.132001
  10 H :    0.130446
  11 H :    0.142119
  12 H :    0.125111
  13 H :    0.139710
  14 H :    0.129945
  15 H :    0.144503
Sum of atomic charges:   -0.0000000

LOEWDIN ATOMIC CHARGES
----------------------
   0 C :   -0.196094
   1 C :   -0.229600
   2 O :    0.195217
   3 C :   -0.323962
   4 O :    0.237269
   5 C :   -0.332983
   6 N :    0.090221
   7 C :   -0.235198
   8 C :   -0.183460
   9 H :    0.133916
  10 H :    0.142804
  11 H :    0.133743
  12 H :    0.138332
  13 H :    0.134145
  14 H :    0.154640
  15 H :    0.141010

  Mayer bond orders larger than 0.1
B(  0-C ,  1-C ) :   0.9120 B(  0-C ,  8-C ) :   0.9297 B(  0-C ,  9-H ) :   0.9173
B(  0-C , 10-H ) :   0.9205 B(  1-C ,  2-O ) :   0.8751 B(  1-C ,  7-C ) :   0.9058
B(  1-C , 11-H ) :   0.9110 B(  2-O ,  3-C ) :   0.9947 B(  3-C ,  4-O ) :   0.9002
B(  3-C ,  8-C ) :   0.9476 B(  3-C , 12-H ) :   0.9231 B(  4-O ,  5-C ) :   1.0509
B(  5-C ,  6-N ) :   1.8355 B(  5-C , 13-H ) :   0.9241 B(  6-N ,  7-C ) :   0.9513
B(  7-C ,  8-C ) :   0.8951 B(  7-C , 14-H ) :   0.9358 B(  8-C , 15-H ) :   0.9121

MP2 TOTAL ENERGY:     -437.163641610 Eh
FINAL SINGLE POINT ENERGY      -437.163641609831

DIPOLE MOMENT
-------------
                                X             Y             Z
Electronic contribution:      2.96472      -3.05876       1.43740
Nuclear contribution   :     -3.87736       3.47639      -1.51301
                        -----------------------------------------
Total Dipole Moment    :     -0.91264       0.41763      -0.07561
                        -----------------------------------------
Magnitude (a.u.)       :      1.00650
Magnitude (Debye)      :      2.55832

                             ****ORCA TERMINATED NORMALLY****
TOTAL RUN TIME: 0 days 0 hours 17 minutes 39 seconds 417 msec
