                         Program Version 3.0.3 - RELEASE   -
|  1> ! RI-MP2 RIJK def2-TZVP def2-TZVP/C def2-TZVP/JK TIGHTSCF
|  2> % maxcore 2000
|  3> % mp2 density relaxed end
|  4> *xyz 0 1
|  5>  C       -0.0589878506     1.5230894424     0.0164643087
|  6>  C       -0.0921794780     0.0091244649     0.0859848675
|  7>  C       -1.2884114287    -0.6148180125    -0.6042704214
|  8>  O        1.1654903679    -0.6363450177    -0.1724874885
|  9>  C        0.6301897679    -0.6975201821     1.1696930672
| 10>  C        1.4078071313     0.0110995292     2.2925285412
| 11>  C        1.5615276169    -1.0369543532     3.4269338460
| 12>  C        0.7797317221    -2.2265155074     2.9284187952
| 13>  C        0.2757929513    -2.0389534043     1.7092325406
| 14>  H        0.8495120990     1.9260412691     0.4667984077
| 15>  H       -0.0934803814     1.8509784374    -1.0284362603
| 16>  H       -0.9256229933     1.9556612605     0.5289099023
| 17>  H       -1.3283264071    -0.2894110684    -1.6498845767
| 18>  H       -1.2369904145    -1.7043487736    -0.5951573866
| 19>  H       -2.2222257595    -0.3040233468    -0.1231842757
| 20>  H        2.3717512516     0.3543241117     1.9101636049
| 21>  H        0.8662915696     0.8920249963     2.6484529866
| 22>  H        2.6097389047    -1.3031061338     3.6128737522
| 23>  H        1.1706818603    -0.6668342899     4.3822905910
| 24>  H        0.6639330708    -3.1306686135     3.5162749422
| 25>  H       -0.2977083102    -2.7636524884     1.1461671758
| 26> *
| 27>
| 28>                          ****END OF INPUT****

CARTESIAN COORDINATES (ANGSTROEM)
---------------------------------
  C     -0.058988    1.523089    0.016464
  C     -0.092179    0.009124    0.085985
  C     -1.288411   -0.614818   -0.604270
  O      1.165490   -0.636345   -0.172487
  C      0.630190   -0.697520    1.169693
  C      1.407807    0.011100    2.292529
  C      1.561528   -1.036954    3.426934
  C      0.779732   -2.226516    2.928419
  C      0.275793   -2.038953    1.709233
  H      0.849512    1.926041    0.466798
  H     -0.093480    1.850978   -1.028436
  H     -0.925623    1.955661    0.528910
  H     -1.328326   -0.289411   -1.649885
  H     -1.236990   -1.704349   -0.595157
  H     -2.222226   -0.304023   -0.123184
  H      2.371751    0.354324    1.910164
  H      0.866292    0.892025    2.648453
  H      2.609739   -1.303106    3.612874
  H      1.170682   -0.666834    4.382291
  H      0.663933   -3.130669    3.516275
  H     -0.297708   -2.763652    1.146167

 Total Charge           Charge          ....    0
 Multiplicity           Mult            ....    1
 Number of Electrons    NEL             ....   68
 Basis Dimension        Dim             ....  351

ORBITAL ENERGIES
----------------

  NO   OCC          E(Eh)            E(eV)
   0   2.0000     -20.549043      -559.1679
   1   2.0000     -11.285078      -307.0826
   2   2.0000     -11.284106      -307.0561
   3   2.0000     -11.234614      -305.7094
   4   2.0000     -11.230696      -305.6028
   5   2.0000     -11.225759      -305.4684
   6   2.0000     -11.225110      -305.4508
   7   2.0000     -11.219283      -305.2922
   8   2.0000     -11.219197      -305.2899
   9   2.0000      -1.395108       -37.9628
  10   2.0000      -1.128264       -30.7016
  11   2.0000      -1.035507       -28.1776
  12   2.0000      -0.979045       -26.6412
  13   2.0000      -0.942035       -25.6341
  14   2.0000      -0.936671       -25.4881
  15   2.0000      -0.813059       -22.1245
  16   2.0000      -0.766519       -20.8580
  17   2.0000      -0.719888       -19.5891
  18   2.0000      -0.683293       -18.5933
  19   2.0000      -0.630010       -17.1434
  20   2.0000      -0.622175       -16.9302
  21   2.0000      -0.610601       -16.6153
  22   2.0000      -0.586215       -15.9517
  23   2.0000      -0.566272       -15.4090
  24   2.0000      -0.542580       -14.7643
  25   2.0000      -0.534130       -14.5344
  26   2.0000      -0.521980       -14.2038
  27   2.0000      -0.514926       -14.0119
  28   2.0000      -0.494068       -13.4443
  29   2.0000      -0.491236       -13.3672
  30   2.0000      -0.476676       -12.9710
  31   2.0000      -0.431163       -11.7325
  32   2.0000      -0.424437       -11.5495
  33   2.0000      -0.343557        -9.3487
  34   0.0000       0.132959         3.6180
  35   0.0000       0.149185         4.0595
  36   0.0000       0.152534         4.1507
  37   0.0000       0.171240         4.6597
  38   0.0000       0.184259         5.0140

MULLIKEN ATOMIC CHARGES
-----------------------
   0 C :   -0.416845
   1 C :    0.157126
   2 C :   -0.389771
   3 O :   -0.345912
   4 C :    0.231383
   5 C :   -0.269939
   6 C :   -0.148307
   7 C :   -0.168722
   8 C :   -0.224092
   9 H :    0.147555
  10 H :    0.136051
  11 H :    0.130292
  12 H :    0.134814
  13 H :    0.131284
  14 H :    0.129799
  15 H :    0.136196
  16 H :    0.127218
  17 H :    0.119962
  18 H :    0.119650
  19 H :    0.130948
  20 H :    0.131309
Sum of atomic charges:   -0.0000000

LOEWDIN ATOMIC CHARGES
----------------------
   0 C :   -0.267201
   1 C :   -0.331889
   2 C :   -0.265877
   3 O :    0.188219
   4 C :   -0.254256
   5 C :   -0.194660
   6 C :   -0.235552
   7 C :   -0.142684
   8 C :   -0.124222
   9 H :    0.131170
  10 H :    0.130555
  11 H :    0.130384
  12 H :    0.130442
  13 H :    0.128063
  14 H :    0.130717
  15 H :    0.144965
  16 H :    0.142204
  17 H :    0.140714
  18 H :    0.139052
  19 H :    0.137615
  20 H :    0.142241

  Mayer bond orders larger than 0.1
B(  0-C ,  1-C ) :   0.8868 B(  0-C ,  9-H ) :   0.9421 B(  0-C , 10-H ) :   0.9342
B(  0-C , 11-H ) :   0.9282 B(  1-C ,  2-C ) :   0.8906 B(  1-C ,  3-O ) :   0.8658
B(  1-C ,  4-C ) :   0.9600 B(  2-C , 12-H ) :   0.9360 B(  2-C , 13-H ) :   0.9425
B(  2-C , 14-H ) :   0.9275 B(  3-O ,  4-C ) :   0.8960 B(  4-C ,  5-C ) :   0.8640
B(  4-C ,  8-C ) :   0.9207 B(  5-C ,  6-C ) :   0.9712 B(  5-C , 15-H ) :   0.9323
B(  5-C , 16-H ) :   0.9269 B(  6-C ,  7-C ) :   0.9400 B(  6-C , 17-H ) :   0.9136
B(  6-C , 18-H ) :   0.9242 B(  7-C ,  8-C ) :   1.7787 B(  7-C , 19-H ) :   0.9269
B(  8-C , 20-H ) :   0.9214

MP2 TOTAL ENERGY:     -386.415504535 Eh
FINAL SINGLE POINT ENERGY      -386.415504535040

DIPOLE MOMENT
-------------
                                X             Y             Z
Electronic contribution:      2.64843      -3.53369      -0.20001
Nuclear contribution   :     -3.12598       3.74929       0.77092
                        -----------------------------------------
Total Dipole Moment    :     -0.47755       0.21559       0.57091
                        -----------------------------------------
Magnitude (a.u.)       :      0.77490
Magnitude (Debye)      :      1.96964

                             ****ORCA TERMINATED NORMALLY****
TOTAL RUN TIME: 0 days 0 hours 22 minutes 40 seconds 446 msec
