                         Program Version 3.0.3 - RELEASE   -
|  1> ! RI-MP2 RIJK def2-TZVP def2-TZVP/C def2-TZVP/JK TIGHTSCF
|  2> % maxcore 2000
|  3> % mp2 density relaxed end
|  4> *xyz 0 1
|  5>  C       -0.0172271185     1.4731957721    -0.2851858357
|  6>  C        0.0514857423    -0.0052513556     0.0299525726
|  7>  O       -1.0891133658    -0.7029465470    -0.4179185660
|  8>  C        1.3667812104    -0.7532064372     0.0014429356
|  9>  C        0.6397667933    -0.5361125061     1.3195387992
| 10>  C        1.2412864064     0.4108073235     2.3409218871
| 11>  C       -0.0448548174    -1.7542925774     1.9483018458
| 12>  C        0.8912449201    -2.6441854234     2.6291298656
| 13>  C        1.6741995948    -3.3678224882     3.1853460459
| 14>  H        0.8669979295     2.0142180672     0.0573830131
| 15>  H       -0.0912988847     1.6215541235    -1.3697954965
| 16>  H       -0.9025846857     1.9239424103     0.1746121265
| 17>  H       -1.0530101923    -0.7360303030    -1.3801614782
| 18>  H        1.3580215703    -1.7548812658    -0.4159889802
| 19>  H        2.2813493403    -0.1961044059    -0.1772352813
| 20>  H        1.8109337612     1.2183008930     1.8757252715
| 21>  H        0.4646912032     0.8644658223     2.9682930830
| 22>  H        1.9222314211    -0.1386403464     2.9990441447
| 23>  H       -0.8026866563    -1.4100842679     2.6654737090
| 24>  H       -0.5889194071    -2.3039045879     1.1762586756
| 25>  H        2.3564023450    -4.0159295101     3.6766864327
| 26> *
| 27>
| 28>                          ****END OF INPUT****

CARTESIAN COORDINATES (ANGSTROEM)
---------------------------------
  C     -0.017227    1.473196   -0.285186
  C      0.051486   -0.005251    0.029953
  O     -1.089113   -0.702947   -0.417919
  C      1.366781   -0.753206    0.001443
  C      0.639767   -0.536113    1.319539
  C      1.241286    0.410807    2.340922
  C     -0.044855   -1.754293    1.948302
  C      0.891245   -2.644185    2.629130
  C      1.674200   -3.367822    3.185346
  H      0.866998    2.014218    0.057383
  H     -0.091299    1.621554   -1.369795
  H     -0.902585    1.923942    0.174612
  H     -1.053010   -0.736030   -1.380161
  H      1.358022   -1.754881   -0.415989
  H      2.281349   -0.196104   -0.177235
  H      1.810934    1.218301    1.875725
  H      0.464691    0.864466    2.968293
  H      1.922231   -0.138640    2.999044
  H     -0.802687   -1.410084    2.665474
  H     -0.588919   -2.303905    1.176259
  H      2.356402   -4.015930    3.676686

 Total Charge           Charge          ....    0
 Multiplicity           Mult            ....    1
 Number of Electrons    NEL             ....   68
 Basis Dimension        Dim             ....  351

ORBITAL ENERGIES
----------------

  NO   OCC          E(Eh)            E(eV)
   0   2.0000     -20.562910      -559.5452
   1   2.0000     -11.290286      -307.2243
   2   2.0000     -11.244166      -305.9693
   3   2.0000     -11.243273      -305.9450
   4   2.0000     -11.226832      -305.4976
   5   2.0000     -11.223220      -305.3993
   6   2.0000     -11.221614      -305.3556
   7   2.0000     -11.216742      -305.2231
   8   2.0000     -11.211943      -305.0925
   9   2.0000      -1.374547       -37.4033
  10   2.0000      -1.153480       -31.3878
  11   2.0000      -1.050950       -28.5978
  12   2.0000      -0.987778       -26.8788
  13   2.0000      -0.956777       -26.0352
  14   2.0000      -0.940220       -25.5847
  15   2.0000      -0.811394       -22.0791
  16   2.0000      -0.741503       -20.1773
  17   2.0000      -0.710856       -19.3434
  18   2.0000      -0.679101       -18.4793
  19   2.0000      -0.653507       -17.7828
  20   2.0000      -0.636466       -17.3191
  21   2.0000      -0.621526       -16.9126
  22   2.0000      -0.582263       -15.8442
  23   2.0000      -0.576178       -15.6786
  24   2.0000      -0.555118       -15.1055
  25   2.0000      -0.548323       -14.9206
  26   2.0000      -0.542964       -14.7748
  27   2.0000      -0.524664       -14.2768
  28   2.0000      -0.501839       -13.6557
  29   2.0000      -0.482391       -13.1265
  30   2.0000      -0.398704       -10.8493
  31   2.0000      -0.395378       -10.7588
  32   2.0000      -0.376532       -10.2459
  33   2.0000      -0.375290       -10.2122
  34   0.0000       0.125340         3.4107
  35   0.0000       0.153917         4.1883
  36   0.0000       0.168414         4.5828
  37   0.0000       0.175470         4.7748
  38   0.0000       0.178643         4.8611

MULLIKEN ATOMIC CHARGES
-----------------------
   0 C :   -0.398769
   1 C :    0.180269
   2 O :   -0.474203
   3 C :   -0.356044
   4 C :    0.125163
   5 C :   -0.418159
   6 C :   -0.334540
   7 C :   -0.027248
   8 C :   -0.179447
   9 H :    0.120921
  10 H :    0.119353
  11 H :    0.141468
  12 H :    0.321190
  13 H :    0.141919
  14 H :    0.123483
  15 H :    0.120104
  16 H :    0.131811
  17 H :    0.159666
  18 H :    0.139688
  19 H :    0.178098
  20 H :    0.185278
Sum of atomic charges:   -0.0000000

LOEWDIN ATOMIC CHARGES
----------------------
   0 C :   -0.273152
   1 C :   -0.347915
   2 O :    0.019217
   3 C :   -0.176100
   4 C :   -0.225357
   5 C :   -0.258696
   6 C :   -0.202083
   7 C :   -0.104286
   8 C :   -0.114952
   9 H :    0.127232
  10 H :    0.125037
  11 H :    0.130660
  12 H :    0.180150
  13 H :    0.140821
  14 H :    0.135642
  15 H :    0.124390
  16 H :    0.128785
  17 H :    0.136135
  18 H :    0.162430
  19 H :    0.167290
  20 H :    0.124754

  Mayer bond orders larger than 0.1
B(  0-C ,  1-C ) :   0.9349 B(  0-C ,  9-H ) :   0.9327 B(  0-C , 10-H ) :   0.9240
B(  0-C , 11-H ) :   0.9417 B(  1-C ,  2-O ) :   0.9763 B(  1-C ,  3-C ) :   0.9129
B(  1-C ,  4-C ) :   0.8347 B(  2-O , 12-H ) :   0.8382 B(  3-C ,  4-C ) :   0.8662
B(  3-C , 13-H ) :   0.9181 B(  3-C , 14-H ) :   0.9178 B(  4-C ,  5-C ) :   0.9177
B(  4-C ,  6-C ) :   0.8603 B(  5-C , 15-H ) :   0.9319 B(  5-C , 16-H ) :   0.9363
B(  5-C , 17-H ) :   0.9372 B(  6-C ,  7-C ) :   1.0836 B(  6-C , 18-H ) :   0.9276
B(  6-C , 19-H ) :   0.9258 B(  7-C ,  8-C ) :   2.6088 B(  8-C , 20-H ) :   0.9073

MP2 TOTAL ENERGY:     -386.366320497 Eh
FINAL SINGLE POINT ENERGY      -386.366320496692

DIPOLE MOMENT
-------------
                                X             Y             Z
Electronic contribution:     -1.45922      -5.92381       0.67176
Nuclear contribution   :      1.69234       6.36914      -1.20546
                        -----------------------------------------
Total Dipole Moment    :      0.23312       0.44533      -0.53371
                        -----------------------------------------
Magnitude (a.u.)       :      0.73315
Magnitude (Debye)      :      1.86352

                             ****ORCA TERMINATED NORMALLY****
TOTAL RUN TIME: 0 days 0 hours 20 minutes 58 seconds 617 msec
