                         Program Version 3.0.3 - RELEASE   -
|  1> ! RI-MP2 RIJK def2-TZVP def2-TZVP/C def2-TZVP/JK TIGHTSCF
|  2> % maxcore 2000
|  3> % mp2 density relaxed end
|  4> *xyz 0 1
|  5>  C       -0.1155177006     1.6100376804    -0.1520135162
|  6>  C       -0.0336738245     0.1114262410     0.0325373943
|  7>  C        1.2641303291    -0.6246418427    -0.1922186623
|  8>  N        0.7131494141    -0.5292476122     1.1390964263
|  9>  C        1.3758203287     0.2953976686     2.1123997905
| 10>  C        0.7165593919     0.4232198012     3.4582621616
| 11>  C        1.9616071884    -0.4164459669     3.3032999534
| 12>  C       -1.2834492102    -0.6482663437    -0.2834253179
| 13>  O       -2.2629218868    -0.1690210848    -0.7971886022
| 14>  H        0.8632098147     2.0885006887    -0.0870605429
| 15>  H       -0.5444664608     1.8286204120    -1.1330511673
| 16>  H       -0.7736129172     2.0590771247     0.5982370480
| 17>  H        1.2779802731    -1.6155712740    -0.6408674573
| 18>  H        2.1154051370     0.0042647233    -0.4505332909
| 19>  H        1.9241711022     1.1618535127     1.7424191125
| 20>  H        0.7875593720     1.3733233534     3.9753311656
| 21>  H       -0.2227881861    -0.1007495005     3.5904078637
| 22>  H        1.8429246209    -1.4930169928     3.3311486469
| 23>  H        2.8949373324    -0.0454420990     3.7114194576
| 24>  H       -1.2315819981    -1.7207719093     0.0080436767
| 25> *
| 26>
| 27>                          ****END OF INPUT****

CARTESIAN COORDINATES (ANGSTROEM)
---------------------------------
  C     -0.115518    1.610038   -0.152014
  C     -0.033674    0.111426    0.032537
  C      1.264130   -0.624642   -0.192219
  N      0.713149   -0.529248    1.139096
  C      1.375820    0.295398    2.112400
  C      0.716559    0.423220    3.458262
  C      1.961607   -0.416446    3.303300
  C     -1.283449   -0.648266   -0.283425
  O     -2.262922   -0.169021   -0.797189
  H      0.863210    2.088501   -0.087061
  H     -0.544466    1.828620   -1.133051
  H     -0.773613    2.059077    0.598237
  H      1.277980   -1.615571   -0.640867
  H      2.115405    0.004265   -0.450533
  H      1.924171    1.161854    1.742419
  H      0.787559    1.373323    3.975331
  H     -0.222788   -0.100750    3.590408
  H      1.842925   -1.493017    3.331149
  H      2.894937   -0.045442    3.711419
  H     -1.231582   -1.720772    0.008044

 Total Charge           Charge          ....    0
 Multiplicity           Mult            ....    1
 Number of Electrons    NEL             ....   68
 Basis Dimension        Dim             ....  345

ORBITAL ENERGIES
----------------

  NO   OCC          E(Eh)            E(eV)
   0   2.0000     -20.553817      -559.2978
   1   2.0000     -15.580345      -423.9627
   2   2.0000     -11.327654      -308.2411
   3   2.0000     -11.281094      -306.9742
   4   2.0000     -11.274723      -306.8008
   5   2.0000     -11.268922      -306.6430
   6   2.0000     -11.230573      -305.5994
   7   2.0000     -11.229827      -305.5791
   8   2.0000     -11.228902      -305.5540
   9   2.0000      -1.393896       -37.9298
  10   2.0000      -1.298552       -35.3354
  11   2.0000      -1.146262       -31.1914
  12   2.0000      -1.012414       -27.5492
  13   2.0000      -0.933489       -25.4015
  14   2.0000      -0.890407       -24.2292
  15   2.0000      -0.830225       -22.5916
  16   2.0000      -0.796000       -21.6603
  17   2.0000      -0.750329       -20.4175
  18   2.0000      -0.706760       -19.2319
  19   2.0000      -0.676891       -18.4191
  20   2.0000      -0.654732       -17.8162
  21   2.0000      -0.634923       -17.2771
  22   2.0000      -0.596851       -16.2412
  23   2.0000      -0.583266       -15.8715
  24   2.0000      -0.567093       -15.4314
  25   2.0000      -0.551450       -15.0057
  26   2.0000      -0.529810       -14.4169
  27   2.0000      -0.528145       -14.3716
  28   2.0000      -0.513548       -13.9744
  29   2.0000      -0.463110       -12.6019
  30   2.0000      -0.451929       -12.2976
  31   2.0000      -0.427517       -11.6333
  32   2.0000      -0.399148       -10.8614
  33   2.0000      -0.379662       -10.3311
  34   0.0000       0.127231         3.4621
  35   0.0000       0.139180         3.7873
  36   0.0000       0.159887         4.3508
  37   0.0000       0.163163         4.4399
  38   0.0000       0.171226         4.6593

MULLIKEN ATOMIC CHARGES
-----------------------
   0 C :   -0.384496
   1 C :    0.167306
   2 C :   -0.189199
   3 N :   -0.232675
   4 C :   -0.076844
   5 C :   -0.238819
   6 C :   -0.235695
   7 C :    0.037867
   8 O :   -0.272745
   9 H :    0.129063
  10 H :    0.161820
  11 H :    0.143459
  12 H :    0.138523
  13 H :    0.125359
  14 H :    0.101423
  15 H :    0.131408
  16 H :    0.134626
  17 H :    0.134418
  18 H :    0.130486
  19 H :    0.094715
Sum of atomic charges:    0.0000000

LOEWDIN ATOMIC CHARGES
----------------------
   0 C :   -0.264759
   1 C :   -0.291790
   2 C :   -0.212480
   3 N :    0.163508
   4 C :   -0.275426
   5 C :   -0.224387
   6 C :   -0.223252
   7 C :   -0.263021
   8 O :    0.134748
   9 H :    0.126000
  10 H :    0.140651
  11 H :    0.135206
  12 H :    0.128381
  13 H :    0.131313
  14 H :    0.136120
  15 H :    0.131432
  16 H :    0.137994
  17 H :    0.137436
  18 H :    0.130879
  19 H :    0.121448

  Mayer bond orders larger than 0.1
B(  0-C ,  1-C ) :   0.9111 B(  0-C ,  9-H ) :   0.9378 B(  0-C , 10-H ) :   0.9212
B(  0-C , 11-H ) :   0.9313 B(  1-C ,  2-C ) :   0.9013 B(  1-C ,  3-N ) :   0.7169
B(  1-C ,  7-C ) :   0.8492 B(  2-C ,  3-N ) :   0.8979 B(  2-C , 12-H ) :   0.9041
B(  2-C , 13-H ) :   0.9129 B(  3-N ,  4-C ) :   0.9926 B(  4-C ,  5-C ) :   0.8878
B(  4-C ,  6-C ) :   0.8848 B(  4-C , 14-H ) :   0.9150 B(  5-C ,  6-C ) :   0.9277
B(  5-C , 15-H ) :   0.9270 B(  5-C , 16-H ) :   0.9253 B(  6-C , 17-H ) :   0.9243
B(  6-C , 18-H ) :   0.9262 B(  7-C ,  8-O ) :   2.0081 B(  7-C , 19-H ) :   0.9641

MP2 TOTAL ENERGY:     -402.416444296 Eh
FINAL SINGLE POINT ENERGY      -402.416444295671

DIPOLE MOMENT
-------------
                                X             Y             Z
Electronic contribution:     -4.75645      -2.88253      -3.75110
Nuclear contribution   :      5.91837       3.11193       4.03618
                        -----------------------------------------
Total Dipole Moment    :      1.16192       0.22940       0.28508
                        -----------------------------------------
Magnitude (a.u.)       :      1.21817
Magnitude (Debye)      :      3.09635

                             ****ORCA TERMINATED NORMALLY****
TOTAL RUN TIME: 0 days 0 hours 18 minutes 26 seconds 155 msec
