                         Program Version 3.0.3 - RELEASE   -
|  1> ! RI-MP2 RIJK def2-TZVP def2-TZVP/C def2-TZVP/JK TIGHTSCF
|  2> % maxcore 2000
|  3> % mp2 density relaxed end
|  4> *xyz 0 1
|  5>  O       -0.0065838708     1.4207123056    -0.0325682168
|  6>  C       -0.0295814930     0.0068342991    -0.0807100212
|  7>  C       -1.4368187914    -0.4799157910     0.0292512704
|  8>  C       -2.5448112294     0.2675679035     0.0794900857
|  9>  C       -3.7557709698    -0.6029826572     0.0759034256
| 10>  O       -3.8726728421    -1.4188142948    -1.1185515676
| 11>  C       -3.2798247373    -1.9958892468     0.0440387070
| 12>  C       -1.7550194701    -1.9676032877     0.0519988533
| 13>  H        0.9037142187     1.7096636005    -0.1400888684
| 14>  H        0.4083182147    -0.3731607874    -1.0211708060
| 15>  H        0.5715583457    -0.4345618466     0.7351222862
| 16>  H       -2.5668334240     1.3482315679     0.0769989114
| 17>  H       -4.7013066088    -0.2933219075     0.5102064086
| 18>  H       -3.8210857099    -2.8295831778     0.4835123471
| 19>  H       -1.3369335016    -2.4974134709    -0.8130433968
| 20>  H       -1.3534910408    -2.4558520587     0.9501969015
| 21> *
| 22>
| 23>                          ****END OF INPUT****

CARTESIAN COORDINATES (ANGSTROEM)
---------------------------------
  O     -0.006584    1.420712   -0.032568
  C     -0.029581    0.006834   -0.080710
  C     -1.436819   -0.479916    0.029251
  C     -2.544811    0.267568    0.079490
  C     -3.755771   -0.602983    0.075903
  O     -3.872673   -1.418814   -1.118552
  C     -3.279825   -1.995889    0.044039
  C     -1.755019   -1.967603    0.051999
  H      0.903714    1.709664   -0.140089
  H      0.408318   -0.373161   -1.021171
  H      0.571558   -0.434562    0.735122
  H     -2.566833    1.348232    0.076999
  H     -4.701307   -0.293322    0.510206
  H     -3.821086   -2.829583    0.483512
  H     -1.336934   -2.497413   -0.813043
  H     -1.353491   -2.455852    0.950197

 Total Charge           Charge          ....    0
 Multiplicity           Mult            ....    1
 Number of Electrons    NEL             ....   60
 Basis Dimension        Dim             ....  296

ORBITAL ENERGIES
----------------

  NO   OCC          E(Eh)            E(eV)
   0   2.0000     -20.564696      -559.5938
   1   2.0000     -20.557758      -559.4050
   2   2.0000     -11.290915      -307.2414
   3   2.0000     -11.281196      -306.9769
   4   2.0000     -11.280324      -306.9532
   5   2.0000     -11.239743      -305.8489
   6   2.0000     -11.238223      -305.8076
   7   2.0000     -11.219399      -305.2954
   8   2.0000      -1.401788       -38.1446
   9   2.0000      -1.370770       -37.3005
  10   2.0000      -1.116100       -30.3706
  11   2.0000      -0.975609       -26.5477
  12   2.0000      -0.969742       -26.3880
  13   2.0000      -0.872653       -23.7461
  14   2.0000      -0.797414       -21.6987
  15   2.0000      -0.728001       -19.8099
  16   2.0000      -0.713597       -19.4180
  17   2.0000      -0.694643       -18.9022
  18   2.0000      -0.645003       -17.5514
  19   2.0000      -0.620920       -16.8961
  20   2.0000      -0.592016       -16.1096
  21   2.0000      -0.580787       -15.8040
  22   2.0000      -0.543086       -14.7781
  23   2.0000      -0.527890       -14.3646
  24   2.0000      -0.516386       -14.0516
  25   2.0000      -0.508369       -13.8334
  26   2.0000      -0.462146       -12.5756
  27   2.0000      -0.445597       -12.1253
  28   2.0000      -0.419609       -11.4182
  29   2.0000      -0.341672        -9.2974
  30   0.0000       0.128526         3.4974
  31   0.0000       0.137963         3.7542
  32   0.0000       0.151051         4.1103
  33   0.0000       0.171833         4.6758
  34   0.0000       0.191334         5.2065

MULLIKEN ATOMIC CHARGES
-----------------------
   0 O :   -0.462297
   1 C :   -0.082176
   2 C :    0.024097
   3 C :   -0.229471
   4 C :    0.075585
   5 O :   -0.326118
   6 C :   -0.009994
   7 C :   -0.171756
   8 H :    0.316703
   9 H :    0.112901
  10 H :    0.105473
  11 H :    0.153958
  12 H :    0.124200
  13 H :    0.124664
  14 H :    0.127723
  15 H :    0.116508
Sum of atomic charges:   -0.0000000

LOEWDIN ATOMIC CHARGES
----------------------
   0 O :   -0.034537
   1 C :   -0.314997
   2 C :   -0.151488
   3 C :   -0.115669
   4 C :   -0.235132
   5 O :    0.159868
   6 C :   -0.253024
   7 C :   -0.193964
   8 H :    0.174847
   9 H :    0.128035
  10 H :    0.125887
  11 H :    0.146623
  12 H :    0.135031
  13 H :    0.132730
  14 H :    0.150009
  15 H :    0.145780

  Mayer bond orders larger than 0.1
B(  0-O ,  1-C ) :   1.0487 B(  0-O ,  2-C ) :  -0.1155 B(  0-O ,  8-H ) :   0.8469
B(  1-C ,  2-C ) :   0.8919 B(  1-C ,  9-H ) :   0.9350 B(  1-C , 10-H ) :   0.9262
B(  2-C ,  3-C ) :   1.7669 B(  2-C ,  7-C ) :   0.9424 B(  3-C ,  4-C ) :   0.9215
B(  3-C , 11-H ) :   0.9207 B(  4-C ,  5-O ) :   0.8893 B(  4-C ,  6-C ) :   0.9511
B(  4-C , 12-H ) :   0.9330 B(  5-O ,  6-C ) :   0.9464 B(  6-C ,  7-C ) :   0.9320
B(  6-C , 13-H ) :   0.9298 B(  7-C , 14-H ) :   0.8985 B(  7-C , 15-H ) :   0.8950

MP2 TOTAL ENERGY:     -383.082875056 Eh
FINAL SINGLE POINT ENERGY      -383.082875056165

DIPOLE MOMENT
-------------
                                X             Y             Z
Electronic contribution:     -3.11174       0.97839      -1.16112
Nuclear contribution   :      4.09139      -1.22153       1.73963
                        -----------------------------------------
Total Dipole Moment    :      0.97965      -0.24315       0.57850
                        -----------------------------------------
Magnitude (a.u.)       :      1.16340
Magnitude (Debye)      :      2.95712

                             ****ORCA TERMINATED NORMALLY****
TOTAL RUN TIME: 0 days 0 hours 10 minutes 59 seconds 59 msec
