                         Program Version 3.0.3 - RELEASE   -
|  1> ! RI-MP2 RIJK def2-TZVP def2-TZVP/C def2-TZVP/JK TIGHTSCF
|  2> % maxcore 2000
|  3> % mp2 density relaxed end
|  4> *xyz 0 1
|  5>  C        0.1348819863     1.5392843901    -0.0016697272
|  6>  C        0.0795668107     0.0092266261     0.0978887760
|  7>  C        0.6338120218    -0.4699343084     1.4463984532
|  8>  C       -1.3552874407    -0.4929819001    -0.1612399913
|  9>  C       -1.4621508834    -2.0038396994    -0.2681482340
| 10>  C       -1.8816460549    -2.8688551232     0.8724475908
| 11>  C       -2.8060709032    -2.7383249901    -0.3340823186
| 12>  C       -4.0850502635    -2.0147576188    -0.1739778565
| 13>  O       -5.0963066276    -2.2753078872    -0.7800201227
| 14>  H        1.1564713003     1.9073235112     0.1380084734
| 15>  H       -0.2190318551     1.8911816306    -0.9763737618
| 16>  H       -0.4923568592     2.0046538418     0.7682178772
| 17>  H        0.7197404675    -0.4025236372    -0.6963967396
| 18>  H        0.6514038485    -1.5610181332     1.5160459797
| 19>  H        1.6558567752    -0.1079436644     1.5988579541
| 20>  H        0.0224983187    -0.0916584278     2.2749962270
| 21>  H       -2.0110484032    -0.1192749484     0.6355449323
| 22>  H       -1.7189376295    -0.0417144234    -1.0936718252
| 23>  H       -0.7246260749    -2.4413812034    -0.9377344847
| 24>  H       -1.4065097076    -3.8306712567     1.0283060814
| 25>  H       -2.2032857818    -2.3759207825     1.7853157620
| 26>  H       -2.8685769251    -3.5797603235    -1.0156255525
| 27>  H       -4.0680223093    -1.1926270019     0.5782785869
| 28> *
| 29>
| 30>                          ****END OF INPUT****

CARTESIAN COORDINATES (ANGSTROEM)
---------------------------------
  C      0.134882    1.539284   -0.001670
  C      0.079567    0.009227    0.097889
  C      0.633812   -0.469934    1.446398
  C     -1.355287   -0.492982   -0.161240
  C     -1.462151   -2.003840   -0.268148
  C     -1.881646   -2.868855    0.872448
  C     -2.806071   -2.738325   -0.334082
  C     -4.085050   -2.014758   -0.173978
  O     -5.096307   -2.275308   -0.780020
  H      1.156471    1.907324    0.138008
  H     -0.219032    1.891182   -0.976374
  H     -0.492357    2.004654    0.768218
  H      0.719740   -0.402524   -0.696397
  H      0.651404   -1.561018    1.516046
  H      1.655857   -0.107944    1.598858
  H      0.022498   -0.091658    2.274996
  H     -2.011048   -0.119275    0.635545
  H     -1.718938   -0.041714   -1.093672
  H     -0.724626   -2.441381   -0.937734
  H     -1.406510   -3.830671    1.028306
  H     -2.203286   -2.375921    1.785316
  H     -2.868577   -3.579760   -1.015626
  H     -4.068022   -1.192627    0.578279

 Total Charge           Charge          ....    0
 Multiplicity           Mult            ....    1
 Number of Electrons    NEL             ....   70
 Basis Dimension        Dim             ....  363

ORBITAL ENERGIES
----------------

  NO   OCC          E(Eh)            E(eV)
   0   2.0000     -20.545736      -559.0779
   1   2.0000     -11.327046      -308.2246
   2   2.0000     -11.255376      -306.2744
   3   2.0000     -11.248417      -306.0850
   4   2.0000     -11.245384      -306.0025
   5   2.0000     -11.236778      -305.7683
   6   2.0000     -11.235132      -305.7235
   7   2.0000     -11.218574      -305.2729
   8   2.0000     -11.218383      -305.2677
   9   2.0000      -1.385156       -37.6920
  10   2.0000      -1.171545       -31.8794
  11   2.0000      -1.089104       -29.6360
  12   2.0000      -0.963348       -26.2140
  13   2.0000      -0.935724       -25.4623
  14   2.0000      -0.908384       -24.7184
  15   2.0000      -0.821034       -22.3415
  16   2.0000      -0.790097       -21.4996
  17   2.0000      -0.756944       -20.5975
  18   2.0000      -0.685090       -18.6422
  19   2.0000      -0.662189       -18.0191
  20   2.0000      -0.639291       -17.3960
  21   2.0000      -0.619204       -16.8494
  22   2.0000      -0.601273       -16.3615
  23   2.0000      -0.584424       -15.9030
  24   2.0000      -0.559452       -15.2235
  25   2.0000      -0.544187       -14.8081
  26   2.0000      -0.541083       -14.7236
  27   2.0000      -0.534590       -14.5469
  28   2.0000      -0.514572       -14.0022
  29   2.0000      -0.487612       -13.2686
  30   2.0000      -0.478189       -13.0122
  31   2.0000      -0.471384       -12.8270
  32   2.0000      -0.442207       -12.0331
  33   2.0000      -0.413372       -11.2484
  34   2.0000      -0.405745       -11.0409
  35   0.0000       0.127030         3.4567
  36   0.0000       0.129783         3.5316
  37   0.0000       0.140093         3.8121
  38   0.0000       0.159021         4.3272
  39   0.0000       0.171859         4.6765

MULLIKEN ATOMIC CHARGES
-----------------------
   0 C :   -0.393637
   1 C :   -0.015186
   2 C :   -0.413713
   3 C :   -0.267865
   4 C :   -0.096792
   5 C :   -0.300143
   6 C :   -0.021735
   7 C :    0.055830
   8 O :   -0.274187
   9 H :    0.133577
  10 H :    0.131220
  11 H :    0.122608
  12 H :    0.084508
  13 H :    0.140552
  14 H :    0.134225
  15 H :    0.117668
  16 H :    0.111630
  17 H :    0.131717
  18 H :    0.129588
  19 H :    0.145584
  20 H :    0.139142
  21 H :    0.135038
  22 H :    0.070368
Sum of atomic charges:   -0.0000000

LOEWDIN ATOMIC CHARGES
----------------------
   0 C :   -0.295378
   1 C :   -0.305726
   2 C :   -0.293121
   3 C :   -0.229567
   4 C :   -0.196617
   5 C :   -0.195125
   6 C :   -0.194514
   7 C :   -0.294187
   8 O :    0.122633
   9 H :    0.123448
  10 H :    0.122701
  11 H :    0.123416
  12 H :    0.150108
  13 H :    0.124312
  14 H :    0.123672
  15 H :    0.123208
  16 H :    0.142067
  17 H :    0.147188
  18 H :    0.156741
  19 H :    0.136757
  20 H :    0.139855
  21 H :    0.155223
  22 H :    0.112906

  Mayer bond orders larger than 0.1
B(  0-C ,  1-C ) :   0.9189 B(  0-C ,  9-H ) :   0.9422 B(  0-C , 10-H ) :   0.9396
B(  0-C , 11-H ) :   0.9317 B(  1-C ,  2-C ) :   0.9157 B(  1-C ,  3-C ) :   0.9249
B(  1-C , 12-H ) :   0.9277 B(  2-C , 13-H ) :   0.9374 B(  2-C , 14-H ) :   0.9392
B(  2-C , 15-H ) :   0.9317 B(  3-C ,  4-C ) :   0.9105 B(  3-C , 16-H ) :   0.9269
B(  3-C , 17-H ) :   0.9321 B(  4-C ,  5-C ) :   0.9051 B(  4-C ,  6-C ) :   0.7980
B(  4-C , 18-H ) :   0.9203 B(  5-C ,  6-C ) :   0.8337 B(  5-C , 19-H ) :   0.9244
B(  5-C , 20-H ) :   0.9227 B(  6-C ,  7-C ) :   0.8983 B(  6-C , 21-H ) :   0.9190
B(  6-C , 22-H ) :  -0.1010 B(  7-C ,  8-O ) :   1.9860 B(  7-C , 22-H ) :   0.9542

MP2 TOTAL ENERGY:     -387.615801243 Eh
FINAL SINGLE POINT ENERGY      -387.615801243139

DIPOLE MOMENT
-------------
                                X             Y             Z
Electronic contribution:    -10.98749      -6.63681      -3.66748
Nuclear contribution   :     12.27701       6.79033       4.10833
                        -----------------------------------------
Total Dipole Moment    :      1.28952       0.15352       0.44084
                        -----------------------------------------
Magnitude (a.u.)       :      1.37141
Magnitude (Debye)      :      3.48586

                             ****ORCA TERMINATED NORMALLY****
TOTAL RUN TIME: 0 days 0 hours 20 minutes 56 seconds 654 msec
