                         Program Version 3.0.3 - RELEASE   -
|  1> ! RI-MP2 RIJK def2-TZVP def2-TZVP/C def2-TZVP/JK TIGHTSCF
|  2> % maxcore 2000
|  3> % mp2 density relaxed end
|  4> *xyz 0 1
|  5>  O       -0.0146336489    -0.0607075301    -0.0000811862
|  6>  C       -0.0347930941     1.1524333231     0.0101793296
|  7>  C        1.1699464006     1.9590191379     0.0026035095
|  8>  C        1.3445969856     3.2988705325     0.0112942051
|  9>  O        2.6638350791     3.6027011269    -0.0016717992
| 10>  C        3.4017807667     2.3970548876    -0.0197948671
| 11>  O        4.5944026127     2.3536693788    -0.0341775884
| 12>  N        2.4513692844     1.4104587367    -0.0167398124
| 13>  H       -0.9800168729     1.7310460069     0.0256033516
| 14>  H        0.6433285617     4.1167420454     0.0259847602
| 15>  H        2.6538861850     0.4250038742    -0.0270072727
| 16> *
| 17>
| 18>                          ****END OF INPUT****

CARTESIAN COORDINATES (ANGSTROEM)
---------------------------------
  O     -0.014634   -0.060708   -0.000081
  C     -0.034793    1.152433    0.010179
  C      1.169946    1.959019    0.002604
  C      1.344597    3.298871    0.011294
  O      2.663835    3.602701   -0.001672
  C      3.401781    2.397055   -0.019795
  O      4.594403    2.353669   -0.034178
  N      2.451369    1.410459   -0.016740
  H     -0.980017    1.731046    0.025603
  H      0.643329    4.116742    0.025985
  H      2.653886    0.425004   -0.027007

 Total Charge           Charge          ....    0
 Multiplicity           Mult            ....    1
 Number of Electrons    NEL             ....   58
 Basis Dimension        Dim             ....  266

ORBITAL ENERGIES
----------------

  NO   OCC          E(Eh)            E(eV)
   0   2.0000     -20.655928      -562.0764
   1   2.0000     -20.583208      -560.0976
   2   2.0000     -20.552898      -559.2728
   3   2.0000     -15.636882      -425.5012
   4   2.0000     -11.433492      -311.1211
   5   2.0000     -11.369242      -309.3728
   6   2.0000     -11.351300      -308.8846
   7   2.0000     -11.312762      -307.8359
   8   2.0000      -1.517002       -41.2797
   9   2.0000      -1.420954       -38.6661
  10   2.0000      -1.403207       -38.1832
  11   2.0000      -1.290718       -35.1222
  12   2.0000      -1.083289       -29.4778
  13   2.0000      -0.936581       -25.4857
  14   2.0000      -0.895649       -24.3718
  15   2.0000      -0.841916       -22.9097
  16   2.0000      -0.756298       -20.5799
  17   2.0000      -0.713269       -19.4090
  18   2.0000      -0.707234       -19.2448
  19   2.0000      -0.678940       -18.4749
  20   2.0000      -0.661282       -17.9944
  21   2.0000      -0.656071       -17.8526
  22   2.0000      -0.612845       -16.6764
  23   2.0000      -0.579743       -15.7756
  24   2.0000      -0.555806       -15.1242
  25   2.0000      -0.504062       -13.7162
  26   2.0000      -0.485769       -13.2184
  27   2.0000      -0.466897       -12.7049
  28   2.0000      -0.356990        -9.7142
  29   0.0000       0.059676         1.6239
  30   0.0000       0.137261         3.7351
  31   0.0000       0.140136         3.8133
  32   0.0000       0.171948         4.6789
  33   0.0000       0.177792         4.8380

MULLIKEN ATOMIC CHARGES
-----------------------
   0 O :   -0.291704
   1 C :    0.092078
   2 C :    0.066775
   3 C :    0.023648
   4 O :   -0.195250
   5 C :    0.330009
   6 O :   -0.296693
   7 N :   -0.288477
   8 H :    0.100301
   9 H :    0.178583
  10 H :    0.280728
Sum of atomic charges:    0.0000000

LOEWDIN ATOMIC CHARGES
----------------------
   0 O :    0.124259
   1 C :   -0.278697
   2 C :   -0.252754
   3 C :   -0.192878
   4 O :    0.311449
   5 C :   -0.509220
   6 O :    0.120507
   7 N :    0.195825
   8 H :    0.125951
   9 H :    0.146253
  10 H :    0.209306

  Mayer bond orders larger than 0.1
B(  0-O ,  1-C ) :   1.9341 B(  1-C ,  2-C ) :   0.8921 B(  1-C ,  8-H ) :   0.9776
B(  2-C ,  3-C ) :   1.5388 B(  2-C ,  7-N ) :   1.0388 B(  3-C ,  4-O ) :   1.0608
B(  3-C ,  9-H ) :   0.9256 B(  4-O ,  5-C ) :   0.9734 B(  5-C ,  6-O ) :   2.0332
B(  5-C ,  7-N ) :   1.1388 B(  7-N , 10-H ) :   0.8508

MP2 TOTAL ENERGY:     -433.912681483 Eh
FINAL SINGLE POINT ENERGY      -433.912681482986

DIPOLE MOMENT
-------------
                                X             Y             Z
Electronic contribution:      2.11327       0.16456      -0.02294
Nuclear contribution   :     -3.35980       0.24999       0.04101
                        -----------------------------------------
Total Dipole Moment    :     -1.24654       0.41455       0.01807
                        -----------------------------------------
Magnitude (a.u.)       :      1.31379
Magnitude (Debye)      :      3.33938

                             ****ORCA TERMINATED NORMALLY****
TOTAL RUN TIME: 0 days 0 hours 8 minutes 3 seconds 999 msec
