                         Program Version 3.0.3 - RELEASE   -
|  1> ! RI-MP2 RIJK def2-TZVP def2-TZVP/C def2-TZVP/JK TIGHTSCF
|  2> % maxcore 2000
|  3> % mp2 density relaxed end
|  4> *xyz 0 1
|  5>  C        0.0977481288     1.5289912140    -0.2640935640
|  6>  C        0.0260019110     0.0494735667     0.0277517293
|  7>  N        1.2975019873    -0.6894317117     0.1218820607
|  8>  C        0.4333250882    -0.5866441731     1.3121938175
|  9>  C        1.0056517389     0.1590768883     2.4963214279
| 10>  C        2.1094561615    -0.6754780159     3.1806863428
| 11>  C        2.6921102267    -0.0012230808     4.3376100041
| 12>  N        3.1387016728     0.5469581105     5.2518120808
| 13>  H        0.9630167861     1.9920755751     0.2143023120
| 14>  H        0.1885185575     1.6975548358    -1.3422865011
| 15>  H       -0.8080839715     2.0391196760     0.0808794891
| 16>  H       -0.7895609599    -0.4588951589    -0.4864816516
| 17>  H        1.2174174936    -1.6066726043    -0.3073802941
| 18>  H       -0.1262962741    -1.4811271392     1.5887277198
| 19>  H        1.4334026488     1.1124609379     2.1789767074
| 20>  H        0.2107853389     0.3823384230     3.2163752236
| 21>  H        1.7105663009    -1.6429924005     3.5081878666
| 22>  H        2.9003408843    -0.8850803229     2.4524372692
| 23> *
| 24>
| 25>                          ****END OF INPUT****

CARTESIAN COORDINATES (ANGSTROEM)
---------------------------------
  C      0.097748    1.528991   -0.264094
  C      0.026002    0.049474    0.027752
  N      1.297502   -0.689432    0.121882
  C      0.433325   -0.586644    1.312194
  C      1.005652    0.159077    2.496321
  C      2.109456   -0.675478    3.180686
  C      2.692110   -0.001223    4.337610
  N      3.138702    0.546958    5.251812
  H      0.963017    1.992076    0.214302
  H      0.188519    1.697555   -1.342287
  H     -0.808084    2.039120    0.080879
  H     -0.789561   -0.458895   -0.486482
  H      1.217417   -1.606673   -0.307380
  H     -0.126296   -1.481127    1.588728
  H      1.433403    1.112461    2.178977
  H      0.210785    0.382338    3.216375
  H      1.710566   -1.642992    3.508188
  H      2.900341   -0.885080    2.452437

 Total Charge           Charge          ....    0
 Multiplicity           Mult            ....    1
 Number of Electrons    NEL             ....   60
 Basis Dimension        Dim             ....  308

ORBITAL ENERGIES
----------------

  NO   OCC          E(Eh)            E(eV)
   0   2.0000     -15.567962      -423.6258
   1   2.0000     -15.563687      -423.5095
   2   2.0000     -11.278597      -306.9062
   3   2.0000     -11.275453      -306.8207
   4   2.0000     -11.274654      -306.7989
   5   2.0000     -11.268615      -306.6346
   6   2.0000     -11.252048      -306.1838
   7   2.0000     -11.227764      -305.5230
   8   2.0000      -1.275846       -34.7175
   9   2.0000      -1.213862       -33.0309
  10   2.0000      -1.086384       -29.5620
  11   2.0000      -1.001207       -27.2442
  12   2.0000      -0.951241       -25.8846
  13   2.0000      -0.850452       -23.1420
  14   2.0000      -0.781574       -21.2677
  15   2.0000      -0.730718       -19.8838
  16   2.0000      -0.695493       -18.9253
  17   2.0000      -0.650749       -17.7078
  18   2.0000      -0.604189       -16.4408
  19   2.0000      -0.591807       -16.1039
  20   2.0000      -0.577351       -15.7105
  21   2.0000      -0.559864       -15.2347
  22   2.0000      -0.549702       -14.9581
  23   2.0000      -0.543111       -14.7788
  24   2.0000      -0.503075       -13.6894
  25   2.0000      -0.470741       -12.8095
  26   2.0000      -0.467647       -12.7253
  27   2.0000      -0.453671       -12.3450
  28   2.0000      -0.452294       -12.3075
  29   2.0000      -0.401611       -10.9284
  30   0.0000       0.117893         3.2080
  31   0.0000       0.139892         3.8067
  32   0.0000       0.146303         3.9811
  33   0.0000       0.161875         4.4048
  34   0.0000       0.180244         4.9047

MULLIKEN ATOMIC CHARGES
-----------------------
   0 C :   -0.392910
   1 C :   -0.014989
   2 N :   -0.418889
   3 C :   -0.012195
   4 C :   -0.245211
   5 C :   -0.129599
   6 C :   -0.185283
   7 N :   -0.060352
   8 H :    0.135853
   9 H :    0.135920
  10 H :    0.129322
  11 H :    0.119182
  12 H :    0.221645
  13 H :    0.130229
  14 H :    0.136670
  15 H :    0.130810
  16 H :    0.149558
  17 H :    0.170237
Sum of atomic charges:    0.0000000

LOEWDIN ATOMIC CHARGES
----------------------
   0 C :   -0.294572
   1 C :   -0.280359
   2 N :   -0.001811
   3 C :   -0.265526
   4 C :   -0.228305
   5 C :   -0.241059
   6 C :   -0.194577
   7 N :    0.052287
   8 H :    0.126989
   9 H :    0.128805
  10 H :    0.127725
  11 H :    0.137890
  12 H :    0.165530
  13 H :    0.139436
  14 H :    0.149259
  15 H :    0.147799
  16 H :    0.162158
  17 H :    0.168328

  Mayer bond orders larger than 0.1
B(  0-C ,  1-C ) :   0.8999 B(  0-C ,  8-H ) :   0.9431 B(  0-C ,  9-H ) :   0.9343
B(  0-C , 10-H ) :   0.9347 B(  1-C ,  2-N ) :   0.9193 B(  1-C ,  3-C ) :   0.9155
B(  1-C , 11-H ) :   0.9271 B(  2-N ,  3-C ) :   0.8366 B(  2-N , 12-H ) :   0.8667
B(  3-C ,  4-C ) :   0.9011 B(  3-C , 13-H ) :   0.9175 B(  4-C ,  5-C ) :   0.9200
B(  4-C , 14-H ) :   0.9359 B(  4-C , 15-H ) :   0.9322 B(  5-C ,  6-C ) :   0.9352
B(  5-C , 16-H ) :   0.9071 B(  5-C , 17-H ) :   0.9045 B(  6-C ,  7-N ) :   2.8861

MP2 TOTAL ENERGY:     -343.375543999 Eh
FINAL SINGLE POINT ENERGY      -343.375543999150

DIPOLE MOMENT
-------------
                                X             Y             Z
Electronic contribution:      4.63472      -1.52796       6.91091
Nuclear contribution   :     -5.91105       0.66277      -8.28324
                        -----------------------------------------
Total Dipole Moment    :     -1.27634      -0.86519      -1.37233
                        -----------------------------------------
Magnitude (a.u.)       :      2.06419
Magnitude (Debye)      :      5.24675

                             ****ORCA TERMINATED NORMALLY****
TOTAL RUN TIME: 0 days 0 hours 11 minutes 0 seconds 196 msec
