                         Program Version 3.0.3 - RELEASE   -
|  1> ! RI-MP2 RIJK def2-TZVP def2-TZVP/C def2-TZVP/JK TIGHTSCF
|  2> % maxcore 2000
|  3> % mp2 density relaxed end
|  4> *xyz 0 1
|  5>  C        0.5272961524     1.3868984140     0.1142301070
|  6>  O        0.8815643653     0.0310713023     0.2317690072
|  7>  C       -0.0357275980    -0.7097904472     1.0185375375
|  8>  C        0.3677576362    -2.1451288289     1.0201323583
|  9>  C        0.1273404999    -3.0901507505     2.1685734686
| 10>  C        1.5402557909    -2.8293409316     1.7166275225
| 11>  C        1.8745322015    -3.5585746153     0.3832263210
| 12>  N        0.7009770241    -4.3726804451    -0.0357177390
| 13>  C        0.7387646268    -2.9095289516    -0.2914691655
| 14>  H        0.5070629352     1.8922272614     1.0934815622
| 15>  H        1.2792476446     1.8700046198    -0.5147004312
| 16>  H       -0.4624907405     1.5144435006    -0.3535322055
| 17>  H       -0.0618910084    -0.3212505097     2.0511872195
| 18>  H       -1.0550959411    -0.5936573801     0.6061846814
| 19>  H       -0.1398003860    -2.6031704321     3.1020075754
| 20>  H       -0.3369379770    -4.0525908992     1.9974760860
| 21>  H        2.2909946759    -2.3808420430     2.3539429598
| 22>  H        2.8696939040    -3.7790358484     0.0206706628
| 23>  H        0.9578254741    -4.8316428384    -0.9093403880
| 24>  H        0.6583078801    -2.4980782270    -1.2885703899
| 25> *
| 26>
| 27>                          ****END OF INPUT****

CARTESIAN COORDINATES (ANGSTROEM)
---------------------------------
  C      0.527296    1.386898    0.114230
  O      0.881564    0.031071    0.231769
  C     -0.035728   -0.709790    1.018538
  C      0.367758   -2.145129    1.020132
  C      0.127340   -3.090151    2.168573
  C      1.540256   -2.829341    1.716628
  C      1.874532   -3.558575    0.383226
  N      0.700977   -4.372680   -0.035718
  C      0.738765   -2.909529   -0.291469
  H      0.507063    1.892227    1.093482
  H      1.279248    1.870005   -0.514700
  H     -0.462491    1.514444   -0.353532
  H     -0.061891   -0.321251    2.051187
  H     -1.055096   -0.593657    0.606185
  H     -0.139800   -2.603170    3.102008
  H     -0.336938   -4.052591    1.997476
  H      2.290995   -2.380842    2.353943
  H      2.869694   -3.779036    0.020671
  H      0.957825   -4.831643   -0.909340
  H      0.658308   -2.498078   -1.288570

 Total Charge           Charge          ....    0
 Multiplicity           Mult            ....    1
 Number of Electrons    NEL             ....   68
 Basis Dimension        Dim             ....  345

ORBITAL ENERGIES
----------------

  NO   OCC          E(Eh)            E(eV)
   0   2.0000     -20.554238      -559.3092
   1   2.0000     -15.554896      -423.2702
   2   2.0000     -11.278253      -306.8969
   3   2.0000     -11.270690      -306.6911
   4   2.0000     -11.256449      -306.3035
   5   2.0000     -11.254566      -306.2523
   6   2.0000     -11.233634      -305.6827
   7   2.0000     -11.228277      -305.5369
   8   2.0000     -11.221894      -305.3633
   9   2.0000      -1.374931       -37.4138
  10   2.0000      -1.279609       -34.8199
  11   2.0000      -1.130711       -30.7682
  12   2.0000      -0.983330       -26.7578
  13   2.0000      -0.914961       -24.8973
  14   2.0000      -0.891881       -24.2693
  15   2.0000      -0.845241       -23.0002
  16   2.0000      -0.768458       -20.9108
  17   2.0000      -0.723661       -19.6918
  18   2.0000      -0.708974       -19.2922
  19   2.0000      -0.667968       -18.1763
  20   2.0000      -0.649066       -17.6620
  21   2.0000      -0.633466       -17.2375
  22   2.0000      -0.617973       -16.8159
  23   2.0000      -0.572449       -15.5771
  24   2.0000      -0.552069       -15.0226
  25   2.0000      -0.544037       -14.8040
  26   2.0000      -0.503859       -13.7107
  27   2.0000      -0.498950       -13.5771
  28   2.0000      -0.486145       -13.2287
  29   2.0000      -0.449430       -12.2296
  30   2.0000      -0.428320       -11.6552
  31   2.0000      -0.412796       -11.2327
  32   2.0000      -0.398263       -10.8373
  33   2.0000      -0.323086        -8.7916
  34   0.0000       0.141230         3.8431
  35   0.0000       0.149681         4.0730
  36   0.0000       0.170985         4.6527
  37   0.0000       0.176674         4.8075
  38   0.0000       0.184628         5.0240

MULLIKEN ATOMIC CHARGES
-----------------------
   0 C :   -0.224223
   1 O :   -0.306560
   2 C :   -0.109136
   3 C :    0.210732
   4 C :   -0.290164
   5 C :   -0.120740
   6 C :   -0.090251
   7 N :   -0.382424
   8 C :   -0.166203
   9 H :    0.109530
  10 H :    0.138852
  11 H :    0.110344
  12 H :    0.093060
  13 H :    0.101725
  14 H :    0.126740
  15 H :    0.165115
  16 H :    0.137138
  17 H :    0.139530
  18 H :    0.214919
  19 H :    0.142015
Sum of atomic charges:    0.0000000

LOEWDIN ATOMIC CHARGES
----------------------
   0 C :   -0.365589
   1 O :    0.137506
   2 C :   -0.293235
   3 C :   -0.186935
   4 C :   -0.178804
   5 C :   -0.143083
   6 C :   -0.206882
   7 N :   -0.003521
   8 C :   -0.186793
   9 H :    0.100939
  10 H :    0.113165
  11 H :    0.100425
  12 H :    0.128262
  13 H :    0.126882
  14 H :    0.141153
  15 H :    0.141279
  16 H :    0.138940
  17 H :    0.130280
  18 H :    0.171549
  19 H :    0.134461

  Mayer bond orders larger than 0.1
B(  0-C ,  1-O ) :   0.9279 B(  0-C ,  9-H ) :   0.9363 B(  0-C , 10-H ) :   0.9391
B(  0-C , 11-H ) :   0.9382 B(  1-O ,  2-C ) :   0.9706 B(  1-O ,  3-C ) :  -0.1083
B(  2-C ,  3-C ) :   0.9425 B(  2-C , 12-H ) :   0.9160 B(  2-C , 13-H ) :   0.9247
B(  3-C ,  4-C ) :   0.8906 B(  3-C ,  5-C ) :   0.8725 B(  3-C ,  8-C ) :   0.8340
B(  4-C ,  5-C ) :   0.9106 B(  4-C , 14-H ) :   0.9259 B(  4-C , 15-H ) :   0.8846
B(  5-C ,  6-C ) :   0.8945 B(  5-C , 16-H ) :   0.9187 B(  6-C ,  7-N ) :   0.9392
B(  6-C ,  8-C ) :   1.0316 B(  6-C , 17-H ) :   0.9200 B(  7-N ,  8-C ) :   0.9728
B(  7-N , 18-H ) :   0.8695 B(  8-C , 19-H ) :   0.9151

MP2 TOTAL ENERGY:     -402.349442195 Eh
FINAL SINGLE POINT ENERGY      -402.349442194892

DIPOLE MOMENT
-------------
                                X             Y             Z
Electronic contribution:      1.57751      -4.70668      -0.85614
Nuclear contribution   :     -1.49673       5.24921       0.63112
                        -----------------------------------------
Total Dipole Moment    :      0.08078       0.54253      -0.22502
                        -----------------------------------------
Magnitude (a.u.)       :      0.59288
Magnitude (Debye)      :      1.50697

                             ****ORCA TERMINATED NORMALLY****
TOTAL RUN TIME: 0 days 0 hours 18 minutes 27 seconds 156 msec
