                         Program Version 3.0.3 - RELEASE   -
|  1> ! RI-MP2 RIJK def2-TZVP def2-TZVP/C def2-TZVP/JK TIGHTSCF
|  2> % maxcore 2000
|  3> % mp2 density relaxed end
|  4> *xyz 0 1
|  5>  C       -0.0751184255     1.3967478154     0.0851266409
|  6>  C        1.3440945728     1.9326521568    -0.1000012518
|  7>  C        2.1865254484     0.7705530344     0.4384018920
|  8>  C        1.3273699651    -0.4538747037     0.0730726300
|  9>  O        0.0166219289     0.0091431952    -0.2304936835
| 10>  C        3.6870114166     0.7280226357     0.0455312835
| 11>  N        4.4345137689     0.9152875487     1.2973526148
| 12>  C        3.5580517620     0.9793281411     2.2092155270
| 13>  O        2.2447867907     0.8863693605     1.8981717184
| 14>  H       -0.4117933489     1.5401700404     1.1227695699
| 15>  H       -0.8119757005     1.8468234660    -0.5855318244
| 16>  H        1.5624301369     2.0753872341    -1.1639984693
| 17>  H        1.5461978545     2.8649355690     0.4311012435
| 18>  H        1.7289522103    -0.9696914794    -0.8083343453
| 19>  H        1.3109458228    -1.1599764581     0.9127722440
| 20>  H        3.9689410518    -0.2278861356    -0.4112800554
| 21>  H        3.9444611390     1.5160771418    -0.6699185217
| 22>  H        3.7599831964     1.1032989279     3.2676273675
| 23> *
| 24>
| 25>                          ****END OF INPUT****

CARTESIAN COORDINATES (ANGSTROEM)
---------------------------------
  C     -0.075118    1.396748    0.085127
  C      1.344095    1.932652   -0.100001
  C      2.186525    0.770553    0.438402
  C      1.327370   -0.453875    0.073073
  O      0.016622    0.009143   -0.230494
  C      3.687011    0.728023    0.045531
  N      4.434514    0.915288    1.297353
  C      3.558052    0.979328    2.209216
  O      2.244787    0.886369    1.898172
  H     -0.411793    1.540170    1.122770
  H     -0.811976    1.846823   -0.585532
  H      1.562430    2.075387   -1.163998
  H      1.546198    2.864936    0.431101
  H      1.728952   -0.969691   -0.808334
  H      1.310946   -1.159976    0.912772
  H      3.968941   -0.227886   -0.411280
  H      3.944461    1.516077   -0.669919
  H      3.759983    1.103299    3.267627

 Total Charge           Charge          ....    0
 Multiplicity           Mult            ....    1
 Number of Electrons    NEL             ....   68
 Basis Dimension        Dim             ....  333

ORBITAL ENERGIES
----------------

  NO   OCC          E(Eh)            E(eV)
   0   2.0000     -20.597938      -560.4984
   1   2.0000     -20.557408      -559.3955
   2   2.0000     -15.552695      -423.2104
   3   2.0000     -11.334614      -308.4305
   4   2.0000     -11.308540      -307.7210
   5   2.0000     -11.282627      -307.0159
   6   2.0000     -11.280047      -306.9457
   7   2.0000     -11.267772      -306.6117
   8   2.0000     -11.238006      -305.8017
   9   2.0000      -1.443195       -39.2713
  10   2.0000      -1.380575       -37.5674
  11   2.0000      -1.217305       -33.1246
  12   2.0000      -1.086222       -29.5576
  13   2.0000      -1.014485       -27.6056
  14   2.0000      -0.935915       -25.4675
  15   2.0000      -0.840244       -22.8642
  16   2.0000      -0.831002       -22.6127
  17   2.0000      -0.777218       -21.1492
  18   2.0000      -0.719894       -19.5893
  19   2.0000      -0.685778       -18.6610
  20   2.0000      -0.666438       -18.1347
  21   2.0000      -0.651816       -17.7368
  22   2.0000      -0.616125       -16.7656
  23   2.0000      -0.593859       -16.1597
  24   2.0000      -0.578555       -15.7433
  25   2.0000      -0.572219       -15.5709
  26   2.0000      -0.551059       -14.9951
  27   2.0000      -0.517347       -14.0777
  28   2.0000      -0.514579       -14.0024
  29   2.0000      -0.506097       -13.7716
  30   2.0000      -0.477657       -12.9977
  31   2.0000      -0.438507       -11.9324
  32   2.0000      -0.422468       -11.4959
  33   2.0000      -0.384472       -10.4620
  34   0.0000       0.134483         3.6595
  35   0.0000       0.156616         4.2617
  36   0.0000       0.162787         4.4297
  37   0.0000       0.176435         4.8010
  38   0.0000       0.182865         4.9760

MULLIKEN ATOMIC CHARGES
-----------------------
   0 C :   -0.028864
   1 C :   -0.291938
   2 C :    0.210804
   3 C :   -0.070320
   4 O :   -0.317816
   5 C :   -0.140418
   6 N :   -0.262310
   7 C :    0.081875
   8 O :   -0.279033
   9 H :    0.100695
  10 H :    0.116955
  11 H :    0.120245
  12 H :    0.139084
  13 H :    0.105993
  14 H :    0.112791
  15 H :    0.126046
  16 H :    0.129678
  17 H :    0.146535
Sum of atomic charges:   -0.0000000

LOEWDIN ATOMIC CHARGES
----------------------
   0 C :   -0.300718
   1 C :   -0.224232
   2 C :   -0.286633
   3 C :   -0.261874
   4 O :    0.143362
   5 C :   -0.237760
   6 N :    0.061023
   7 C :   -0.354488
   8 O :    0.249138
   9 H :    0.123621
  10 H :    0.126318
  11 H :    0.146478
  12 H :    0.146422
  13 H :    0.128325
  14 H :    0.132022
  15 H :    0.136810
  16 H :    0.137800
  17 H :    0.134386

  Mayer bond orders larger than 0.1
B(  0-C ,  1-C ) :   0.9747 B(  0-C ,  4-O ) :   0.9280 B(  0-C ,  9-H ) :   0.9231
B(  0-C , 10-H ) :   0.9232 B(  1-C ,  2-C ) :   0.9098 B(  1-C , 11-H ) :   0.9181
B(  1-C , 12-H ) :   0.9136 B(  2-C ,  3-C ) :   0.9335 B(  2-C ,  5-C ) :   0.8924
B(  2-C ,  8-O ) :   0.8323 B(  3-C ,  4-O ) :   0.9678 B(  3-C , 13-H ) :   0.9216
B(  3-C , 14-H ) :   0.9074 B(  5-C ,  6-N ) :   0.9530 B(  5-C , 15-H ) :   0.9235
B(  5-C , 16-H ) :   0.9194 B(  6-N ,  7-C ) :   1.8259 B(  7-C ,  8-O ) :   1.0775
B(  7-C , 17-H ) :   0.9224

MP2 TOTAL ENERGY:     -438.381442927 Eh
FINAL SINGLE POINT ENERGY      -438.381442927055

DIPOLE MOMENT
-------------
                                X             Y             Z
Electronic contribution:      1.51347      -1.03453       3.13685
Nuclear contribution   :     -1.67473       1.40076      -3.33818
                        -----------------------------------------
Total Dipole Moment    :     -0.16126       0.36623      -0.20133
                        -----------------------------------------
Magnitude (a.u.)       :      0.44795
Magnitude (Debye)      :      1.13860

                             ****ORCA TERMINATED NORMALLY****
TOTAL RUN TIME: 0 days 0 hours 17 minutes 55 seconds 451 msec
