                         Program Version 3.0.3 - RELEASE   -
|  1> ! RI-MP2 RIJK def2-TZVP def2-TZVP/C def2-TZVP/JK TIGHTSCF
|  2> % maxcore 2000
|  3> % mp2 density relaxed end
|  4> *xyz 0 1
|  5>  C       -0.1708663342     1.5801812382     0.7418043688
|  6>  N       -0.1404342619     0.3055625392     0.0470391650
|  7>  C        0.9341393146    -0.5800163275     0.4848190885
|  8>  C       -1.3689526151    -0.2902610742    -0.2135058962
|  9>  C       -1.7360662143    -1.3753243290    -0.9984410332
| 10>  C       -0.9064081022    -2.2909813989    -1.8373436381
| 11>  N       -3.0934372679    -1.4951723761    -0.9391064443
| 12>  N       -3.6004395426    -0.5646641598    -0.1878882245
| 13>  N       -2.5553231075     0.1671493919     0.2710814369
| 14>  H        0.8284167063     2.0228802844     0.7182222324
| 15>  H       -0.8535631665     2.2680013509     0.2339347159
| 16>  H       -0.4737388509     1.4961926666     1.8012918855
| 17>  H        0.8163048575    -0.9036548455     1.5321231499
| 18>  H        0.9719315303    -1.4681627216    -0.1460669540
| 19>  H        1.8892456057    -0.0548241825     0.3911825735
| 20>  H       -0.3702066201    -3.0429699828    -1.2446941264
| 21>  H       -1.5612971021    -2.8257858351    -2.5289474950
| 22>  H       -0.1627494583    -1.7399678949    -2.4233158870
| 23>  H       -2.7307943009     0.9461333568     0.8831846022
| 24> *
| 25>
| 26>                          ****END OF INPUT****

CARTESIAN COORDINATES (ANGSTROEM)
---------------------------------
  C     -0.170866    1.580181    0.741804
  N     -0.140434    0.305563    0.047039
  C      0.934139   -0.580016    0.484819
  C     -1.368953   -0.290261   -0.213506
  C     -1.736066   -1.375324   -0.998441
  C     -0.906408   -2.290981   -1.837344
  N     -3.093437   -1.495172   -0.939106
  N     -3.600440   -0.564664   -0.187888
  N     -2.555323    0.167149    0.271081
  H      0.828417    2.022880    0.718222
  H     -0.853563    2.268001    0.233935
  H     -0.473739    1.496193    1.801292
  H      0.816305   -0.903655    1.532123
  H      0.971932   -1.468163   -0.146067
  H      1.889246   -0.054824    0.391183
  H     -0.370207   -3.042970   -1.244694
  H     -1.561297   -2.825786   -2.528947
  H     -0.162749   -1.739968   -2.423316
  H     -2.730794    0.946133    0.883185

 Total Charge           Charge          ....    0
 Multiplicity           Mult            ....    1
 Number of Electrons    NEL             ....   68
 Basis Dimension        Dim             ....  339

ORBITAL ENERGIES
----------------

  NO   OCC          E(Eh)            E(eV)
   0   2.0000     -15.641324      -425.6221
   1   2.0000     -15.618207      -424.9930
   2   2.0000     -15.591130      -424.2562
   3   2.0000     -15.584183      -424.0672
   4   2.0000     -11.312463      -307.8278
   5   2.0000     -11.277584      -306.8787
   6   2.0000     -11.270671      -306.6906
   7   2.0000     -11.241044      -305.8843
   8   2.0000     -11.223551      -305.4084
   9   2.0000      -1.421026       -38.6681
  10   2.0000      -1.274814       -34.6894
  11   2.0000      -1.182306       -32.1722
  12   2.0000      -1.078607       -29.3504
  13   2.0000      -0.985664       -26.8213
  14   2.0000      -0.964314       -26.2403
  15   2.0000      -0.908295       -24.7160
  16   2.0000      -0.845722       -23.0133
  17   2.0000      -0.783871       -21.3302
  18   2.0000      -0.736179       -20.0324
  19   2.0000      -0.669039       -18.2055
  20   2.0000      -0.662411       -18.0251
  21   2.0000      -0.630593       -17.1593
  22   2.0000      -0.617333       -16.7985
  23   2.0000      -0.585932       -15.9440
  24   2.0000      -0.571497       -15.5512
  25   2.0000      -0.565518       -15.3885
  26   2.0000      -0.560338       -15.2476
  27   2.0000      -0.551796       -15.0151
  28   2.0000      -0.527159       -14.3447
  29   2.0000      -0.496804       -13.5187
  30   2.0000      -0.445324       -12.1179
  31   2.0000      -0.420123       -11.4321
  32   2.0000      -0.395798       -10.7702
  33   2.0000      -0.304608        -8.2888
  34   0.0000       0.115377         3.1396
  35   0.0000       0.139371         3.7925
  36   0.0000       0.157133         4.2758
  37   0.0000       0.168649         4.5892
  38   0.0000       0.184583         5.0228

MULLIKEN ATOMIC CHARGES
-----------------------
   0 C :   -0.363177
   1 N :   -0.149433
   2 C :   -0.296781
   3 C :    0.130382
   4 C :    0.010398
   5 C :   -0.481069
   6 N :   -0.145280
   7 N :   -0.178389
   8 N :   -0.089600
   9 H :    0.149710
  10 H :    0.153008
  11 H :    0.130477
  12 H :    0.124367
  13 H :    0.150963
  14 H :    0.136808
  15 H :    0.141255
  16 H :    0.165810
  17 H :    0.150499
  18 H :    0.260052
Sum of atomic charges:   -0.0000000

LOEWDIN ATOMIC CHARGES
----------------------
   0 C :   -0.313981
   1 N :    0.102611
   2 C :   -0.294180
   3 C :   -0.290451
   4 C :   -0.291750
   5 C :   -0.283436
   6 N :    0.013230
   7 N :   -0.066737
   8 N :    0.126340
   9 H :    0.125674
  10 H :    0.123087
  11 H :    0.106702
  12 H :    0.110383
  13 H :    0.125425
  14 H :    0.120649
  15 H :    0.126800
  16 H :    0.140823
  17 H :    0.131229
  18 H :    0.187579

  Mayer bond orders larger than 0.1
B(  0-C ,  1-N ) :   0.9091 B(  0-C ,  9-H ) :   0.9358 B(  0-C , 10-H ) :   0.9322
B(  0-C , 11-H ) :   0.9240 B(  1-N ,  2-C ) :   0.8926 B(  1-N ,  3-C ) :   1.0990
B(  2-C , 12-H ) :   0.9261 B(  2-C , 13-H ) :   0.9374 B(  2-C , 14-H ) :   0.9353
B(  3-C ,  4-C ) :   1.3701 B(  3-C ,  7-N ) :   0.1175 B(  3-C ,  8-N ) :   1.1561
B(  4-C ,  5-C ) :   0.8637 B(  4-C ,  6-N ) :   1.4314 B(  5-C , 15-H ) :   0.9294
B(  5-C , 16-H ) :   0.9424 B(  5-C , 17-H ) :   0.9466 B(  6-N ,  7-N ) :   1.2896
B(  7-N ,  8-N ) :   1.0077 B(  8-N , 18-H ) :   0.8598

MP2 TOTAL ENERGY:     -414.671432194 Eh
FINAL SINGLE POINT ENERGY      -414.671432194438

DIPOLE MOMENT
-------------
                                X             Y             Z
Electronic contribution:     -9.42015      -0.40831      -0.95711
Nuclear contribution   :     11.23841       1.44513       1.79597
                        -----------------------------------------
Total Dipole Moment    :      1.81826       1.03682       0.83886
                        -----------------------------------------
Magnitude (a.u.)       :      2.25494
Magnitude (Debye)      :      5.73161

                             ****ORCA TERMINATED NORMALLY****
TOTAL RUN TIME: 0 days 0 hours 21 minutes 21 seconds 442 msec
