                         Program Version 3.0.3 - RELEASE   -
|  1> ! RI-MP2 RIJK def2-TZVP def2-TZVP/C def2-TZVP/JK TIGHTSCF
|  2> % maxcore 2000
|  3> % mp2 density relaxed end
|  4> *xyz 0 1
|  5>  C       -0.0492488902     1.5432682911     0.0024888190
|  6>  O        1.1435107326     0.7342685579    -0.0092123016
|  7>  C       -0.1105071901     0.0870935112     0.0059152909
|  8>  C       -0.4935690296    -0.9670106242     1.0385164262
|  9>  C       -1.9691272116    -1.3096737749     0.8074905881
| 10>  C       -1.9863985737    -1.3129049672    -0.7489957906
| 11>  C       -1.6039595299    -2.5335933085     0.0276438697
| 12>  N       -0.1477219183    -2.0767017478     0.0103900317
| 13>  C       -0.5163927635    -0.9708882846    -1.0139591740
| 14>  H       -0.2246707711     2.0979025026     0.9232866195
| 15>  H       -0.2450850498     2.0944313928    -0.9162755545
| 16>  H       -0.0487415306    -1.0121720943     2.0313524926
| 17>  H       -2.8486578892    -1.0889374363     1.3973645578
| 18>  H       -2.8788082592    -1.0946347158    -1.3201442363
| 19>  H       -1.9508441265    -3.5582296041     0.0336325013
| 20>  H       -0.0937189693    -1.0197961179    -2.0162492900
| 21> *
| 22>
| 23>                          ****END OF INPUT****

CARTESIAN COORDINATES (ANGSTROEM)
---------------------------------
  C     -0.049249    1.543268    0.002489
  O      1.143511    0.734269   -0.009212
  C     -0.110507    0.087094    0.005915
  C     -0.493569   -0.967011    1.038516
  C     -1.969127   -1.309674    0.807491
  C     -1.986399   -1.312905   -0.748996
  C     -1.603960   -2.533593    0.027644
  N     -0.147722   -2.076702    0.010390
  C     -0.516393   -0.970888   -1.013959
  H     -0.224671    2.097903    0.923287
  H     -0.245085    2.094431   -0.916276
  H     -0.048742   -1.012172    2.031352
  H     -2.848658   -1.088937    1.397365
  H     -2.878808   -1.094635   -1.320144
  H     -1.950844   -3.558230    0.033633
  H     -0.093719   -1.019796   -2.016249

 Total Charge           Charge          ....    0
 Multiplicity           Mult            ....    1
 Number of Electrons    NEL             ....   64
 Basis Dimension        Dim             ....  321

ORBITAL ENERGIES
----------------

  NO   OCC          E(Eh)            E(eV)
   0   2.0000     -20.571358      -559.7751
   1   2.0000     -15.562748      -423.4839
   2   2.0000     -11.295630      -307.3697
   3   2.0000     -11.286717      -307.1272
   4   2.0000     -11.272788      -306.7481
   5   2.0000     -11.272772      -306.7477
   6   2.0000     -11.269515      -306.6591
   7   2.0000     -11.250897      -306.1525
   8   2.0000     -11.250350      -306.1376
   9   2.0000      -1.418263       -38.5929
  10   2.0000      -1.324046       -36.0291
  11   2.0000      -1.059741       -28.8370
  12   2.0000      -0.981033       -26.6953
  13   2.0000      -0.967550       -26.3284
  14   2.0000      -0.909991       -24.7621
  15   2.0000      -0.792366       -21.5614
  16   2.0000      -0.768110       -20.9013
  17   2.0000      -0.728109       -19.8129
  18   2.0000      -0.705478       -19.1970
  19   2.0000      -0.679613       -18.4932
  20   2.0000      -0.674646       -18.3581
  21   2.0000      -0.618174       -16.8214
  22   2.0000      -0.589503       -16.0412
  23   2.0000      -0.562518       -15.3069
  24   2.0000      -0.514256       -13.9936
  25   2.0000      -0.501149       -13.6370
  26   2.0000      -0.487824       -13.2744
  27   2.0000      -0.455718       -12.4007
  28   2.0000      -0.433717       -11.8020
  29   2.0000      -0.431997       -11.7552
  30   2.0000      -0.385436       -10.4883
  31   2.0000      -0.362772        -9.8715
  32   0.0000       0.144367         3.9284
  33   0.0000       0.164165         4.4671
  34   0.0000       0.168168         4.5761
  35   0.0000       0.170682         4.6445
  36   0.0000       0.186070         5.0632

MULLIKEN ATOMIC CHARGES
-----------------------
   0 C :   -0.088434
   1 O :   -0.327087
   2 C :    0.072075
   3 C :    0.002756
   4 C :   -0.177596
   5 C :   -0.177611
   6 C :   -0.078610
   7 N :   -0.187125
   8 C :    0.002745
   9 H :    0.119469
  10 H :    0.119470
  11 H :    0.147609
  12 H :    0.138880
  13 H :    0.138877
  14 H :    0.146988
  15 H :    0.147594
Sum of atomic charges:    0.0000000

LOEWDIN ATOMIC CHARGES
----------------------
   0 C :   -0.232813
   1 O :    0.179144
   2 C :   -0.289344
   3 C :   -0.141228
   4 C :   -0.145992
   5 C :   -0.146000
   6 C :   -0.171430
   7 N :    0.157989
   8 C :   -0.141220
   9 H :    0.123300
  10 H :    0.123300
  11 H :    0.140072
  12 H :    0.137224
  13 H :    0.137222
  14 H :    0.129711
  15 H :    0.140065

  Mayer bond orders larger than 0.1
B(  0-C ,  1-O ) :   0.9031 B(  0-C ,  2-C ) :   0.9599 B(  0-C ,  9-H ) :   0.9094
B(  0-C , 10-H ) :   0.9094 B(  1-O ,  2-C ) :   0.8709 B(  2-C ,  3-C ) :   0.9463
B(  2-C ,  8-C ) :   0.9462 B(  3-C ,  4-C ) :   0.9239 B(  3-C ,  7-N ) :   0.9723
B(  3-C , 11-H ) :   0.8881 B(  4-C ,  5-C ) :   0.8361 B(  4-C ,  6-C ) :   0.9081
B(  4-C , 12-H ) :   0.9189 B(  5-C ,  6-C ) :   0.9081 B(  5-C ,  8-C ) :   0.9239
B(  5-C , 13-H ) :   0.9189 B(  6-C ,  7-N ) :   0.9400 B(  6-C , 14-H ) :   0.9041
B(  7-N ,  8-C ) :   0.9723 B(  8-C , 15-H ) :   0.8881

MP2 TOTAL ENERGY:     -399.924024497 Eh
FINAL SINGLE POINT ENERGY      -399.924024496553

DIPOLE MOMENT
-------------
                                X             Y             Z
Electronic contribution:      2.44264      -0.92563      -0.02539
Nuclear contribution   :     -3.79457       1.34737       0.03969
                        -----------------------------------------
Total Dipole Moment    :     -1.35193       0.42175       0.01430
                        -----------------------------------------
Magnitude (a.u.)       :      1.41626
Magnitude (Debye)      :      3.59985

                             ****ORCA TERMINATED NORMALLY****
TOTAL RUN TIME: 0 days 0 hours 16 minutes 51 seconds 550 msec
