                         Program Version 3.0.3 - RELEASE   -
|  1> ! RI-MP2 RIJK def2-TZVP def2-TZVP/C def2-TZVP/JK TIGHTSCF
|  2> % maxcore 2000
|  3> % mp2 density relaxed end
|  4> *xyz 0 1
|  5>  C       -0.3291116149     1.5249410868    -0.0589381585
|  6>  C       -0.2860493311     0.0138426920    -0.2975680576
|  7>  C        0.7071670845    -0.4507496591    -1.3504996593
|  8>  C        1.2238563079     0.4486275338    -2.3912962217
|  9>  O        2.0330724611     0.0920278744    -1.2622032565
| 10>  C        0.7129026207    -1.9479893368    -1.6536662723
| 11>  C        1.1412274604    -2.7890162053    -0.4465761485
| 12>  O       -0.5933616353    -2.2643569618    -2.1162514079
| 13>  C       -0.7074053922    -3.5104807642    -2.7629200557
| 14>  H        0.6758559874     1.9173018747     0.1216660673
| 15>  H       -0.7598245238     2.0607557062    -0.9104156464
| 16>  H       -0.9447510466     1.7538620939     0.8156373636
| 17>  H       -0.0317412406    -0.4867561933     0.6449035287
| 18>  H       -1.2729418429    -0.3621496014    -0.5868263200
| 19>  H        1.5453515155     0.0338361611    -3.3458898013
| 20>  H        0.9128730332     1.4897637549    -2.4237026912
| 21>  H        1.4395527676    -2.1128207209    -2.4657903250
| 22>  H        1.2900784719    -3.8360049628    -0.7242927462
| 23>  H        2.0890301741    -2.4084809812    -0.0551328047
| 24>  H        0.3887655090    -2.7503923754     0.3457537083
| 25>  H        0.0109135682    -3.6034301739    -3.5928832770
| 26>  H       -0.5553834704    -4.3585755327    -2.0803025416
| 27>  H       -1.7208590838    -3.5702224190    -3.1677703465
| 28> *
| 29>
| 30>                          ****END OF INPUT****

CARTESIAN COORDINATES (ANGSTROEM)
---------------------------------
  C     -0.329112    1.524941   -0.058938
  C     -0.286049    0.013843   -0.297568
  C      0.707167   -0.450750   -1.350500
  C      1.223856    0.448628   -2.391296
  O      2.033072    0.092028   -1.262203
  C      0.712903   -1.947989   -1.653666
  C      1.141227   -2.789016   -0.446576
  O     -0.593362   -2.264357   -2.116251
  C     -0.707405   -3.510481   -2.762920
  H      0.675856    1.917302    0.121666
  H     -0.759825    2.060756   -0.910416
  H     -0.944751    1.753862    0.815637
  H     -0.031741   -0.486756    0.644904
  H     -1.272942   -0.362150   -0.586826
  H      1.545352    0.033836   -3.345890
  H      0.912873    1.489764   -2.423703
  H      1.439553   -2.112821   -2.465790
  H      1.290078   -3.836005   -0.724293
  H      2.089030   -2.408481   -0.055133
  H      0.388766   -2.750392    0.345754
  H      0.010914   -3.603430   -3.592883
  H     -0.555383   -4.358576   -2.080303
  H     -1.720859   -3.570222   -3.167770

 Total Charge           Charge          ....    0
 Multiplicity           Mult            ....    1
 Number of Electrons    NEL             ....   72
 Basis Dimension        Dim             ....  363

ORBITAL ENERGIES
----------------

  NO   OCC          E(Eh)            E(eV)
   0   2.0000     -20.560652      -559.4838
   1   2.0000     -20.557452      -559.3967
   2   2.0000     -11.285280      -307.0881
   3   2.0000     -11.284617      -307.0700
   4   2.0000     -11.275018      -306.8088
   5   2.0000     -11.273821      -306.7763
   6   2.0000     -11.221366      -305.3489
   7   2.0000     -11.215530      -305.1901
   8   2.0000     -11.211284      -305.0745
   9   2.0000      -1.406587       -38.2752
  10   2.0000      -1.376579       -37.4586
  11   2.0000      -1.061378       -28.8816
  12   2.0000      -1.020334       -27.7647
  13   2.0000      -0.942169       -25.6377
  14   2.0000      -0.913660       -24.8619
  15   2.0000      -0.884730       -24.0747
  16   2.0000      -0.836673       -22.7670
  17   2.0000      -0.752757       -20.4836
  18   2.0000      -0.692299       -18.8384
  19   2.0000      -0.673704       -18.3324
  20   2.0000      -0.648454       -17.6453
  21   2.0000      -0.637653       -17.3514
  22   2.0000      -0.612429       -16.6651
  23   2.0000      -0.593525       -16.1506
  24   2.0000      -0.574601       -15.6357
  25   2.0000      -0.553723       -15.0676
  26   2.0000      -0.541413       -14.7326
  27   2.0000      -0.532533       -14.4910
  28   2.0000      -0.526121       -14.3165
  29   2.0000      -0.505702       -13.7609
  30   2.0000      -0.494603       -13.4588
  31   2.0000      -0.482861       -13.1393
  32   2.0000      -0.473802       -12.8928
  33   2.0000      -0.432808       -11.7773
  34   2.0000      -0.427948       -11.6450
  35   2.0000      -0.414009       -11.2657
  36   0.0000       0.139264         3.7896
  37   0.0000       0.152712         4.1555
  38   0.0000       0.161082         4.3833
  39   0.0000       0.180835         4.9208
  40   0.0000       0.189607         5.1595

MULLIKEN ATOMIC CHARGES
-----------------------
   0 C :   -0.422190
   1 C :   -0.241322
   2 C :    0.248454
   3 C :   -0.096282
   4 O :   -0.354730
   5 C :    0.099327
   6 C :   -0.468676
   7 O :   -0.306459
   8 C :   -0.227686
   9 H :    0.150552
  10 H :    0.123507
  11 H :    0.137082
  12 H :    0.114671
  13 H :    0.139141
  14 H :    0.110922
  15 H :    0.119370
  16 H :    0.071511
  17 H :    0.136322
  18 H :    0.156887
  19 H :    0.139860
  20 H :    0.111063
  21 H :    0.117441
  22 H :    0.141236
Sum of atomic charges:    0.0000000

LOEWDIN ATOMIC CHARGES
----------------------
   0 C :   -0.314797
   1 C :   -0.248941
   2 C :   -0.306764
   3 C :   -0.239443
   4 O :    0.162211
   5 C :   -0.314661
   6 C :   -0.292101
   7 O :    0.158857
   8 C :   -0.358018
   9 H :    0.127644
  10 H :    0.119254
  11 H :    0.122749
  12 H :    0.145615
  13 H :    0.150537
  14 H :    0.120224
  15 H :    0.121610
  16 H :    0.143582
  17 H :    0.122212
  18 H :    0.136039
  19 H :    0.125959
  20 H :    0.102562
  21 H :    0.101548
  22 H :    0.114123

  Mayer bond orders larger than 0.1
B(  0-C ,  1-C ) :   0.9173 B(  0-C ,  9-H ) :   0.9372 B(  0-C , 10-H ) :   0.9394
B(  0-C , 11-H ) :   0.9406 B(  1-C ,  2-C ) :   0.9205 B(  1-C , 12-H ) :   0.9250
B(  1-C , 13-H ) :   0.9293 B(  2-C ,  3-C ) :   0.9632 B(  2-C ,  4-O ) :   0.8129
B(  2-C ,  5-C ) :   0.8958 B(  3-C ,  4-O ) :   0.9044 B(  3-C , 14-H ) :   0.9019
B(  3-C , 15-H ) :   0.9139 B(  5-C ,  6-C ) :   0.8992 B(  5-C ,  7-O ) :   0.9563
B(  5-C , 16-H ) :   0.9278 B(  6-C , 17-H ) :   0.9354 B(  6-C , 18-H ) :   0.9330
B(  6-C , 19-H ) :   0.9371 B(  7-O ,  8-C ) :   0.9184 B(  8-C , 20-H ) :   0.9351
B(  8-C , 21-H ) :   0.9356 B(  8-C , 22-H ) :   0.9404

MP2 TOTAL ENERGY:     -424.694380589 Eh
FINAL SINGLE POINT ENERGY      -424.694380588821

DIPOLE MOMENT
-------------
                                X             Y             Z
Electronic contribution:      2.40437       1.51724      -2.05416
Nuclear contribution   :     -2.73394      -1.94258       1.72765
                        -----------------------------------------
Total Dipole Moment    :     -0.32957      -0.42534      -0.32651
                        -----------------------------------------
Magnitude (a.u.)       :      0.62939
Magnitude (Debye)      :      1.59979

                             ****ORCA TERMINATED NORMALLY****
TOTAL RUN TIME: 0 days 0 hours 20 minutes 8 seconds 973 msec
