                         Program Version 3.0.3 - RELEASE   -
|  1> ! RI-MP2 RIJK def2-TZVP def2-TZVP/C def2-TZVP/JK TIGHTSCF
|  2> % maxcore 2000
|  3> % mp2 density relaxed end
|  4> *xyz 0 1
|  5>  N       -0.0507378841    -1.0615676335    -0.4761890291
|  6>  C       -0.0060213305     0.0752401093    -0.2647082124
|  7>  C        0.0479652495     1.4865592626    -0.0062683060
|  8>  C        0.2329529943     1.9865159031     1.4180424267
|  9>  C        1.3579115350     2.1395003753     0.4362602307
| 10>  C        2.6090675637     1.3362619766     0.5740221644
| 11>  C        3.7750523295     1.6177686670    -0.2994115650
| 12>  N        3.8199379178     1.9600306191     1.1339620069
| 13>  H       -0.5898859423     2.0747248505    -0.6570187409
| 14>  H       -0.3390557956     2.8594849409     1.7097037766
| 15>  H        0.3409333469     1.2327534352     2.1896756535
| 16>  H        1.5088486777     3.1356411335     0.0265858649
| 17>  H        2.4558829574     0.3131233815     0.9101558541
| 18>  H        4.4366060430     0.8108827448    -0.5998670581
| 19>  H        3.6823370445     2.4205844351    -1.0270258237
| 20>  H        3.6700530536     2.9592724491     1.2566085174
| 21> *
| 22>
| 23>                          ****END OF INPUT****

CARTESIAN COORDINATES (ANGSTROEM)
---------------------------------
  N     -0.050738   -1.061568   -0.476189
  C     -0.006021    0.075240   -0.264708
  C      0.047965    1.486559   -0.006268
  C      0.232953    1.986516    1.418042
  C      1.357912    2.139500    0.436260
  C      2.609068    1.336262    0.574022
  C      3.775052    1.617769   -0.299412
  N      3.819938    1.960031    1.133962
  H     -0.589886    2.074725   -0.657019
  H     -0.339056    2.859485    1.709704
  H      0.340933    1.232753    2.189676
  H      1.508849    3.135641    0.026586
  H      2.455883    0.313123    0.910156
  H      4.436606    0.810883   -0.599867
  H      3.682337    2.420584   -1.027026
  H      3.670053    2.959272    1.256609

 Total Charge           Charge          ....    0
 Multiplicity           Mult            ....    1
 Number of Electrons    NEL             ....   58
 Basis Dimension        Dim             ....  296

ORBITAL ENERGIES
----------------

  NO   OCC          E(Eh)            E(eV)
   0   2.0000     -15.569652      -423.6718
   1   2.0000     -15.568527      -423.6412
   2   2.0000     -11.292566      -307.2864
   3   2.0000     -11.278308      -306.8984
   4   2.0000     -11.276686      -306.8542
   5   2.0000     -11.276443      -306.8476
   6   2.0000     -11.267353      -306.6003
   7   2.0000     -11.264812      -306.5311
   8   2.0000      -1.274705       -34.6865
   9   2.0000      -1.224633       -33.3239
  10   2.0000      -1.178983       -32.0818
  11   2.0000      -0.944854       -25.7108
  12   2.0000      -0.913533       -24.8585
  13   2.0000      -0.878154       -23.8958
  14   2.0000      -0.818527       -22.2732
  15   2.0000      -0.734097       -19.9758
  16   2.0000      -0.708133       -19.2693
  17   2.0000      -0.651991       -17.7416
  18   2.0000      -0.634436       -17.2639
  19   2.0000      -0.584846       -15.9145
  20   2.0000      -0.555336       -15.1114
  21   2.0000      -0.540349       -14.7036
  22   2.0000      -0.531985       -14.4760
  23   2.0000      -0.522019       -14.2049
  24   2.0000      -0.490078       -13.3357
  25   2.0000      -0.474807       -12.9201
  26   2.0000      -0.451429       -12.2840
  27   2.0000      -0.422671       -11.5015
  28   2.0000      -0.386491       -10.5170
  29   0.0000       0.119954         3.2641
  30   0.0000       0.138706         3.7744
  31   0.0000       0.149519         4.0686
  32   0.0000       0.163821         4.4578
  33   0.0000       0.175101         4.7647

MULLIKEN ATOMIC CHARGES
-----------------------
   0 N :   -0.057984
   1 C :   -0.217988
   2 C :   -0.008035
   3 C :   -0.245369
   4 C :   -0.114814
   5 C :   -0.048181
   6 C :   -0.182144
   7 N :   -0.348013
   8 H :    0.160506
   9 H :    0.150660
  10 H :    0.156203
  11 H :    0.132632
  12 H :    0.146922
  13 H :    0.132331
  14 H :    0.126133
  15 H :    0.217141
Sum of atomic charges:   -0.0000000

LOEWDIN ATOMIC CHARGES
----------------------
   0 N :    0.062002
   1 C :   -0.180576
   2 C :   -0.187380
   3 C :   -0.166575
   4 C :   -0.182467
   5 C :   -0.258638
   6 C :   -0.257042
   7 N :   -0.012555
   8 H :    0.170403
   9 H :    0.138898
  10 H :    0.148249
  11 H :    0.157152
  12 H :    0.154519
  13 H :    0.127618
  14 H :    0.121798
  15 H :    0.164593

  Mayer bond orders larger than 0.1
B(  0-N ,  1-C ) :   2.8486 B(  1-C ,  2-C ) :   0.9783 B(  2-C ,  3-C ) :   0.8470
B(  2-C ,  4-C ) :   0.8321 B(  2-C ,  8-H ) :   0.9059 B(  3-C ,  4-C ) :   0.8801
B(  3-C ,  9-H ) :   0.9251 B(  3-C , 10-H ) :   0.9238 B(  4-C ,  5-C ) :   0.9713
B(  4-C , 11-H ) :   0.9012 B(  5-C ,  6-C ) :   0.9513 B(  5-C ,  7-N ) :   0.9605
B(  5-C , 12-H ) :   0.8886 B(  6-C ,  7-N ) :   0.9236 B(  6-C , 13-H ) :   0.9206
B(  6-C , 14-H ) :   0.9190 B(  7-N , 15-H ) :   0.8750

MP2 TOTAL ENERGY:     -342.146758703 Eh
FINAL SINGLE POINT ENERGY      -342.146758702970

DIPOLE MOMENT
-------------
                                X             Y             Z
Electronic contribution:     -2.99990      -3.82023      -1.14375
Nuclear contribution   :      2.82428       5.63781       1.11873
                        -----------------------------------------
Total Dipole Moment    :     -0.17562       1.81757      -0.02502
                        -----------------------------------------
Magnitude (a.u.)       :      1.82621
Magnitude (Debye)      :      4.64186

                             ****ORCA TERMINATED NORMALLY****
TOTAL RUN TIME: 0 days 0 hours 11 minutes 19 seconds 310 msec
