                         Program Version 3.0.3 - RELEASE   -
|  1> ! RI-MP2 RIJK def2-TZVP def2-TZVP/C def2-TZVP/JK TIGHTSCF
|  2> % maxcore 2000
|  3> % mp2 density relaxed end
|  4> *xyz 0 1
|  5>  O       -0.0328707471    -0.0170708802    -0.0026949776
|  6>  C        0.0214949341     1.1820892846     0.0072453807
|  7>  C        1.2916058543     1.9773389260     0.0007675986
|  8>  C        1.2355328334     3.3339373124     0.0130036906
|  9>  C        2.4694587277     4.0951008859     0.0066236895
| 10>  O        2.6183850185     5.2971931409     0.0150320508
| 11>  N        3.5718561389     3.2169717778    -0.0127268307
| 12>  N        3.5791815219     1.8750844265    -0.0242727840
| 13>  N        2.4724624495     1.2498539137    -0.0178994354
| 14>  H       -0.8913630542     1.8171736947     0.0224762300
| 15>  H        0.2956819277     3.8752106930     0.0275283603
| 16>  H        4.4966965054     3.6309928347    -0.0190556929
| 17> *
| 18>
| 19>                          ****END OF INPUT****

CARTESIAN COORDINATES (ANGSTROEM)
---------------------------------
  O     -0.032871   -0.017071   -0.002695
  C      0.021495    1.182089    0.007245
  C      1.291606    1.977339    0.000768
  C      1.235533    3.333937    0.013004
  C      2.469459    4.095101    0.006624
  O      2.618385    5.297193    0.015032
  N      3.571856    3.216972   -0.012727
  N      3.579182    1.875084   -0.024273
  N      2.472462    1.249854   -0.017899
  H     -0.891363    1.817174    0.022476
  H      0.295682    3.875211    0.027528
  H      4.496697    3.630993   -0.019056

 Total Charge           Charge          ....    0
 Multiplicity           Mult            ....    1
 Number of Electrons    NEL             ....   64
 Basis Dimension        Dim             ....  297

ORBITAL ENERGIES
----------------

  NO   OCC          E(Eh)            E(eV)
   0   2.0000     -20.591785      -560.3309
   1   2.0000     -20.561808      -559.5152
   2   2.0000     -15.724971      -427.8982
   3   2.0000     -15.683486      -426.7693
   4   2.0000     -15.648057      -425.8053
   5   2.0000     -11.402864      -310.2877
   6   2.0000     -11.367321      -309.3205
   7   2.0000     -11.338167      -308.5272
   8   2.0000     -11.304113      -307.6006
   9   2.0000      -1.472462       -40.0677
  10   2.0000      -1.429587       -38.9010
  11   2.0000      -1.414597       -38.4931
  12   2.0000      -1.260487       -34.2996
  13   2.0000      -1.160047       -31.5665
  14   2.0000      -0.991190       -26.9716
  15   2.0000      -0.973500       -26.4903
  16   2.0000      -0.857756       -23.3407
  17   2.0000      -0.809304       -22.0223
  18   2.0000      -0.771611       -20.9966
  19   2.0000      -0.721397       -19.6302
  20   2.0000      -0.682115       -18.5613
  21   2.0000      -0.676526       -18.4092
  22   2.0000      -0.668216       -18.1831
  23   2.0000      -0.646954       -17.6045
  24   2.0000      -0.588027       -16.0010
  25   2.0000      -0.580954       -15.8086
  26   2.0000      -0.563745       -15.3403
  27   2.0000      -0.494128       -13.4459
  28   2.0000      -0.475676       -12.9438
  29   2.0000      -0.472182       -12.8487
  30   2.0000      -0.444384       -12.0923
  31   2.0000      -0.397015       -10.8033
  32   0.0000       0.015929         0.4335
  33   0.0000       0.075750         2.0613
  34   0.0000       0.131560         3.5799
  35   0.0000       0.142020         3.8646
  36   0.0000       0.169121         4.6020

MULLIKEN ATOMIC CHARGES
-----------------------
   0 O :   -0.212636
   1 C :    0.035419
   2 C :    0.131692
   3 C :   -0.166103
   4 C :    0.212006
   5 O :   -0.318715
   6 N :   -0.087054
   7 N :   -0.068571
   8 N :   -0.077403
   9 H :    0.099222
  10 H :    0.174512
  11 H :    0.277632
Sum of atomic charges:   -0.0000000

LOEWDIN ATOMIC CHARGES
----------------------
   0 O :    0.178477
   1 C :   -0.261086
   2 C :   -0.231543
   3 C :   -0.055871
   4 C :   -0.446176
   5 O :    0.110711
   6 N :    0.130293
   7 N :    0.004746
   8 N :    0.079200
   9 H :    0.120676
  10 H :    0.166537
  11 H :    0.204035

  Mayer bond orders larger than 0.1
B(  0-O ,  1-C ) :   2.0338 B(  1-C ,  2-C ) :   0.8040 B(  1-C ,  9-H ) :   0.9795
B(  2-C ,  3-C ) :   1.4052 B(  2-C ,  8-N ) :   1.2042 B(  2-C ,  9-H ) :  -0.1140
B(  3-C ,  4-C ) :   1.0294 B(  3-C , 10-H ) :   0.9064 B(  4-C ,  5-O ) :   1.9629
B(  4-C ,  6-N ) :   1.0495 B(  6-N ,  7-N ) :   1.0267 B(  6-N , 11-H ) :   0.8495
B(  7-N ,  8-N ) :   1.3754

MP2 TOTAL ENERGY:     -468.043824416 Eh
FINAL SINGLE POINT ENERGY      -468.043824416023

DIPOLE MOMENT
-------------
                                X             Y             Z
Electronic contribution:      1.59269      -0.99180      -0.02511
Nuclear contribution   :     -1.74590       1.77322       0.03368
                        -----------------------------------------
Total Dipole Moment    :     -0.15321       0.78142       0.00857
                        -----------------------------------------
Magnitude (a.u.)       :      0.79634
Magnitude (Debye)      :      2.02414

                             ****ORCA TERMINATED NORMALLY****
TOTAL RUN TIME: 0 days 0 hours 13 minutes 17 seconds 385 msec
