                         Program Version 3.0.3 - RELEASE   -
|  1> ! RI-MP2 RIJK def2-TZVP def2-TZVP/C def2-TZVP/JK TIGHTSCF
|  2> % maxcore 2000
|  3> % mp2 density relaxed end
|  4> *xyz 0 1
|  5>  C       -0.2426801875     1.5384083273     0.0207651454
|  6>  C        0.0022107923     0.0255602717    -0.0021640055
|  7>  C        0.8619484512    -0.4533309435    -1.2013300882
|  8>  C        1.6962333956    -1.6402511389    -0.6676115725
|  9>  C        1.7168173824    -1.4029134501     0.8334641099
| 10>  C        0.7861488436    -0.5055348871     1.1764114975
| 11>  C        2.6074000077    -2.1219027597     1.7645475409
| 12>  C        3.0731185455    -3.5407500439     1.4886812228
| 13>  C        4.0596875744    -2.4118271660     1.4233016885
| 14>  H        0.7055846760     2.0855285872     0.0668864001
| 15>  H       -0.7782420009     1.8653584762    -0.8773339350
| 16>  H       -0.8415488050     1.8320994719     0.8896863757
| 17>  H       -0.9821193629    -0.4698347048    -0.0325889039
| 18>  H        0.2638015503    -0.7110376808    -2.0798617738
| 19>  H        1.5366916976     0.3590638159    -1.4958239157
| 20>  H        1.2155956273    -2.6036320961    -0.8909694709
| 21>  H        2.6945290447    -1.6854319822    -1.1178210641
| 22>  H        0.5725955195    -0.2022629968     2.1972264498
| 23>  H        2.4228135945    -1.8920877395     2.8099729319
| 24>  H        3.1202222847    -4.2264990202     2.3272784481
| 25>  H        2.7662237467    -4.0001739463     0.5558162681
| 26>  H        4.4245301754    -2.1085608101     0.4484566330
| 27>  H        4.7876875967    -2.3105540442     2.2205008681
| 28> *
| 29>
| 30>                          ****END OF INPUT****

CARTESIAN COORDINATES (ANGSTROEM)
---------------------------------
  C     -0.242680    1.538408    0.020765
  C      0.002211    0.025560   -0.002164
  C      0.861948   -0.453331   -1.201330
  C      1.696233   -1.640251   -0.667612
  C      1.716817   -1.402913    0.833464
  C      0.786149   -0.505535    1.176411
  C      2.607400   -2.121903    1.764548
  C      3.073119   -3.540750    1.488681
  C      4.059688   -2.411827    1.423302
  H      0.705585    2.085529    0.066886
  H     -0.778242    1.865358   -0.877334
  H     -0.841549    1.832099    0.889686
  H     -0.982119   -0.469835   -0.032589
  H      0.263802   -0.711038   -2.079862
  H      1.536692    0.359064   -1.495824
  H      1.215596   -2.603632   -0.890969
  H      2.694529   -1.685432   -1.117821
  H      0.572596   -0.202263    2.197226
  H      2.422814   -1.892088    2.809973
  H      3.120222   -4.226499    2.327278
  H      2.766224   -4.000174    0.555816
  H      4.424530   -2.108561    0.448457
  H      4.787688   -2.310554    2.220501

 Total Charge           Charge          ....    0
 Multiplicity           Mult            ....    1
 Number of Electrons    NEL             ....   68
 Basis Dimension        Dim             ....  363

ORBITAL ENERGIES
----------------

  NO   OCC          E(Eh)            E(eV)
   0   2.0000     -11.232690      -305.6570
   1   2.0000     -11.225868      -305.4714
   2   2.0000     -11.225115      -305.4509
   3   2.0000     -11.225094      -305.4503
   4   2.0000     -11.222287      -305.3740
   5   2.0000     -11.220270      -305.3191
   6   2.0000     -11.214389      -305.1590
   7   2.0000     -11.208045      -304.9864
   8   2.0000     -11.205483      -304.9167
   9   2.0000      -1.154900       -31.4264
  10   2.0000      -1.116070       -30.3698
  11   2.0000      -1.004027       -27.3210
  12   2.0000      -0.964137       -26.2355
  13   2.0000      -0.884550       -24.0698
  14   2.0000      -0.828131       -22.5346
  15   2.0000      -0.821393       -22.3512
  16   2.0000      -0.757882       -20.6230
  17   2.0000      -0.709147       -19.2969
  18   2.0000      -0.671474       -18.2717
  19   2.0000      -0.649496       -17.6737
  20   2.0000      -0.623922       -16.9778
  21   2.0000      -0.579611       -15.7720
  22   2.0000      -0.566279       -15.4092
  23   2.0000      -0.555047       -15.1036
  24   2.0000      -0.519921       -14.1478
  25   2.0000      -0.517763       -14.0890
  26   2.0000      -0.504948       -13.7403
  27   2.0000      -0.484591       -13.1864
  28   2.0000      -0.472474       -12.8567
  29   2.0000      -0.464548       -12.6410
  30   2.0000      -0.451976       -12.2989
  31   2.0000      -0.438688       -11.9373
  32   2.0000      -0.419972       -11.4280
  33   2.0000      -0.314072        -8.5463
  34   0.0000       0.140474         3.8225
  35   0.0000       0.152221         4.1422
  36   0.0000       0.161165         4.3855
  37   0.0000       0.167049         4.5456
  38   0.0000       0.171070         4.6550

MULLIKEN ATOMIC CHARGES
-----------------------
   0 C :   -0.415057
   1 C :    0.073239
   2 C :   -0.266818
   3 C :   -0.207074
   4 C :    0.046700
   5 C :   -0.314800
   6 C :   -0.075486
   7 C :   -0.263604
   8 C :   -0.264083
   9 H :    0.124151
  10 H :    0.128907
  11 H :    0.126583
  12 H :    0.088738
  13 H :    0.121037
  14 H :    0.105068
  15 H :    0.112862
  16 H :    0.120915
  17 H :    0.115575
  18 H :    0.117228
  19 H :    0.130702
  20 H :    0.133313
  21 H :    0.131296
  22 H :    0.130609
Sum of atomic charges:    0.0000000

LOEWDIN ATOMIC CHARGES
----------------------
   0 C :   -0.297309
   1 C :   -0.260387
   2 C :   -0.215802
   3 C :   -0.209932
   4 C :   -0.150386
   5 C :   -0.120211
   6 C :   -0.188445
   7 C :   -0.220546
   8 C :   -0.221049
   9 H :    0.122176
  10 H :    0.122220
  11 H :    0.121580
  12 H :    0.152089
  13 H :    0.130527
  14 H :    0.139814
  15 H :    0.140715
  16 H :    0.135300
  17 H :    0.138305
  18 H :    0.154645
  19 H :    0.130898
  20 H :    0.133256
  21 H :    0.131418
  22 H :    0.131125

  Mayer bond orders larger than 0.1
B(  0-C ,  1-C ) :   0.8972 B(  0-C ,  9-H ) :   0.9353 B(  0-C , 10-H ) :   0.9393
B(  0-C , 11-H ) :   0.9402 B(  1-C ,  2-C ) :   0.9395 B(  1-C ,  5-C ) :   0.9186
B(  1-C , 12-H ) :   0.9119 B(  2-C ,  3-C ) :   0.9543 B(  2-C , 13-H ) :   0.9343
B(  2-C , 14-H ) :   0.9244 B(  3-C ,  4-C ) :   0.8895 B(  3-C , 15-H ) :   0.9007
B(  3-C , 16-H ) :   0.9355 B(  4-C ,  5-C ) :   1.7246 B(  4-C ,  6-C ) :   0.9483
B(  5-C , 17-H ) :   0.9223 B(  6-C ,  7-C ) :   0.8318 B(  6-C ,  8-C ) :   0.8477
B(  6-C , 18-H ) :   0.9395 B(  7-C ,  8-C ) :   0.8979 B(  7-C , 19-H ) :   0.9293
B(  7-C , 20-H ) :   0.9328 B(  8-C , 21-H ) :   0.9344 B(  8-C , 22-H ) :   0.9308

MP2 TOTAL ENERGY:     -350.508515371 Eh
FINAL SINGLE POINT ENERGY      -350.508515371129

DIPOLE MOMENT
-------------
                                X             Y             Z
Electronic contribution:      0.66324      -2.01749       2.07329
Nuclear contribution   :     -0.61566       1.89604      -2.07572
                        -----------------------------------------
Total Dipole Moment    :      0.04758      -0.12145      -0.00243
                        -----------------------------------------
Magnitude (a.u.)       :      0.13046
Magnitude (Debye)      :      0.33161

                             ****ORCA TERMINATED NORMALLY****
TOTAL RUN TIME: 0 days 0 hours 20 minutes 59 seconds 158 msec
