                         Program Version 3.0.3 - RELEASE   -
|  1> ! RI-MP2 RIJK def2-TZVP def2-TZVP/C def2-TZVP/JK TIGHTSCF
|  2> % maxcore 2000
|  3> % mp2 density relaxed end
|  4> *xyz 0 1
|  5>  N       -0.3007507174     1.1877006222     0.1960686007
|  6>  C       -0.1191380219    -0.0432054279    -0.0393583975
|  7>  O        1.0813471985    -0.6989135080     0.0258833974
|  8>  C        0.8600404118    -2.1142703239     0.0830259781
|  9>  C       -0.6032507993    -2.3084822946    -0.3816233683
| 10>  C       -1.5663082024    -3.0031437838     0.5516935831
| 11>  C       -2.5749577631    -2.1954194539     0.8725326447
| 12>  C       -2.4342150500    -0.8443866577     0.2117750951
| 13>  N       -1.1123661698    -0.9309328526    -0.4215399497
| 14>  H        0.5701824688     1.6168774373     0.5003161412
| 15>  H        1.5857531656    -2.6020493362    -0.5713285711
| 16>  H        1.0143057411    -2.4612940196     1.1117089077
| 17>  H       -0.6225244523    -2.7728983704    -1.3782887758
| 18>  H       -1.4435556034    -4.0344302770     0.8587533075
| 19>  H       -3.4207928442    -2.4503831095     1.4992961183
| 20>  H       -3.2267504174    -0.6736096650    -0.5298248507
| 21>  H       -2.4515213147     0.0030209308     0.9055785293
| 22> *
| 23>
| 24>                          ****END OF INPUT****

CARTESIAN COORDINATES (ANGSTROEM)
---------------------------------
  N     -0.300751    1.187701    0.196069
  C     -0.119138   -0.043205   -0.039358
  O      1.081347   -0.698914    0.025883
  C      0.860040   -2.114270    0.083026
  C     -0.603251   -2.308482   -0.381623
  C     -1.566308   -3.003144    0.551694
  C     -2.574958   -2.195419    0.872533
  C     -2.434215   -0.844387    0.211775
  N     -1.112366   -0.930933   -0.421540
  H      0.570182    1.616877    0.500316
  H      1.585753   -2.602049   -0.571329
  H      1.014306   -2.461294    1.111709
  H     -0.622524   -2.772898   -1.378289
  H     -1.443556   -4.034430    0.858753
  H     -3.420793   -2.450383    1.499296
  H     -3.226750   -0.673610   -0.529825
  H     -2.451521    0.003021    0.905579

 Total Charge           Charge          ....    0
 Multiplicity           Mult            ....    1
 Number of Electrons    NEL             ....   66
 Basis Dimension        Dim             ....  327

ORBITAL ENERGIES
----------------

  NO   OCC          E(Eh)            E(eV)
   0   2.0000     -20.595798      -560.4402
   1   2.0000     -15.577566      -423.8871
   2   2.0000     -15.511840      -422.0986
   3   2.0000     -11.358015      -309.0673
   4   2.0000     -11.301873      -307.5396
   5   2.0000     -11.285698      -307.0994
   6   2.0000     -11.269731      -306.6650
   7   2.0000     -11.248296      -306.0817
   8   2.0000     -11.244680      -305.9833
   9   2.0000      -1.442739       -39.2589
  10   2.0000      -1.269631       -34.5484
  11   2.0000      -1.184408       -32.2294
  12   2.0000      -1.071356       -29.1531
  13   2.0000      -1.027444       -27.9582
  14   2.0000      -0.942743       -25.6533
  15   2.0000      -0.851151       -23.1610
  16   2.0000      -0.783932       -21.3319
  17   2.0000      -0.768898       -20.9228
  18   2.0000      -0.717471       -19.5234
  19   2.0000      -0.682482       -18.5713
  20   2.0000      -0.662201       -18.0194
  21   2.0000      -0.645435       -17.5632
  22   2.0000      -0.616530       -16.7766
  23   2.0000      -0.580732       -15.8025
  24   2.0000      -0.575617       -15.6633
  25   2.0000      -0.552075       -15.0227
  26   2.0000      -0.542360       -14.7584
  27   2.0000      -0.519799       -14.1444
  28   2.0000      -0.504426       -13.7261
  29   2.0000      -0.435335       -11.8461
  30   2.0000      -0.426297       -11.6001
  31   2.0000      -0.373707       -10.1691
  32   2.0000      -0.357168        -9.7190
  33   0.0000       0.132243         3.5985
  34   0.0000       0.147190         4.0052
  35   0.0000       0.161904         4.4056
  36   0.0000       0.165596         4.5061
  37   0.0000       0.173415         4.7189

MULLIKEN ATOMIC CHARGES
-----------------------
   0 N :   -0.437741
   1 C :    0.196322
   2 O :   -0.267689
   3 C :   -0.025355
   4 C :    0.024819
   5 C :   -0.232070
   6 C :   -0.176540
   7 C :   -0.090197
   8 N :   -0.117627
   9 H :    0.226108
  10 H :    0.119728
  11 H :    0.105135
  12 H :    0.113908
  13 H :    0.140755
  14 H :    0.140189
  15 H :    0.125642
  16 H :    0.154611
Sum of atomic charges:    0.0000000

LOEWDIN ATOMIC CHARGES
----------------------
   0 N :   -0.097496
   1 C :   -0.481989
   2 O :    0.225983
   3 C :   -0.239849
   4 C :   -0.230665
   5 C :   -0.146326
   6 C :   -0.147829
   7 C :   -0.222959
   8 N :    0.200439
   9 H :    0.168551
  10 H :    0.127366
  11 H :    0.127211
  12 H :    0.149139
  13 H :    0.141616
  14 H :    0.141489
  15 H :    0.138000
  16 H :    0.147320

  Mayer bond orders larger than 0.1
B(  0-N ,  1-C ) :   1.9609 B(  0-N ,  9-H ) :   0.8542 B(  1-C ,  2-O ) :   1.0730
B(  1-C ,  8-N ) :   1.0844 B(  2-O ,  3-C ) :   0.8983 B(  3-C ,  4-C ) :   0.9378
B(  3-C , 10-H ) :   0.9233 B(  3-C , 11-H ) :   0.9139 B(  4-C ,  5-C ) :   0.9383
B(  4-C ,  8-N ) :   0.9576 B(  4-C , 12-H ) :   0.9051 B(  5-C ,  6-C ) :   1.7918
B(  5-C , 13-H ) :   0.9193 B(  6-C ,  7-C ) :   0.9536 B(  6-C , 14-H ) :   0.9213
B(  7-C ,  8-N ) :   0.9084 B(  7-C , 15-H ) :   0.9126 B(  7-C , 16-H ) :   0.9135

MP2 TOTAL ENERGY:     -417.319269781 Eh
FINAL SINGLE POINT ENERGY      -417.319269780786

DIPOLE MOMENT
-------------
                                X             Y             Z
Electronic contribution:      2.05546       2.13968      -1.03444
Nuclear contribution   :     -2.16132      -3.62139       1.32132
                        -----------------------------------------
Total Dipole Moment    :     -0.10586      -1.48171       0.28688
                        -----------------------------------------
Magnitude (a.u.)       :      1.51294
Magnitude (Debye)      :      3.84559

                             ****ORCA TERMINATED NORMALLY****
TOTAL RUN TIME: 0 days 0 hours 16 minutes 24 seconds 284 msec
