                         Program Version 3.0.3 - RELEASE   -
|  1> ! RI-MP2 RIJK def2-TZVP def2-TZVP/C def2-TZVP/JK TIGHTSCF
|  2> % maxcore 2000
|  3> % mp2 density relaxed end
|  4> *xyz 0 1
|  5>  O        0.1583393552    -0.0070422201     0.5362290111
|  6>  C       -0.0145207781     1.1161689066     0.1607278729
|  7>  C        1.1116684848     1.9504089962    -0.3002129251
|  8>  N        2.0094355017     2.6048826232    -0.6198796003
|  9>  C       -1.3864352720     1.8404600236     0.1257907248
| 10>  C       -1.6471445696     2.2832256043    -1.2461674264
| 11>  C       -1.8242983323     2.6310632788    -2.3809767764
| 12>  C       -2.4501876491     1.0091600684     0.6782790920
| 13>  C       -3.3257520887     0.3345767645     1.1431347335
| 14>  H       -1.2570275751     2.7349802462     0.7572612994
| 15>  H       -1.9905981243     2.9447545993    -3.3826115284
| 16>  H       -4.1012495925    -0.2666611111     1.5506091928
| 17> *
| 18>
| 19>                          ****END OF INPUT****

CARTESIAN COORDINATES (ANGSTROEM)
---------------------------------
  O      0.158339   -0.007042    0.536229
  C     -0.014521    1.116169    0.160728
  C      1.111668    1.950409   -0.300213
  N      2.009436    2.604883   -0.619880
  C     -1.386435    1.840460    0.125791
  C     -1.647145    2.283226   -1.246167
  C     -1.824298    2.631063   -2.380977
  C     -2.450188    1.009160    0.678279
  C     -3.325752    0.334577    1.143135
  H     -1.257028    2.734980    0.757261
  H     -1.990598    2.944755   -3.382612
  H     -4.101250   -0.266661    1.550609

 Total Charge           Charge          ....    0
 Multiplicity           Mult            ....    1
 Number of Electrons    NEL             ....   60
 Basis Dimension        Dim             ....  297

ORBITAL ENERGIES
----------------

  NO   OCC          E(Eh)            E(eV)
   0   2.0000     -20.618462      -561.0569
   1   2.0000     -15.618708      -425.0067
   2   2.0000     -11.417720      -310.6920
   3   2.0000     -11.342791      -308.6530
   4   2.0000     -11.306653      -307.6697
   5   2.0000     -11.271318      -306.7082
   6   2.0000     -11.263451      -306.4941
   7   2.0000     -11.262859      -306.4780
   8   2.0000     -11.255162      -306.2685
   9   2.0000      -1.463713       -39.8297
  10   2.0000      -1.254240       -34.1296
  11   2.0000      -1.157673       -31.5019
  12   2.0000      -1.052166       -28.6309
  13   2.0000      -1.021421       -27.7943
  14   2.0000      -0.937052       -25.4985
  15   2.0000      -0.785543       -21.3757
  16   2.0000      -0.759147       -20.6574
  17   2.0000      -0.741235       -20.1700
  18   2.0000      -0.706801       -19.2330
  19   2.0000      -0.698728       -19.0134
  20   2.0000      -0.676501       -18.4085
  21   2.0000      -0.603644       -16.4260
  22   2.0000      -0.591887       -16.1061
  23   2.0000      -0.515085       -14.0162
  24   2.0000      -0.504202       -13.7200
  25   2.0000      -0.498567       -13.5667
  26   2.0000      -0.438854       -11.9418
  27   2.0000      -0.431992       -11.7551
  28   2.0000      -0.414714       -11.2849
  29   2.0000      -0.413523       -11.2525
  30   0.0000       0.049475         1.3463
  31   0.0000       0.109321         2.9748
  32   0.0000       0.135829         3.6961
  33   0.0000       0.144028         3.9192
  34   0.0000       0.148679         4.0458

MULLIKEN ATOMIC CHARGES
-----------------------
   0 O :   -0.190678
   1 C :    0.321972
   2 C :   -0.156097
   3 N :   -0.028031
   4 C :   -0.256651
   5 C :   -0.047785
   6 C :   -0.118317
   7 C :   -0.033070
   8 C :   -0.079733
   9 H :    0.176861
  10 H :    0.205863
  11 H :    0.205665
Sum of atomic charges:   -0.0000000

LOEWDIN ATOMIC CHARGES
----------------------
   0 O :    0.246389
   1 C :   -0.270713
   2 C :   -0.128451
   3 N :    0.113342
   4 C :   -0.194627
   5 C :   -0.069175
   6 C :   -0.050850
   7 C :   -0.065744
   8 C :   -0.053515
   9 H :    0.206652
  10 H :    0.134064
  11 H :    0.132630

  Mayer bond orders larger than 0.1
B(  0-O ,  1-C ) :   2.0238 B(  0-O ,  4-C ) :  -0.1092 B(  1-C ,  2-C ) :   0.9083
B(  1-C ,  4-C ) :   0.8583 B(  2-C ,  3-N ) :   2.7827 B(  4-C ,  5-C ) :   1.0369
B(  4-C ,  7-C ) :   1.1686 B(  4-C ,  8-C ) :  -0.1110 B(  4-C ,  9-H ) :   0.9006
B(  5-C ,  6-C ) :   2.6030 B(  6-C , 10-H ) :   0.8925 B(  7-C ,  8-C ) :   2.6000
B(  8-C , 11-H ) :   0.8741

MP2 TOTAL ENERGY:     -397.568981368 Eh
FINAL SINGLE POINT ENERGY      -397.568981368075

DIPOLE MOMENT
-------------
                                X             Y             Z
Electronic contribution:      3.49156      -0.63451       0.49089
Nuclear contribution   :     -4.67167       0.83380      -0.44605
                        -----------------------------------------
Total Dipole Moment    :     -1.18012       0.19929       0.04484
                        -----------------------------------------
Magnitude (a.u.)       :      1.19766
Magnitude (Debye)      :      3.04422

                             ****ORCA TERMINATED NORMALLY****
TOTAL RUN TIME: 0 days 0 hours 12 minutes 24 seconds 287 msec
