                         Program Version 3.0.3 - RELEASE   -
|  1> ! RI-MP2 RIJK def2-TZVP def2-TZVP/C def2-TZVP/JK TIGHTSCF
|  2> % maxcore 2000
|  3> % mp2 density relaxed end
|  4> *xyz 0 1
|  5>  O        0.1844520879     1.4148470215    -0.2018220362
|  6>  C        0.0863927186    -0.0009231461    -0.0244763983
|  7>  C        0.8320989142    -0.4654837302     1.1986764019
|  8>  C        0.1882470374    -1.1703587250     2.1289085383
|  9>  C       -1.2619051570    -1.4991098002     1.9335280685
| 10>  C       -1.7333458691    -1.8912148228     0.4988851319
| 11>  O       -3.0918590502    -1.4203274000     0.8264611742
| 12>  C       -2.1781969461    -0.3858551315     1.3470310068
| 13>  C       -1.3718598845    -0.4570070278     0.0149558796
| 14>  H       -0.1156014739     1.8264434964     0.6164199631
| 15>  H        0.5583868949    -0.4119681572    -0.9268652746
| 16>  H        1.8780739951    -0.1887446265     1.2866737418
| 17>  H        0.6867659698    -1.5205751324     3.0278022296
| 18>  H       -1.7246500356    -2.0841466770     2.7283058913
| 19>  H       -1.6358152253    -2.8476364871    -0.0167666709
| 20>  H       -2.6210195739     0.4736994928     1.8530733073
| 21>  H       -1.9391778422    -0.1262620368    -0.8566684943
| 22> *
| 23>
| 24>                          ****END OF INPUT****

CARTESIAN COORDINATES (ANGSTROEM)
---------------------------------
  O      0.184452    1.414847   -0.201822
  C      0.086393   -0.000923   -0.024476
  C      0.832099   -0.465484    1.198676
  C      0.188247   -1.170359    2.128909
  C     -1.261905   -1.499110    1.933528
  C     -1.733346   -1.891215    0.498885
  O     -3.091859   -1.420327    0.826461
  C     -2.178197   -0.385855    1.347031
  C     -1.371860   -0.457007    0.014956
  H     -0.115601    1.826443    0.616420
  H      0.558387   -0.411968   -0.926865
  H      1.878074   -0.188745    1.286674
  H      0.686766   -1.520575    3.027802
  H     -1.724650   -2.084147    2.728306
  H     -1.635815   -2.847636   -0.016767
  H     -2.621020    0.473699    1.853073
  H     -1.939178   -0.126262   -0.856668

 Total Charge           Charge          ....    0
 Multiplicity           Mult            ....    1
 Number of Electrons    NEL             ....   66
 Basis Dimension        Dim             ....  327

ORBITAL ENERGIES
----------------

  NO   OCC          E(Eh)            E(eV)
   0   2.0000     -20.563738      -559.5677
   1   2.0000     -20.554473      -559.3157
   2   2.0000     -11.307570      -307.6946
   3   2.0000     -11.306635      -307.6692
   4   2.0000     -11.294732      -307.3453
   5   2.0000     -11.252303      -306.1907
   6   2.0000     -11.246860      -306.0426
   7   2.0000     -11.246708      -306.0385
   8   2.0000     -11.238616      -305.8183
   9   2.0000      -1.404218       -38.2107
  10   2.0000      -1.367863       -37.2214
  11   2.0000      -1.137588       -30.9553
  12   2.0000      -1.028551       -27.9883
  13   2.0000      -0.995223       -27.0814
  14   2.0000      -0.891544       -24.2602
  15   2.0000      -0.860907       -23.4265
  16   2.0000      -0.813884       -22.1469
  17   2.0000      -0.721411       -19.6306
  18   2.0000      -0.707391       -19.2491
  19   2.0000      -0.682294       -18.5662
  20   2.0000      -0.643119       -17.5002
  21   2.0000      -0.626181       -17.0393
  22   2.0000      -0.621769       -16.9192
  23   2.0000      -0.568254       -15.4630
  24   2.0000      -0.558201       -15.1894
  25   2.0000      -0.526966       -14.3395
  26   2.0000      -0.521361       -14.1870
  27   2.0000      -0.496527       -13.5112
  28   2.0000      -0.489822       -13.3287
  29   2.0000      -0.458298       -12.4709
  30   2.0000      -0.439177       -11.9506
  31   2.0000      -0.408408       -11.1133
  32   2.0000      -0.363956        -9.9037
  33   0.0000       0.118368         3.2210
  34   0.0000       0.138363         3.7651
  35   0.0000       0.154372         4.2007
  36   0.0000       0.166801         4.5389
  37   0.0000       0.176393         4.7999

MULLIKEN ATOMIC CHARGES
-----------------------
   0 O :   -0.462064
   1 C :    0.094935
   2 C :   -0.168660
   3 C :   -0.274084
   4 C :    0.074016
   5 C :   -0.051282
   6 O :   -0.310946
   7 C :   -0.066378
   8 C :   -0.045982
   9 H :    0.311941
  10 H :    0.107752
  11 H :    0.133144
  12 H :    0.130806
  13 H :    0.129784
  14 H :    0.137550
  15 H :    0.137237
  16 H :    0.122235
Sum of atomic charges:   -0.0000000

LOEWDIN ATOMIC CHARGES
----------------------
   0 O :   -0.018094
   1 C :   -0.310987
   2 C :   -0.148535
   3 C :   -0.138021
   4 C :   -0.169140
   5 C :   -0.179078
   6 O :    0.135394
   7 C :   -0.187748
   8 C :   -0.159574
   9 H :    0.174485
  10 H :    0.155130
  11 H :    0.145287
  12 H :    0.144377
  13 H :    0.150723
  14 H :    0.126925
  15 H :    0.125238
  16 H :    0.153617

  Mayer bond orders larger than 0.1
B(  0-O ,  1-C ) :   0.8884 B(  0-O ,  9-H ) :   0.8408 B(  1-C ,  2-C ) :   0.9600
B(  1-C ,  8-C ) :   0.9102 B(  1-C , 10-H ) :   0.9122 B(  2-C ,  3-C ) :   1.7547
B(  2-C , 11-H ) :   0.9407 B(  3-C ,  4-C ) :   0.9117 B(  3-C , 12-H ) :   0.9248
B(  4-C ,  5-C ) :   0.8919 B(  4-C ,  7-C ) :   0.8769 B(  4-C , 13-H ) :   0.9170
B(  5-C ,  6-O ) :   0.9165 B(  5-C ,  8-C ) :   0.8836 B(  5-C , 14-H ) :   0.8832
B(  6-O ,  7-C ) :   0.9165 B(  7-C ,  8-C ) :   0.8872 B(  7-C , 15-H ) :   0.8862
B(  8-C , 16-H ) :   0.9314

MP2 TOTAL ENERGY:     -421.055486435 Eh
FINAL SINGLE POINT ENERGY      -421.055486435018

DIPOLE MOMENT
-------------
                                X             Y             Z
Electronic contribution:     -1.87725      -0.15307      -0.41126
Nuclear contribution   :      2.43666       0.00568       0.99160
                        -----------------------------------------
Total Dipole Moment    :      0.55941      -0.14739       0.58033
                        -----------------------------------------
Magnitude (a.u.)       :      0.81942
Magnitude (Debye)      :      2.08280

                             ****ORCA TERMINATED NORMALLY****
TOTAL RUN TIME: 0 days 0 hours 16 minutes 28 seconds 897 msec
