                         Program Version 3.0.3 - RELEASE   -
|  1> ! RI-MP2 RIJK def2-TZVP def2-TZVP/C def2-TZVP/JK TIGHTSCF
|  2> % maxcore 2000
|  3> % mp2 density relaxed end
|  4> *xyz 0 1
|  5>  C        0.0118355075     1.5572658686     0.0844297181
|  6>  C       -0.0386792824     0.0295949188     0.0115677929
|  7>  C        0.6724234422    -0.5075615522    -1.2364047062
|  8>  N        0.6670700495    -1.9595140526    -1.3104714263
|  9>  N        1.6687807838    -2.6565742292    -0.7260869368
| 10>  N        1.4125309909    -3.9223816391    -0.8856414799
| 11>  C        0.2445791400    -4.0495810570    -1.5695677501
| 12>  C       -0.2561243875    -2.7980486496    -1.8534796554
| 13>  C       -1.4800699350    -2.3513996058    -2.5790869742
| 14>  H        1.0452150387     1.9190755741     0.1148006981
| 15>  H       -0.4753394016     2.0160567858    -0.7832831920
| 16>  H       -0.4948818108     1.9233394639     0.9816029655
| 17>  H        0.4375744253    -0.4122318799     0.8932073558
| 18>  H       -1.0803277025    -0.3130869952     0.0120274852
| 19>  H        0.2084136233    -0.1145222816    -2.1467690274
| 20>  H        1.7216417949    -0.2014609461    -1.2362527722
| 21>  H       -0.1645597946    -5.0145966458    -1.8239374164
| 22>  H       -2.1544022224    -1.7737320028    -1.9370563030
| 23>  H       -1.2369250006    -1.7274218023    -3.4468443529
| 24>  H       -2.0312036486    -3.2218041120    -2.9413047928
| 25> *
| 26>
| 27>                          ****END OF INPUT****

CARTESIAN COORDINATES (ANGSTROEM)
---------------------------------
  C      0.011836    1.557266    0.084430
  C     -0.038679    0.029595    0.011568
  C      0.672423   -0.507562   -1.236405
  N      0.667070   -1.959514   -1.310471
  N      1.668781   -2.656574   -0.726087
  N      1.412531   -3.922382   -0.885641
  C      0.244579   -4.049581   -1.569568
  C     -0.256124   -2.798049   -1.853480
  C     -1.480070   -2.351400   -2.579087
  H      1.045215    1.919076    0.114801
  H     -0.475339    2.016057   -0.783283
  H     -0.494882    1.923339    0.981603
  H      0.437574   -0.412232    0.893207
  H     -1.080328   -0.313087    0.012027
  H      0.208414   -0.114522   -2.146769
  H      1.721642   -0.201461   -1.236253
  H     -0.164560   -5.014597   -1.823937
  H     -2.154402   -1.773732   -1.937056
  H     -1.236925   -1.727422   -3.446844
  H     -2.031204   -3.221804   -2.941305

 Total Charge           Charge          ....    0
 Multiplicity           Mult            ....    1
 Number of Electrons    NEL             ....   68
 Basis Dimension        Dim             ....  345

ORBITAL ENERGIES
----------------

  NO   OCC          E(Eh)            E(eV)
   0   2.0000     -15.645157      -425.7264
   1   2.0000     -15.623152      -425.1276
   2   2.0000     -15.584242      -424.0688
   3   2.0000     -11.283695      -307.0449
   4   2.0000     -11.281527      -306.9860
   5   2.0000     -11.252925      -306.2077
   6   2.0000     -11.239858      -305.8521
   7   2.0000     -11.238890      -305.8258
   8   2.0000     -11.229392      -305.5673
   9   2.0000      -1.424347       -38.7585
  10   2.0000      -1.213695       -33.0263
  11   2.0000      -1.096636       -29.8410
  12   2.0000      -1.065943       -29.0058
  13   2.0000      -0.979945       -26.6657
  14   2.0000      -0.957515       -26.0553
  15   2.0000      -0.844538       -22.9810
  16   2.0000      -0.827356       -22.5135
  17   2.0000      -0.775794       -21.1104
  18   2.0000      -0.700184       -19.0530
  19   2.0000      -0.655500       -17.8371
  20   2.0000      -0.652382       -17.7522
  21   2.0000      -0.614373       -16.7179
  22   2.0000      -0.595698       -16.2098
  23   2.0000      -0.591331       -16.0909
  24   2.0000      -0.577715       -15.7204
  25   2.0000      -0.561819       -15.2879
  26   2.0000      -0.555048       -15.1036
  27   2.0000      -0.522804       -14.2262
  28   2.0000      -0.507048       -13.7975
  29   2.0000      -0.496738       -13.5169
  30   2.0000      -0.493460       -13.4277
  31   2.0000      -0.425871       -11.5885
  32   2.0000      -0.389582       -10.6011
  33   2.0000      -0.340872        -9.2756
  34   0.0000       0.118554         3.2260
  35   0.0000       0.140243         3.8162
  36   0.0000       0.147180         4.0050
  37   0.0000       0.165813         4.5120
  38   0.0000       0.176864         4.8127

MULLIKEN ATOMIC CHARGES
-----------------------
   0 C :   -0.395692
   1 C :   -0.210787
   2 C :   -0.185302
   3 N :    0.144257
   4 N :   -0.182523
   5 N :   -0.171653
   6 C :   -0.138517
   7 C :    0.015039
   8 C :   -0.416247
   9 H :    0.133323
  10 H :    0.124660
  11 H :    0.143285
  12 H :    0.141383
  13 H :    0.112174
  14 H :    0.133059
  15 H :    0.159063
  16 H :    0.136781
  17 H :    0.148089
  18 H :    0.152256
  19 H :    0.157352
Sum of atomic charges:   -0.0000000

LOEWDIN ATOMIC CHARGES
----------------------
   0 C :   -0.315183
   1 C :   -0.289515
   2 C :   -0.246447
   3 N :    0.202726
   4 N :   -0.032888
   5 N :   -0.002616
   6 C :   -0.262872
   7 C :   -0.263742
   8 C :   -0.273045
   9 H :    0.124382
  10 H :    0.121438
  11 H :    0.125764
  12 H :    0.144006
  13 H :    0.135112
  14 H :    0.140714
  15 H :    0.149167
  16 H :    0.136171
  17 H :    0.132060
  18 H :    0.133734
  19 H :    0.141035

  Mayer bond orders larger than 0.1
B(  0-C ,  1-C ) :   0.9151 B(  0-C ,  9-H ) :   0.9371 B(  0-C , 10-H ) :   0.9362
B(  0-C , 11-H ) :   0.9385 B(  1-C ,  2-C ) :   0.9269 B(  1-C , 12-H ) :   0.9324
B(  1-C , 13-H ) :   0.9311 B(  2-C ,  3-N ) :   0.8458 B(  2-C , 14-H ) :   0.9261
B(  2-C , 15-H ) :   0.9162 B(  3-N ,  4-N ) :   0.9930 B(  3-N ,  7-C ) :   1.1944
B(  4-N ,  5-N ) :   1.2591 B(  4-N ,  7-C ) :   0.1112 B(  5-N ,  6-C ) :   1.3919
B(  6-C ,  7-C ) :   1.4329 B(  6-C , 16-H ) :   0.9418 B(  7-C ,  8-C ) :   0.8705
B(  8-C , 17-H ) :   0.9287 B(  8-C , 18-H ) :   0.9352 B(  8-C , 19-H ) :   0.9456

MP2 TOTAL ENERGY:     -398.652495784 Eh
FINAL SINGLE POINT ENERGY      -398.652495784029

DIPOLE MOMENT
-------------
                                X             Y             Z
Electronic contribution:      5.62839     -10.66015      -0.60226
Nuclear contribution   :     -7.08773      11.96575      -0.07959
                        -----------------------------------------
Total Dipole Moment    :     -1.45934       1.30560      -0.68185
                        -----------------------------------------
Magnitude (a.u.)       :      2.07345
Magnitude (Debye)      :      5.27029

                             ****ORCA TERMINATED NORMALLY****
TOTAL RUN TIME: 0 days 0 hours 17 minutes 58 seconds 822 msec
