                         Program Version 3.0.3 - RELEASE   -
|  1> ! RI-MP2 RIJK def2-TZVP def2-TZVP/C def2-TZVP/JK TIGHTSCF
|  2> % maxcore 2000
|  3> % mp2 density relaxed end
|  4> *xyz 0 1
|  5>  C       -0.0136165184     1.5641717304     0.1864047932
|  6>  C       -0.0216303644     0.0683519082    -0.0075580548
|  7>  C       -0.0600676447    -0.5550065255    -1.1957585316
|  8>  C       -0.1567224004     0.1349788814    -2.5335623326
|  9>  C       -0.0181303466    -2.0675807577    -1.3138788790
| 10>  C        0.4125003128    -2.7843707936    -0.0313309344
| 11>  C       -0.3128223361    -2.1834364778     1.1730836953
| 12>  C        0.0286272000    -0.6965461639     1.3024015888
| 13>  H        0.8181505389     1.8561858947     0.8412928913
| 14>  H        0.0852862865     2.1307956229    -0.7398565422
| 15>  H       -0.9301094528     1.8993513057     0.6905690065
| 16>  H       -0.3210238733     1.2107724864    -2.4666881458
| 17>  H        0.7523559103    -0.0310974870    -3.1272576405
| 18>  H       -0.9839119029    -0.2885588916    -3.1186888428
| 19>  H       -1.0116183666    -2.4268023664    -1.6261094812
| 20>  H        0.6535822506    -2.3396597177    -2.1396761293
| 21>  H        0.2169205231    -3.8591379380    -0.1146987869
| 22>  H        1.4960033894    -2.6705678208     0.1058362474
| 23>  H       -1.3962099736    -2.3001060475     1.0374200136
| 24>  H       -0.0523077336    -2.7131007027     2.0960756783
| 25>  H        1.0319975830    -0.5813299649     1.7423096553
| 26>  H       -0.6515086910    -0.2160877246     2.0191599014
| 27> *
| 28>
| 29>                          ****END OF INPUT****

CARTESIAN COORDINATES (ANGSTROEM)
---------------------------------
  C     -0.013617    1.564172    0.186405
  C     -0.021630    0.068352   -0.007558
  C     -0.060068   -0.555007   -1.195759
  C     -0.156722    0.134979   -2.533562
  C     -0.018130   -2.067581   -1.313879
  C      0.412500   -2.784371   -0.031331
  C     -0.312822   -2.183436    1.173084
  C      0.028627   -0.696546    1.302402
  H      0.818151    1.856186    0.841293
  H      0.085286    2.130796   -0.739857
  H     -0.930109    1.899351    0.690569
  H     -0.321024    1.210772   -2.466688
  H      0.752356   -0.031097   -3.127258
  H     -0.983912   -0.288559   -3.118689
  H     -1.011618   -2.426802   -1.626109
  H      0.653582   -2.339660   -2.139676
  H      0.216921   -3.859138   -0.114699
  H      1.496003   -2.670568    0.105836
  H     -1.396210   -2.300106    1.037420
  H     -0.052308   -2.713101    2.096076
  H      1.031998   -0.581330    1.742310
  H     -0.651509   -0.216088    2.019160

 Total Charge           Charge          ....    0
 Multiplicity           Mult            ....    1
 Number of Electrons    NEL             ....   62
 Basis Dimension        Dim             ....  332

ORBITAL ENERGIES
----------------

  NO   OCC          E(Eh)            E(eV)
   0   2.0000     -11.219803      -305.3064
   1   2.0000     -11.218189      -305.2625
   2   2.0000     -11.215827      -305.1982
   3   2.0000     -11.215808      -305.1977
   4   2.0000     -11.212950      -305.1199
   5   2.0000     -11.212340      -305.1033
   6   2.0000     -11.212289      -305.1019
   7   2.0000     -11.212287      -305.1018
   8   2.0000      -1.124252       -30.5925
   9   2.0000      -1.034859       -28.1599
  10   2.0000      -1.017642       -27.6915
  11   2.0000      -0.938748       -25.5446
  12   2.0000      -0.900898       -24.5147
  13   2.0000      -0.833353       -22.6767
  14   2.0000      -0.790554       -21.5121
  15   2.0000      -0.667331       -18.1590
  16   2.0000      -0.630280       -17.1508
  17   2.0000      -0.611580       -16.6419
  18   2.0000      -0.607174       -16.5220
  19   2.0000      -0.584197       -15.8968
  20   2.0000      -0.568225       -15.4622
  21   2.0000      -0.540000       -14.6941
  22   2.0000      -0.533408       -14.5148
  23   2.0000      -0.525327       -14.2949
  24   2.0000      -0.507394       -13.8069
  25   2.0000      -0.503311       -13.6958
  26   2.0000      -0.500890       -13.6299
  27   2.0000      -0.459215       -12.4959
  28   2.0000      -0.445163       -12.1135
  29   2.0000      -0.423552       -11.5254
  30   2.0000      -0.319068        -8.6823
  31   0.0000       0.132593         3.6080
  32   0.0000       0.155418         4.2292
  33   0.0000       0.155749         4.2381
  34   0.0000       0.171150         4.6572
  35   0.0000       0.176836         4.8119

MULLIKEN ATOMIC CHARGES
-----------------------
   0 C :   -0.418410
   1 C :   -0.005451
   2 C :   -0.005552
   3 C :   -0.418321
   4 C :   -0.221902
   5 C :   -0.208843
   6 C :   -0.208859
   7 C :   -0.221921
   8 H :    0.132977
   9 H :    0.123073
  10 H :    0.137398
  11 H :    0.123053
  12 H :    0.137373
  13 H :    0.132973
  14 H :    0.113356
  15 H :    0.121373
  16 H :    0.121994
  17 H :    0.104473
  18 H :    0.104473
  19 H :    0.121994
  20 H :    0.113364
  21 H :    0.121387
Sum of atomic charges:   -0.0000000

LOEWDIN ATOMIC CHARGES
----------------------
   0 C :   -0.275243
   1 C :   -0.176092
   2 C :   -0.176097
   3 C :   -0.275237
   4 C :   -0.229580
   5 C :   -0.260778
   6 C :   -0.260779
   7 C :   -0.229586
   8 H :    0.130222
   9 H :    0.122023
  10 H :    0.128821
  11 H :    0.122023
  12 H :    0.128814
  13 H :    0.130226
  14 H :    0.143660
  15 H :    0.143650
  16 H :    0.134157
  17 H :    0.139161
  18 H :    0.139161
  19 H :    0.134157
  20 H :    0.143661
  21 H :    0.143654

  Mayer bond orders larger than 0.1
B(  0-C ,  1-C ) :   0.8862 B(  0-C ,  8-H ) :   0.9316 B(  0-C ,  9-H ) :   0.9511
B(  0-C , 10-H ) :   0.9360 B(  1-C ,  2-C ) :   1.7110 B(  1-C ,  7-C ) :   0.9485
B(  2-C ,  3-C ) :   0.8863 B(  2-C ,  4-C ) :   0.9485 B(  3-C , 11-H ) :   0.9511
B(  3-C , 12-H ) :   0.9360 B(  3-C , 13-H ) :   0.9316 B(  4-C ,  5-C ) :   0.9462
B(  4-C , 14-H ) :   0.9163 B(  4-C , 15-H ) :   0.9295 B(  5-C ,  6-C ) :   0.9111
B(  5-C , 16-H ) :   0.9359 B(  5-C , 17-H ) :   0.9337 B(  6-C ,  7-C ) :   0.9462
B(  6-C , 18-H ) :   0.9337 B(  6-C , 19-H ) :   0.9359 B(  7-C , 20-H ) :   0.9163
B(  7-C , 21-H ) :   0.9295

MP2 TOTAL ENERGY:     -312.521012614 Eh
FINAL SINGLE POINT ENERGY      -312.521012613736

DIPOLE MOMENT
-------------
                                X             Y             Z
Electronic contribution:      0.03698      -0.90635       0.47429
Nuclear contribution   :     -0.03610       0.88321      -0.46216
                        -----------------------------------------
Total Dipole Moment    :      0.00087      -0.02314       0.01213
                        -----------------------------------------
Magnitude (a.u.)       :      0.02614
Magnitude (Debye)      :      0.06644

                             ****ORCA TERMINATED NORMALLY****
TOTAL RUN TIME: 0 days 0 hours 13 minutes 53 seconds 749 msec
