                         Program Version 3.0.3 - RELEASE   -
|  1> ! RI-MP2 RIJK def2-TZVP def2-TZVP/C def2-TZVP/JK TIGHTSCF
|  2> % maxcore 2000
|  3> % mp2 density relaxed end
|  4> *xyz 0 1
|  5>  O        0.0237789404     1.5353138331    -0.0047712188
|  6>  C        0.0547156639     0.1150657771     0.0148411231
|  7>  C       -1.3538660313    -0.4857489299     0.0816706333
|  8>  C       -1.4054860594    -2.0184940424     0.0785074453
|  9>  O       -0.7131426230    -2.4788355878    -1.0777171722
| 10>  C       -0.7172493591    -2.6396913878     1.3153417108
| 11>  O       -1.3405295291    -2.3053955829     2.5475898141
| 12>  C       -2.8686828676    -2.4922727339    -0.0028470186
| 13>  O       -2.9299500654    -3.8810245923    -0.3299547771
| 14>  H       -0.3837557979     1.8069243577    -0.8333615772
| 15>  H        0.5894641462    -0.2945286382    -0.8516508554
| 16>  H        0.6355133156    -0.1450136981     0.9062605389
| 17>  H       -1.8685772151    -0.0990269393     0.9696941625
| 18>  H       -1.9201414314    -0.1286246785    -0.7884957875
| 19>  H       -1.0892664958    -3.3497710722    -1.2695221355
| 20>  H       -0.7755743111    -3.7309475546     1.2309841210
| 21>  H        0.3494374206    -2.3837648850     1.3067485185
| 22>  H       -1.0999341794    -1.4017499775     2.7726279176
| 23>  H       -3.3917100960    -2.2754311170     0.9347928884
| 24>  H       -3.3730685062    -1.9695617364    -0.8214014349
| 25>  H       -2.8525834791    -4.3864599940     0.4848938538
| 26> *
| 27>
| 28>                          ****END OF INPUT****

CARTESIAN COORDINATES (ANGSTROEM)
---------------------------------
  O      0.023779    1.535314   -0.004771
  C      0.054716    0.115066    0.014841
  C     -1.353866   -0.485749    0.081671
  C     -1.405486   -2.018494    0.078507
  O     -0.713143   -2.478836   -1.077717
  C     -0.717249   -2.639691    1.315342
  O     -1.340530   -2.305396    2.547590
  C     -2.868683   -2.492273   -0.002847
  O     -2.929950   -3.881025   -0.329955
  H     -0.383756    1.806924   -0.833362
  H      0.589464   -0.294529   -0.851651
  H      0.635513   -0.145014    0.906261
  H     -1.868577   -0.099027    0.969694
  H     -1.920141   -0.128625   -0.788496
  H     -1.089266   -3.349771   -1.269522
  H     -0.775574   -3.730948    1.230984
  H      0.349437   -2.383765    1.306749
  H     -1.099934   -1.401750    2.772628
  H     -3.391710   -2.275431    0.934793
  H     -3.373069   -1.969562   -0.821401
  H     -2.852583   -4.386460    0.484894

 Total Charge           Charge          ....    0
 Multiplicity           Mult            ....    1
 Number of Electrons    NEL             ....   74
 Basis Dimension        Dim             ....  351

ORBITAL ENERGIES
----------------

  NO   OCC          E(Eh)            E(eV)
   0   2.0000     -20.575453      -559.8865
   1   2.0000     -20.570964      -559.7644
   2   2.0000     -20.558005      -559.4118
   3   2.0000     -20.557402      -559.3953
   4   2.0000     -11.293247      -307.3049
   5   2.0000     -11.284155      -307.0575
   6   2.0000     -11.283868      -307.0497
   7   2.0000     -11.277987      -306.8896
   8   2.0000     -11.232456      -305.6507
   9   2.0000      -1.391915       -37.8759
  10   2.0000      -1.372806       -37.3560
  11   2.0000      -1.361987       -37.0616
  12   2.0000      -1.356002       -36.8987
  13   2.0000      -1.072429       -29.1823
  14   2.0000      -0.981972       -26.7208
  15   2.0000      -0.936829       -25.4924
  16   2.0000      -0.864531       -23.5251
  17   2.0000      -0.785109       -21.3639
  18   2.0000      -0.725777       -19.7494
  19   2.0000      -0.711554       -19.3624
  20   2.0000      -0.702072       -19.1044
  21   2.0000      -0.682344       -18.5675
  22   2.0000      -0.651671       -17.7329
  23   2.0000      -0.647276       -17.6133
  24   2.0000      -0.607025       -16.5180
  25   2.0000      -0.597941       -16.2708
  26   2.0000      -0.588308       -16.0087
  27   2.0000      -0.546659       -14.8754
  28   2.0000      -0.545448       -14.8424
  29   2.0000      -0.541546       -14.7362
  30   2.0000      -0.518354       -14.1051
  31   2.0000      -0.511659       -13.9230
  32   2.0000      -0.499923       -13.6036
  33   2.0000      -0.486702       -13.2438
  34   2.0000      -0.467848       -12.7308
  35   2.0000      -0.438532       -11.9331
  36   2.0000      -0.416142       -11.3238
  37   0.0000       0.120012         3.2657
  38   0.0000       0.138072         3.7571
  39   0.0000       0.145573         3.9612
  40   0.0000       0.161995         4.4081
  41   0.0000       0.179270         4.8782

MULLIKEN ATOMIC CHARGES
-----------------------
   0 O :   -0.468706
   1 C :   -0.047821
   2 C :   -0.297863
   3 C :    0.187563
   4 O :   -0.487980
   5 C :   -0.132171
   6 O :   -0.480427
   7 C :   -0.068228
   8 O :   -0.494569
   9 H :    0.315163
  10 H :    0.138197
  11 H :    0.103002
  12 H :    0.128818
  13 H :    0.105859
  14 H :    0.334761
  15 H :    0.104868
  16 H :    0.140412
  17 H :    0.325610
  18 H :    0.134703
  19 H :    0.128231
  20 H :    0.330579
Sum of atomic charges:   -0.0000000

LOEWDIN ATOMIC CHARGES
----------------------
   0 O :   -0.052521
   1 C :   -0.342692
   2 C :   -0.246411
   3 C :   -0.412446
   4 O :    0.012082
   5 C :   -0.318266
   6 O :   -0.042350
   7 C :   -0.305188
   8 O :   -0.049265
   9 H :    0.173282
  10 H :    0.124666
  11 H :    0.124117
  12 H :    0.142688
  13 H :    0.144024
  14 H :    0.180939
  15 H :    0.127088
  16 H :    0.125107
  17 H :    0.174936
  18 H :    0.129651
  19 H :    0.133668
  20 H :    0.176890

  Mayer bond orders larger than 0.1
B(  0-O ,  1-C ) :   0.9302 B(  0-O ,  9-H ) :   0.8481 B(  1-C ,  2-C ) :   0.9107
B(  1-C , 10-H ) :   0.9414 B(  1-C , 11-H ) :   0.9260 B(  2-C ,  3-C ) :   0.8454
B(  2-C , 12-H ) :   0.9350 B(  2-C , 13-H ) :   0.9207 B(  3-C ,  4-O ) :   0.9388
B(  3-C ,  5-C ) :   0.8685 B(  3-C ,  7-C ) :   0.8900 B(  4-O , 14-H ) :   0.8129
B(  5-C ,  6-O ) :   0.9215 B(  5-C , 15-H ) :   0.9316 B(  5-C , 16-H ) :   0.9509
B(  6-O , 17-H ) :   0.8448 B(  7-C ,  8-O ) :   0.8853 B(  7-C , 18-H ) :   0.9357
B(  7-C , 19-H ) :   0.9369 B(  8-O , 20-H ) :   0.8422

MP2 TOTAL ENERGY:     -497.739724471 Eh
FINAL SINGLE POINT ENERGY      -497.739724470584

DIPOLE MOMENT
-------------
                                X             Y             Z
Electronic contribution:     -0.16147      -1.30614      -0.39309
Nuclear contribution   :     -0.16626       1.20130       0.47503
                        -----------------------------------------
Total Dipole Moment    :     -0.32773      -0.10484       0.08193
                        -----------------------------------------
Magnitude (a.u.)       :      0.35371
Magnitude (Debye)      :      0.89907

                             ****ORCA TERMINATED NORMALLY****
TOTAL RUN TIME: 0 days 0 hours 15 minutes 50 seconds 923 msec
