                         Program Version 3.0.3 - RELEASE   -
|  1> ! RI-MP2 RIJK def2-TZVP def2-TZVP/C def2-TZVP/JK TIGHTSCF
|  2> % maxcore 2000
|  3> % mp2 density relaxed end
|  4> *xyz 0 1
|  5>  C       -0.0737492454     1.5431293694    -0.0260307906
|  6>  C        0.1016376140     0.0402129912     0.0376083252
|  7>  O        1.1666240431    -0.4652522882    -0.8244571418
|  8>  C        1.7110502057    -1.2072765592     0.2688670861
|  9>  C        2.1956592484    -0.2813281821     1.3413040967
| 10>  C        0.7220373386    -0.6462062117     1.2639383166
| 11>  C       -0.0537562614    -1.2632788879     2.3898782896
| 12>  H        0.8295277463     2.0679254403     0.2956392465
| 13>  H       -0.3031065382     1.8537381650    -1.0503823763
| 14>  H       -0.9055172106     1.8532008885     0.6160259217
| 15>  H       -0.8367290291    -0.4626757107    -0.2371104532
| 16>  H        2.0772216073    -2.2091815705     0.0740170890
| 17>  H        2.7212233081    -0.7532709523     2.1667435445
| 18>  H        2.5621752108     0.7047655105     1.0702344626
| 19>  H       -0.4375602860    -0.4997271974     3.0776427330
| 20>  H       -0.9100919712    -1.8371063134     2.0173360607
| 21>  H        0.5730357398    -1.9430354516     2.9759009098
| 22> *
| 23>
| 24>                          ****END OF INPUT****

CARTESIAN COORDINATES (ANGSTROEM)
---------------------------------
  C     -0.073749    1.543129   -0.026031
  C      0.101638    0.040213    0.037608
  O      1.166624   -0.465252   -0.824457
  C      1.711050   -1.207277    0.268867
  C      2.195659   -0.281328    1.341304
  C      0.722037   -0.646206    1.263938
  C     -0.053756   -1.263279    2.389878
  H      0.829528    2.067925    0.295639
  H     -0.303107    1.853738   -1.050382
  H     -0.905517    1.853201    0.616026
  H     -0.836729   -0.462676   -0.237110
  H      2.077222   -2.209182    0.074017
  H      2.721223   -0.753271    2.166744
  H      2.562175    0.704766    1.070234
  H     -0.437560   -0.499727    3.077643
  H     -0.910092   -1.837106    2.017336
  H      0.573036   -1.943035    2.975901

 Total Charge           Charge          ....    0
 Multiplicity           Mult            ....    1
 Number of Electrons    NEL             ....   54
 Basis Dimension        Dim             ....  277

ORBITAL ENERGIES
----------------

  NO   OCC          E(Eh)            E(eV)
   0   2.0000     -20.546259      -559.0921
   1   2.0000     -11.284360      -307.0631
   2   2.0000     -11.280985      -306.9712
   3   2.0000     -11.240498      -305.8695
   4   2.0000     -11.228146      -305.5334
   5   2.0000     -11.227265      -305.5094
   6   2.0000     -11.215649      -305.1933
   7   2.0000      -1.385516       -37.7018
   8   2.0000      -1.121706       -30.5232
   9   2.0000      -1.019356       -27.7381
  10   2.0000      -0.969782       -26.3891
  11   2.0000      -0.866287       -23.5729
  12   2.0000      -0.813223       -22.1289
  13   2.0000      -0.727614       -19.7994
  14   2.0000      -0.670374       -18.2418
  15   2.0000      -0.649493       -17.6736
  16   2.0000      -0.609691       -16.5905
  17   2.0000      -0.590912       -16.0795
  18   2.0000      -0.570631       -15.5277
  19   2.0000      -0.559830       -15.2338
  20   2.0000      -0.550835       -14.9890
  21   2.0000      -0.532624       -14.4934
  22   2.0000      -0.508695       -13.8423
  23   2.0000      -0.483420       -13.1545
  24   2.0000      -0.452814       -12.3217
  25   2.0000      -0.393500       -10.7077
  26   2.0000      -0.369205       -10.0466
  27   0.0000       0.134937         3.6718
  28   0.0000       0.162185         4.4133
  29   0.0000       0.174210         4.7405
  30   0.0000       0.182071         4.9544
  31   0.0000       0.196772         5.3544

MULLIKEN ATOMIC CHARGES
-----------------------
   0 C :   -0.393070
   1 C :    0.114742
   2 O :   -0.336318
   3 C :    0.056044
   4 C :   -0.273791
   5 C :   -0.028735
   6 C :   -0.399390
   7 H :    0.124691
   8 H :    0.141332
   9 H :    0.125498
  10 H :    0.085283
  11 H :    0.126072
  12 H :    0.125647
  13 H :    0.133416
  14 H :    0.136443
  15 H :    0.131342
  16 H :    0.130795
Sum of atomic charges:    0.0000000

LOEWDIN ATOMIC CHARGES
----------------------
   0 C :   -0.292219
   1 C :   -0.254248
   2 O :    0.159572
   3 C :   -0.234947
   4 C :   -0.193174
   5 C :   -0.225717
   6 C :   -0.276320
   7 H :    0.124508
   8 H :    0.130089
   9 H :    0.128518
  10 H :    0.142381
  11 H :    0.129408
  12 H :    0.141853
  13 H :    0.132377
  14 H :    0.129179
  15 H :    0.128008
  16 H :    0.130731

  Mayer bond orders larger than 0.1
B(  0-C ,  1-C ) :   0.9236 B(  0-C ,  7-H ) :   0.9373 B(  0-C ,  8-H ) :   0.9327
B(  0-C ,  9-H ) :   0.9281 B(  1-C ,  2-O ) :   0.9207 B(  1-C ,  5-C ) :   0.9350
B(  1-C , 10-H ) :   0.9108 B(  2-O ,  3-C ) :   0.9731 B(  3-C ,  4-C ) :   0.8628
B(  3-C ,  5-C ) :   0.9102 B(  3-C , 11-H ) :   0.9192 B(  4-C ,  5-C ) :   0.8913
B(  4-C , 12-H ) :   0.9218 B(  4-C , 13-H ) :   0.9085 B(  5-C ,  6-C ) :   0.8985
B(  6-C , 14-H ) :   0.9359 B(  6-C , 15-H ) :   0.9381 B(  6-C , 16-H ) :   0.9325

MP2 TOTAL ENERGY:     -309.144125349 Eh
FINAL SINGLE POINT ENERGY      -309.144125349025

DIPOLE MOMENT
-------------
                                X             Y             Z
Electronic contribution:      2.27521      -1.84480      -3.72574
Nuclear contribution   :     -2.54292       1.76130       4.44749
                        -----------------------------------------
Total Dipole Moment    :     -0.26771      -0.08350       0.72175
                        -----------------------------------------
Magnitude (a.u.)       :      0.77432
Magnitude (Debye)      :      1.96816

                             ****ORCA TERMINATED NORMALLY****
TOTAL RUN TIME: 0 days 0 hours 8 minutes 44 seconds 200 msec
