                         Program Version 3.0.3 - RELEASE   -
|  1> ! RI-MP2 RIJK def2-TZVP def2-TZVP/C def2-TZVP/JK TIGHTSCF
|  2> % maxcore 2000
|  3> % mp2 density relaxed end
|  4> *xyz 0 1
|  5>  C        0.0144900456     1.4437732395    -0.0098829780
|  6>  N       -0.0705632209    -0.0013467273     0.0621653419
|  7>  C       -1.2816918677    -0.6331326767     0.0427928029
|  8>  N       -2.3954738677    -0.0060994293     0.0893559388
|  9>  C       -1.1844741132    -2.1427926890     0.0002430344
| 10>  O       -2.1512792199    -2.8570913014    -0.0038559380
| 11>  H        1.0527264669     1.7500036541     0.1328239600
| 12>  H       -0.3508769917     1.8322788495    -0.9694962766
| 13>  H       -0.6040472963     1.8818908192     0.7773523288
| 14>  H        0.7372582131    -0.5345764415    -0.2137651430
| 15>  H       -3.1486164290    -0.6962251947     0.1137701207
| 16>  H       -0.1527176491    -2.5639268423    -0.0274174720
| 17> *
| 18>
| 19>                          ****END OF INPUT****

CARTESIAN COORDINATES (ANGSTROEM)
---------------------------------
  C      0.014490    1.443773   -0.009883
  N     -0.070563   -0.001347    0.062165
  C     -1.281692   -0.633133    0.042793
  N     -2.395474   -0.006099    0.089356
  C     -1.184474   -2.142793    0.000243
  O     -2.151279   -2.857091   -0.003856
  H      1.052726    1.750004    0.132824
  H     -0.350877    1.832279   -0.969496
  H     -0.604047    1.881891    0.777352
  H      0.737258   -0.534576   -0.213765
  H     -3.148616   -0.696225    0.113770
  H     -0.152718   -2.563927   -0.027417

 Total Charge           Charge          ....    0
 Multiplicity           Mult            ....    1
 Number of Electrons    NEL             ....   46
 Basis Dimension        Dim             ....  222

ORBITAL ENERGIES
----------------

  NO   OCC          E(Eh)            E(eV)
   0   2.0000     -20.587953      -560.2267
   1   2.0000     -15.592290      -424.2878
   2   2.0000     -15.538078      -422.8126
   3   2.0000     -11.358550      -309.0818
   4   2.0000     -11.325526      -308.1832
   5   2.0000     -11.264464      -306.5216
   6   2.0000      -1.426080       -38.8056
   7   2.0000      -1.286610       -35.0104
   8   2.0000      -1.167435       -31.7675
   9   2.0000      -0.982616       -26.7383
  10   2.0000      -0.885458       -24.0945
  11   2.0000      -0.797559       -21.7027
  12   2.0000      -0.734772       -19.9942
  13   2.0000      -0.684340       -18.6218
  14   2.0000      -0.643051       -17.4983
  15   2.0000      -0.629036       -17.1170
  16   2.0000      -0.613207       -16.6862
  17   2.0000      -0.567634       -15.4461
  18   2.0000      -0.556057       -15.1311
  19   2.0000      -0.488208       -13.2848
  20   2.0000      -0.483352       -13.1527
  21   2.0000      -0.425280       -11.5725
  22   2.0000      -0.366073        -9.9614
  23   0.0000       0.073353         1.9960
  24   0.0000       0.122199         3.3252
  25   0.0000       0.158327         4.3083
  26   0.0000       0.184644         5.0244
  27   0.0000       0.195344         5.3156

MULLIKEN ATOMIC CHARGES
-----------------------
   0 C :   -0.256362
   1 N :   -0.344156
   2 C :    0.182798
   3 N :   -0.405272
   4 C :    0.098570
   5 O :   -0.253053
   6 H :    0.135159
   7 H :    0.138566
   8 H :    0.159070
   9 H :    0.236094
  10 H :    0.231717
  11 H :    0.076869
Sum of atomic charges:   -0.0000000

LOEWDIN ATOMIC CHARGES
----------------------
   0 C :   -0.312867
   1 N :    0.070404
   2 C :   -0.417970
   3 N :   -0.060456
   4 C :   -0.262414
   5 O :    0.155314
   6 H :    0.117390
   7 H :    0.117380
   8 H :    0.128339
   9 H :    0.182062
  10 H :    0.170635
  11 H :    0.112183

  Mayer bond orders larger than 0.1
B(  0-C ,  1-N ) :   0.8734 B(  0-C ,  6-H ) :   0.9296 B(  0-C ,  7-H ) :   0.9375
B(  0-C ,  8-H ) :   0.9316 B(  1-N ,  2-C ) :   1.1112 B(  1-N ,  9-H ) :   0.8774
B(  2-C ,  3-N ) :   1.8799 B(  2-C ,  4-C ) :   0.8408 B(  3-N , 10-H ) :   0.8533
B(  4-C ,  5-O ) :   1.9694 B(  4-C , 11-H ) :   0.9377

MP2 TOTAL ENERGY:     -302.060226055 Eh
FINAL SINGLE POINT ENERGY      -302.060226055361

DIPOLE MOMENT
-------------
                                X             Y             Z
Electronic contribution:     -2.78629      -5.34299       0.14470
Nuclear contribution   :      4.26771       5.47359      -0.32355
                        -----------------------------------------
Total Dipole Moment    :      1.48142       0.13060      -0.17885
                        -----------------------------------------
Magnitude (a.u.)       :      1.49788
Magnitude (Debye)      :      3.80731

                             ****ORCA TERMINATED NORMALLY****
TOTAL RUN TIME: 0 days 0 hours 4 minutes 1 seconds 741 msec
