                         Program Version 3.0.3 - RELEASE   -
|  1> ! RI-MP2 RIJK def2-TZVP def2-TZVP/C def2-TZVP/JK TIGHTSCF
|  2> % maxcore 2000
|  3> % mp2 density relaxed end
|  4> *xyz 0 1
|  5>  C       -0.6775184951     1.2405271011     0.2337514739
|  6>  C       -0.0990365445    -0.1588031986     0.0487686731
|  7>  C        0.6465381851    -0.5599632575    -1.2652881704
|  8>  C        1.1674270813     0.5753574161    -2.1312659639
|  9>  O        1.9618067844    -0.0114021299    -3.1521062741
| 10>  C        1.7369673365    -1.2559266105    -0.4055480765
| 11>  C        1.1569308333    -0.6117562471     0.8928440846
| 12>  C        1.9884003301     0.5100348624     1.4535940069
| 13>  O        2.1286489365     0.7385631470     2.6288089274
| 14>  H        0.0511902783     2.0306357204     0.0293999817
| 15>  H       -1.5336065249     1.3988229376    -0.4307919076
| 16>  H       -1.0273486648     1.3769770986     1.2624524632
| 17>  H       -0.8931483702    -0.8874807660     0.2371717026
| 18>  H        0.0802843088    -1.2334254247    -1.9148064314
| 19>  H        0.3228758826     1.1411945746    -2.5560165349
| 20>  H        1.7626051408     1.2824953362    -1.5305088996
| 21>  H        2.3329527147     0.6942256419    -3.6897357126
| 22>  H        1.6632592008    -2.3447140103    -0.3958000672
| 23>  H        2.7664631572    -0.9866228179    -0.6571938551
| 24>  H        0.9230701351    -1.2899064406     1.7158746006
| 25>  H        2.4961828640     1.1484005273     0.6912108195
| 26> *
| 27>
| 28>                          ****END OF INPUT****

CARTESIAN COORDINATES (ANGSTROEM)
---------------------------------
  C     -0.677518    1.240527    0.233751
  C     -0.099037   -0.158803    0.048769
  C      0.646538   -0.559963   -1.265288
  C      1.167427    0.575357   -2.131266
  O      1.961807   -0.011402   -3.152106
  C      1.736967   -1.255927   -0.405548
  C      1.156931   -0.611756    0.892844
  C      1.988400    0.510035    1.453594
  O      2.128649    0.738563    2.628809
  H      0.051190    2.030636    0.029400
  H     -1.533607    1.398823   -0.430792
  H     -1.027349    1.376977    1.262452
  H     -0.893148   -0.887481    0.237172
  H      0.080284   -1.233425   -1.914806
  H      0.322876    1.141195   -2.556017
  H      1.762605    1.282495   -1.530509
  H      2.332953    0.694226   -3.689736
  H      1.663259   -2.344714   -0.395800
  H      2.766463   -0.986623   -0.657194
  H      0.923070   -1.289906    1.715875
  H      2.496183    1.148401    0.691211

 Total Charge           Charge          ....    0
 Multiplicity           Mult            ....    1
 Number of Electrons    NEL             ....   70
 Basis Dimension        Dim             ....  351

ORBITAL ENERGIES
----------------

  NO   OCC          E(Eh)            E(eV)
   0   2.0000     -20.564734      -559.5949
   1   2.0000     -20.552530      -559.2628
   2   2.0000     -11.326608      -308.2127
   3   2.0000     -11.285675      -307.0988
   4   2.0000     -11.247916      -306.0714
   5   2.0000     -11.238763      -305.8223
   6   2.0000     -11.234919      -305.7177
   7   2.0000     -11.232590      -305.6543
   8   2.0000     -11.227316      -305.5108
   9   2.0000      -1.390845       -37.8468
  10   2.0000      -1.369075       -37.2544
  11   2.0000      -1.152819       -31.3698
  12   2.0000      -0.999421       -27.1956
  13   2.0000      -0.993201       -27.0264
  14   2.0000      -0.902145       -24.5486
  15   2.0000      -0.860447       -23.4139
  16   2.0000      -0.793841       -21.6015
  17   2.0000      -0.741288       -20.1715
  18   2.0000      -0.704745       -19.1771
  19   2.0000      -0.683584       -18.6013
  20   2.0000      -0.649387       -17.6707
  21   2.0000      -0.635808       -17.3012
  22   2.0000      -0.616488       -16.7755
  23   2.0000      -0.593458       -16.1488
  24   2.0000      -0.588039       -16.0014
  25   2.0000      -0.573740       -15.6123
  26   2.0000      -0.538198       -14.6451
  27   2.0000      -0.529023       -14.3954
  28   2.0000      -0.525249       -14.2927
  29   2.0000      -0.486545       -13.2396
  30   2.0000      -0.470432       -12.8011
  31   2.0000      -0.457853       -12.4588
  32   2.0000      -0.443012       -12.0550
  33   2.0000      -0.430000       -11.7009
  34   2.0000      -0.407094       -11.0776
  35   0.0000       0.119113         3.2412
  36   0.0000       0.126125         3.4320
  37   0.0000       0.139643         3.7999
  38   0.0000       0.154144         4.1945
  39   0.0000       0.174207         4.7404

MULLIKEN ATOMIC CHARGES
-----------------------
   0 C :   -0.403654
   1 C :   -0.073943
   2 C :   -0.036004
   3 C :   -0.134356
   4 O :   -0.463814
   5 C :   -0.260420
   6 C :    0.022966
   7 C :   -0.003334
   8 O :   -0.258610
   9 H :    0.123465
  10 H :    0.140862
  11 H :    0.150872
  12 H :    0.109458
  13 H :    0.107054
  14 H :    0.107215
  15 H :    0.093357
  16 H :    0.317424
  17 H :    0.132421
  18 H :    0.132220
  19 H :    0.119106
  20 H :    0.077715
Sum of atomic charges:    0.0000000

LOEWDIN ATOMIC CHARGES
----------------------
   0 C :   -0.297111
   1 C :   -0.199581
   2 C :   -0.213840
   3 C :   -0.335232
   4 O :   -0.041155
   5 C :   -0.185988
   6 C :   -0.198150
   7 C :   -0.285045
   8 O :    0.132538
   9 H :    0.122898
  10 H :    0.126872
  11 H :    0.131622
  12 H :    0.155827
  13 H :    0.146814
  14 H :    0.119432
  15 H :    0.113512
  16 H :    0.172884
  17 H :    0.137705
  18 H :    0.136837
  19 H :    0.149725
  20 H :    0.109437

  Mayer bond orders larger than 0.1
B(  0-C ,  1-C ) :   0.9088 B(  0-C ,  9-H ) :   0.9308 B(  0-C , 10-H ) :   0.9378
B(  0-C , 11-H ) :   0.9362 B(  1-C ,  2-C ) :   0.8927 B(  1-C ,  6-C ) :   0.8521
B(  1-C , 12-H ) :   0.9249 B(  2-C ,  3-C ) :   0.9280 B(  2-C ,  5-C ) :   0.8997
B(  2-C , 13-H ) :   0.9131 B(  3-C ,  4-O ) :   1.0294 B(  3-C , 14-H ) :   0.9327
B(  3-C , 15-H ) :   0.9201 B(  4-O , 16-H ) :   0.8472 B(  5-C ,  6-C ) :   0.8755
B(  5-C , 17-H ) :   0.9211 B(  5-C , 18-H ) :   0.9229 B(  6-C ,  7-C ) :   0.8373
B(  6-C , 19-H ) :   0.9037 B(  6-C , 20-H ) :  -0.1006 B(  7-C ,  8-O ) :   1.9978
B(  7-C , 20-H ) :   0.9537

MP2 TOTAL ENERGY:     -423.512432194 Eh
FINAL SINGLE POINT ENERGY      -423.512432194326

DIPOLE MOMENT
-------------
                                X             Y             Z
Electronic contribution:      3.90877      -1.01136       3.15989
Nuclear contribution   :     -4.36693       1.24140      -4.17811
                        -----------------------------------------
Total Dipole Moment    :     -0.45816       0.23004      -1.01822
                        -----------------------------------------
Magnitude (a.u.)       :      1.14000
Magnitude (Debye)      :      2.89764

                             ****ORCA TERMINATED NORMALLY****
TOTAL RUN TIME: 0 days 0 hours 31 minutes 3 seconds 275 msec
