                         Program Version 3.0.3 - RELEASE   -
|  1> ! RI-MP2 RIJK def2-TZVP def2-TZVP/C def2-TZVP/JK TIGHTSCF
|  2> % maxcore 2000
|  3> % mp2 density relaxed end
|  4> *xyz 0 1
|  5>  N       -0.1689328783     1.4133584626     0.1303025029
|  6>  C       -0.0413160249     0.1570766166     0.0076396451
|  7>  N        1.1978049543    -0.4926096852    -0.1194581854
|  8>  C        1.4230631859    -1.4343621402    -0.9421652859
|  9>  N        0.5738675439    -2.0082419387    -1.8764086200
| 10>  C       -0.7980054248    -1.8485137700    -2.0018447447
| 11>  N       -1.6241537826    -1.3145719039    -1.1975622759
| 12>  C       -1.2602891011    -0.7358145505     0.0297558939
| 13>  N       -1.9083912183    -0.9033555764     1.1074708985
| 14>  H        0.7557598043     1.8522346755     0.0982227510
| 15>  H        2.4231276678    -1.8666828343    -0.9796414348
| 16>  H        1.0097973912    -2.6200882538    -2.5509828133
| 17>  H       -1.1773820976    -2.2873468001    -2.9248471039
| 18>  H       -2.6994813700    -1.5297464617     0.9328030526
| 19> *
| 20>
| 21>                          ****END OF INPUT****

CARTESIAN COORDINATES (ANGSTROEM)
---------------------------------
  N     -0.168933    1.413358    0.130303
  C     -0.041316    0.157077    0.007640
  N      1.197805   -0.492610   -0.119458
  C      1.423063   -1.434362   -0.942165
  N      0.573868   -2.008242   -1.876409
  C     -0.798005   -1.848514   -2.001845
  N     -1.624154   -1.314572   -1.197562
  C     -1.260289   -0.735815    0.029756
  N     -1.908391   -0.903356    1.107471
  H      0.755760    1.852235    0.098223
  H      2.423128   -1.866683   -0.979641
  H      1.009797   -2.620088   -2.550983
  H     -1.177382   -2.287347   -2.924847
  H     -2.699481   -1.529746    0.932803

 Total Charge           Charge          ....    0
 Multiplicity           Mult            ....    1
 Number of Electrons    NEL             ....   64
 Basis Dimension        Dim             ....  309

ORBITAL ENERGIES
----------------

  NO   OCC          E(Eh)            E(eV)
   0   2.0000     -15.650749      -425.8785
   1   2.0000     -15.582890      -424.0320
   2   2.0000     -15.582890      -424.0320
   3   2.0000     -15.544533      -422.9882
   4   2.0000     -15.544530      -422.9882
   5   2.0000     -11.366807      -309.3065
   6   2.0000     -11.366786      -309.3060
   7   2.0000     -11.320442      -308.0449
   8   2.0000     -11.319791      -308.0272
   9   2.0000      -1.359261       -36.9874
  10   2.0000      -1.271934       -34.6111
  11   2.0000      -1.269807       -34.5532
  12   2.0000      -1.176136       -32.0043
  13   2.0000      -1.171997       -31.8917
  14   2.0000      -0.961589       -26.1662
  15   2.0000      -0.929803       -25.3012
  16   2.0000      -0.810256       -22.0482
  17   2.0000      -0.796814       -21.6824
  18   2.0000      -0.791956       -21.5502
  19   2.0000      -0.687793       -18.7158
  20   2.0000      -0.673357       -18.3230
  21   2.0000      -0.667519       -18.1641
  22   2.0000      -0.631816       -17.1926
  23   2.0000      -0.619631       -16.8610
  24   2.0000      -0.537348       -14.6220
  25   2.0000      -0.502081       -13.6623
  26   2.0000      -0.462252       -12.5785
  27   2.0000      -0.460857       -12.5406
  28   2.0000      -0.453391       -12.3374
  29   2.0000      -0.422976       -11.5098
  30   2.0000      -0.395931       -10.7738
  31   2.0000      -0.367193        -9.9918
  32   0.0000       0.081830         2.2267
  33   0.0000       0.095371         2.5952
  34   0.0000       0.121828         3.3151
  35   0.0000       0.158443         4.3114
  36   0.0000       0.172327         4.6893

MULLIKEN ATOMIC CHARGES
-----------------------
   0 N :   -0.324292
   1 C :    0.147698
   2 N :   -0.250342
   3 C :    0.071577
   4 N :   -0.284303
   5 C :    0.071577
   6 N :   -0.250341
   7 C :    0.147697
   8 N :   -0.324292
   9 H :    0.218503
  10 H :    0.152246
  11 H :    0.253523
  12 H :    0.152246
  13 H :    0.218503
Sum of atomic charges:   -0.0000000

LOEWDIN ATOMIC CHARGES
----------------------
   0 N :   -0.001613
   1 C :   -0.331226
   2 N :    0.142725
   3 C :   -0.284347
   4 N :    0.122942
   5 C :   -0.284347
   6 N :    0.142726
   7 C :   -0.331226
   8 N :   -0.001613
   9 H :    0.168258
  10 H :    0.142991
  11 H :    0.203480
  12 H :    0.142991
  13 H :    0.168258

  Mayer bond orders larger than 0.1
B(  0-N ,  1-C ) :   2.0640 B(  0-N ,  9-H ) :   0.8523 B(  1-C ,  2-N ) :   1.0022
B(  1-C ,  7-C ) :   0.8157 B(  2-N ,  3-C ) :   1.7873 B(  3-C ,  4-N ) :   1.0421
B(  3-C , 10-H ) :   0.9153 B(  4-N ,  5-C ) :   1.0421 B(  4-N , 11-H ) :   0.8603
B(  5-C ,  6-N ) :   1.7873 B(  5-C , 12-H ) :   0.9153 B(  6-N ,  7-C ) :   1.0022
B(  7-C ,  8-N ) :   2.0640 B(  8-N , 13-H ) :   0.8523

MP2 TOTAL ENERGY:     -428.326988718 Eh
FINAL SINGLE POINT ENERGY      -428.326988718468

DIPOLE MOMENT
-------------
                                X             Y             Z
Electronic contribution:     -0.36582       0.51344       0.56608
Nuclear contribution   :      1.61722      -2.26983      -2.50256
                        -----------------------------------------
Total Dipole Moment    :      1.25140      -1.75639      -1.93648
                        -----------------------------------------
Magnitude (a.u.)       :      2.89843
Magnitude (Debye)      :      7.36721

                             ****ORCA TERMINATED NORMALLY****
TOTAL RUN TIME: 0 days 0 hours 14 minutes 19 seconds 995 msec
