                         Program Version 3.0.3 - RELEASE   -
|  1> ! RI-MP2 RIJK def2-TZVP def2-TZVP/C def2-TZVP/JK TIGHTSCF
|  2> % maxcore 2000
|  3> % mp2 density relaxed end
|  4> *xyz 0 1
|  5>  C       -0.0193076674     1.5371896223     0.0400719932
|  6>  C       -0.0143250458     0.0377164422    -0.0156242742
|  7>  C       -0.0195350844    -0.6328461976    -1.1835593138
|  8>  C        0.0543951925    -2.0959177088    -1.2855786228
|  9>  O        0.1137188233    -2.6888534927    -2.3414866720
| 10>  C        0.0784755202    -2.8789354768     0.0532528115
| 11>  O        0.4958138562    -4.0072373592     0.1027809004
| 12>  C       -0.4810395272    -2.1270221464     1.2452371777
| 13>  C        0.0276046761    -0.6778153563     1.3125521364
| 14>  H        0.8380640706     1.9048938616     0.6179614789
| 15>  H        0.0160019074     1.9844372640    -0.9553348940
| 16>  H       -0.9169955977     1.9013103788     0.5556474960
| 17>  H       -0.0319983464    -0.1023503654    -2.1320132934
| 18>  H       -1.5731127581    -2.1080920584     1.1193365655
| 19>  H       -0.2620034266    -2.6854241721     2.1582623501
| 20>  H        1.0638663513    -0.6617490539     1.6803054810
| 21>  H       -0.5508511241    -0.1126992212     2.0523467295
| 22> *
| 23>
| 24>                          ****END OF INPUT****

CARTESIAN COORDINATES (ANGSTROEM)
---------------------------------
  C     -0.019308    1.537190    0.040072
  C     -0.014325    0.037716   -0.015624
  C     -0.019535   -0.632846   -1.183559
  C      0.054395   -2.095918   -1.285579
  O      0.113719   -2.688853   -2.341487
  C      0.078476   -2.878935    0.053253
  O      0.495814   -4.007237    0.102781
  C     -0.481040   -2.127022    1.245237
  C      0.027605   -0.677815    1.312552
  H      0.838064    1.904894    0.617961
  H      0.016002    1.984437   -0.955335
  H     -0.916996    1.901310    0.555647
  H     -0.031998   -0.102350   -2.132013
  H     -1.573113   -2.108092    1.119337
  H     -0.262003   -2.685424    2.158262
  H      1.063866   -0.661749    1.680305
  H     -0.550851   -0.112699    2.052347

 Total Charge           Charge          ....    0
 Multiplicity           Mult            ....    1
 Number of Electrons    NEL             ....   66
 Basis Dimension        Dim             ....  327

ORBITAL ENERGIES
----------------

  NO   OCC          E(Eh)            E(eV)
   0   2.0000     -20.566631      -559.6465
   1   2.0000     -20.556159      -559.3615
   2   2.0000     -11.342650      -308.6492
   3   2.0000     -11.338945      -308.5484
   4   2.0000     -11.292183      -307.2759
   5   2.0000     -11.268745      -306.6382
   6   2.0000     -11.259834      -306.3957
   7   2.0000     -11.253876      -306.2335
   8   2.0000     -11.247149      -306.0505
   9   2.0000      -1.415069       -38.5060
  10   2.0000      -1.383372       -37.6435
  11   2.0000      -1.158110       -31.5138
  12   2.0000      -1.056020       -28.7358
  13   2.0000      -1.008164       -27.4335
  14   2.0000      -0.938966       -25.5506
  15   2.0000      -0.860595       -23.4180
  16   2.0000      -0.797548       -21.7024
  17   2.0000      -0.703994       -19.1567
  18   2.0000      -0.688668       -18.7396
  19   2.0000      -0.673515       -18.3273
  20   2.0000      -0.653887       -17.7932
  21   2.0000      -0.619660       -16.8618
  22   2.0000      -0.610108       -16.6019
  23   2.0000      -0.599761       -16.3203
  24   2.0000      -0.580321       -15.7913
  25   2.0000      -0.574032       -15.6202
  26   2.0000      -0.558581       -15.1998
  27   2.0000      -0.540913       -14.7190
  28   2.0000      -0.514747       -14.0070
  29   2.0000      -0.496011       -13.4971
  30   2.0000      -0.474597       -12.9144
  31   2.0000      -0.399774       -10.8784
  32   2.0000      -0.381499       -10.3811
  33   0.0000       0.056712         1.5432
  34   0.0000       0.110241         2.9998
  35   0.0000       0.128547         3.4979
  36   0.0000       0.142079         3.8662
  37   0.0000       0.165869         4.5135

MULLIKEN ATOMIC CHARGES
-----------------------
   0 C :   -0.414354
   1 C :    0.091849
   2 C :   -0.274035
   3 C :    0.225562
   4 O :   -0.260627
   5 C :    0.147333
   6 O :   -0.234792
   7 C :   -0.217650
   8 C :   -0.224849
   9 H :    0.148648
  10 H :    0.146819
  11 H :    0.149599
  12 H :    0.134685
  13 H :    0.142942
  14 H :    0.146249
  15 H :    0.147564
  16 H :    0.145057
Sum of atomic charges:   -0.0000000

LOEWDIN ATOMIC CHARGES
----------------------
   0 C :   -0.261140
   1 C :   -0.154419
   2 C :   -0.115275
   3 C :   -0.302832
   4 O :    0.178590
   5 C :   -0.287438
   6 O :    0.190328
   7 C :   -0.217699
   8 C :   -0.213575
   9 H :    0.138011
  10 H :    0.133062
  11 H :    0.136977
  12 H :    0.156171
  13 H :    0.161613
  14 H :    0.149266
  15 H :    0.157705
  16 H :    0.150655

  Mayer bond orders larger than 0.1
B(  0-C ,  1-C ) :   0.8924 B(  0-C ,  9-H ) :   0.9219 B(  0-C , 10-H ) :   0.9449
B(  0-C , 11-H ) :   0.9270 B(  1-C ,  2-C ) :   1.6054 B(  1-C ,  8-C ) :   0.9223
B(  2-C ,  3-C ) :   1.0328 B(  2-C , 12-H ) :   0.9191 B(  3-C ,  4-O ) :   1.9239
B(  3-C ,  5-C ) :   0.8466 B(  5-C ,  6-O ) :   2.0438 B(  5-C ,  7-C ) :   0.9002
B(  7-C ,  8-C ) :   0.9002 B(  7-C , 13-H ) :   0.9063 B(  7-C , 14-H ) :   0.9239
B(  8-C , 15-H ) :   0.8964 B(  8-C , 16-H ) :   0.9301

MP2 TOTAL ENERGY:     -421.156990363 Eh
FINAL SINGLE POINT ENERGY      -421.156990362926

DIPOLE MOMENT
-------------
                                X             Y             Z
Electronic contribution:      1.15785      -9.53499      -5.23645
Nuclear contribution   :     -1.55316      11.49405       6.48924
                        -----------------------------------------
Total Dipole Moment    :     -0.39532       1.95906       1.25279
                        -----------------------------------------
Magnitude (a.u.)       :      2.35874
Magnitude (Debye)      :      5.99545

                             ****ORCA TERMINATED NORMALLY****
TOTAL RUN TIME: 0 days 0 hours 17 minutes 35 seconds 137 msec
