                         Program Version 3.0.3 - RELEASE   -
|  1> ! RI-MP2 RIJK def2-TZVP def2-TZVP/C def2-TZVP/JK TIGHTSCF
|  2> % maxcore 2000
|  3> % mp2 density relaxed end
|  4> *xyz 0 1
|  5>  C       -0.9955853910     0.7272228471    -0.1930872358
|  6>  O        0.0493033333    -0.1876510347     0.0928304319
|  7>  C        0.6055198240    -0.7466835401    -1.0438251056
|  8>  C       -0.0793293182    -1.8767384086    -1.8296825442
|  9>  C        1.3099252653    -2.5853292978    -1.9570591605
| 10>  C        1.9542992749    -1.4456213287    -1.1594523887
| 11>  C        1.7307298994    -0.0854934326    -1.8147948623
| 12>  C        1.7214042266     0.1120482062    -3.3200115858
| 13>  C        2.4143960041     1.0512377681    -1.0688361175
| 14>  H       -0.6410540701     1.5701534072    -0.8019992560
| 15>  H       -1.8270035098     0.2399337951    -0.7222923193
| 16>  H       -1.3611429292     1.1056680295     0.7642516773
| 17>  H       -0.7630921702    -2.4390664070    -1.1895036141
| 18>  H       -0.6000833301    -1.6098542377    -2.7544061158
| 19>  H        1.3350363590    -3.5394426090    -1.4264337852
| 20>  H        1.6892614990    -2.7446616062    -2.9709624777
| 21>  H        2.7244567089    -1.5677772003    -0.4062514764
| 22>  H        1.2240275915    -0.6994579149    -3.8556034742
| 23>  H        1.2078362065     1.0439730989    -3.5846160610
| 24>  H        2.7451034378     0.1825893985    -3.7072165205
| 25>  H        3.4672961184     1.1251964787    -1.3645595241
| 26>  H        1.9418917936     2.0133783030    -1.2984642616
| 27>  H        2.3685221966     0.9090145154     0.0128563170
| 28> *
| 29>
| 30>                          ****END OF INPUT****

CARTESIAN COORDINATES (ANGSTROEM)
---------------------------------
  C     -0.995585    0.727223   -0.193087
  O      0.049303   -0.187651    0.092830
  C      0.605520   -0.746684   -1.043825
  C     -0.079329   -1.876738   -1.829683
  C      1.309925   -2.585329   -1.957059
  C      1.954299   -1.445621   -1.159452
  C      1.730730   -0.085493   -1.814795
  C      1.721404    0.112048   -3.320012
  C      2.414396    1.051238   -1.068836
  H     -0.641054    1.570153   -0.801999
  H     -1.827004    0.239934   -0.722292
  H     -1.361143    1.105668    0.764252
  H     -0.763092   -2.439066   -1.189504
  H     -0.600083   -1.609854   -2.754406
  H      1.335036   -3.539443   -1.426434
  H      1.689261   -2.744662   -2.970962
  H      2.724457   -1.567777   -0.406251
  H      1.224028   -0.699458   -3.855603
  H      1.207836    1.043973   -3.584616
  H      2.745103    0.182589   -3.707217
  H      3.467296    1.125196   -1.364560
  H      1.941892    2.013378   -1.298464
  H      2.368522    0.909015    0.012856

 Total Charge           Charge          ....    0
 Multiplicity           Mult            ....    1
 Number of Electrons    NEL             ....   70
 Basis Dimension        Dim             ....  363

ORBITAL ENERGIES
----------------

  NO   OCC          E(Eh)            E(eV)
   0   2.0000     -20.557660      -559.4024
   1   2.0000     -11.276844      -306.8585
   2   2.0000     -11.270309      -306.6807
   3   2.0000     -11.234814      -305.7148
   4   2.0000     -11.223081      -305.3956
   5   2.0000     -11.221936      -305.3644
   6   2.0000     -11.220437      -305.3236
   7   2.0000     -11.212265      -305.1012
   8   2.0000     -11.210510      -305.0535
   9   2.0000      -1.381184       -37.5839
  10   2.0000      -1.181114       -32.1397
  11   2.0000      -1.034537       -28.1512
  12   2.0000      -0.952738       -25.9253
  13   2.0000      -0.929475       -25.2923
  14   2.0000      -0.910137       -24.7661
  15   2.0000      -0.874260       -23.7898
  16   2.0000      -0.736443       -20.0396
  17   2.0000      -0.725819       -19.7505
  18   2.0000      -0.676977       -18.4215
  19   2.0000      -0.650197       -17.6928
  20   2.0000      -0.631442       -17.1824
  21   2.0000      -0.616628       -16.7793
  22   2.0000      -0.589198       -16.0329
  23   2.0000      -0.580275       -15.7901
  24   2.0000      -0.545583       -14.8461
  25   2.0000      -0.536686       -14.6040
  26   2.0000      -0.529044       -14.3960
  27   2.0000      -0.520775       -14.1710
  28   2.0000      -0.508998       -13.8505
  29   2.0000      -0.491934       -13.3862
  30   2.0000      -0.480994       -13.0885
  31   2.0000      -0.457933       -12.4610
  32   2.0000      -0.441160       -12.0046
  33   2.0000      -0.370360       -10.0780
  34   2.0000      -0.358984        -9.7685
  35   0.0000       0.133551         3.6341
  36   0.0000       0.157573         4.2878
  37   0.0000       0.162437         4.4201
  38   0.0000       0.172571         4.6959
  39   0.0000       0.190725         5.1899

MULLIKEN ATOMIC CHARGES
-----------------------
   0 C :   -0.217403
   1 O :   -0.306714
   2 C :    0.193706
   3 C :   -0.270687
   4 C :   -0.237118
   5 C :   -0.192172
   6 C :    0.072590
   7 C :   -0.392408
   8 C :   -0.445738
   9 H :    0.114821
  10 H :    0.120859
  11 H :    0.140617
  12 H :    0.120779
  13 H :    0.123052
  14 H :    0.121513
  15 H :    0.119328
  16 H :    0.130160
  17 H :    0.133131
  18 H :    0.127293
  19 H :    0.128767
  20 H :    0.134615
  21 H :    0.126662
  22 H :    0.154348
Sum of atomic charges:   -0.0000000

LOEWDIN ATOMIC CHARGES
----------------------
   0 C :   -0.338325
   1 O :    0.191655
   2 C :   -0.287534
   3 C :   -0.198618
   4 C :   -0.213738
   5 C :   -0.131719
   6 C :   -0.246172
   7 C :   -0.266271
   8 C :   -0.262333
   9 H :    0.103745
  10 H :    0.104849
  11 H :    0.113260
  12 H :    0.139465
  13 H :    0.124886
  14 H :    0.134439
  15 H :    0.125391
  16 H :    0.140217
  17 H :    0.127110
  18 H :    0.126724
  19 H :    0.127569
  20 H :    0.126689
  21 H :    0.124351
  22 H :    0.134358

  Mayer bond orders larger than 0.1
B(  0-C ,  1-O ) :   0.8867 B(  0-C ,  9-H ) :   0.9335 B(  0-C , 10-H ) :   0.9371
B(  0-C , 11-H ) :   0.9410 B(  1-O ,  2-C ) :   0.9914 B(  2-C ,  3-C ) :   0.9488
B(  2-C ,  5-C ) :   0.8333 B(  2-C ,  6-C ) :   0.8781 B(  3-C ,  4-C ) :   0.9689
B(  3-C , 12-H ) :   0.9105 B(  3-C , 13-H ) :   0.9213 B(  4-C ,  5-C ) :   0.9309
B(  4-C , 14-H ) :   0.9224 B(  4-C , 15-H ) :   0.9344 B(  5-C ,  6-C ) :   0.8501
B(  5-C , 16-H ) :   0.9050 B(  6-C ,  7-C ) :   0.8895 B(  6-C ,  8-C ) :   0.8878
B(  7-C , 17-H ) :   0.9351 B(  7-C , 18-H ) :   0.9368 B(  7-C , 19-H ) :   0.9350
B(  8-C , 20-H ) :   0.9410 B(  8-C , 21-H ) :   0.9405 B(  8-C , 22-H ) :   0.9282

MP2 TOTAL ENERGY:     -387.576008005 Eh
FINAL SINGLE POINT ENERGY      -387.576008005060

DIPOLE MOMENT
-------------
                                X             Y             Z
Electronic contribution:     -0.53146      -2.56721       3.74262
Nuclear contribution   :      0.33572       2.70445      -4.06827
                        -----------------------------------------
Total Dipole Moment    :     -0.19575       0.13724      -0.32565
                        -----------------------------------------
Magnitude (a.u.)       :      0.40398
Magnitude (Debye)      :      1.02683

                             ****ORCA TERMINATED NORMALLY****
TOTAL RUN TIME: 0 days 0 hours 20 minutes 57 seconds 261 msec
