                         Program Version 3.0.3 - RELEASE   -
|  1> ! RI-MP2 RIJK def2-TZVP def2-TZVP/C def2-TZVP/JK TIGHTSCF
|  2> % maxcore 2000
|  3> % mp2 density relaxed end
|  4> *xyz 0 1
|  5>  C       -0.0490807642     1.5251637288     0.0337420540
|  6>  C       -0.0059674047     0.0188827255     0.0162865815
|  7>  C        0.0797173105    -0.6540076728    -1.2125093676
|  8>  N        0.1745748322     0.0342578156    -2.4270074907
|  9>  C        0.1287381235    -2.0587424564    -1.2180506143
| 10>  O        0.2060375830    -2.6492693949    -2.4567317247
| 11>  C        0.0956719086    -2.7806741671    -0.0334229747
| 12>  C        0.0082588944    -2.1101171574     1.1855891115
| 13>  C       -0.0421573750    -0.7218818829     1.2007947473
| 14>  H        0.8056022959     1.9569284558    -0.5011354081
| 15>  H       -0.9562062481     1.9172970634    -0.4481376393
| 16>  H       -0.0371041174     1.9065803853     1.0574452854
| 17>  H       -0.3395790812     0.9027305764    -2.4585350187
| 18>  H       -0.0290258803    -0.5494667906    -3.2260476769
| 19>  H        0.2051815473    -3.6049000701    -2.3479804531
| 20>  H        0.1342927991    -3.8666690044    -0.0677305757
| 21>  H       -0.0170620861    -2.6722820528     2.1121834853
| 22>  H       -0.1078924775    -0.1927461716     2.1463492488
| 23> *
| 24>
| 25>                          ****END OF INPUT****

CARTESIAN COORDINATES (ANGSTROEM)
---------------------------------
  C     -0.049081    1.525164    0.033742
  C     -0.005967    0.018883    0.016287
  C      0.079717   -0.654008   -1.212509
  N      0.174575    0.034258   -2.427007
  C      0.128738   -2.058742   -1.218051
  O      0.206038   -2.649269   -2.456732
  C      0.095672   -2.780674   -0.033423
  C      0.008259   -2.110117    1.185589
  C     -0.042157   -0.721882    1.200795
  H      0.805602    1.956928   -0.501135
  H     -0.956206    1.917297   -0.448138
  H     -0.037104    1.906580    1.057445
  H     -0.339579    0.902731   -2.458535
  H     -0.029026   -0.549467   -3.226048
  H      0.205182   -3.604900   -2.347980
  H      0.134293   -3.866669   -0.067731
  H     -0.017062   -2.672282    2.112183
  H     -0.107892   -0.192746    2.146349

 Total Charge           Charge          ....    0
 Multiplicity           Mult            ....    1
 Number of Electrons    NEL             ....   66
 Basis Dimension        Dim             ....  333

ORBITAL ENERGIES
----------------

  NO   OCC          E(Eh)            E(eV)
   0   2.0000     -20.586787      -560.1950
   1   2.0000     -15.553594      -423.2348
   2   2.0000     -11.288733      -307.1821
   3   2.0000     -11.263965      -306.5081
   4   2.0000     -11.232268      -305.6456
   5   2.0000     -11.227709      -305.5215
   6   2.0000     -11.223519      -305.4075
   7   2.0000     -11.222875      -305.3900
   8   2.0000     -11.219705      -305.3037
   9   2.0000      -1.402648       -38.1680
  10   2.0000      -1.214497       -33.0481
  11   2.0000      -1.125271       -30.6202
  12   2.0000      -1.036752       -28.2115
  13   2.0000      -0.982280       -26.7292
  14   2.0000      -0.931191       -25.3390
  15   2.0000      -0.828969       -22.5574
  16   2.0000      -0.809369       -22.0241
  17   2.0000      -0.708220       -19.2716
  18   2.0000      -0.697886       -18.9905
  19   2.0000      -0.686318       -18.6757
  20   2.0000      -0.619393       -16.8545
  21   2.0000      -0.609594       -16.5879
  22   2.0000      -0.595394       -16.2015
  23   2.0000      -0.588973       -16.0268
  24   2.0000      -0.569683       -15.5019
  25   2.0000      -0.567473       -15.4417
  26   2.0000      -0.534026       -14.5316
  27   2.0000      -0.503291       -13.6952
  28   2.0000      -0.496371       -13.5069
  29   2.0000      -0.484462       -13.1829
  30   2.0000      -0.444862       -12.1053
  31   2.0000      -0.317273        -8.6334
  32   2.0000      -0.284290        -7.7359
  33   0.0000       0.131777         3.5858
  34   0.0000       0.136699         3.7198
  35   0.0000       0.142109         3.8670
  36   0.0000       0.151649         4.1266
  37   0.0000       0.165596         4.5061

MULLIKEN ATOMIC CHARGES
-----------------------
   0 C :   -0.498519
   1 C :    0.060944
   2 C :    0.170681
   3 N :   -0.505719
   4 C :    0.165379
   5 O :   -0.463136
   6 C :   -0.198297
   7 C :   -0.150469
   8 C :   -0.182758
   9 H :    0.161179
  10 H :    0.136494
  11 H :    0.139324
  12 H :    0.247029
  13 H :    0.257823
  14 H :    0.331282
  15 H :    0.103162
  16 H :    0.117657
  17 H :    0.107946
Sum of atomic charges:    0.0000000

LOEWDIN ATOMIC CHARGES
----------------------
   0 C :   -0.271140
   1 C :   -0.157056
   2 C :   -0.193217
   3 N :   -0.061947
   4 C :   -0.250649
   5 O :    0.052078
   6 C :   -0.159773
   7 C :   -0.166491
   8 C :   -0.142915
   9 H :    0.132981
  10 H :    0.126195
  11 H :    0.130671
  12 H :    0.166105
  13 H :    0.171300
  14 H :    0.190330
  15 H :    0.143272
  16 H :    0.144197
  17 H :    0.146058

  Mayer bond orders larger than 0.1
B(  0-C ,  1-C ) :   0.8561 B(  0-C ,  9-H ) :   0.9376 B(  0-C , 10-H ) :   0.9356
B(  0-C , 11-H ) :   0.9415 B(  1-C ,  2-C ) :   1.2996 B(  1-C ,  8-C ) :   1.3388
B(  2-C ,  3-N ) :   1.0164 B(  2-C ,  4-C ) :   1.2866 B(  3-N , 12-H ) :   0.8689
B(  3-N , 13-H ) :   0.8681 B(  4-C ,  5-O ) :   1.0348 B(  4-C ,  6-C ) :   1.3412
B(  5-O , 14-H ) :   0.8345 B(  6-C ,  7-C ) :   1.3088 B(  6-C , 15-H ) :   0.9258
B(  7-C ,  8-C ) :   1.3631 B(  7-C , 16-H ) :   0.9333 B(  8-C , 17-H ) :   0.9359

MP2 TOTAL ENERGY:     -401.326222636 Eh
FINAL SINGLE POINT ENERGY      -401.326222635885

DIPOLE MOMENT
-------------
                                X             Y             Z
Electronic contribution:      0.47331      -4.99131      -1.94940
Nuclear contribution   :     -0.86520       4.78719       1.76654
                        -----------------------------------------
Total Dipole Moment    :     -0.39189      -0.20413      -0.18286
                        -----------------------------------------
Magnitude (a.u.)       :      0.47820
Magnitude (Debye)      :      1.21550

                             ****ORCA TERMINATED NORMALLY****
TOTAL RUN TIME: 0 days 0 hours 18 minutes 45 seconds 539 msec
