                         Program Version 3.0.3 - RELEASE   -
|  1> ! RI-MP2 RIJK def2-TZVP def2-TZVP/C def2-TZVP/JK TIGHTSCF
|  2> % maxcore 2000
|  3> % mp2 density relaxed end
|  4> *xyz 0 1
|  5>  C       -0.5908092434     1.2925275194    -0.0327356017
|  6>  C        0.1881627130    -0.0105561158    -0.0677250984
|  7>  N        1.5775298771     0.0677104980    -0.5774361335
|  8>  C        2.0248190577    -0.9636251620     0.3844623821
|  9>  C        0.7730784805    -0.6349993441     1.2526368436
| 10>  C        1.0955181437     0.3755817614     2.3725083779
| 11>  O        1.9140118185    -0.1927387686     3.3724286186
| 12>  C        0.0487873451    -1.7653335591     1.8123900083
| 13>  N       -0.5224058824    -2.6479786810     2.2956834149
| 14>  H       -0.0304333722     2.0847712642     0.4691016415
| 15>  H       -0.7965403661     1.6266753810    -1.0552379108
| 16>  H       -1.5530588629     1.1589857888     0.4726778497
| 17>  H       -0.4098047343    -0.7810189027    -0.5775633507
| 18>  H        1.6950620911    -0.1686603987    -1.5565937874
| 19>  H        2.0020375639    -1.9923806738     0.0032363003
| 20>  H        2.9898907569    -0.7719070023     0.8611243472
| 21>  H        1.6661022176     1.1996790922     1.9379671585
| 22>  H        0.1624782290     0.7818056449     2.7880168671
| 23>  H        1.4032675272    -0.8696206917     3.8314481228
| 24> *
| 25>
| 26>                          ****END OF INPUT****

CARTESIAN COORDINATES (ANGSTROEM)
---------------------------------
  C     -0.590809    1.292528   -0.032736
  C      0.188163   -0.010556   -0.067725
  N      1.577530    0.067710   -0.577436
  C      2.024819   -0.963625    0.384462
  C      0.773078   -0.634999    1.252637
  C      1.095518    0.375582    2.372508
  O      1.914012   -0.192739    3.372429
  C      0.048787   -1.765334    1.812390
  N     -0.522406   -2.647979    2.295683
  H     -0.030433    2.084771    0.469102
  H     -0.796540    1.626675   -1.055238
  H     -1.553059    1.158986    0.472678
  H     -0.409805   -0.781019   -0.577563
  H      1.695062   -0.168660   -1.556594
  H      2.002038   -1.992381    0.003236
  H      2.989891   -0.771907    0.861124
  H      1.666102    1.199679    1.937967
  H      0.162478    0.781806    2.788017
  H      1.403268   -0.869621    3.831448

 Total Charge           Charge          ....    0
 Multiplicity           Mult            ....    1
 Number of Electrons    NEL             ....   68
 Basis Dimension        Dim             ....  339

ORBITAL ENERGIES
----------------

  NO   OCC          E(Eh)            E(eV)
   0   2.0000     -20.571974      -559.7919
   1   2.0000     -15.577784      -423.8931
   2   2.0000     -15.564083      -423.5202
   3   2.0000     -11.300268      -307.4959
   4   2.0000     -11.291114      -307.2468
   5   2.0000     -11.289073      -307.1913
   6   2.0000     -11.278276      -306.8975
   7   2.0000     -11.278243      -306.8966
   8   2.0000     -11.232963      -305.6645
   9   2.0000      -1.380043       -37.5529
  10   2.0000      -1.266511       -34.4635
  11   2.0000      -1.223229       -33.2857
  12   2.0000      -1.060930       -28.8694
  13   2.0000      -1.020789       -27.7771
  14   2.0000      -0.920882       -25.0585
  15   2.0000      -0.887812       -24.1586
  16   2.0000      -0.819297       -22.2942
  17   2.0000      -0.738255       -20.0889
  18   2.0000      -0.705653       -19.2018
  19   2.0000      -0.666581       -18.1386
  20   2.0000      -0.630511       -17.1571
  21   2.0000      -0.620149       -16.8751
  22   2.0000      -0.611470       -16.6389
  23   2.0000      -0.590584       -16.0706
  24   2.0000      -0.567651       -15.4466
  25   2.0000      -0.545350       -14.8397
  26   2.0000      -0.539729       -14.6868
  27   2.0000      -0.523688       -14.2503
  28   2.0000      -0.519522       -14.1369
  29   2.0000      -0.498865       -13.5748
  30   2.0000      -0.485460       -13.2100
  31   2.0000      -0.441691       -12.0190
  32   2.0000      -0.440695       -11.9919
  33   2.0000      -0.400270       -10.8919
  34   0.0000       0.116953         3.1825
  35   0.0000       0.139397         3.7932
  36   0.0000       0.143508         3.9051
  37   0.0000       0.157079         4.2743
  38   0.0000       0.175631         4.7792

MULLIKEN ATOMIC CHARGES
-----------------------
   0 C :   -0.413431
   1 C :   -0.044486
   2 N :   -0.353725
   3 C :   -0.186507
   4 C :    0.292738
   5 C :   -0.084169
   6 O :   -0.469180
   7 C :   -0.320410
   8 N :   -0.040223
   9 H :    0.139238
  10 H :    0.139228
  11 H :    0.139042
  12 H :    0.119640
  13 H :    0.210058
  14 H :    0.132042
  15 H :    0.136716
  16 H :    0.146011
  17 H :    0.128234
  18 H :    0.329184
Sum of atomic charges:   -0.0000000

LOEWDIN ATOMIC CHARGES
----------------------
   0 C :   -0.292573
   1 C :   -0.245342
   2 N :    0.001659
   3 C :   -0.210624
   4 C :   -0.240293
   5 C :   -0.290281
   6 O :   -0.023757
   7 C :   -0.169266
   8 N :    0.064271
   9 H :    0.127331
  10 H :    0.130306
  11 H :    0.130006
  12 H :    0.146098
  13 H :    0.158650
  14 H :    0.128510
  15 H :    0.131568
  16 H :    0.144132
  17 H :    0.127909
  18 H :    0.181695

  Mayer bond orders larger than 0.1
B(  0-C ,  1-C ) :   0.9130 B(  0-C ,  9-H ) :   0.9371 B(  0-C , 10-H ) :   0.9313
B(  0-C , 11-H ) :   0.9352 B(  1-C ,  2-N ) :   0.9243 B(  1-C ,  4-C ) :   0.8109
B(  1-C , 12-H ) :   0.9167 B(  2-N ,  3-C ) :   0.9441 B(  2-N , 13-H ) :   0.8765
B(  3-C ,  4-C ) :   0.8394 B(  3-C , 14-H ) :   0.9178 B(  3-C , 15-H ) :   0.9178
B(  4-C ,  5-C ) :   0.8590 B(  4-C ,  7-C ) :   0.8793 B(  5-C ,  6-O ) :   0.9517
B(  5-C , 16-H ) :   0.9227 B(  5-C , 17-H ) :   0.9325 B(  6-O , 18-H ) :   0.8375
B(  7-C ,  8-N ) :   2.8826

MP2 TOTAL ENERGY:     -418.498195540 Eh
FINAL SINGLE POINT ENERGY      -418.498195539869

DIPOLE MOMENT
-------------
                                X             Y             Z
Electronic contribution:      0.33785      -5.76903       3.74785
Nuclear contribution   :     -0.36922       6.39388      -4.69187
                        -----------------------------------------
Total Dipole Moment    :     -0.03138       0.62485      -0.94402
                        -----------------------------------------
Magnitude (a.u.)       :      1.13252
Magnitude (Debye)      :      2.87863

                             ****ORCA TERMINATED NORMALLY****
TOTAL RUN TIME: 0 days 0 hours 17 minutes 45 seconds 263 msec
