                         Program Version 3.0.3 - RELEASE   -
|  1> ! RI-MP2 RIJK def2-TZVP def2-TZVP/C def2-TZVP/JK TIGHTSCF
|  2> % maxcore 2000
|  3> % mp2 density relaxed end
|  4> *xyz 0 1
|  5>  O       -0.0910537233    -0.0354924694    -0.0010884411
|  6>  C       -0.0496468425     1.1616970425     0.0081133131
|  7>  N        1.1473802345     1.8933794655     0.0007050048
|  8>  C        2.4397582627     1.3733235396    -0.0180718794
|  9>  N        3.3384809433     2.3069300818    -0.0204922150
| 10>  C        2.6326359624     3.5091174525    -0.0026722871
| 11>  C        3.2651361441     4.8340059594     0.0011186565
| 12>  O        4.4529113287     5.0410865225    -0.0102505192
| 13>  C        1.2840309589     3.2679284479     0.0104886141
| 14>  H       -0.9350933994     1.8208541358     0.0236350098
| 15>  H        2.6028734567     0.3069329396    -0.0286862518
| 16>  H        2.5278157912     5.6693080247     0.0164777316
| 17>  H        0.4297736427     3.9254661277     0.0255067737
| 18> *
| 19>
| 20>                          ****END OF INPUT****

CARTESIAN COORDINATES (ANGSTROEM)
---------------------------------
  O     -0.091054   -0.035492   -0.001088
  C     -0.049647    1.161697    0.008113
  N      1.147380    1.893379    0.000705
  C      2.439758    1.373324   -0.018072
  N      3.338481    2.306930   -0.020492
  C      2.632636    3.509117   -0.002672
  C      3.265136    4.834006    0.001119
  O      4.452911    5.041087   -0.010251
  C      1.284031    3.267928    0.010489
  H     -0.935093    1.820854    0.023635
  H      2.602873    0.306933   -0.028686
  H      2.527816    5.669308    0.016478
  H      0.429774    3.925466    0.025507

 Total Charge           Charge          ....    0
 Multiplicity           Mult            ....    1
 Number of Electrons    NEL             ....   64
 Basis Dimension        Dim             ....  303

ORBITAL ENERGIES
----------------

  NO   OCC          E(Eh)            E(eV)
   0   2.0000     -20.594358      -560.4010
   1   2.0000     -20.560128      -559.4695
   2   2.0000     -15.670975      -426.4289
   3   2.0000     -15.587981      -424.1705
   4   2.0000     -11.412058      -310.5379
   5   2.0000     -11.343250      -308.6655
   6   2.0000     -11.336211      -308.4740
   7   2.0000     -11.320356      -308.0426
   8   2.0000     -11.289958      -307.2154
   9   2.0000      -1.456975       -39.6463
  10   2.0000      -1.399851       -38.0919
  11   2.0000      -1.380079       -37.5539
  12   2.0000      -1.227661       -33.4064
  13   2.0000      -1.073790       -29.2193
  14   2.0000      -0.957676       -26.0597
  15   2.0000      -0.915540       -24.9131
  16   2.0000      -0.831476       -22.6256
  17   2.0000      -0.776548       -21.1310
  18   2.0000      -0.767299       -20.8793
  19   2.0000      -0.712756       -19.3951
  20   2.0000      -0.680877       -18.5276
  21   2.0000      -0.671934       -18.2843
  22   2.0000      -0.642718       -17.4892
  23   2.0000      -0.637780       -17.3549
  24   2.0000      -0.625500       -17.0207
  25   2.0000      -0.578293       -15.7362
  26   2.0000      -0.536462       -14.5979
  27   2.0000      -0.505574       -13.7574
  28   2.0000      -0.469000       -12.7621
  29   2.0000      -0.439161       -11.9502
  30   2.0000      -0.438585       -11.9345
  31   2.0000      -0.368087       -10.0162
  32   0.0000       0.063519         1.7284
  33   0.0000       0.100979         2.7478
  34   0.0000       0.121027         3.2933
  35   0.0000       0.146415         3.9842
  36   0.0000       0.156590         4.2610

MULLIKEN ATOMIC CHARGES
-----------------------
   0 O :   -0.257655
   1 C :    0.168836
   2 N :   -0.028527
   3 C :    0.028484
   4 N :   -0.228137
   5 C :    0.115744
   6 C :    0.003657
   7 O :   -0.245376
   8 C :   -0.120290
   9 H :    0.117559
  10 H :    0.183872
  11 H :    0.079926
  12 H :    0.181908
Sum of atomic charges:    0.0000000

LOEWDIN ATOMIC CHARGES
----------------------
   0 O :    0.149871
   1 C :   -0.323611
   2 N :    0.241844
   3 C :   -0.226103
   4 N :    0.158170
   5 C :   -0.251629
   6 C :   -0.281585
   7 O :    0.149380
   8 C :   -0.150956
   9 H :    0.125134
  10 H :    0.145738
  11 H :    0.115964
  12 H :    0.147783

  Mayer bond orders larger than 0.1
B(  0-O ,  1-C ) :   1.9783 B(  1-C ,  2-N ) :   0.9394 B(  1-C ,  9-H ) :   0.9243
B(  2-N ,  3-C ) :   1.0582 B(  2-N ,  8-C ) :   1.0987 B(  3-C ,  4-N ) :   1.6252
B(  3-C , 10-H ) :   0.9152 B(  4-N ,  5-C ) :   1.1891 B(  5-C ,  6-C ) :   0.8055
B(  5-C ,  7-O ) :  -0.1002 B(  5-C ,  8-C ) :   1.5031 B(  5-C , 11-H ) :  -0.1311
B(  6-C ,  7-O ) :   2.0445 B(  6-C , 11-H ) :   1.0028 B(  8-C , 12-H ) :   0.8799

MP2 TOTAL ENERGY:     -452.056230167 Eh
FINAL SINGLE POINT ENERGY      -452.056230166611

DIPOLE MOMENT
-------------
                                X             Y             Z
Electronic contribution:      1.27809      -1.10570      -0.02377
Nuclear contribution   :     -3.28181       1.29399       0.04763
                        -----------------------------------------
Total Dipole Moment    :     -2.00372       0.18829       0.02386
                        -----------------------------------------
Magnitude (a.u.)       :      2.01269
Magnitude (Debye)      :      5.11584

                             ****ORCA TERMINATED NORMALLY****
TOTAL RUN TIME: 0 days 0 hours 12 minutes 20 seconds 215 msec
