                         Program Version 3.0.3 - RELEASE   -
|  1> ! RI-MP2 RIJK def2-TZVP def2-TZVP/C def2-TZVP/JK TIGHTSCF
|  2> % maxcore 2000
|  3> % mp2 density relaxed end
|  4> *xyz 0 1
|  5>  O       -0.0336235369     0.0316251313    -0.5814472313
|  6>  C        0.1208911561     0.9384756462     0.2008087507
|  7>  C        1.2162687195     1.9319326625     0.1086745262
|  8>  C        2.0439916961     2.0586355821    -1.1218600154
|  9>  N        2.6935875608     1.4602111696     0.0377220065
| 10>  C        3.0457640055     2.6002988308     0.9653245414
| 11>  C        1.5793992760     3.0193528414     1.0954243516
| 12>  C        0.9856646658     4.3895021549     1.2426036949
| 13>  C        0.8660318821     3.3799964419     2.3636226362
| 14>  H       -0.5704214284     1.0799610279     1.0602260615
| 15>  H        1.8329534137     1.3383940286    -1.9056290212
| 16>  H        2.3399785508     3.0537558058    -1.4495739300
| 17>  H        3.4831873250     2.2051855130     1.8849104463
| 18>  H        3.7344468846     3.3225582557     0.5128301556
| 19>  H        1.6654717092     5.2246560070     1.3767264490
| 20>  H        0.0933490114     4.6271309669     0.6722022911
| 21>  H       -0.1110544333     2.9508528145     2.5580339275
| 22>  H        1.4681682118     3.5252957499     3.2549719393
| 23> *
| 24>
| 25>                          ****END OF INPUT****

CARTESIAN COORDINATES (ANGSTROEM)
---------------------------------
  O     -0.033624    0.031625   -0.581447
  C      0.120891    0.938476    0.200809
  C      1.216269    1.931933    0.108675
  C      2.043992    2.058636   -1.121860
  N      2.693588    1.460211    0.037722
  C      3.045764    2.600299    0.965325
  C      1.579399    3.019353    1.095424
  C      0.985665    4.389502    1.242604
  C      0.866032    3.379996    2.363623
  H     -0.570421    1.079961    1.060226
  H      1.832953    1.338394   -1.905629
  H      2.339979    3.053756   -1.449574
  H      3.483187    2.205186    1.884910
  H      3.734447    3.322558    0.512830
  H      1.665472    5.224656    1.376726
  H      0.093349    4.627131    0.672202
  H     -0.111054    2.950853    2.558034
  H      1.468168    3.525296    3.254972

 Total Charge           Charge          ....    0
 Multiplicity           Mult            ....    1
 Number of Electrons    NEL             ....   66
 Basis Dimension        Dim             ....  333

ORBITAL ENERGIES
----------------

  NO   OCC          E(Eh)            E(eV)
   0   2.0000     -20.557360      -559.3942
   1   2.0000     -15.584755      -424.0827
   2   2.0000     -11.336519      -308.4824
   3   2.0000     -11.280115      -306.9475
   4   2.0000     -11.270832      -306.6949
   5   2.0000     -11.270238      -306.6788
   6   2.0000     -11.262534      -306.4691
   7   2.0000     -11.245594      -306.0082
   8   2.0000     -11.242292      -305.9183
   9   2.0000      -1.396236       -37.9935
  10   2.0000      -1.305783       -35.5322
  11   2.0000      -1.153930       -31.4000
  12   2.0000      -0.997690       -27.1485
  13   2.0000      -0.952549       -25.9202
  14   2.0000      -0.858921       -23.3724
  15   2.0000      -0.838574       -22.8188
  16   2.0000      -0.817028       -22.2325
  17   2.0000      -0.735788       -20.0218
  18   2.0000      -0.703100       -19.1323
  19   2.0000      -0.675167       -18.3722
  20   2.0000      -0.648328       -17.6419
  21   2.0000      -0.633346       -17.2342
  22   2.0000      -0.619964       -16.8701
  23   2.0000      -0.580663       -15.8006
  24   2.0000      -0.547193       -14.8899
  25   2.0000      -0.533307       -14.5120
  26   2.0000      -0.513837       -13.9822
  27   2.0000      -0.509976       -13.8772
  28   2.0000      -0.467025       -12.7084
  29   2.0000      -0.452296       -12.3076
  30   2.0000      -0.426386       -11.6026
  31   2.0000      -0.415202       -11.2982
  32   2.0000      -0.367457        -9.9990
  33   0.0000       0.100109         2.7241
  34   0.0000       0.141927         3.8620
  35   0.0000       0.152078         4.1382
  36   0.0000       0.164635         4.4799
  37   0.0000       0.167818         4.5666

MULLIKEN ATOMIC CHARGES
-----------------------
   0 O :   -0.267421
   1 C :    0.044630
   2 C :    0.085866
   3 C :   -0.154494
   4 N :   -0.216841
   5 C :   -0.131752
   6 C :    0.035661
   7 C :   -0.256814
   8 C :   -0.292149
   9 H :    0.078459
  10 H :    0.152712
  11 H :    0.128849
  12 H :    0.126613
  13 H :    0.120909
  14 H :    0.133557
  15 H :    0.136367
  16 H :    0.139535
  17 H :    0.136313
Sum of atomic charges:    0.0000000

LOEWDIN ATOMIC CHARGES
----------------------
   0 O :    0.143706
   1 C :   -0.261644
   2 C :   -0.200764
   3 C :   -0.212054
   4 N :    0.144343
   5 C :   -0.193394
   6 C :   -0.212148
   7 C :   -0.202866
   8 C :   -0.200326
   9 H :    0.116450
  10 H :    0.143499
  11 H :    0.131592
  12 H :    0.133748
  13 H :    0.126662
  14 H :    0.135937
  15 H :    0.136544
  16 H :    0.134024
  17 H :    0.136690

  Mayer bond orders larger than 0.1
B(  0-O ,  1-C ) :   2.0012 B(  1-C ,  2-C ) :   0.8273 B(  1-C ,  9-H ) :   0.9750
B(  2-C ,  3-C ) :   0.9129 B(  2-C ,  4-N ) :   0.8285 B(  2-C ,  6-C ) :   0.8901
B(  3-C ,  4-N ) :   0.9311 B(  3-C , 10-H ) :   0.9098 B(  3-C , 11-H ) :   0.9034
B(  4-N ,  5-C ) :   0.9180 B(  5-C ,  6-C ) :   0.9415 B(  5-C , 12-H ) :   0.9117
B(  5-C , 13-H ) :   0.9303 B(  6-C ,  7-C ) :   0.8506 B(  6-C ,  8-C ) :   0.8780
B(  7-C ,  8-C ) :   0.9142 B(  7-C , 14-H ) :   0.9245 B(  7-C , 15-H ) :   0.9214
B(  8-C , 16-H ) :   0.9283 B(  8-C , 17-H ) :   0.9223

MP2 TOTAL ENERGY:     -401.191279875 Eh
FINAL SINGLE POINT ENERGY      -401.191279874781

DIPOLE MOMENT
-------------
                                X             Y             Z
Electronic contribution:     -1.30176      -5.75122      -2.94002
Nuclear contribution   :      1.43002       7.19227       3.50787
                        -----------------------------------------
Total Dipole Moment    :      0.12826       1.44105       0.56785
                        -----------------------------------------
Magnitude (a.u.)       :      1.55420
Magnitude (Debye)      :      3.95045

                             ****ORCA TERMINATED NORMALLY****
TOTAL RUN TIME: 0 days 0 hours 17 minutes 17 seconds 957 msec
