                         Program Version 3.0.3 - RELEASE   -
|  1> ! RI-MP2 RIJK def2-TZVP def2-TZVP/C def2-TZVP/JK TIGHTSCF
|  2> % maxcore 2000
|  3> % mp2 density relaxed end
|  4> *xyz 0 1
|  5>  O        0.0983702768    -0.0344281138    -0.0085075127
|  6>  C       -0.0205557814     1.1673273273     0.0277330682
|  7>  C       -1.3450293695     1.9095865989     0.0419195983
|  8>  C       -1.4120850320     3.0155603454    -1.0456523864
|  9>  C       -0.0860980320     3.6970072256    -1.3497043763
| 10>  C        0.9533625074     4.1124840006    -0.3463683393
| 11>  O        0.9419452329     3.2911189687     0.8244013230
| 12>  C        1.1768811284     2.1054238922     0.0135274491
| 13>  C        1.2337351605     2.9538188547    -1.2741320593
| 14>  H       -2.1566266299     1.1891082938    -0.0778773950
| 15>  H       -1.4339065226     2.3703279735     1.0315801083
| 16>  H       -1.7648003652     2.5601982223    -1.9792201681
| 17>  H       -2.1641643277     3.7609682232    -0.7633941236
| 18>  H       -0.1234662966     4.3804515130    -2.1961836754
| 19>  H        1.3793311455     5.1052632850    -0.2580496638
| 20>  H        2.1015830412     1.5973521049     0.2940659217
| 21>  H        1.9303337343     2.8235314747    -2.0903043887
| 22> *
| 23>
| 24>                          ****END OF INPUT****

CARTESIAN COORDINATES (ANGSTROEM)
---------------------------------
  O      0.098370   -0.034428   -0.008508
  C     -0.020556    1.167327    0.027733
  C     -1.345029    1.909587    0.041920
  C     -1.412085    3.015560   -1.045652
  C     -0.086098    3.697007   -1.349704
  C      0.953363    4.112484   -0.346368
  O      0.941945    3.291119    0.824401
  C      1.176881    2.105424    0.013527
  C      1.233735    2.953819   -1.274132
  H     -2.156627    1.189108   -0.077877
  H     -1.433907    2.370328    1.031580
  H     -1.764800    2.560198   -1.979220
  H     -2.164164    3.760968   -0.763394
  H     -0.123466    4.380452   -2.196184
  H      1.379331    5.105263   -0.258050
  H      2.101583    1.597352    0.294066
  H      1.930334    2.823531   -2.090304

 Total Charge           Charge          ....    0
 Multiplicity           Mult            ....    1
 Number of Electrons    NEL             ....   66
 Basis Dimension        Dim             ....  327

ORBITAL ENERGIES
----------------

  NO   OCC          E(Eh)            E(eV)
   0   2.0000     -20.572283      -559.8003
   1   2.0000     -20.550176      -559.1987
   2   2.0000     -11.329362      -308.2876
   3   2.0000     -11.304882      -307.6215
   4   2.0000     -11.303324      -307.5791
   5   2.0000     -11.257186      -306.3236
   6   2.0000     -11.254878      -306.2608
   7   2.0000     -11.247620      -306.0633
   8   2.0000     -11.238026      -305.8022
   9   2.0000      -1.415195       -38.5094
  10   2.0000      -1.388888       -37.7936
  11   2.0000      -1.149340       -31.2751
  12   2.0000      -1.060690       -28.8628
  13   2.0000      -0.998653       -27.1747
  14   2.0000      -0.906078       -24.6556
  15   2.0000      -0.822917       -22.3927
  16   2.0000      -0.784296       -21.3418
  17   2.0000      -0.734959       -19.9992
  18   2.0000      -0.720876       -19.6160
  19   2.0000      -0.671628       -18.2759
  20   2.0000      -0.643822       -17.5193
  21   2.0000      -0.626024       -17.0350
  22   2.0000      -0.616676       -16.7806
  23   2.0000      -0.586619       -15.9627
  24   2.0000      -0.561419       -15.2770
  25   2.0000      -0.550232       -14.9726
  26   2.0000      -0.535583       -14.5739
  27   2.0000      -0.518797       -14.1172
  28   2.0000      -0.501407       -13.6440
  29   2.0000      -0.472498       -12.8573
  30   2.0000      -0.442760       -12.0481
  31   2.0000      -0.392552       -10.6819
  32   2.0000      -0.386328       -10.5125
  33   0.0000       0.125560         3.4167
  34   0.0000       0.140065         3.8114
  35   0.0000       0.155801         4.2396
  36   0.0000       0.167684         4.5629
  37   0.0000       0.175480         4.7751

MULLIKEN ATOMIC CHARGES
-----------------------
   0 O :   -0.270247
   1 C :    0.100443
   2 C :   -0.202449
   3 C :   -0.199359
   4 C :   -0.141952
   5 C :    0.055422
   6 O :   -0.336596
   7 C :    0.159059
   8 C :   -0.236381
   9 H :    0.137555
  10 H :    0.139798
  11 H :    0.124308
  12 H :    0.122608
  13 H :    0.125170
  14 H :    0.138114
  15 H :    0.132943
  16 H :    0.151564
Sum of atomic charges:   -0.0000000

LOEWDIN ATOMIC CHARGES
----------------------
   0 O :    0.157510
   1 C :   -0.305575
   2 C :   -0.218301
   3 C :   -0.225322
   4 C :   -0.192831
   5 C :   -0.222755
   6 O :    0.174596
   7 C :   -0.201510
   8 C :   -0.144092
   9 H :    0.145476
  10 H :    0.159574
  11 H :    0.147069
  12 H :    0.142781
  13 H :    0.162552
  14 H :    0.132820
  15 H :    0.148850
  16 H :    0.139159

  Mayer bond orders larger than 0.1
B(  0-O ,  1-C ) :   2.0212 B(  1-C ,  2-C ) :   0.9359 B(  1-C ,  7-C ) :   0.8833
B(  2-C ,  3-C ) :   0.9229 B(  2-C ,  9-H ) :   0.9216 B(  2-C , 10-H ) :   0.8964
B(  3-C ,  4-C ) :   0.9078 B(  3-C , 11-H ) :   0.9265 B(  3-C , 12-H ) :   0.9205
B(  4-C ,  5-C ) :   0.8766 B(  4-C ,  8-C ) :   0.8843 B(  4-C , 13-H ) :   0.9215
B(  5-C ,  6-O ) :   0.9361 B(  5-C ,  8-C ) :   0.9054 B(  5-C , 14-H ) :   0.9242
B(  6-O ,  7-C ) :   0.9085 B(  7-C ,  8-C ) :   0.8888 B(  7-C , 15-H ) :   0.9095
B(  8-C , 16-H ) :   0.9120

MP2 TOTAL ENERGY:     -421.097035368 Eh
FINAL SINGLE POINT ENERGY      -421.097035368281

DIPOLE MOMENT
-------------
                                X             Y             Z
Electronic contribution:      3.20831      -2.82657       2.47691
Nuclear contribution   :     -3.31675       3.92322      -3.20966
                        -----------------------------------------
Total Dipole Moment    :     -0.10844       1.09665      -0.73275
                        -----------------------------------------
Magnitude (a.u.)       :      1.32338
Magnitude (Debye)      :      3.36375

                             ****ORCA TERMINATED NORMALLY****
TOTAL RUN TIME: 0 days 0 hours 17 minutes 21 seconds 561 msec
