                         Program Version 3.0.3 - RELEASE   -
|  1> ! RI-MP2 RIJK def2-TZVP def2-TZVP/C def2-TZVP/JK TIGHTSCF
|  2> % maxcore 2000
|  3> % mp2 density relaxed end
|  4> *xyz 0 1
|  5>  C        0.0837147709     1.4768315571    -0.1454092160
|  6>  C        0.0149076817    -0.0098702492     0.0881325699
|  7>  O        1.2671212269    -0.7343780265     0.0287901306
|  8>  C        0.5788094156    -0.6691759232     1.2625745852
|  9>  C        1.0674255163    -0.0842430090     2.5629068806
| 10>  C        0.1014849368    -0.9314881180     3.3160802991
| 11>  C        0.0604476455    -1.8773152735     2.0519018071
| 12>  C        1.3751533558    -2.4532003454     2.6048611745
| 13>  N        1.5529511478    -1.2110029407     3.4405935306
| 14>  H        0.9197562517     1.9219617053     0.3994142735
| 15>  H        0.2179699601     1.6898479455    -1.2109322591
| 16>  H       -0.8445579749     1.9595501954     0.1790554719
| 17>  H       -0.8010253213    -0.5216303742    -0.4264158673
| 18>  H        1.4492507315     0.9019309462     2.7876564646
| 19>  H       -0.5713646281    -0.7170527521     4.1345368888
| 20>  H       -0.7609470383    -2.4871638603     1.6822709600
| 21>  H        1.2358234093    -3.2983442200     3.2825333514
| 22>  H        2.1803506827    -2.6606073575     1.8921415346
| 23> *
| 24>
| 25>                          ****END OF INPUT****

CARTESIAN COORDINATES (ANGSTROEM)
---------------------------------
  C      0.083715    1.476832   -0.145409
  C      0.014908   -0.009870    0.088133
  O      1.267121   -0.734378    0.028790
  C      0.578809   -0.669176    1.262575
  C      1.067426   -0.084243    2.562907
  C      0.101485   -0.931488    3.316080
  C      0.060448   -1.877315    2.051902
  C      1.375153   -2.453200    2.604861
  N      1.552951   -1.211003    3.440594
  H      0.919756    1.921962    0.399414
  H      0.217970    1.689848   -1.210932
  H     -0.844558    1.959550    0.179055
  H     -0.801025   -0.521630   -0.426416
  H      1.449251    0.901931    2.787656
  H     -0.571365   -0.717053    4.134537
  H     -0.760947   -2.487164    1.682271
  H      1.235823   -3.298344    3.282533
  H      2.180351   -2.660607    1.892142

 Total Charge           Charge          ....    0
 Multiplicity           Mult            ....    1
 Number of Electrons    NEL             ....   66
 Basis Dimension        Dim             ....  333

ORBITAL ENERGIES
----------------

  NO   OCC          E(Eh)            E(eV)
   0   2.0000     -20.563727      -559.5675
   1   2.0000     -15.570456      -423.6936
   2   2.0000     -11.298827      -307.4567
   3   2.0000     -11.292315      -307.2795
   4   2.0000     -11.273493      -306.7673
   5   2.0000     -11.268261      -306.6250
   6   2.0000     -11.258926      -306.3709
   7   2.0000     -11.251861      -306.1787
   8   2.0000     -11.230028      -305.5846
   9   2.0000      -1.414095       -38.4795
  10   2.0000      -1.320932       -35.9444
  11   2.0000      -1.023667       -27.8554
  12   2.0000      -1.012457       -27.5503
  13   2.0000      -0.992225       -26.9998
  14   2.0000      -0.872430       -23.7400
  15   2.0000      -0.848345       -23.0846
  16   2.0000      -0.770358       -20.9625
  17   2.0000      -0.739624       -20.1262
  18   2.0000      -0.709768       -19.3138
  19   2.0000      -0.672945       -18.3118
  20   2.0000      -0.617130       -16.7930
  21   2.0000      -0.609080       -16.5739
  22   2.0000      -0.590787       -16.0761
  23   2.0000      -0.586705       -15.9651
  24   2.0000      -0.569235       -15.4897
  25   2.0000      -0.538422       -14.6512
  26   2.0000      -0.503105       -13.6902
  27   2.0000      -0.480857       -13.0848
  28   2.0000      -0.462502       -12.5853
  29   2.0000      -0.447727       -12.1833
  30   2.0000      -0.416293       -11.3279
  31   2.0000      -0.415541       -11.3074
  32   2.0000      -0.379306       -10.3214
  33   0.0000       0.141236         3.8432
  34   0.0000       0.160405         4.3648
  35   0.0000       0.165862         4.5133
  36   0.0000       0.174389         4.7454
  37   0.0000       0.187706         5.1077

MULLIKEN ATOMIC CHARGES
-----------------------
   0 C :   -0.393827
   1 C :    0.017583
   2 O :   -0.344769
   3 C :    0.091675
   4 C :   -0.056991
   5 C :   -0.144766
   6 C :   -0.040363
   7 C :   -0.121424
   8 N :   -0.223499
   9 H :    0.138947
  10 H :    0.142707
  11 H :    0.130936
  12 H :    0.114834
  13 H :    0.147778
  14 H :    0.151868
  15 H :    0.140679
  16 H :    0.125047
  17 H :    0.123586
Sum of atomic charges:    0.0000000

LOEWDIN ATOMIC CHARGES
----------------------
   0 C :   -0.289963
   1 C :   -0.250644
   2 O :    0.182058
   3 C :   -0.286987
   4 C :   -0.167558
   5 C :   -0.155369
   6 C :   -0.142583
   7 C :   -0.218188
   8 N :    0.129069
   9 H :    0.130743
  10 H :    0.130710
  11 H :    0.131075
  12 H :    0.139085
  13 H :    0.140248
  14 H :    0.131956
  15 H :    0.136154
  16 H :    0.132922
  17 H :    0.127272

  Mayer bond orders larger than 0.1
B(  0-C ,  1-C ) :   0.8924 B(  0-C ,  9-H ) :   0.9439 B(  0-C , 10-H ) :   0.9336
B(  0-C , 11-H ) :   0.9238 B(  1-C ,  2-O ) :   0.8768 B(  1-C ,  3-C ) :   1.0135
B(  1-C , 12-H ) :   0.9090 B(  2-O ,  3-C ) :   0.9041 B(  3-C ,  4-C ) :   0.8768
B(  3-C ,  6-C ) :   0.8796 B(  4-C ,  5-C ) :   0.9067 B(  4-C ,  8-N ) :   0.9021
B(  4-C , 13-H ) :   0.9181 B(  5-C ,  6-C ) :   0.9115 B(  5-C ,  8-N ) :   0.9071
B(  5-C , 14-H ) :   0.8950 B(  6-C ,  7-C ) :   0.9179 B(  6-C , 15-H ) :   0.9045
B(  7-C ,  8-N ) :   0.9054 B(  7-C , 16-H ) :   0.9331 B(  7-C , 17-H ) :   0.9176

MP2 TOTAL ENERGY:     -401.165968698 Eh
FINAL SINGLE POINT ENERGY      -401.165968698273

DIPOLE MOMENT
-------------
                                X             Y             Z
Electronic contribution:      1.86170      -2.71550       1.86080
Nuclear contribution   :     -2.94136       2.91980      -1.96346
                        -----------------------------------------
Total Dipole Moment    :     -1.07965       0.20430      -0.10266
                        -----------------------------------------
Magnitude (a.u.)       :      1.10360
Magnitude (Debye)      :      2.80512

                             ****ORCA TERMINATED NORMALLY****
TOTAL RUN TIME: 0 days 0 hours 17 minutes 25 seconds 215 msec
