                         Program Version 3.0.3 - RELEASE   -
|  1> ! RI-MP2 RIJK def2-TZVP def2-TZVP/C def2-TZVP/JK TIGHTSCF
|  2> % maxcore 2000
|  3> % mp2 density relaxed end
|  4> *xyz 0 1
|  5>  N       -0.1465434795     1.4942638925     0.1776282916
|  6>  C       -0.0497898700     0.0573956655     0.0870328723
|  7>  C        0.8761573727    -0.4575343919     1.1967497447
|  8>  O        2.1771212440     0.0761688967     1.0417939328
|  9>  C       -1.3679305749    -0.7249838875    -0.1109010055
| 10>  O       -0.8413516251    -1.3279070288    -1.3418314233
| 11>  C        0.3255072136    -0.6173137602    -1.2544610994
| 12>  O        1.2560225357    -0.6302090072    -2.0009495625
| 13>  H        0.7801174364     1.8671149671     0.3662605029
| 14>  H       -0.4703915353     1.9070112845    -0.6913326336
| 15>  H        0.5077133022    -0.1052675671     2.1655110347
| 16>  H        0.8788581804    -1.5574445298     1.2039928241
| 17>  H        2.5147494954    -0.2186333355     0.1859333043
| 18>  H       -1.6079961191    -1.4970891787     0.6231800307
| 19>  H       -2.2394526463    -0.1029630997    -0.3218929839
| 20> *
| 21>
| 22>                          ****END OF INPUT****

CARTESIAN COORDINATES (ANGSTROEM)
---------------------------------
  N     -0.146543    1.494264    0.177628
  C     -0.049790    0.057396    0.087033
  C      0.876157   -0.457534    1.196750
  O      2.177121    0.076169    1.041794
  C     -1.367931   -0.724984   -0.110901
  O     -0.841352   -1.327907   -1.341831
  C      0.325507   -0.617314   -1.254461
  O      1.256023   -0.630209   -2.000950
  H      0.780117    1.867115    0.366261
  H     -0.470392    1.907011   -0.691333
  H      0.507713   -0.105268    2.165511
  H      0.878858   -1.557445    1.203993
  H      2.514749   -0.218633    0.185933
  H     -1.607996   -1.497089    0.623180
  H     -2.239453   -0.102963   -0.321893

 Total Charge           Charge          ....    0
 Multiplicity           Mult            ....    1
 Number of Electrons    NEL             ....   62
 Basis Dimension        Dim             ....  290

ORBITAL ENERGIES
----------------

  NO   OCC          E(Eh)            E(eV)
   0   2.0000     -20.614626      -560.9525
   1   2.0000     -20.577477      -559.9416
   2   2.0000     -20.567972      -559.6830
   3   2.0000     -15.572292      -423.7436
   4   2.0000     -11.390694      -309.9565
   5   2.0000     -11.316245      -307.9307
   6   2.0000     -11.306278      -307.6595
   7   2.0000     -11.305661      -307.6427
   8   2.0000      -1.476256       -40.1710
   9   2.0000      -1.392350       -37.8878
  10   2.0000      -1.385145       -37.6917
  11   2.0000      -1.220342       -33.2072
  12   2.0000      -1.040066       -28.3016
  13   2.0000      -0.948814       -25.8185
  14   2.0000      -0.902696       -24.5636
  15   2.0000      -0.754560       -20.5326
  16   2.0000      -0.733730       -19.9658
  17   2.0000      -0.714962       -19.4551
  18   2.0000      -0.704129       -19.1603
  19   2.0000      -0.691647       -18.8207
  20   2.0000      -0.657801       -17.8997
  21   2.0000      -0.629192       -17.1212
  22   2.0000      -0.595471       -16.2036
  23   2.0000      -0.583182       -15.8692
  24   2.0000      -0.572493       -15.5783
  25   2.0000      -0.553122       -15.0512
  26   2.0000      -0.517579       -14.0840
  27   2.0000      -0.482669       -13.1341
  28   2.0000      -0.481410       -13.0998
  29   2.0000      -0.465470       -12.6661
  30   2.0000      -0.407848       -11.0981
  31   0.0000       0.122724         3.3395
  32   0.0000       0.145922         3.9707
  33   0.0000       0.153845         4.1863
  34   0.0000       0.170941         4.6516
  35   0.0000       0.177693         4.8353

MULLIKEN ATOMIC CHARGES
-----------------------
   0 N :   -0.524887
   1 C :    0.071425
   2 C :   -0.058442
   3 O :   -0.471452
   4 C :   -0.065295
   5 O :   -0.228837
   6 C :    0.223190
   7 O :   -0.283869
   8 H :    0.257221
   9 H :    0.236073
  10 H :    0.134536
  11 H :    0.121118
  12 H :    0.333399
  13 H :    0.128441
  14 H :    0.127379
Sum of atomic charges:   -0.0000000

LOEWDIN ATOMIC CHARGES
----------------------
   0 N :   -0.104088
   1 C :   -0.347951
   2 C :   -0.301380
   3 O :   -0.032333
   4 C :   -0.187856
   5 O :    0.237097
   6 C :   -0.446979
   7 O :    0.142828
   8 H :    0.170599
   9 H :    0.162452
  10 H :    0.139157
  11 H :    0.129413
  12 H :    0.183227
  13 H :    0.127317
  14 H :    0.128497

  Mayer bond orders larger than 0.1
B(  0-N ,  1-C ) :   0.9525 B(  0-N ,  8-H ) :   0.8691 B(  0-N ,  9-H ) :   0.8873
B(  1-C ,  2-C ) :   0.9047 B(  1-C ,  4-C ) :   0.9133 B(  1-C ,  6-C ) :   0.9189
B(  2-C ,  3-O ) :   0.9239 B(  2-C , 10-H ) :   0.9306 B(  2-C , 11-H ) :   0.9134
B(  3-O , 12-H ) :   0.8272 B(  4-C ,  5-O ) :   0.8827 B(  4-C , 13-H ) :   0.9180
B(  4-C , 14-H ) :   0.9095 B(  5-O ,  6-C ) :   1.1131 B(  6-C ,  7-O ) :   2.0024

MP2 TOTAL ENERGY:     -436.277496720 Eh
FINAL SINGLE POINT ENERGY      -436.277496719570

DIPOLE MOMENT
-------------
                                X             Y             Z
Electronic contribution:      1.04078      -1.79389      -4.53262
Nuclear contribution   :     -1.72254       1.93962       5.07407
                        -----------------------------------------
Total Dipole Moment    :     -0.68176       0.14573       0.54145
                        -----------------------------------------
Magnitude (a.u.)       :      0.88272
Magnitude (Debye)      :      2.24370

                             ****ORCA TERMINATED NORMALLY****
TOTAL RUN TIME: 0 days 0 hours 11 minutes 16 seconds 269 msec
