                         Program Version 3.0.3 - RELEASE   -
|  1> ! RI-MP2 RIJK def2-TZVP def2-TZVP/C def2-TZVP/JK TIGHTSCF
|  2> % maxcore 2000
|  3> % mp2 density relaxed end
|  4> *xyz 0 1
|  5>  C       -0.2096308535     1.5301060672    -0.0593279070
|  6>  C        0.0328961337     0.0095371173     0.0020017393
|  7>  C        0.7340417465    -0.4479492859    -1.2559318698
|  8>  C        1.9737685963    -0.9293467215    -1.3036454465
|  9>  C        2.8306695713    -1.1096611264    -0.0817420635
| 10>  C        2.2960753765    -0.3005540378     1.1061755941
| 11>  C        0.7746094811    -0.4754105820     1.2740896746
| 12>  C        0.2793905567     0.2142848967     2.5496345488
| 13>  O        0.4542647968    -1.8743084298     1.3524780859
| 14>  H        0.7306841275     2.0880524497     0.0019161835
| 15>  H       -0.6800535798     1.7943483584    -1.0118605175
| 16>  H       -0.8692070314     1.8745923868     0.7416636855
| 17>  H       -0.9502333782    -0.4795386240     0.0374982328
| 18>  H        0.1616373653    -0.3429141797    -2.1757820133
| 19>  H        2.3968338733    -1.2374631931    -2.2569263678
| 20>  H        2.8604098819    -2.1760919345     0.1806496512
| 21>  H        3.8672306294    -0.8223802203    -0.2965394554
| 22>  H        2.8037439581    -0.5983683122     2.0331141795
| 23>  H        2.5181701010     0.7636159021     0.9602066386
| 24>  H        0.5375157075     1.2766443443     2.5753198823
| 25>  H       -0.8061284081     0.1147593137     2.6461045132
| 26>  H        0.7400434390    -0.2556802396     3.4271224273
| 27>  H        0.8996440491    -2.2313435692     2.1286249140
| 28> *
| 29>
| 30>                          ****END OF INPUT****

CARTESIAN COORDINATES (ANGSTROEM)
---------------------------------
  C     -0.209631    1.530106   -0.059328
  C      0.032896    0.009537    0.002002
  C      0.734042   -0.447949   -1.255932
  C      1.973769   -0.929347   -1.303645
  C      2.830670   -1.109661   -0.081742
  C      2.296075   -0.300554    1.106176
  C      0.774609   -0.475411    1.274090
  C      0.279391    0.214285    2.549635
  O      0.454265   -1.874308    1.352478
  H      0.730684    2.088052    0.001916
  H     -0.680054    1.794348   -1.011861
  H     -0.869207    1.874592    0.741664
  H     -0.950233   -0.479539    0.037498
  H      0.161637   -0.342914   -2.175782
  H      2.396834   -1.237463   -2.256926
  H      2.860410   -2.176092    0.180650
  H      3.867231   -0.822380   -0.296539
  H      2.803744   -0.598368    2.033114
  H      2.518170    0.763616    0.960207
  H      0.537516    1.276644    2.575320
  H     -0.806128    0.114759    2.646105
  H      0.740043   -0.255680    3.427122
  H      0.899644   -2.231344    2.128625

 Total Charge           Charge          ....    0
 Multiplicity           Mult            ....    1
 Number of Electrons    NEL             ....   70
 Basis Dimension        Dim             ....  363

ORBITAL ENERGIES
----------------

  NO   OCC          E(Eh)            E(eV)
   0   2.0000     -20.546456      -559.0975
   1   2.0000     -11.282587      -307.0148
   2   2.0000     -11.226017      -305.4754
   3   2.0000     -11.220112      -305.3148
   4   2.0000     -11.219349      -305.2940
   5   2.0000     -11.215662      -305.1937
   6   2.0000     -11.215592      -305.1918
   7   2.0000     -11.214074      -305.1505
   8   2.0000     -11.213653      -305.1390
   9   2.0000      -1.355492       -36.8848
  10   2.0000      -1.116756       -30.3885
  11   2.0000      -1.034898       -28.1610
  12   2.0000      -1.019188       -27.7335
  13   2.0000      -0.947853       -25.7924
  14   2.0000      -0.897768       -24.4295
  15   2.0000      -0.835450       -22.7338
  16   2.0000      -0.782394       -21.2900
  17   2.0000      -0.691298       -18.8112
  18   2.0000      -0.666522       -18.1370
  19   2.0000      -0.658444       -17.9172
  20   2.0000      -0.621895       -16.9226
  21   2.0000      -0.604662       -16.4537
  22   2.0000      -0.598138       -16.2762
  23   2.0000      -0.565177       -15.3793
  24   2.0000      -0.552183       -15.0257
  25   2.0000      -0.540118       -14.6974
  26   2.0000      -0.525289       -14.2938
  27   2.0000      -0.516708       -14.0603
  28   2.0000      -0.507029       -13.7970
  29   2.0000      -0.498407       -13.5623
  30   2.0000      -0.483473       -13.1560
  31   2.0000      -0.469090       -12.7646
  32   2.0000      -0.427607       -11.6358
  33   2.0000      -0.421652       -11.4737
  34   2.0000      -0.339325        -9.2335
  35   0.0000       0.126697         3.4476
  36   0.0000       0.147517         4.0141
  37   0.0000       0.160272         4.3612
  38   0.0000       0.171292         4.6611
  39   0.0000       0.177333         4.8255

MULLIKEN ATOMIC CHARGES
-----------------------
   0 C :   -0.441529
   1 C :    0.047374
   2 C :   -0.217348
   3 C :   -0.198464
   4 C :   -0.086111
   5 C :   -0.358069
   6 C :    0.254223
   7 C :   -0.422222
   8 O :   -0.476052
   9 H :    0.129418
  10 H :    0.135577
  11 H :    0.136678
  12 H :    0.101604
  13 H :    0.114112
  14 H :    0.115103
  15 H :    0.099969
  16 H :    0.122403
  17 H :    0.121221
  18 H :    0.113279
  19 H :    0.135364
  20 H :    0.147725
  21 H :    0.120412
  22 H :    0.305333
Sum of atomic charges:    0.0000000

LOEWDIN ATOMIC CHARGES
----------------------
   0 C :   -0.283446
   1 C :   -0.227003
   2 C :   -0.146181
   3 C :   -0.169075
   4 C :   -0.253133
   5 C :   -0.224647
   6 C :   -0.368319
   7 C :   -0.279686
   8 O :    0.010992
   9 H :    0.122691
  10 H :    0.126668
  11 H :    0.121814
  12 H :    0.166378
  13 H :    0.143232
  14 H :    0.140457
  15 H :    0.145390
  16 H :    0.140870
  17 H :    0.137264
  18 H :    0.145113
  19 H :    0.127708
  20 H :    0.129084
  21 H :    0.122116
  22 H :    0.171714

  Mayer bond orders larger than 0.1
B(  0-C ,  1-C ) :   0.8602 B(  0-C ,  9-H ) :   0.9348 B(  0-C , 10-H ) :   0.9376
B(  0-C , 11-H ) :   0.9362 B(  1-C ,  2-C ) :   0.9424 B(  1-C ,  6-C ) :   0.8775
B(  1-C , 12-H ) :   0.9059 B(  2-C ,  3-C ) :   1.8247 B(  2-C , 13-H ) :   0.9263
B(  3-C ,  4-C ) :   0.9478 B(  3-C , 14-H ) :   0.9295 B(  4-C ,  5-C ) :   0.9510
B(  4-C , 15-H ) :   0.8943 B(  4-C , 16-H ) :   0.9274 B(  5-C ,  6-C ) :   0.9271
B(  5-C , 17-H ) :   0.9285 B(  5-C , 18-H ) :   0.9198 B(  6-C ,  7-C ) :   0.9004
B(  6-C ,  8-O ) :   0.9028 B(  7-C , 19-H ) :   0.9350 B(  7-C , 20-H ) :   0.9523
B(  7-C , 21-H ) :   0.9216 B(  8-O , 22-H ) :   0.8457

MP2 TOTAL ENERGY:     -387.642320967 Eh
FINAL SINGLE POINT ENERGY      -387.642320966666

DIPOLE MOMENT
-------------
                                X             Y             Z
Electronic contribution:      0.14141      -4.50207      -2.02258
Nuclear contribution   :      0.18605       4.79215       2.46396
                        -----------------------------------------
Total Dipole Moment    :      0.32746       0.29008       0.44138
                        -----------------------------------------
Magnitude (a.u.)       :      0.62144
Magnitude (Debye)      :      1.57958

                             ****ORCA TERMINATED NORMALLY****
TOTAL RUN TIME: 0 days 0 hours 21 minutes 53 seconds 987 msec
