                         Program Version 3.0.3 - RELEASE   -
|  1> ! RI-MP2 RIJK def2-TZVP def2-TZVP/C def2-TZVP/JK TIGHTSCF
|  2> % maxcore 2000
|  3> % mp2 density relaxed end
|  4> *xyz 0 1
|  5>  O       -0.0340776249     1.3565202566     0.1564059499
|  6>  C       -0.0174593639    -0.0208250725     0.0189940417
|  7>  C       -0.5270128919    -0.6251787297    -1.2817577715
|  8>  C       -1.3264413874    -0.7864017372    -0.0156252977
|  9>  C       -1.4119824773    -2.1447004282     0.6520188835
| 10>  C       -0.0773727070    -2.7832347234     0.9171119944
| 11>  C        1.0876392504    -2.1216904559     0.9120487558
| 12>  C        1.1504023947    -0.6698679083     0.6793813289
| 13>  O        2.0914111628     0.0238721452     1.0383563021
| 14>  H        0.8515560975     1.5703734092     0.4947329014
| 15>  H       -0.8801424336     0.1042970950    -2.0012983098
| 16>  H       -0.0171716100    -1.4875158503    -1.6977028874
| 17>  H       -2.2102764835    -0.1623197390     0.0667449605
| 18>  H       -1.9475227968    -2.0688247079     1.6098239398
| 19>  H       -2.0191028269    -2.8234287022     0.0367602500
| 20>  H       -0.0886100420    -3.8428005649     1.1631297033
| 21>  H        2.0236177198    -2.6061254865     1.1699511752
| 22> *
| 23>
| 24>                          ****END OF INPUT****

CARTESIAN COORDINATES (ANGSTROEM)
---------------------------------
  O     -0.034078    1.356520    0.156406
  C     -0.017459   -0.020825    0.018994
  C     -0.527013   -0.625179   -1.281758
  C     -1.326441   -0.786402   -0.015625
  C     -1.411982   -2.144700    0.652019
  C     -0.077373   -2.783235    0.917112
  C      1.087639   -2.121690    0.912049
  C      1.150402   -0.669868    0.679381
  O      2.091411    0.023872    1.038356
  H      0.851556    1.570373    0.494733
  H     -0.880142    0.104297   -2.001298
  H     -0.017172   -1.487516   -1.697703
  H     -2.210276   -0.162320    0.066745
  H     -1.947523   -2.068825    1.609824
  H     -2.019103   -2.823429    0.036760
  H     -0.088610   -3.842801    1.163130
  H      2.023618   -2.606125    1.169951

 Total Charge           Charge          ....    0
 Multiplicity           Mult            ....    1
 Number of Electrons    NEL             ....   66
 Basis Dimension        Dim             ....  327

ORBITAL ENERGIES
----------------

  NO   OCC          E(Eh)            E(eV)
   0   2.0000     -20.559660      -559.4568
   1   2.0000     -20.549687      -559.1854
   2   2.0000     -11.338598      -308.5389
   3   2.0000     -11.300565      -307.5040
   4   2.0000     -11.276325      -306.8444
   5   2.0000     -11.257818      -306.3408
   6   2.0000     -11.253676      -306.2281
   7   2.0000     -11.247416      -306.0578
   8   2.0000     -11.240424      -305.8675
   9   2.0000      -1.405787       -38.2534
  10   2.0000      -1.363295       -37.0971
  11   2.0000      -1.176611       -32.0172
  12   2.0000      -1.088607       -29.6225
  13   2.0000      -1.004191       -27.3254
  14   2.0000      -0.893906       -24.3244
  15   2.0000      -0.840000       -22.8576
  16   2.0000      -0.809626       -22.0310
  17   2.0000      -0.741341       -20.1729
  18   2.0000      -0.691534       -18.8176
  19   2.0000      -0.676942       -18.4205
  20   2.0000      -0.659815       -17.9545
  21   2.0000      -0.626347       -17.0438
  22   2.0000      -0.605643       -16.4804
  23   2.0000      -0.598792       -16.2939
  24   2.0000      -0.580161       -15.7870
  25   2.0000      -0.563708       -15.3393
  26   2.0000      -0.538352       -14.6493
  27   2.0000      -0.527995       -14.3675
  28   2.0000      -0.506205       -13.7745
  29   2.0000      -0.460466       -12.5299
  30   2.0000      -0.417137       -11.3509
  31   2.0000      -0.388825       -10.5805
  32   2.0000      -0.383793       -10.4435
  33   0.0000       0.082677         2.2498
  34   0.0000       0.130170         3.5421
  35   0.0000       0.163334         4.4445
  36   0.0000       0.172941         4.7060
  37   0.0000       0.180926         4.9233

MULLIKEN ATOMIC CHARGES
-----------------------
   0 O :   -0.459559
   1 C :    0.198431
   2 C :   -0.313504
   3 C :   -0.149833
   4 C :   -0.146763
   5 C :   -0.155089
   6 C :   -0.211424
   7 C :    0.262027
   8 O :   -0.344116
   9 H :    0.339003
  10 H :    0.145317
  11 H :    0.143281
  12 H :    0.139201
  13 H :    0.140202
  14 H :    0.134577
  15 H :    0.137310
  16 H :    0.140939
Sum of atomic charges:   -0.0000000

LOEWDIN ATOMIC CHARGES
----------------------
   0 O :    0.036617
   1 C :   -0.314174
   2 C :   -0.168778
   3 C :   -0.171343
   4 C :   -0.226080
   5 C :   -0.114995
   6 C :   -0.127987
   7 C :   -0.293424
   8 O :    0.126311
   9 H :    0.193247
  10 H :    0.144725
  11 H :    0.140097
  12 H :    0.159200
  13 H :    0.158595
  14 H :    0.154607
  15 H :    0.148234
  16 H :    0.155150

  Mayer bond orders larger than 0.1
B(  0-O ,  1-C ) :   1.1193 B(  0-O ,  9-H ) :   0.7945 B(  1-C ,  2-C ) :   0.8153
B(  1-C ,  3-C ) :   0.7897 B(  1-C ,  7-C ) :   0.9490 B(  2-C ,  3-C ) :   0.8852
B(  2-C , 10-H ) :   0.9189 B(  2-C , 11-H ) :   0.9025 B(  3-C ,  4-C ) :   0.9191
B(  3-C , 12-H ) :   0.9074 B(  4-C ,  5-C ) :   0.9613 B(  4-C , 13-H ) :   0.8956
B(  4-C , 14-H ) :   0.9108 B(  5-C ,  6-C ) :   1.7105 B(  5-C , 15-H ) :   0.9243
B(  6-C ,  7-C ) :   1.0298 B(  6-C , 16-H ) :   0.9175 B(  7-C ,  8-O ) :   1.7995

MP2 TOTAL ENERGY:     -421.137311406 Eh
FINAL SINGLE POINT ENERGY      -421.137311405613

DIPOLE MOMENT
-------------
                                X             Y             Z
Electronic contribution:      4.15854       3.36666       1.61531
Nuclear contribution   :     -4.90955      -4.57231      -1.77621
                        -----------------------------------------
Total Dipole Moment    :     -0.75102      -1.20565      -0.16089
                        -----------------------------------------
Magnitude (a.u.)       :      1.42951
Magnitude (Debye)      :      3.63354

                             ****ORCA TERMINATED NORMALLY****
TOTAL RUN TIME: 0 days 0 hours 18 minutes 54 seconds 610 msec
