                         Program Version 3.0.3 - RELEASE   -
|  1> ! RI-MP2 RIJK def2-TZVP def2-TZVP/C def2-TZVP/JK TIGHTSCF
|  2> % maxcore 2000
|  3> % mp2 density relaxed end
|  4> *xyz 0 1
|  5>  N        0.2503009190    -1.2270054366     0.2598935670
|  6>  C        0.1193827789    -0.0837906114     0.1484885867
|  7>  C       -0.0220014268     1.3693767381     0.0285272313
|  8>  C       -0.8522823123     1.9230033951     1.2140183318
|  9>  C       -1.5202297055     3.2880943294     0.9734953810
| 10>  C       -0.6545617072     4.4040040947     0.3386538198
| 11>  C        0.8636286240     4.2685290217     0.4808179437
| 12>  O        1.4111603711     3.3386315640    -0.4457021100
| 13>  C        1.3996422911     1.9916755305    -0.0588330626
| 14>  H       -0.5383018410     1.5740230541    -0.9180732325
| 15>  H       -1.6355411167     1.2025191049     1.4683425933
| 16>  H       -0.1932575681     1.9676696549     2.0890987771
| 17>  H       -2.4081520252     3.1407843793     0.3481615837
| 18>  H       -1.8986251651     3.6280331095     1.9440575588
| 19>  H       -0.8524140713     4.4675965116    -0.7370863330
| 20>  H       -0.9571814334     5.3698195026     0.7595733817
| 21>  H        1.3335098228     5.2265569901     0.2364508532
| 22>  H        1.1618990582     4.0088727654     1.5088091818
| 23>  H        1.8984565959     1.8512591177     0.9141660989
| 24>  H        1.9812890918     1.4571280244    -0.8148697916
| 25> *
| 26>
| 27>                          ****END OF INPUT****

CARTESIAN COORDINATES (ANGSTROEM)
---------------------------------
  N      0.250301   -1.227005    0.259894
  C      0.119383   -0.083791    0.148489
  C     -0.022001    1.369377    0.028527
  C     -0.852282    1.923003    1.214018
  C     -1.520230    3.288094    0.973495
  C     -0.654562    4.404004    0.338654
  C      0.863629    4.268529    0.480818
  O      1.411160    3.338632   -0.445702
  C      1.399642    1.991676   -0.058833
  H     -0.538302    1.574023   -0.918073
  H     -1.635541    1.202519    1.468343
  H     -0.193258    1.967670    2.089099
  H     -2.408152    3.140784    0.348162
  H     -1.898625    3.628033    1.944058
  H     -0.852414    4.467597   -0.737086
  H     -0.957181    5.369820    0.759573
  H      1.333510    5.226557    0.236451
  H      1.161899    4.008873    1.508809
  H      1.898457    1.851259    0.914166
  H      1.981289    1.457128   -0.814870

 Total Charge           Charge          ....    0
 Multiplicity           Mult            ....    1
 Number of Electrons    NEL             ....   68
 Basis Dimension        Dim             ....  345

ORBITAL ENERGIES
----------------

  NO   OCC          E(Eh)            E(eV)
   0   2.0000     -20.569959      -559.7370
   1   2.0000     -15.569159      -423.6584
   2   2.0000     -11.299951      -307.4873
   3   2.0000     -11.288594      -307.1783
   4   2.0000     -11.285016      -307.0809
   5   2.0000     -11.271707      -306.7187
   6   2.0000     -11.251722      -306.1749
   7   2.0000     -11.241995      -305.9102
   8   2.0000     -11.236097      -305.7498
   9   2.0000      -1.392886       -37.9023
  10   2.0000      -1.219804       -33.1926
  11   2.0000      -1.114609       -30.3300
  12   2.0000      -1.074355       -29.2347
  13   2.0000      -0.964204       -26.2373
  14   2.0000      -0.935957       -25.4687
  15   2.0000      -0.841552       -22.8998
  16   2.0000      -0.792336       -21.5606
  17   2.0000      -0.721082       -19.6216
  18   2.0000      -0.688184       -18.7265
  19   2.0000      -0.673289       -18.3211
  20   2.0000      -0.650782       -17.7087
  21   2.0000      -0.620066       -16.8729
  22   2.0000      -0.594623       -16.1805
  23   2.0000      -0.585441       -15.9306
  24   2.0000      -0.559964       -15.2374
  25   2.0000      -0.555793       -15.1239
  26   2.0000      -0.539734       -14.6869
  27   2.0000      -0.514778       -14.0078
  28   2.0000      -0.489866       -13.3299
  29   2.0000      -0.479398       -13.0451
  30   2.0000      -0.476425       -12.9642
  31   2.0000      -0.459669       -12.5082
  32   2.0000      -0.450587       -12.2611
  33   2.0000      -0.426959       -11.6182
  34   0.0000       0.120169         3.2700
  35   0.0000       0.139308         3.7908
  36   0.0000       0.151233         4.1153
  37   0.0000       0.162289         4.4161
  38   0.0000       0.172890         4.7046

MULLIKEN ATOMIC CHARGES
-----------------------
   0 N :   -0.050492
   1 C :   -0.207732
   2 C :    0.071643
   3 C :   -0.250327
   4 C :   -0.259885
   5 C :   -0.218692
   6 C :   -0.065020
   7 O :   -0.298841
   8 C :   -0.126293
   9 H :    0.127606
  10 H :    0.149564
  11 H :    0.127380
  12 H :    0.129454
  13 H :    0.129120
  14 H :    0.117361
  15 H :    0.124617
  16 H :    0.135922
  17 H :    0.101272
  18 H :    0.121453
  19 H :    0.141889
Sum of atomic charges:    0.0000000

LOEWDIN ATOMIC CHARGES
----------------------
   0 N :    0.061246
   1 C :   -0.173794
   2 C :   -0.237431
   3 C :   -0.230831
   4 C :   -0.266460
   5 C :   -0.274016
   6 C :   -0.312813
   7 O :    0.165270
   8 C :   -0.296483
   9 H :    0.178356
  10 H :    0.150522
  11 H :    0.143598
  12 H :    0.140725
  13 H :    0.142016
  14 H :    0.143148
  15 H :    0.142509
  16 H :    0.132656
  17 H :    0.122523
  18 H :    0.128472
  19 H :    0.140787

  Mayer bond orders larger than 0.1
B(  0-N ,  1-C ) :   2.8869 B(  1-C ,  2-C ) :   0.8984 B(  2-C ,  3-C ) :   0.8756
B(  2-C ,  8-C ) :   0.8841 B(  2-C ,  9-H ) :   0.8998 B(  3-C ,  4-C ) :   0.9176
B(  3-C , 10-H ) :   0.9276 B(  3-C , 11-H ) :   0.9296 B(  4-C ,  5-C ) :   0.9172
B(  4-C , 12-H ) :   0.9391 B(  4-C , 13-H ) :   0.9372 B(  5-C ,  6-C ) :   0.9318
B(  5-C , 14-H ) :   0.9220 B(  5-C , 15-H ) :   0.9241 B(  6-C ,  7-O ) :   0.9002
B(  6-C , 16-H ) :   0.9333 B(  6-C , 17-H ) :   0.9347 B(  7-O ,  8-C ) :   0.9683
B(  8-C , 18-H ) :   0.9389 B(  8-C , 19-H ) :   0.9296

MP2 TOTAL ENERGY:     -402.477651090 Eh
FINAL SINGLE POINT ENERGY      -402.477651089891

DIPOLE MOMENT
-------------
                                X             Y             Z
Electronic contribution:      2.82109      -7.44149      -2.62627
Nuclear contribution   :     -3.27363       8.99899       2.99454
                        -----------------------------------------
Total Dipole Moment    :     -0.45254       1.55750       0.36827
                        -----------------------------------------
Magnitude (a.u.)       :      1.66319
Magnitude (Debye)      :      4.22750

                             ****ORCA TERMINATED NORMALLY****
TOTAL RUN TIME: 0 days 0 hours 20 minutes 52 seconds 781 msec
