                         Program Version 3.0.3 - RELEASE   -
|  1> ! RI-MP2 RIJK def2-TZVP def2-TZVP/C def2-TZVP/JK TIGHTSCF
|  2> % maxcore 2000
|  3> % mp2 density relaxed end
|  4> *xyz 0 1
|  5>  O       -0.0229288751     0.0012719569    -0.1130016587
|  6>  C       -0.0313385447     1.1994271588    -0.0395506499
|  7>  C       -1.2404790867     2.1175270979    -0.0113723294
|  8>  N       -1.2762603298     2.9386271703     1.2288621318
|  9>  C       -0.7230596769     3.5039142522    -0.0339393489
| 10>  C        0.7661417563     3.4063841349    -0.0531750248
| 11>  C        1.1676692267     2.1214031333    -0.0090164428
| 12>  C        2.5029303686     1.6458838453     0.0598838067
| 13>  N        3.5868121602     1.2432035711     0.1121773228
| 14>  H       -2.1618601772     1.8029539657    -0.4850984022
| 15>  H       -2.2317365438     3.2756714319     1.3516092115
| 16>  H       -1.2371433127     4.3197767006    -0.5266734392
| 17>  H        1.4230704551     4.2671608610    -0.0560721267
| 18> *
| 19>
| 20>                          ****END OF INPUT****

CARTESIAN COORDINATES (ANGSTROEM)
---------------------------------
  O     -0.022929    0.001272   -0.113002
  C     -0.031339    1.199427   -0.039551
  C     -1.240479    2.117527   -0.011372
  N     -1.276260    2.938627    1.228862
  C     -0.723060    3.503914   -0.033939
  C      0.766142    3.406384   -0.053175
  C      1.167669    2.121403   -0.009016
  C      2.502930    1.645884    0.059884
  N      3.586812    1.243204    0.112177
  H     -2.161860    1.802954   -0.485098
  H     -2.231737    3.275671    1.351609
  H     -1.237143    4.319777   -0.526673
  H      1.423070    4.267161   -0.056072

 Total Charge           Charge          ....    0
 Multiplicity           Mult            ....    1
 Number of Electrons    NEL             ....   62
 Basis Dimension        Dim             ....  303

ORBITAL ENERGIES
----------------

  NO   OCC          E(Eh)            E(eV)
   0   2.0000     -20.576126      -559.9048
   1   2.0000     -15.615628      -424.9228
   2   2.0000     -15.582433      -424.0196
   3   2.0000     -11.366735      -309.3046
   4   2.0000     -11.316604      -307.9404
   5   2.0000     -11.314671      -307.8879
   6   2.0000     -11.306879      -307.6758
   7   2.0000     -11.301643      -307.5334
   8   2.0000     -11.284584      -307.0691
   9   2.0000      -1.421431       -38.6791
  10   2.0000      -1.322133       -35.9771
  11   2.0000      -1.227974       -33.4149
  12   2.0000      -1.143180       -31.1075
  13   2.0000      -0.973204       -26.4822
  14   2.0000      -0.970140       -26.3988
  15   2.0000      -0.841191       -22.8900
  16   2.0000      -0.817939       -22.2572
  17   2.0000      -0.755912       -20.5694
  18   2.0000      -0.713700       -19.4208
  19   2.0000      -0.663019       -18.0417
  20   2.0000      -0.650651       -17.7051
  21   2.0000      -0.609345       -16.5811
  22   2.0000      -0.591885       -16.1060
  23   2.0000      -0.567976       -15.4554
  24   2.0000      -0.550181       -14.9712
  25   2.0000      -0.531009       -14.4495
  26   2.0000      -0.504172       -13.7192
  27   2.0000      -0.488752       -13.2996
  28   2.0000      -0.459092       -12.4925
  29   2.0000      -0.423541       -11.5251
  30   2.0000      -0.393095       -10.6967
  31   0.0000       0.040714         1.1079
  32   0.0000       0.105251         2.8640
  33   0.0000       0.134269         3.6537
  34   0.0000       0.149374         4.0647
  35   0.0000       0.163256         4.4424

MULLIKEN ATOMIC CHARGES
-----------------------
   0 O :   -0.234846
   1 C :    0.130139
   2 C :   -0.065372
   3 N :   -0.361525
   4 C :    0.008161
   5 C :   -0.187103
   6 C :    0.181903
   7 C :   -0.159451
   8 N :   -0.035516
   9 H :    0.162465
  10 H :    0.228918
  11 H :    0.160375
  12 H :    0.171852
Sum of atomic charges:   -0.0000000

LOEWDIN ATOMIC CHARGES
----------------------
   0 O :    0.195048
   1 C :   -0.256343
   2 C :   -0.191692
   3 N :    0.033133
   4 C :   -0.222700
   5 C :   -0.022140
   6 C :   -0.114857
   7 C :   -0.140915
   8 N :    0.095567
   9 H :    0.148434
  10 H :    0.176386
  11 H :    0.145897
  12 H :    0.154182

  Mayer bond orders larger than 0.1
B(  0-O ,  1-C ) :   2.0414 B(  1-C ,  2-C ) :   0.9650 B(  1-C ,  6-C ) :   0.8775
B(  2-C ,  3-N ) :   0.9089 B(  2-C ,  4-C ) :   0.9074 B(  2-C ,  6-C ) :  -0.1141
B(  2-C ,  9-H ) :   0.9132 B(  3-N ,  4-C ) :   0.9275 B(  3-N , 10-H ) :   0.8652
B(  4-C ,  5-C ) :   0.9605 B(  4-C , 11-H ) :   0.9113 B(  5-C ,  6-C ) :   1.6614
B(  5-C , 12-H ) :   0.9053 B(  6-C ,  7-C ) :   0.8916 B(  7-C ,  8-N ) :   2.8279

MP2 TOTAL ENERGY:     -414.897009136 Eh
FINAL SINGLE POINT ENERGY      -414.897009135505

DIPOLE MOMENT
-------------
                                X             Y             Z
Electronic contribution:      3.84189      -3.38291      -0.22290
Nuclear contribution   :     -5.73096       5.27930      -0.23817
                        -----------------------------------------
Total Dipole Moment    :     -1.88907       1.89638      -0.46107
                        -----------------------------------------
Magnitude (a.u.)       :      2.71614
Magnitude (Debye)      :      6.90389

                             ****ORCA TERMINATED NORMALLY****
TOTAL RUN TIME: 0 days 0 hours 14 minutes 17 seconds 79 msec
