                         Program Version 3.0.3 - RELEASE   -
|  1> ! RI-MP2 RIJK def2-TZVP def2-TZVP/C def2-TZVP/JK TIGHTSCF
|  2> % maxcore 2000
|  3> % mp2 density relaxed end
|  4> *xyz 0 1
|  5>  N       -0.1317689886     1.1848953530    -0.4825232654
|  6>  C       -0.0553896614     0.0123246231    -0.0242482594
|  7>  O       -1.1893672925    -0.6264944994     0.3525805669
|  8>  C       -1.0143001698    -1.8404768496     1.0786906505
|  9>  C       -0.0038082004    -2.7175086218     0.3803963687
| 10>  O        1.2688494129    -2.0526791600     0.3199922993
| 11>  C        1.2838282257    -0.7263074477     0.0824933209
| 12>  O        2.3223872651    -0.1421989427    -0.0535881962
| 13>  H        0.8102486130     1.4994708853    -0.7201928269
| 14>  H       -0.6915204313    -1.6244722100     2.1058736625
| 15>  H       -1.9947201664    -2.3203556124     1.1130421642
| 16>  H        0.1678497626    -3.6478411344     0.9261486478
| 17>  H       -0.3341597988    -2.9565389932    -0.6370730628
| 18> *
| 19>
| 20>                          ****END OF INPUT****

CARTESIAN COORDINATES (ANGSTROEM)
---------------------------------
  N     -0.131769    1.184895   -0.482523
  C     -0.055390    0.012325   -0.024248
  O     -1.189367   -0.626494    0.352581
  C     -1.014300   -1.840477    1.078691
  C     -0.003808   -2.717509    0.380396
  O      1.268849   -2.052679    0.319992
  C      1.283828   -0.726307    0.082493
  O      2.322387   -0.142199   -0.053588
  H      0.810249    1.499471   -0.720193
  H     -0.691520   -1.624472    2.105874
  H     -1.994720   -2.320356    1.113042
  H      0.167850   -3.647841    0.926149
  H     -0.334160   -2.956539   -0.637073

 Total Charge           Charge          ....    0
 Multiplicity           Mult            ....    1
 Number of Electrons    NEL             ....   60
 Basis Dimension        Dim             ....  278

ORBITAL ENERGIES
----------------

  NO   OCC          E(Eh)            E(eV)
   0   2.0000     -20.633570      -561.4680
   1   2.0000     -20.619122      -561.0748
   2   2.0000     -20.570188      -559.7433
   3   2.0000     -15.567730      -423.6195
   4   2.0000     -11.414852      -310.6139
   5   2.0000     -11.366816      -309.3068
   6   2.0000     -11.329697      -308.2967
   7   2.0000     -11.326281      -308.2038
   8   2.0000      -1.496863       -40.7317
   9   2.0000      -1.448698       -39.4211
  10   2.0000      -1.395374       -37.9701
  11   2.0000      -1.227084       -33.3907
  12   2.0000      -1.068478       -29.0748
  13   2.0000      -0.936116       -25.4730
  14   2.0000      -0.922637       -25.1062
  15   2.0000      -0.780463       -21.2375
  16   2.0000      -0.772584       -21.0231
  17   2.0000      -0.722679       -19.6651
  18   2.0000      -0.702480       -19.1154
  19   2.0000      -0.664770       -18.0893
  20   2.0000      -0.649973       -17.6867
  21   2.0000      -0.646589       -17.5946
  22   2.0000      -0.624780       -17.0011
  23   2.0000      -0.601231       -16.3603
  24   2.0000      -0.540040       -14.6952
  25   2.0000      -0.536926       -14.6105
  26   2.0000      -0.490766       -13.3544
  27   2.0000      -0.486976       -13.2513
  28   2.0000      -0.450253       -12.2520
  29   2.0000      -0.420752       -11.4492
  30   0.0000       0.079387         2.1602
  31   0.0000       0.123524         3.3613
  32   0.0000       0.157845         4.2952
  33   0.0000       0.165143         4.4938
  34   0.0000       0.180062         4.8997

MULLIKEN ATOMIC CHARGES
-----------------------
   0 N :   -0.298215
   1 C :    0.110487
   2 O :   -0.227243
   3 C :   -0.094526
   4 C :   -0.078883
   5 O :   -0.204198
   6 C :    0.255027
   7 O :   -0.280239
   8 H :    0.252468
   9 H :    0.133321
  10 H :    0.148547
  11 H :    0.147878
  12 H :    0.135575
Sum of atomic charges:   -0.0000000

LOEWDIN ATOMIC CHARGES
----------------------
   0 N :    0.000090
   1 C :   -0.396485
   2 O :    0.263666
   3 C :   -0.296411
   4 C :   -0.280826
   5 O :    0.270699
   6 C :   -0.458779
   7 O :    0.157958
   8 H :    0.183012
   9 H :    0.135248
  10 H :    0.143350
  11 H :    0.141721
  12 H :    0.136758

  Mayer bond orders larger than 0.1
B(  0-N ,  1-C ) :   1.9590 B(  0-N ,  8-H ) :   0.8424 B(  1-C ,  2-O ) :   1.0799
B(  1-C ,  6-C ) :   0.9168 B(  2-O ,  3-C ) :   0.8693 B(  3-C ,  4-C ) :   0.9448
B(  3-C ,  9-H ) :   0.9279 B(  3-C , 10-H ) :   0.9212 B(  4-C ,  5-O ) :   0.8412
B(  4-C , 11-H ) :   0.9236 B(  4-C , 12-H ) :   0.9245 B(  5-O ,  6-C ) :   1.1294
B(  6-C ,  7-O ) :   1.9531

MP2 TOTAL ENERGY:     -435.084185033 Eh
FINAL SINGLE POINT ENERGY      -435.084185033334

DIPOLE MOMENT
-------------
                                X             Y             Z
Electronic contribution:      2.75201       2.78709      -1.11158
Nuclear contribution   :     -3.40740      -4.36559       1.62594
                        -----------------------------------------
Total Dipole Moment    :     -0.65539      -1.57849       0.51437
                        -----------------------------------------
Magnitude (a.u.)       :      1.78487
Magnitude (Debye)      :      4.53677

                             ****ORCA TERMINATED NORMALLY****
TOTAL RUN TIME: 0 days 0 hours 9 minutes 5 seconds 530 msec
