                         Program Version 3.0.3 - RELEASE   -
|  1> ! RI-MP2 RIJK def2-TZVP def2-TZVP/C def2-TZVP/JK TIGHTSCF
|  2> % maxcore 2000
|  3> % mp2 density relaxed end
|  4> *xyz 0 1
|  5>  O        0.0412332654    -0.0255427377     0.0036509603
|  6>  C        0.0274191805     1.1805162129     0.0096684065
|  7>  C       -1.2055831518     2.0871340330     0.0311991387
|  8>  C       -0.8321770917     3.3761401483     0.0321810286
|  9>  C        0.6568553140     3.4400378046     0.0117806017
| 10>  C        1.1351882471     2.1651323686    -0.0010174992
| 11>  O        2.4853981384     2.1361149535    -0.0199815021
| 12>  C        2.8714010143     3.4400194020    -0.0190977059
| 13>  C        1.7928659095     4.2916767893     0.0000992168
| 14>  H       -2.2071112075     1.6818353041     0.0432098354
| 15>  H       -1.4863994254     4.2382717497     0.0454448633
| 16>  H        3.9360649080     3.6081302708    -0.0331445112
| 17>  H        1.8414671893     5.3693345009     0.0046425072
| 18> *
| 19>
| 20>                          ****END OF INPUT****

CARTESIAN COORDINATES (ANGSTROEM)
---------------------------------
  O      0.041233   -0.025543    0.003651
  C      0.027419    1.180516    0.009668
  C     -1.205583    2.087134    0.031199
  C     -0.832177    3.376140    0.032181
  C      0.656855    3.440038    0.011781
  C      1.135188    2.165132   -0.001017
  O      2.485398    2.136115   -0.019982
  C      2.871401    3.440019   -0.019098
  C      1.792866    4.291677    0.000099
  H     -2.207111    1.681835    0.043210
  H     -1.486399    4.238272    0.045445
  H      3.936065    3.608130   -0.033145
  H      1.841467    5.369335    0.004643

 Total Charge           Charge          ....    0
 Multiplicity           Mult            ....    1
 Number of Electrons    NEL             ....   62
 Basis Dimension        Dim             ....  303

ORBITAL ENERGIES
----------------

  NO   OCC          E(Eh)            E(eV)
   0   2.0000     -20.649640      -561.9053
   1   2.0000     -20.566352      -559.6389
   2   2.0000     -11.353048      -308.9321
   3   2.0000     -11.317874      -307.9750
   4   2.0000     -11.291246      -307.2504
   5   2.0000     -11.279164      -306.9217
   6   2.0000     -11.261286      -306.4352
   7   2.0000     -11.256539      -306.3060
   8   2.0000     -11.252803      -306.2043
   9   2.0000      -1.484068       -40.3836
  10   2.0000      -1.402637       -38.1677
  11   2.0000      -1.176099       -32.0033
  12   2.0000      -1.080034       -29.3892
  13   2.0000      -1.001829       -27.2612
  14   2.0000      -0.910241       -24.7689
  15   2.0000      -0.839965       -22.8566
  16   2.0000      -0.792040       -21.5525
  17   2.0000      -0.760869       -20.7043
  18   2.0000      -0.700642       -19.0654
  19   2.0000      -0.664406       -18.0794
  20   2.0000      -0.659884       -17.9563
  21   2.0000      -0.647432       -17.6175
  22   2.0000      -0.616279       -16.7698
  23   2.0000      -0.595340       -16.2000
  24   2.0000      -0.559326       -15.2200
  25   2.0000      -0.558731       -15.2038
  26   2.0000      -0.553689       -15.0666
  27   2.0000      -0.463188       -12.6040
  28   2.0000      -0.432311       -11.7638
  29   2.0000      -0.384444       -10.4613
  30   2.0000      -0.315319        -8.5803
  31   0.0000       0.033881         0.9219
  32   0.0000       0.139852         3.8056
  33   0.0000       0.157483         4.2853
  34   0.0000       0.166177         4.5219
  35   0.0000       0.173629         4.7247

MULLIKEN ATOMIC CHARGES
-----------------------
   0 O :   -0.244571
   1 C :    0.115263
   2 C :   -0.094352
   3 C :   -0.256048
   4 C :    0.137579
   5 C :    0.127360
   6 O :   -0.199680
   7 C :    0.047390
   8 C :   -0.248714
   9 H :    0.155429
  10 H :    0.150133
  11 H :    0.159338
  12 H :    0.150874
Sum of atomic charges:   -0.0000000

LOEWDIN ATOMIC CHARGES
----------------------
   0 O :    0.180889
   1 C :   -0.269859
   2 C :   -0.107247
   3 C :   -0.078012
   4 C :   -0.123490
   5 C :   -0.197349
   6 O :    0.384706
   7 C :   -0.212883
   8 C :   -0.148294
   9 H :    0.143953
  10 H :    0.144338
  11 H :    0.135668
  12 H :    0.147581

  Mayer bond orders larger than 0.1
B(  0-O ,  1-C ) :   2.0201 B(  1-C ,  2-C ) :   0.9609 B(  1-C ,  5-C ) :   0.8881
B(  2-C ,  3-C ) :   1.7082 B(  2-C ,  5-C ) :  -0.1311 B(  2-C ,  9-H ) :   0.9126
B(  3-C ,  4-C ) :   0.9198 B(  3-C , 10-H ) :   0.9044 B(  4-C ,  5-C ) :   1.3522
B(  4-C ,  8-C ) :   1.1939 B(  5-C ,  6-O ) :   1.0682 B(  6-O ,  7-C ) :   1.0503
B(  7-C ,  8-C ) :   1.4776 B(  7-C , 11-H ) :   0.9333 B(  8-C , 12-H ) :   0.9125

MP2 TOTAL ENERGY:     -418.732036964 Eh
FINAL SINGLE POINT ENERGY      -418.732036963712

DIPOLE MOMENT
-------------
                                X             Y             Z
Electronic contribution:      1.05482      -3.42572      -0.03119
Nuclear contribution   :     -1.02822       4.91407       0.03800
                        -----------------------------------------
Total Dipole Moment    :      0.02660       1.48836       0.00681
                        -----------------------------------------
Magnitude (a.u.)       :      1.48861
Magnitude (Debye)      :      3.78375

                             ****ORCA TERMINATED NORMALLY****
TOTAL RUN TIME: 0 days 0 hours 14 minutes 36 seconds 199 msec
