                         Program Version 3.0.3 - RELEASE   -
|  1> ! RI-MP2 RIJK def2-TZVP def2-TZVP/C def2-TZVP/JK TIGHTSCF
|  2> % maxcore 2000
|  3> % mp2 density relaxed end
|  4> *xyz 0 1
|  5>  C       -0.0032163911     1.4739254318     0.0860581073
|  6>  C       -0.0470765749    -0.0178501907    -0.0728622263
|  7>  N        0.0319921529    -0.5717661820    -1.2070746012
|  8>  C       -0.0487912716    -2.0201528290    -1.3078004026
|  9>  C        0.2519590738    -2.7669363540    -0.0192614278
| 10>  N        1.6690089153    -2.7553393199     0.4267068143
| 11>  C        1.2542793144    -2.4822392331     1.8219583848
| 12>  C       -0.1186600430    -2.0202819050     1.2841482243
| 13>  O       -0.1980931410    -0.6052844715     1.1553699760
| 14>  H        0.8491069145     1.7636869920     0.7090399942
| 15>  H        0.0811439801     1.9412805720    -0.8940177849
| 16>  H       -0.9077059638     1.8291814206     0.5902824235
| 17>  H       -1.0582147285    -2.2858830503    -1.6543222335
| 18>  H        0.6411919499    -2.3506267508    -2.0937373653
| 19>  H       -0.1983809016    -3.7702441760    -0.0340016437
| 20>  H        2.1806958302    -3.6176623657     0.2776771640
| 21>  H        1.1611433184    -3.3710364130     2.4622165795
| 22>  H        1.8464465083    -1.7216838908     2.3401331514
| 23>  H       -1.0083398924    -2.3446851444     1.8256723361
| 24> *
| 25>
| 26>                          ****END OF INPUT****

CARTESIAN COORDINATES (ANGSTROEM)
---------------------------------
  C     -0.003216    1.473925    0.086058
  C     -0.047077   -0.017850   -0.072862
  N      0.031992   -0.571766   -1.207075
  C     -0.048791   -2.020153   -1.307800
  C      0.251959   -2.766936   -0.019261
  N      1.669009   -2.755339    0.426707
  C      1.254279   -2.482239    1.821958
  C     -0.118660   -2.020282    1.284148
  O     -0.198093   -0.605284    1.155370
  H      0.849107    1.763687    0.709040
  H      0.081144    1.941281   -0.894018
  H     -0.907706    1.829181    0.590282
  H     -1.058215   -2.285883   -1.654322
  H      0.641192   -2.350627   -2.093737
  H     -0.198381   -3.770244   -0.034002
  H      2.180696   -3.617662    0.277677
  H      1.161143   -3.371036    2.462217
  H      1.846447   -1.721684    2.340133
  H     -1.008340   -2.344685    1.825672

 Total Charge           Charge          ....    0
 Multiplicity           Mult            ....    1
 Number of Electrons    NEL             ....   68
 Basis Dimension        Dim             ....  339

ORBITAL ENERGIES
----------------

  NO   OCC          E(Eh)            E(eV)
   0   2.0000     -20.585762      -560.1671
   1   2.0000     -15.547959      -423.0815
   2   2.0000     -15.527963      -422.5374
   3   2.0000     -11.326844      -308.2191
   4   2.0000     -11.294551      -307.3404
   5   2.0000     -11.264770      -306.5300
   6   2.0000     -11.258092      -306.3483
   7   2.0000     -11.247219      -306.0524
   8   2.0000     -11.219184      -305.2895
   9   2.0000      -1.419811       -38.6350
  10   2.0000      -1.239511       -33.7288
  11   2.0000      -1.207264       -32.8513
  12   2.0000      -1.033585       -28.1253
  13   2.0000      -0.967882       -26.3374
  14   2.0000      -0.956009       -26.0143
  15   2.0000      -0.870753       -23.6944
  16   2.0000      -0.822327       -22.3767
  17   2.0000      -0.726301       -19.7637
  18   2.0000      -0.693054       -18.8590
  19   2.0000      -0.663068       -18.0430
  20   2.0000      -0.652731       -17.7617
  21   2.0000      -0.622684       -16.9441
  22   2.0000      -0.606328       -16.4990
  23   2.0000      -0.585737       -15.9387
  24   2.0000      -0.558729       -15.2038
  25   2.0000      -0.554248       -15.0819
  26   2.0000      -0.544789       -14.8245
  27   2.0000      -0.529004       -14.3949
  28   2.0000      -0.517894       -14.0926
  29   2.0000      -0.467887       -12.7318
  30   2.0000      -0.451286       -12.2801
  31   2.0000      -0.408323       -11.1110
  32   2.0000      -0.373709       -10.1691
  33   2.0000      -0.372439       -10.1346
  34   0.0000       0.127000         3.4558
  35   0.0000       0.156512         4.2589
  36   0.0000       0.159440         4.3386
  37   0.0000       0.166203         4.5226
  38   0.0000       0.186206         5.0669

MULLIKEN ATOMIC CHARGES
-----------------------
   0 C :   -0.402235
   1 C :    0.217059
   2 N :   -0.280709
   3 C :   -0.074182
   4 C :   -0.061648
   5 N :   -0.373560
   6 C :   -0.136799
   7 C :    0.085823
   8 O :   -0.280283
   9 H :    0.138820
  10 H :    0.150095
  11 H :    0.137915
  12 H :    0.112986
  13 H :    0.117735
  14 H :    0.106466
  15 H :    0.203543
  16 H :    0.106482
  17 H :    0.114108
  18 H :    0.118387
Sum of atomic charges:   -0.0000000

LOEWDIN ATOMIC CHARGES
----------------------
   0 C :   -0.266949
   1 C :   -0.391472
   2 N :    0.094295
   3 C :   -0.280130
   4 C :   -0.266078
   5 N :   -0.002930
   6 C :   -0.254771
   7 C :   -0.248461
   8 O :    0.263446
   9 H :    0.133675
  10 H :    0.135445
  11 H :    0.132789
  12 H :    0.138933
  13 H :    0.139676
  14 H :    0.140049
  15 H :    0.154619
  16 H :    0.120700
  17 H :    0.124176
  18 H :    0.132987

  Mayer bond orders larger than 0.1
B(  0-C ,  1-C ) :   0.8996 B(  0-C ,  9-H ) :   0.9253 B(  0-C , 10-H ) :   0.9482
B(  0-C , 11-H ) :   0.9264 B(  1-C ,  2-N ) :   1.8842 B(  1-C ,  8-O ) :   1.0390
B(  2-N ,  3-C ) :   0.9326 B(  3-C ,  4-C ) :   0.9217 B(  3-C , 12-H ) :   0.9240
B(  3-C , 13-H ) :   0.9227 B(  4-C ,  5-N ) :   0.9895 B(  4-C ,  7-C ) :   0.9164
B(  4-C , 14-H ) :   0.9145 B(  5-N ,  6-C ) :   0.9587 B(  5-N , 15-H ) :   0.8802
B(  6-C ,  7-C ) :   0.9199 B(  6-C , 16-H ) :   0.9181 B(  6-C , 17-H ) :   0.9129
B(  7-C ,  8-O ) :   0.8774 B(  7-C , 18-H ) :   0.9381

MP2 TOTAL ENERGY:     -418.491451847 Eh
FINAL SINGLE POINT ENERGY      -418.491451846529

DIPOLE MOMENT
-------------
                                X             Y             Z
Electronic contribution:     -0.60505      -0.14482      -0.25305
Nuclear contribution   :      0.40775      -0.83365       0.88978
                        -----------------------------------------
Total Dipole Moment    :     -0.19731      -0.97847       0.63673
                        -----------------------------------------
Magnitude (a.u.)       :      1.18395
Magnitude (Debye)      :      3.00937

                             ****ORCA TERMINATED NORMALLY****
TOTAL RUN TIME: 0 days 0 hours 18 minutes 0 seconds 428 msec
