                         Program Version 3.0.3 - RELEASE   -
|  1> ! RI-MP2 RIJK def2-TZVP def2-TZVP/C def2-TZVP/JK TIGHTSCF
|  2> % maxcore 2000
|  3> % mp2 density relaxed end
|  4> *xyz 0 1
|  5>  C        0.0739252155     1.4902142100    -0.2950331054
|  6>  N        0.0701688284     0.0560700929     0.0019914029
|  7>  C       -1.0439583036    -0.5127864464     0.8340753186
|  8>  C       -0.1119020808    -1.7366838047     1.1554842090
|  9>  C       -0.4222938969    -2.2149271792     2.5573161763
| 10>  C       -0.6540352436    -1.0930262364     3.2389121859
| 11>  C       -0.4692629618     0.0132486826     2.2073243379
| 12>  O       -0.7164202014     1.3285094650     2.5932059963
| 13>  C        0.7417099142    -0.4264397762     1.2562564159
| 14>  H        1.0578672696     1.7512873139    -0.7007865947
| 15>  H       -0.6616249200     1.6778284320    -1.0850692181
| 16>  H       -0.1460327292     2.1482092244     0.5520289878
| 17>  H       -2.0859489481    -0.5254795680     0.5004211998
| 18>  H        0.1129518748    -2.4242361956     0.3449795874
| 19>  H       -0.4471606774    -3.2430609168     2.8900675949
| 20>  H       -0.9298296522    -0.9459021131     4.2750672641
| 21>  H       -0.1950618774     1.5155887797     3.3814421214
| 22>  H        1.8199789398    -0.3346352842     1.4227409000
| 23> *
| 24>
| 25>                          ****END OF INPUT****

CARTESIAN COORDINATES (ANGSTROEM)
---------------------------------
  C      0.073925    1.490214   -0.295033
  N      0.070169    0.056070    0.001991
  C     -1.043958   -0.512786    0.834075
  C     -0.111902   -1.736684    1.155484
  C     -0.422294   -2.214927    2.557316
  C     -0.654035   -1.093026    3.238912
  C     -0.469263    0.013249    2.207324
  O     -0.716420    1.328509    2.593206
  C      0.741710   -0.426440    1.256256
  H      1.057867    1.751287   -0.700787
  H     -0.661625    1.677828   -1.085069
  H     -0.146033    2.148209    0.552029
  H     -2.085949   -0.525480    0.500421
  H      0.112952   -2.424236    0.344980
  H     -0.447161   -3.243061    2.890068
  H     -0.929830   -0.945902    4.275067
  H     -0.195062    1.515589    3.381442
  H      1.819979   -0.334635    1.422741

 Total Charge           Charge          ....    0
 Multiplicity           Mult            ....    1
 Number of Electrons    NEL             ....   66
 Basis Dimension        Dim             ....  333

ORBITAL ENERGIES
----------------

  NO   OCC          E(Eh)            E(eV)
   0   2.0000     -20.570859      -559.7615
   1   2.0000     -15.545865      -423.0245
   2   2.0000     -11.301140      -307.5197
   3   2.0000     -11.272168      -306.7313
   4   2.0000     -11.272107      -306.7296
   5   2.0000     -11.242206      -305.9160
   6   2.0000     -11.234516      -305.7067
   7   2.0000     -11.229767      -305.5775
   8   2.0000     -11.225734      -305.4677
   9   2.0000      -1.385812       -37.7099
  10   2.0000      -1.281901       -34.8823
  11   2.0000      -1.123663       -30.5764
  12   2.0000      -0.995265       -27.0825
  13   2.0000      -0.915301       -24.9066
  14   2.0000      -0.874513       -23.7967
  15   2.0000      -0.856628       -23.3100
  16   2.0000      -0.762415       -20.7464
  17   2.0000      -0.732045       -19.9200
  18   2.0000      -0.700184       -19.0530
  19   2.0000      -0.674787       -18.3619
  20   2.0000      -0.640577       -17.4310
  21   2.0000      -0.598704       -16.2916
  22   2.0000      -0.588755       -16.0208
  23   2.0000      -0.574166       -15.6238
  24   2.0000      -0.553720       -15.0675
  25   2.0000      -0.513821       -13.9818
  26   2.0000      -0.504756       -13.7351
  27   2.0000      -0.489473       -13.3192
  28   2.0000      -0.468156       -12.7392
  29   2.0000      -0.453681       -12.3453
  30   2.0000      -0.419547       -11.4165
  31   2.0000      -0.347990        -9.4693
  32   2.0000      -0.336880        -9.1670
  33   0.0000       0.122794         3.3414
  34   0.0000       0.140248         3.8163
  35   0.0000       0.163922         4.4605
  36   0.0000       0.170477         4.6389
  37   0.0000       0.186143         5.0652

MULLIKEN ATOMIC CHARGES
-----------------------
   0 C :   -0.344607
   1 N :   -0.232873
   2 C :   -0.002367
   3 C :   -0.050412
   4 C :   -0.240040
   5 C :   -0.201552
   6 C :    0.166171
   7 O :   -0.465853
   8 C :   -0.027991
   9 H :    0.129566
  10 H :    0.131423
  11 H :    0.139410
  12 H :    0.123800
  13 H :    0.137325
  14 H :    0.139364
  15 H :    0.140921
  16 H :    0.326101
  17 H :    0.131613
Sum of atomic charges:   -0.0000000

LOEWDIN ATOMIC CHARGES
----------------------
   0 C :   -0.340192
   1 N :    0.091407
   2 C :   -0.127124
   3 C :   -0.149113
   4 C :   -0.127773
   5 C :   -0.130938
   6 C :   -0.293087
   7 O :    0.023301
   8 C :   -0.137485
   9 H :    0.115750
  10 H :    0.116962
  11 H :    0.108654
  12 H :    0.127563
  13 H :    0.144289
  14 H :    0.136152
  15 H :    0.134541
  16 H :    0.183073
  17 H :    0.124020

  Mayer bond orders larger than 0.1
B(  0-C ,  1-N ) :   0.8936 B(  0-C ,  9-H ) :   0.9391 B(  0-C , 10-H ) :   0.9400
B(  0-C , 11-H ) :   0.9229 B(  1-N ,  2-C ) :   0.8796 B(  1-N ,  8-C ) :   0.8647
B(  2-C ,  3-C ) :   0.9134 B(  2-C ,  6-C ) :   0.8858 B(  2-C , 12-H ) :   0.8814
B(  3-C ,  4-C ) :   0.9143 B(  3-C ,  8-C ) :   0.8737 B(  3-C , 13-H ) :   0.8988
B(  4-C ,  5-C ) :   1.7188 B(  4-C , 14-H ) :   0.9174 B(  5-C ,  6-C ) :   0.9378
B(  5-C , 15-H ) :   0.9137 B(  6-C ,  7-O ) :   1.0683 B(  6-C ,  8-C ) :   0.8177
B(  7-O , 16-H ) :   0.8327 B(  8-C , 17-H ) :   0.8679

MP2 TOTAL ENERGY:     -401.164446576 Eh
FINAL SINGLE POINT ENERGY      -401.164446575666

DIPOLE MOMENT
-------------
                                X             Y             Z
Electronic contribution:     -0.73476      -1.94080       2.50983
Nuclear contribution   :      0.98514       1.87310      -1.79462
                        -----------------------------------------
Total Dipole Moment    :      0.25038      -0.06770       0.71522
                        -----------------------------------------
Magnitude (a.u.)       :      0.76079
Magnitude (Debye)      :      1.93378

                             ****ORCA TERMINATED NORMALLY****
TOTAL RUN TIME: 0 days 0 hours 18 minutes 51 seconds 246 msec
