                         Program Version 3.0.3 - RELEASE   -
|  1> ! RI-MP2 RIJK def2-TZVP def2-TZVP/C def2-TZVP/JK TIGHTSCF
|  2> % maxcore 2000
|  3> % mp2 density relaxed end
|  4> *xyz 0 1
|  5>  C        0.2180975942     1.6192790866    -0.5145765135
|  6>  C        0.1518668076     0.1290903741    -0.2647580219
|  7>  C        1.4232515988    -0.7023108231    -0.0629137550
|  8>  O        2.6727855401    -0.0756084050     0.0078485834
|  9>  C        0.4971664342    -0.4444050522     1.0773004713
| 10>  C        0.8302411643     0.2371300848     2.3946247830
| 11>  C        0.0963428948    -0.9751452922     3.0198320678
| 12>  C       -1.1192482045    -0.7158542426     3.8837354507
| 13>  O       -0.2628290338    -1.4776794831     1.6997817198
| 14>  H        1.0897035731     2.0595225509    -0.0226749647
| 15>  H        0.2932913345     1.8399377439    -1.5854730485
| 16>  H       -0.6766001720     2.1254774322    -0.1363573544
| 17>  H       -0.6408000300    -0.4029992471    -0.7865135823
| 18>  H        1.4231821228    -1.7096856740    -0.4800690091
| 19>  H        2.9319049513     0.1804149294    -0.8839352940
| 20>  H        1.8930259736     0.3360031197     2.6167867719
| 21>  H        0.3291260964     1.1946666785     2.5585151797
| 22>  H        0.7770005431    -1.6805087825     3.5144433946
| 23>  H       -1.7915388486     0.0008238296     3.4019350619
| 24>  H       -1.6724468102    -1.6447029506     4.0549721344
| 25>  H       -0.8167993599    -0.3132614475     4.8568894349
| 26> *
| 27>
| 28>                          ****END OF INPUT****

CARTESIAN COORDINATES (ANGSTROEM)
---------------------------------
  C      0.218098    1.619279   -0.514577
  C      0.151867    0.129090   -0.264758
  C      1.423252   -0.702311   -0.062914
  O      2.672786   -0.075608    0.007849
  C      0.497166   -0.444405    1.077300
  C      0.830241    0.237130    2.394625
  C      0.096343   -0.975145    3.019832
  C     -1.119248   -0.715854    3.883735
  O     -0.262829   -1.477679    1.699782
  H      1.089704    2.059523   -0.022675
  H      0.293291    1.839938   -1.585473
  H     -0.676600    2.125477   -0.136357
  H     -0.640800   -0.402999   -0.786514
  H      1.423182   -1.709686   -0.480069
  H      2.931905    0.180415   -0.883935
  H      1.893026    0.336003    2.616787
  H      0.329126    1.194667    2.558515
  H      0.777001   -1.680509    3.514443
  H     -1.791539    0.000824    3.401935
  H     -1.672447   -1.644703    4.054972
  H     -0.816799   -0.313261    4.856889

 Total Charge           Charge          ....    0
 Multiplicity           Mult            ....    1
 Number of Electrons    NEL             ....   70
 Basis Dimension        Dim             ....  351

ORBITAL ENERGIES
----------------

  NO   OCC          E(Eh)            E(eV)
   0   2.0000     -20.565624      -559.6191
   1   2.0000     -20.544362      -559.0405
   2   2.0000     -11.281644      -306.9891
   3   2.0000     -11.280250      -306.9512
   4   2.0000     -11.275102      -306.8111
   5   2.0000     -11.228226      -305.5356
   6   2.0000     -11.225645      -305.4653
   7   2.0000     -11.221247      -305.3456
   8   2.0000     -11.215597      -305.1919
   9   2.0000      -1.383581       -37.6491
  10   2.0000      -1.367862       -37.2214
  11   2.0000      -1.125981       -30.6395
  12   2.0000      -1.030520       -28.0419
  13   2.0000      -0.974011       -26.5042
  14   2.0000      -0.950253       -25.8577
  15   2.0000      -0.816230       -22.2108
  16   2.0000      -0.792068       -21.5533
  17   2.0000      -0.726453       -19.7678
  18   2.0000      -0.696736       -18.9591
  19   2.0000      -0.677977       -18.4487
  20   2.0000      -0.659351       -17.9419
  21   2.0000      -0.623677       -16.9711
  22   2.0000      -0.598471       -16.2852
  23   2.0000      -0.586513       -15.9598
  24   2.0000      -0.558043       -15.1851
  25   2.0000      -0.549427       -14.9507
  26   2.0000      -0.537335       -14.6216
  27   2.0000      -0.526352       -14.3228
  28   2.0000      -0.521029       -14.1779
  29   2.0000      -0.500821       -13.6280
  30   2.0000      -0.481449       -13.1009
  31   2.0000      -0.470247       -12.7961
  32   2.0000      -0.455346       -12.3906
  33   2.0000      -0.384743       -10.4694
  34   2.0000      -0.364785        -9.9263
  35   0.0000       0.125712         3.4208
  36   0.0000       0.148877         4.0512
  37   0.0000       0.166344         4.5265
  38   0.0000       0.175360         4.7718
  39   0.0000       0.186324         5.0701

MULLIKEN ATOMIC CHARGES
-----------------------
   0 C :   -0.459339
   1 C :   -0.092087
   2 C :   -0.041546
   3 O :   -0.469791
   4 C :    0.226198
   5 C :   -0.306876
   6 C :    0.151162
   7 C :   -0.408928
   8 O :   -0.328724
   9 H :    0.154244
  10 H :    0.133633
  11 H :    0.137757
  12 H :    0.122180
  13 H :    0.112831
  14 H :    0.325192
  15 H :    0.147161
  16 H :    0.118637
  17 H :    0.087096
  18 H :    0.126960
  19 H :    0.137900
  20 H :    0.126339
Sum of atomic charges:    0.0000000

LOEWDIN ATOMIC CHARGES
----------------------
   0 C :   -0.298086
   1 C :   -0.206565
   2 C :   -0.285461
   3 O :   -0.001044
   4 C :   -0.281928
   5 C :   -0.176026
   6 C :   -0.284504
   7 C :   -0.298095
   8 O :    0.183536
   9 H :    0.130267
  10 H :    0.124545
  11 H :    0.127550
  12 H :    0.155223
  13 H :    0.135399
  14 H :    0.181562
  15 H :    0.139613
  16 H :    0.137462
  17 H :    0.134826
  18 H :    0.125611
  19 H :    0.128477
  20 H :    0.127638

  Mayer bond orders larger than 0.1
B(  0-C ,  1-C ) :   0.8665 B(  0-C ,  9-H ) :   0.9388 B(  0-C , 10-H ) :   0.9364
B(  0-C , 11-H ) :   0.9403 B(  1-C ,  2-C ) :   0.9163 B(  1-C ,  4-C ) :   0.8543
B(  1-C , 12-H ) :   0.9071 B(  2-C ,  3-O ) :   1.0493 B(  2-C ,  4-C ) :   0.8188
B(  2-C , 13-H ) :   0.9491 B(  3-O ,  4-C ) :  -0.1107 B(  3-O , 14-H ) :   0.8411
B(  4-C ,  5-C ) :   0.9465 B(  4-C ,  8-O ) :   0.9687 B(  5-C ,  6-C ) :   0.9463
B(  5-C , 15-H ) :   0.9127 B(  5-C , 16-H ) :   0.9188 B(  6-C ,  7-C ) :   0.9059
B(  6-C ,  8-O ) :   0.9132 B(  6-C , 17-H ) :   0.9166 B(  7-C , 18-H ) :   0.9377
B(  7-C , 19-H ) :   0.9372 B(  7-C , 20-H ) :   0.9298

MP2 TOTAL ENERGY:     -423.485680370 Eh
FINAL SINGLE POINT ENERGY      -423.485680369706

DIPOLE MOMENT
-------------
                                X             Y             Z
Electronic contribution:      2.98612      -4.23476      -2.27054
Nuclear contribution   :     -2.91257       4.75371       2.06721
                        -----------------------------------------
Total Dipole Moment    :      0.07356       0.51895      -0.20333
                        -----------------------------------------
Magnitude (a.u.)       :      0.56219
Magnitude (Debye)      :      1.42898

                             ****ORCA TERMINATED NORMALLY****
TOTAL RUN TIME: 0 days 0 hours 17 minutes 31 seconds 599 msec
