                         Program Version 3.0.3 - RELEASE   -
|  1> ! RI-MP2 RIJK def2-TZVP def2-TZVP/C def2-TZVP/JK TIGHTSCF
|  2> % maxcore 2000
|  3> % mp2 density relaxed end
|  4> *xyz 0 1
|  5>  C        0.2253267839     1.5848159487     0.2890827836
|  6>  C       -0.0938325329     0.1171034833    -0.0377191681
|  7>  C        0.5656260863    -0.3529696866    -1.2950498298
|  8>  C        0.0221288542    -0.7748142740    -2.4676197872
|  9>  C       -1.3557902091    -0.9577658650    -2.9886107538
| 10>  O        1.0598611617    -1.0890997479    -3.3166873398
| 11>  C        2.1747506009    -0.8337413801    -2.5978128873
| 12>  N        1.9596235463    -0.3988516614    -1.4034460688
| 13>  H        1.3061285689     1.7305992738     0.3644072539
| 14>  H       -0.1503937611     2.2518054390    -0.4934108653
| 15>  H       -0.2307667086     1.8810155538     1.2386535647
| 16>  H        0.2401618484    -0.5156756297     0.7939659705
| 17>  H       -1.1772178329    -0.0227336702    -0.1198022619
| 18>  H       -1.5378412405    -0.3356578242    -3.8722894990
| 19>  H       -1.5423273740    -1.9987953543    -3.2757762704
| 20>  H       -2.0842041903    -0.6811183800    -2.2233828703
| 21>  H        3.1193924087    -1.0180226351    -3.0855966110
| 22> *
| 23>
| 24>                          ****END OF INPUT****

CARTESIAN COORDINATES (ANGSTROEM)
---------------------------------
  C      0.225327    1.584816    0.289083
  C     -0.093833    0.117103   -0.037719
  C      0.565626   -0.352970   -1.295050
  C      0.022129   -0.774814   -2.467620
  C     -1.355790   -0.957766   -2.988611
  O      1.059861   -1.089100   -3.316687
  C      2.174751   -0.833741   -2.597813
  N      1.959624   -0.398852   -1.403446
  H      1.306129    1.730599    0.364407
  H     -0.150394    2.251805   -0.493411
  H     -0.230767    1.881016    1.238654
  H      0.240162   -0.515676    0.793966
  H     -1.177218   -0.022734   -0.119802
  H     -1.537841   -0.335658   -3.872289
  H     -1.542327   -1.998795   -3.275776
  H     -2.084204   -0.681118   -2.223383
  H      3.119392   -1.018023   -3.085597

 Total Charge           Charge          ....    0
 Multiplicity           Mult            ....    1
 Number of Electrons    NEL             ....   60
 Basis Dimension        Dim             ....  302

ORBITAL ENERGIES
----------------

  NO   OCC          E(Eh)            E(eV)
   0   2.0000     -20.627978      -561.3158
   1   2.0000     -15.557291      -423.3354
   2   2.0000     -11.326596      -308.2123
   3   2.0000     -11.287742      -307.1551
   4   2.0000     -11.253576      -306.2254
   5   2.0000     -11.239533      -305.8432
   6   2.0000     -11.230732      -305.6038
   7   2.0000     -11.212713      -305.1134
   8   2.0000      -1.477479       -40.2043
   9   2.0000      -1.227029       -33.3891
  10   2.0000      -1.080005       -29.3884
  11   2.0000      -1.025098       -27.8943
  12   2.0000      -0.945626       -25.7318
  13   2.0000      -0.869235       -23.6531
  14   2.0000      -0.815898       -22.2017
  15   2.0000      -0.768995       -20.9254
  16   2.0000      -0.707791       -19.2600
  17   2.0000      -0.661748       -18.0071
  18   2.0000      -0.622313       -16.9340
  19   2.0000      -0.599713       -16.3190
  20   2.0000      -0.583049       -15.8656
  21   2.0000      -0.570529       -15.5249
  22   2.0000      -0.567057       -15.4304
  23   2.0000      -0.553273       -15.0553
  24   2.0000      -0.524043       -14.2599
  25   2.0000      -0.499421       -13.5899
  26   2.0000      -0.492300       -13.3962
  27   2.0000      -0.450715       -12.2646
  28   2.0000      -0.436830       -11.8868
  29   2.0000      -0.321983        -8.7616
  30   0.0000       0.135328         3.6825
  31   0.0000       0.144570         3.9340
  32   0.0000       0.161140         4.3848
  33   0.0000       0.180039         4.8991
  34   0.0000       0.187203         5.0941

MULLIKEN ATOMIC CHARGES
-----------------------
   0 C :   -0.382655
   1 C :   -0.204355
   2 C :    0.019814
   3 C :    0.137387
   4 C :   -0.398104
   5 O :   -0.213969
   6 C :    0.100436
   7 N :   -0.285793
   8 H :    0.146443
   9 H :    0.119284
  10 H :    0.128243
  11 H :    0.124489
  12 H :    0.106154
  13 H :    0.151998
  14 H :    0.152137
  15 H :    0.143571
  16 H :    0.154920
Sum of atomic charges:    0.0000000

LOEWDIN ATOMIC CHARGES
----------------------
   0 C :   -0.308155
   1 C :   -0.254334
   2 C :   -0.238115
   3 C :   -0.252248
   4 C :   -0.272704
   5 O :    0.342064
   6 C :   -0.333303
   7 N :    0.120274
   8 H :    0.127431
   9 H :    0.120353
  10 H :    0.119325
  11 H :    0.147797
  12 H :    0.140419
  13 H :    0.136130
  14 H :    0.136245
  15 H :    0.137579
  16 H :    0.131243

  Mayer bond orders larger than 0.1
B(  0-C ,  1-C ) :   0.9172 B(  0-C ,  8-H ) :   0.9366 B(  0-C ,  9-H ) :   0.9353
B(  0-C , 10-H ) :   0.9369 B(  1-C ,  2-C ) :   0.9063 B(  1-C , 11-H ) :   0.9290
B(  1-C , 12-H ) :   0.9451 B(  2-C ,  3-C ) :   1.5960 B(  2-C ,  7-N ) :   1.1632
B(  3-C ,  4-C ) :   0.8563 B(  3-C ,  5-O ) :   1.0230 B(  4-C , 13-H ) :   0.9307
B(  4-C , 14-H ) :   0.9301 B(  4-C , 15-H ) :   0.9518 B(  5-O ,  6-C ) :   1.0839
B(  6-C ,  7-N ) :   1.6606 B(  6-C , 16-H ) :   0.9266

MP2 TOTAL ENERGY:     -363.284118296 Eh
FINAL SINGLE POINT ENERGY      -363.284118296339

DIPOLE MOMENT
-------------
                                X             Y             Z
Electronic contribution:      5.85119      -4.05915      -4.91033
Nuclear contribution   :     -6.53403       3.95999       4.60847
                        -----------------------------------------
Total Dipole Moment    :     -0.68284      -0.09916      -0.30186
                        -----------------------------------------
Magnitude (a.u.)       :      0.75314
Magnitude (Debye)      :      1.91433

                             ****ORCA TERMINATED NORMALLY****
TOTAL RUN TIME: 0 days 0 hours 12 minutes 27 seconds 550 msec
