                         Program Version 3.0.3 - RELEASE   -
|  1> ! RI-MP2 RIJK def2-TZVP def2-TZVP/C def2-TZVP/JK TIGHTSCF
|  2> % maxcore 2000
|  3> % mp2 density relaxed end
|  4> *xyz 0 1
|  5>  C       -0.3179493354     1.4407839335     0.1265858561
|  6>  N       -0.0308063618     0.0314288767    -0.0682424268
|  7>  C        0.7128569978    -0.5684909212     0.7644104381
|  8>  N        1.3199710376    -0.0215102508     1.8986957121
|  9>  N        2.1142292001    -0.6724667681     2.7836655773
| 10>  N        2.3675120040    -1.8909040817     2.6227306464
| 11>  C        1.8267233393    -2.6092807837     1.5108831393
| 12>  N        2.0670035703    -3.8424393855     1.3245392574
| 13>  N        1.0224587376    -1.9040099455     0.6349407387
| 14>  H        0.5867892481     2.0684846822     0.1022677038
| 15>  H       -0.9682142478     1.7842088888    -0.6808462456
| 16>  H       -0.8435834551     1.6428448744     1.0731763987
| 17>  H        1.1844076226     0.9493679412     2.1246651740
| 18>  H        2.6738187629    -4.1750117100     2.0729970367
| 19>  H        0.6304038098    -2.3931208003    -0.1570737963
| 20> *
| 21>
| 22>                          ****END OF INPUT****

CARTESIAN COORDINATES (ANGSTROEM)
---------------------------------
  C     -0.317949    1.440784    0.126586
  N     -0.030806    0.031429   -0.068242
  C      0.712857   -0.568491    0.764410
  N      1.319971   -0.021510    1.898696
  N      2.114229   -0.672467    2.783666
  N      2.367512   -1.890904    2.622731
  C      1.826723   -2.609281    1.510883
  N      2.067004   -3.842439    1.324539
  N      1.022459   -1.904010    0.634941
  H      0.586789    2.068485    0.102268
  H     -0.968214    1.784209   -0.680846
  H     -0.843583    1.642845    1.073176
  H      1.184408    0.949368    2.124665
  H      2.673819   -4.175012    2.072997
  H      0.630404   -2.393121   -0.157074

 Total Charge           Charge          ....    0
 Multiplicity           Mult            ....    1
 Number of Electrons    NEL             ....   66
 Basis Dimension        Dim             ....  315

ORBITAL ENERGIES
----------------

  NO   OCC          E(Eh)            E(eV)
   0   2.0000     -15.724504      -427.8855
   1   2.0000     -15.665351      -426.2759
   2   2.0000     -15.642799      -425.6622
   3   2.0000     -15.621813      -425.0911
   4   2.0000     -15.549181      -423.1147
   5   2.0000     -15.548456      -423.0950
   6   2.0000     -11.385864      -309.8251
   7   2.0000     -11.369340      -309.3755
   8   2.0000     -11.265403      -306.5472
   9   2.0000      -1.467360       -39.9289
  10   2.0000      -1.326133       -36.0859
  11   2.0000      -1.294904       -35.2361
  12   2.0000      -1.200564       -32.6690
  13   2.0000      -1.181982       -32.1634
  14   2.0000      -0.994390       -27.0587
  15   2.0000      -0.968687       -26.3593
  16   2.0000      -0.876799       -23.8589
  17   2.0000      -0.830312       -22.5939
  18   2.0000      -0.804104       -21.8808
  19   2.0000      -0.700651       -19.0657
  20   2.0000      -0.687283       -18.7019
  21   2.0000      -0.685388       -18.6504
  22   2.0000      -0.650355       -17.6971
  23   2.0000      -0.606462       -16.5027
  24   2.0000      -0.600519       -16.3409
  25   2.0000      -0.572049       -15.5662
  26   2.0000      -0.561077       -15.2677
  27   2.0000      -0.525919       -14.3110
  28   2.0000      -0.483272       -13.1505
  29   2.0000      -0.449607       -12.2344
  30   2.0000      -0.423799       -11.5322
  31   2.0000      -0.387196       -10.5361
  32   2.0000      -0.366900        -9.9839
  33   0.0000       0.065848         1.7918
  34   0.0000       0.116951         3.1824
  35   0.0000       0.154789         4.2120
  36   0.0000       0.159413         4.3378
  37   0.0000       0.178918         4.8686

MULLIKEN ATOMIC CHARGES
-----------------------
   0 C :   -0.347514
   1 N :   -0.269271
   2 C :    0.259578
   3 N :   -0.194024
   4 N :   -0.068733
   5 N :   -0.140736
   6 C :    0.183765
   7 N :   -0.382399
   8 N :   -0.253457
   9 H :    0.134952
  10 H :    0.159149
  11 H :    0.134946
  12 H :    0.272811
  13 H :    0.239543
  14 H :    0.271390
Sum of atomic charges:    0.0000000

LOEWDIN ATOMIC CHARGES
----------------------
   0 C :   -0.347110
   1 N :    0.050864
   2 C :   -0.423676
   3 N :    0.077538
   4 N :    0.002268
   5 N :    0.034074
   6 C :   -0.452887
   7 N :   -0.054705
   8 N :    0.185748
   9 H :    0.110841
  10 H :    0.122345
  11 H :    0.110839
  12 H :    0.195090
  13 H :    0.174825
  14 H :    0.213946

  Mayer bond orders larger than 0.1
B(  0-C ,  1-N ) :   0.8979 B(  0-C ,  9-H ) :   0.9264 B(  0-C , 10-H ) :   0.9451
B(  0-C , 11-H ) :   0.9264 B(  1-N ,  2-C ) :   1.8943 B(  2-C ,  3-N ) :   1.0003
B(  2-C ,  8-N ) :   1.0643 B(  3-N ,  4-N ) :   0.9684 B(  3-N , 12-H ) :   0.8684
B(  4-N ,  5-N ) :   1.5165 B(  5-N ,  6-C ) :   1.0548 B(  6-C ,  7-N ) :   1.9315
B(  6-C ,  8-N ) :   1.0496 B(  7-N , 13-H ) :   0.8512 B(  8-N , 14-H ) :   0.8409

MP2 TOTAL ENERGY:     -445.534936288 Eh
FINAL SINGLE POINT ENERGY      -445.534936288254

DIPOLE MOMENT
-------------
                                X             Y             Z
Electronic contribution:      3.46546      -4.78293       3.00874
Nuclear contribution   :     -3.80658       6.00004      -2.97777
                        -----------------------------------------
Total Dipole Moment    :     -0.34113       1.21711       0.03097
                        -----------------------------------------
Magnitude (a.u.)       :      1.26439
Magnitude (Debye)      :      3.21382

                             ****ORCA TERMINATED NORMALLY****
TOTAL RUN TIME: 0 days 0 hours 15 minutes 8 seconds 497 msec
