                         Program Version 3.0.3 - RELEASE   -
|  1> ! RI-MP2 RIJK def2-TZVP def2-TZVP/C def2-TZVP/JK TIGHTSCF
|  2> % maxcore 2000
|  3> % mp2 density relaxed end
|  4> *xyz 0 1
|  5>  C        0.3934241110     0.6629457600     0.3665665462
|  6>  C       -0.3487942608    -0.1383992912    -0.6788191280
|  7>  O        0.1456114351    -0.5013260723    -1.7190223876
|  8>  C       -1.7906546909    -0.5297053263    -0.3132733971
|  9>  C       -1.7196999181    -1.8598140977     0.4480641954
| 10>  O       -1.4952563941    -1.8847472834     1.6375077320
| 11>  C       -1.8819550884    -3.1061402858    -0.3918307381
| 12>  C       -1.6177014386    -4.3951695692     0.3713103518
| 13>  O       -1.8589578167    -5.4672769085    -0.5264814767
| 14>  H        1.4484521739     0.7453435539     0.1036764576
| 15>  H       -0.0455721210     1.6651012951     0.4402651232
| 16>  H        0.2711355934     0.1906521188     1.3472854383
| 17>  H       -2.2410898031     0.2165571723     0.3444882597
| 18>  H       -2.3623699266    -0.6347578068    -1.2368224855
| 19>  H       -2.9006995549    -3.1176844803    -0.8035106098
| 20>  H       -1.2204149945    -3.0212022190    -1.2643092397
| 21>  H       -0.5823364889    -4.3984394921     0.7423138669
| 22>  H       -2.2744637388    -4.4421313518     1.2514305886
| 23>  H       -1.6873478379    -6.2908311157    -0.0608864674
| 24> *
| 25>
| 26>                          ****END OF INPUT****

CARTESIAN COORDINATES (ANGSTROEM)
---------------------------------
  C      0.393424    0.662946    0.366567
  C     -0.348794   -0.138399   -0.678819
  O      0.145611   -0.501326   -1.719022
  C     -1.790655   -0.529705   -0.313273
  C     -1.719700   -1.859814    0.448064
  O     -1.495256   -1.884747    1.637508
  C     -1.881955   -3.106140   -0.391831
  C     -1.617701   -4.395170    0.371310
  O     -1.858958   -5.467277   -0.526481
  H      1.448452    0.745344    0.103676
  H     -0.045572    1.665101    0.440265
  H      0.271136    0.190652    1.347285
  H     -2.241090    0.216557    0.344488
  H     -2.362370   -0.634758   -1.236822
  H     -2.900700   -3.117684   -0.803511
  H     -1.220415   -3.021202   -1.264309
  H     -0.582336   -4.398439    0.742314
  H     -2.274464   -4.442131    1.251431
  H     -1.687348   -6.290831   -0.060886

 Total Charge           Charge          ....    0
 Multiplicity           Mult            ....    1
 Number of Electrons    NEL             ....   70
 Basis Dimension        Dim             ....  339

ORBITAL ENERGIES
----------------

  NO   OCC          E(Eh)            E(eV)
   0   2.0000     -20.561833      -559.5159
   1   2.0000     -20.561501      -559.5069
   2   2.0000     -20.558553      -559.4267
   3   2.0000     -11.350274      -308.8567
   4   2.0000     -11.348275      -308.8023
   5   2.0000     -11.282988      -307.0257
   6   2.0000     -11.256276      -306.2988
   7   2.0000     -11.242773      -305.9314
   8   2.0000     -11.239551      -305.8437
   9   2.0000      -1.408780       -38.3348
  10   2.0000      -1.401518       -38.1372
  11   2.0000      -1.366252       -37.1776
  12   2.0000      -1.080612       -29.4050
  13   2.0000      -1.043128       -28.3849
  14   2.0000      -0.989273       -26.9195
  15   2.0000      -0.877632       -23.8816
  16   2.0000      -0.771736       -21.0000
  17   2.0000      -0.744434       -20.2571
  18   2.0000      -0.709641       -19.3103
  19   2.0000      -0.674080       -18.3426
  20   2.0000      -0.660912       -17.9843
  21   2.0000      -0.658984       -17.9319
  22   2.0000      -0.648888       -17.6571
  23   2.0000      -0.619874       -16.8676
  24   2.0000      -0.597275       -16.2527
  25   2.0000      -0.578984       -15.7550
  26   2.0000      -0.574118       -15.6226
  27   2.0000      -0.557964       -15.1830
  28   2.0000      -0.543717       -14.7953
  29   2.0000      -0.512787       -13.9536
  30   2.0000      -0.508955       -13.8494
  31   2.0000      -0.499804       -13.6004
  32   2.0000      -0.451211       -12.2781
  33   2.0000      -0.434672       -11.8280
  34   2.0000      -0.414029       -11.2663
  35   0.0000       0.107337         2.9208
  36   0.0000       0.129876         3.5341
  37   0.0000       0.139720         3.8020
  38   0.0000       0.155580         4.2335
  39   0.0000       0.165692         4.5087

MULLIKEN ATOMIC CHARGES
-----------------------
   0 C :   -0.434208
   1 C :    0.196225
   2 O :   -0.281538
   3 C :   -0.166598
   4 C :    0.158110
   5 O :   -0.298295
   6 C :   -0.242053
   7 C :   -0.060965
   8 O :   -0.465025
   9 H :    0.149957
  10 H :    0.147183
  11 H :    0.172432
  12 H :    0.143343
  13 H :    0.142532
  14 H :    0.142218
  15 H :    0.165923
  16 H :    0.104129
  17 H :    0.107847
  18 H :    0.318785
Sum of atomic charges:   -0.0000000

LOEWDIN ATOMIC CHARGES
----------------------
   0 C :   -0.275809
   1 C :   -0.346240
   2 O :    0.153844
   3 C :   -0.199791
   4 C :   -0.317719
   5 O :    0.153153
   6 C :   -0.241102
   7 C :   -0.342386
   8 O :   -0.050534
   9 H :    0.133339
  10 H :    0.140614
  11 H :    0.144184
  12 H :    0.154962
  13 H :    0.154873
  14 H :    0.159878
  15 H :    0.163950
  16 H :    0.120249
  17 H :    0.120600
  18 H :    0.173935

  Mayer bond orders larger than 0.1
B(  0-C ,  1-C ) :   0.9339 B(  0-C ,  9-H ) :   0.9342 B(  0-C , 10-H ) :   0.9082
B(  0-C , 11-H ) :   0.9090 B(  1-C ,  2-O ) :   1.9924 B(  1-C ,  3-C ) :   0.8490
B(  3-C ,  4-C ) :   0.8748 B(  3-C , 12-H ) :   0.9118 B(  3-C , 13-H ) :   0.9121
B(  4-C ,  5-O ) :   1.9498 B(  4-C ,  6-C ) :   0.9262 B(  6-C ,  7-C ) :   0.9440
B(  6-C , 14-H ) :   0.8894 B(  6-C , 15-H ) :   0.8988 B(  7-C ,  8-O ) :   1.0164
B(  7-C , 16-H ) :   0.9331 B(  7-C , 17-H ) :   0.9292 B(  8-O , 18-H ) :   0.8482

MP2 TOTAL ENERGY:     -459.457287429 Eh
FINAL SINGLE POINT ENERGY      -459.457287429131

DIPOLE MOMENT
-------------
                                X             Y             Z
Electronic contribution:     -0.05337      -0.44741      -1.10179
Nuclear contribution   :     -0.30122       0.61861       1.61523
                        -----------------------------------------
Total Dipole Moment    :     -0.35459       0.17120       0.51344
                        -----------------------------------------
Magnitude (a.u.)       :      0.64704
Magnitude (Debye)      :      1.64465

                             ****ORCA TERMINATED NORMALLY****
TOTAL RUN TIME: 0 days 0 hours 14 minutes 13 seconds 575 msec
