                         Program Version 3.0.3 - RELEASE   -
|  1> ! RI-MP2 RIJK def2-TZVP def2-TZVP/C def2-TZVP/JK TIGHTSCF
|  2> % maxcore 2000
|  3> % mp2 density relaxed end
|  4> *xyz 0 1
|  5>  C        0.1258978870     1.4725198951     0.1747898897
|  6>  C       -0.2250440711     0.0096382124    -0.1539573272
|  7>  C        0.5221995618    -0.5143841234    -1.2922296188
|  8>  C        1.1451544262    -0.9314164952    -2.2354588420
|  9>  C        1.8999474508    -1.4302784548    -3.3794882075
| 10>  C        3.3621106712    -0.8857296564    -3.4368090890
| 11>  O        4.1314800048    -2.0235042535    -3.7813426468
| 12>  C        3.4576499770    -3.0913541072    -3.1659375351
| 13>  O        2.0783515476    -2.8560402341    -3.3477263994
| 14>  H        1.1873630228     1.5730400356     0.4168509638
| 15>  H       -0.0894485471     2.1244277551    -0.6761058017
| 16>  H       -0.4582042508     1.8201274546     1.0318560888
| 17>  H       -0.0319555080    -0.6201874021     0.7237963176
| 18>  H       -1.3007702590    -0.0739309342    -0.3544088227
| 19>  H        1.3636372596    -1.1992566653    -4.3073385022
| 20>  H        3.5042225443    -0.1201766171    -4.2013940491
| 21>  H        3.6550414673    -0.4859045962    -2.4565447524
| 22>  H        3.7329322073    -4.0253176192    -3.6629989924
| 23>  H        3.7043720785    -3.1402280341    -2.0894925236
| 24> *
| 25>
| 26>                          ****END OF INPUT****

CARTESIAN COORDINATES (ANGSTROEM)
---------------------------------
  C      0.125898    1.472520    0.174790
  C     -0.225044    0.009638   -0.153957
  C      0.522200   -0.514384   -1.292230
  C      1.145154   -0.931416   -2.235459
  C      1.899947   -1.430278   -3.379488
  C      3.362111   -0.885730   -3.436809
  O      4.131480   -2.023504   -3.781343
  C      3.457650   -3.091354   -3.165938
  O      2.078352   -2.856040   -3.347726
  H      1.187363    1.573040    0.416851
  H     -0.089449    2.124428   -0.676106
  H     -0.458204    1.820127    1.031856
  H     -0.031956   -0.620187    0.723796
  H     -1.300770   -0.073931   -0.354409
  H      1.363637   -1.199257   -4.307339
  H      3.504223   -0.120177   -4.201394
  H      3.655041   -0.485905   -2.456545
  H      3.732932   -4.025318   -3.662999
  H      3.704372   -3.140228   -2.089493

 Total Charge           Charge          ....    0
 Multiplicity           Mult            ....    1
 Number of Electrons    NEL             ....   68
 Basis Dimension        Dim             ....  339

ORBITAL ENERGIES
----------------

  NO   OCC          E(Eh)            E(eV)
   0   2.0000     -20.570856      -559.7615
   1   2.0000     -20.566559      -559.6445
   2   2.0000     -11.330013      -308.3053
   3   2.0000     -11.312444      -307.8272
   4   2.0000     -11.290518      -307.2306
   5   2.0000     -11.255142      -306.2680
   6   2.0000     -11.231885      -305.6351
   7   2.0000     -11.229101      -305.5594
   8   2.0000     -11.221534      -305.3535
   9   2.0000      -1.444458       -39.3057
  10   2.0000      -1.338160       -36.4132
  11   2.0000      -1.089135       -29.6369
  12   2.0000      -1.054467       -28.6935
  13   2.0000      -0.984908       -26.8007
  14   2.0000      -0.890642       -24.2356
  15   2.0000      -0.872002       -23.7284
  16   2.0000      -0.855552       -23.2808
  17   2.0000      -0.726237       -19.7619
  18   2.0000      -0.717447       -19.5227
  19   2.0000      -0.668417       -18.1885
  20   2.0000      -0.641172       -17.4472
  21   2.0000      -0.640321       -17.4240
  22   2.0000      -0.628303       -17.0970
  23   2.0000      -0.593617       -16.1531
  24   2.0000      -0.564788       -15.3687
  25   2.0000      -0.552988       -15.0476
  26   2.0000      -0.531052       -14.4507
  27   2.0000      -0.523085       -14.2339
  28   2.0000      -0.516907       -14.0658
  29   2.0000      -0.510362       -13.8877
  30   2.0000      -0.456571       -12.4239
  31   2.0000      -0.437673       -11.9097
  32   2.0000      -0.381023       -10.3682
  33   2.0000      -0.372637       -10.1400
  34   0.0000       0.127327         3.4647
  35   0.0000       0.150559         4.0969
  36   0.0000       0.168739         4.5916
  37   0.0000       0.172216         4.6862
  38   0.0000       0.177151         4.8205

MULLIKEN ATOMIC CHARGES
-----------------------
   0 C :   -0.364786
   1 C :   -0.304714
   2 C :   -0.000469
   3 C :   -0.055277
   4 C :    0.059537
   5 C :   -0.063768
   6 O :   -0.312450
   7 C :    0.101944
   8 O :   -0.316644
   9 H :    0.130046
  10 H :    0.131381
  11 H :    0.134414
  12 H :    0.145023
  13 H :    0.145007
  14 H :    0.122604
  15 H :    0.125753
  16 H :    0.113146
  17 H :    0.125745
  18 H :    0.083509
Sum of atomic charges:   -0.0000000

LOEWDIN ATOMIC CHARGES
----------------------
   0 C :   -0.299192
   1 C :   -0.275391
   2 C :   -0.064315
   3 C :   -0.064012
   4 C :   -0.291682
   5 C :   -0.274754
   6 O :    0.157486
   7 C :   -0.378049
   8 O :    0.170372
   9 H :    0.123935
  10 H :    0.124277
  11 H :    0.121809
  12 H :    0.154909
  13 H :    0.154246
  14 H :    0.155634
  15 H :    0.130487
  16 H :    0.126611
  17 H :    0.121035
  18 H :    0.106592

  Mayer bond orders larger than 0.1
B(  0-C ,  1-C ) :   0.9365 B(  0-C ,  9-H ) :   0.9354 B(  0-C , 10-H ) :   0.9356
B(  0-C , 11-H ) :   0.9392 B(  1-C ,  2-C ) :   0.9602 B(  1-C , 12-H ) :   0.9356
B(  1-C , 13-H ) :   0.9438 B(  2-C ,  3-C ) :   2.6716 B(  3-C ,  4-C ) :   0.9909
B(  4-C ,  5-C ) :   0.9311 B(  4-C ,  8-O ) :   0.9138 B(  4-C , 14-H ) :   0.9282
B(  5-C ,  6-O ) :   0.9320 B(  5-C , 15-H ) :   0.9158 B(  5-C , 16-H ) :   0.9383
B(  6-O ,  7-C ) :   0.9647 B(  7-C ,  8-O ) :   0.9785 B(  7-C , 17-H ) :   0.9257
B(  7-C , 18-H ) :   0.9231

MP2 TOTAL ENERGY:     -422.280080221 Eh
FINAL SINGLE POINT ENERGY      -422.280080221417

DIPOLE MOMENT
-------------
                                X             Y             Z
Electronic contribution:      3.18297      -6.38510      -6.52359
Nuclear contribution   :     -3.36300       6.98531       7.04863
                        -----------------------------------------
Total Dipole Moment    :     -0.18003       0.60020       0.52504
                        -----------------------------------------
Magnitude (a.u.)       :      0.81751
Magnitude (Debye)      :      2.07794

                             ****ORCA TERMINATED NORMALLY****
TOTAL RUN TIME: 0 days 0 hours 15 minutes 37 seconds 81 msec
