                         Program Version 3.0.3 - RELEASE   -
|  1> ! RI-MP2 RIJK def2-TZVP def2-TZVP/C def2-TZVP/JK TIGHTSCF
|  2> % maxcore 2000
|  3> % mp2 density relaxed end
|  4> *xyz 0 1
|  5>  C       -0.2419478345     1.6278019240     0.0641021035
|  6>  N        0.0116288631     0.2041775031     0.0407898748
|  7>  C       -0.9888171129    -0.5628276955    -0.1090527549
|  8>  N       -0.9192984457    -1.9321484518    -0.1527424565
|  9>  C        0.2244256125    -2.7251597171    -0.0452706175
| 10>  C        0.2539628727    -4.1080704586    -0.0945665546
| 11>  N        1.5599410484    -4.4551161471     0.0491374073
| 12>  N        2.3777404021    -3.4025093029     0.1877929209
| 13>  C        1.5774557021    -2.3398028801     0.1321673038
| 14>  H        0.3210075023     2.1229833680    -0.7366643669
| 15>  H       -1.3069072128     1.8919986857    -0.0539390451
| 16>  H        0.1109630312     2.0568023126     1.0100249278
| 17>  H       -2.0222345026    -0.2021423263    -0.2201418222
| 18>  H       -1.7926907493    -2.4144576291    -0.2760398425
| 19>  H       -0.5270848080    -4.8414540018    -0.2164140558
| 20>  H        1.9480605968    -5.3821063982     0.0606721671
| 21>  H        1.9617658345    -1.3390262848     0.2166810808
| 22> *
| 23>
| 24>                          ****END OF INPUT****

CARTESIAN COORDINATES (ANGSTROEM)
---------------------------------
  C     -0.241948    1.627802    0.064102
  N      0.011629    0.204178    0.040790
  C     -0.988817   -0.562828   -0.109053
  N     -0.919298   -1.932148   -0.152742
  C      0.224426   -2.725160   -0.045271
  C      0.253963   -4.108070   -0.094567
  N      1.559941   -4.455116    0.049137
  N      2.377740   -3.402509    0.187793
  C      1.577456   -2.339803    0.132167
  H      0.321008    2.122983   -0.736664
  H     -1.306907    1.891999   -0.053939
  H      0.110963    2.056802    1.010025
  H     -2.022235   -0.202142   -0.220142
  H     -1.792691   -2.414458   -0.276040
  H     -0.527085   -4.841454   -0.216414
  H      1.948061   -5.382106    0.060672
  H      1.961766   -1.339026    0.216681

 Total Charge           Charge          ....    0
 Multiplicity           Mult            ....    1
 Number of Electrons    NEL             ....   66
 Basis Dimension        Dim             ....  327

ORBITAL ENERGIES
----------------

  NO   OCC          E(Eh)            E(eV)
   0   2.0000     -15.631633      -425.3584
   1   2.0000     -15.593012      -424.3074
   2   2.0000     -15.581672      -423.9989
   3   2.0000     -15.530141      -422.5966
   4   2.0000     -11.312762      -307.8359
   5   2.0000     -11.267140      -306.5945
   6   2.0000     -11.265098      -306.5389
   7   2.0000     -11.240257      -305.8629
   8   2.0000     -11.238277      -305.8091
   9   2.0000      -1.370297       -37.2877
  10   2.0000      -1.282687       -34.9037
  11   2.0000      -1.188262       -32.3343
  12   2.0000      -1.088576       -29.6217
  13   2.0000      -1.040622       -28.3168
  14   2.0000      -0.935723       -25.4623
  15   2.0000      -0.850108       -23.1326
  16   2.0000      -0.818538       -22.2735
  17   2.0000      -0.770951       -20.9787
  18   2.0000      -0.720170       -19.5968
  19   2.0000      -0.716482       -19.4965
  20   2.0000      -0.644917       -17.5491
  21   2.0000      -0.614461       -16.7203
  22   2.0000      -0.607227       -16.5235
  23   2.0000      -0.600886       -16.3509
  24   2.0000      -0.585985       -15.9455
  25   2.0000      -0.562171       -15.2974
  26   2.0000      -0.535899       -14.5826
  27   2.0000      -0.535783       -14.5794
  28   2.0000      -0.453686       -12.3454
  29   2.0000      -0.402735       -10.9590
  30   2.0000      -0.392124       -10.6702
  31   2.0000      -0.353065        -9.6074
  32   2.0000      -0.294875        -8.0240
  33   0.0000       0.127163         3.4603
  34   0.0000       0.138172         3.7599
  35   0.0000       0.149184         4.0595
  36   0.0000       0.159314         4.3351
  37   0.0000       0.173519         4.7217

MULLIKEN ATOMIC CHARGES
-----------------------
   0 C :   -0.268624
   1 N :   -0.284906
   2 C :    0.102822
   3 N :   -0.319284
   4 C :    0.167882
   5 C :   -0.181858
   6 N :   -0.088007
   7 N :   -0.211745
   8 C :   -0.139127
   9 H :    0.133461
  10 H :    0.086170
  11 H :    0.133467
  12 H :    0.072200
  13 H :    0.235147
  14 H :    0.150320
  15 H :    0.255221
  16 H :    0.156862
Sum of atomic charges:    0.0000000

LOEWDIN ATOMIC CHARGES
----------------------
   0 C :   -0.344422
   1 N :    0.038767
   2 C :   -0.329019
   3 N :    0.132856
   4 C :   -0.248860
   5 C :   -0.239109
   6 N :    0.122211
   7 N :    0.016982
   8 C :   -0.253225
   9 H :    0.115056
  10 H :    0.100662
  11 H :    0.115061
  12 H :    0.117190
  13 H :    0.193847
  14 H :    0.134454
  15 H :    0.187380
  16 H :    0.140168

  Mayer bond orders larger than 0.1
B(  0-C ,  1-N ) :   0.8982 B(  0-C ,  9-H ) :   0.9341 B(  0-C , 10-H ) :   0.9278
B(  0-C , 11-H ) :   0.9341 B(  1-N ,  2-C ) :   1.7659 B(  2-C ,  3-N ) :   1.0919
B(  2-C , 12-H ) :   0.9077 B(  3-N ,  4-C ) :   0.9645 B(  3-N , 13-H ) :   0.8773
B(  4-C ,  5-C ) :   1.3901 B(  4-C ,  8-C ) :   1.3098 B(  5-C ,  6-N ) :   1.1908
B(  5-C ,  7-N ) :   0.1318 B(  5-C , 14-H ) :   0.8996 B(  6-N ,  7-N ) :   1.0816
B(  6-N , 15-H ) :   0.8758 B(  7-N ,  8-C ) :   1.5264 B(  8-C , 16-H ) :   0.9113

MP2 TOTAL ENERGY:     -413.486840168 Eh
FINAL SINGLE POINT ENERGY      -413.486840167697

DIPOLE MOMENT
-------------
                                X             Y             Z
Electronic contribution:      2.81225      -7.69916       0.04570
Nuclear contribution   :     -4.30397       6.88233      -0.25642
                        -----------------------------------------
Total Dipole Moment    :     -1.49172      -0.81683      -0.21072
                        -----------------------------------------
Magnitude (a.u.)       :      1.71372
Magnitude (Debye)      :      4.35594

                             ****ORCA TERMINATED NORMALLY****
TOTAL RUN TIME: 0 days 0 hours 15 minutes 40 seconds 968 msec
