                         Program Version 3.0.3 - RELEASE   -
|  1> ! RI-MP2 RIJK def2-TZVP def2-TZVP/C def2-TZVP/JK TIGHTSCF
|  2> % maxcore 2000
|  3> % mp2 density relaxed end
|  4> *xyz 0 1
|  5>  C       -0.1084945878     1.3190432371     0.9276442913
|  6>  C        0.6102776710     0.1671054498     0.2186476892
|  7>  N        0.6279312120    -1.1429114769     0.8492084617
|  8>  C        0.0579139260    -1.3380777430     1.9476674515
|  9>  O        0.0522065755    -2.5853874740     2.4919568703
| 10>  C       -0.4379470229    -2.7045911435     3.8138342230
| 11>  C        0.7284124921    -2.6247576276     4.8194394789
| 12>  C        0.2704963390    -2.8011953350     6.1937677718
| 13>  N       -0.1238250708    -2.9404796552     7.2708191313
| 14>  H        0.3311804669     1.5345528822     1.9075578254
| 15>  H       -0.0277172483     2.2272302223     0.3231663437
| 16>  H       -1.1742155597     1.1100132950     1.0698266228
| 17>  H        0.1781079358     0.0302100536    -0.7812455316
| 18>  H        1.6570932804     0.4461685352     0.0409646767
| 19>  H       -0.4843655646    -0.5972771005     2.5499815873
| 20>  H       -1.1832227402    -1.9304858693     4.0349875316
| 21>  H       -0.9279509877    -3.6783675030     3.8852617542
| 22>  H        1.4669227913    -3.3951272136     4.5755946031
| 23>  H        1.2311541321    -1.6554908036     4.7294879979
| 24> *
| 25>
| 26>                          ****END OF INPUT****

CARTESIAN COORDINATES (ANGSTROEM)
---------------------------------
  C     -0.108495    1.319043    0.927644
  C      0.610278    0.167105    0.218648
  N      0.627931   -1.142911    0.849208
  C      0.057914   -1.338078    1.947667
  O      0.052207   -2.585387    2.491957
  C     -0.437947   -2.704591    3.813834
  C      0.728412   -2.624758    4.819439
  C      0.270496   -2.801195    6.193768
  N     -0.123825   -2.940480    7.270819
  H      0.331180    1.534553    1.907558
  H     -0.027717    2.227230    0.323166
  H     -1.174216    1.110013    1.069827
  H      0.178108    0.030210   -0.781246
  H      1.657093    0.446169    0.040965
  H     -0.484366   -0.597277    2.549982
  H     -1.183223   -1.930486    4.034988
  H     -0.927951   -3.678368    3.885262
  H      1.466923   -3.395127    4.575595
  H      1.231154   -1.655491    4.729488

 Total Charge           Charge          ....    0
 Multiplicity           Mult            ....    1
 Number of Electrons    NEL             ....   68
 Basis Dimension        Dim             ....  339

ORBITAL ENERGIES
----------------

  NO   OCC          E(Eh)            E(eV)
   0   2.0000     -20.605885      -560.7146
   1   2.0000     -15.581035      -423.9815
   2   2.0000     -15.554440      -423.2578
   3   2.0000     -11.341281      -308.6119
   4   2.0000     -11.325374      -308.1791
   5   2.0000     -11.295659      -307.3705
   6   2.0000     -11.284583      -307.0691
   7   2.0000     -11.262898      -306.4790
   8   2.0000     -11.229945      -305.5823
   9   2.0000      -1.440656       -39.2022
  10   2.0000      -1.234430       -33.5905
  11   2.0000      -1.229136       -33.4465
  12   2.0000      -1.090277       -29.6679
  13   2.0000      -1.023385       -27.8477
  14   2.0000      -0.935453       -25.4550
  15   2.0000      -0.882077       -24.0025
  16   2.0000      -0.809822       -22.0364
  17   2.0000      -0.738065       -20.0838
  18   2.0000      -0.709570       -19.3084
  19   2.0000      -0.682135       -18.5618
  20   2.0000      -0.647599       -17.6221
  21   2.0000      -0.636771       -17.3274
  22   2.0000      -0.628982       -17.1155
  23   2.0000      -0.603015       -16.4089
  24   2.0000      -0.570311       -15.5189
  25   2.0000      -0.565419       -15.3858
  26   2.0000      -0.548998       -14.9390
  27   2.0000      -0.526796       -14.3349
  28   2.0000      -0.522984       -14.2311
  29   2.0000      -0.515609       -14.0304
  30   2.0000      -0.469978       -12.7888
  31   2.0000      -0.469130       -12.7657
  32   2.0000      -0.416450       -11.3322
  33   2.0000      -0.393587       -10.7101
  34   0.0000       0.110852         3.0164
  35   0.0000       0.132560         3.6071
  36   0.0000       0.138332         3.7642
  37   0.0000       0.155567         4.2332
  38   0.0000       0.164505         4.4764

MULLIKEN ATOMIC CHARGES
-----------------------
   0 C :   -0.427693
   1 C :   -0.088477
   2 N :   -0.187205
   3 C :    0.054084
   4 O :   -0.221974
   5 C :   -0.112479
   6 C :   -0.109387
   7 C :   -0.190780
   8 N :   -0.058091
   9 H :    0.126883
  10 H :    0.143173
  11 H :    0.130753
  12 H :    0.125531
  13 H :    0.124914
  14 H :    0.070813
  15 H :    0.134495
  16 H :    0.152415
  17 H :    0.171877
  18 H :    0.161149
Sum of atomic charges:    0.0000000

LOEWDIN ATOMIC CHARGES
----------------------
   0 C :   -0.332698
   1 C :   -0.325760
   2 N :    0.090608
   3 C :   -0.363370
   4 O :    0.241961
   5 C :   -0.292567
   6 C :   -0.245160
   7 C :   -0.193678
   8 N :    0.063581
   9 H :    0.119199
  10 H :    0.127956
  11 H :    0.120219
  12 H :    0.137262
  13 H :    0.136699
  14 H :    0.113678
  15 H :    0.128986
  16 H :    0.139823
  17 H :    0.168744
  18 H :    0.164517

  Mayer bond orders larger than 0.1
B(  0-C ,  1-C ) :   0.9125 B(  0-C ,  9-H ) :   0.9340 B(  0-C , 10-H ) :   0.9302
B(  0-C , 11-H ) :   0.9337 B(  1-C ,  2-N ) :   0.9161 B(  1-C , 12-H ) :   0.9249
B(  1-C , 13-H ) :   0.9269 B(  2-N ,  3-C ) :   1.9018 B(  3-C ,  4-O ) :   1.0322
B(  3-C , 14-H ) :   0.9166 B(  4-O ,  5-C ) :   0.9040 B(  5-C ,  6-C ) :   0.9045
B(  5-C , 15-H ) :   0.9494 B(  5-C , 16-H ) :   0.9208 B(  6-C ,  7-C ) :   0.9034
B(  6-C , 17-H ) :   0.9028 B(  6-C , 18-H ) :   0.9138 B(  7-C ,  8-N ) :   2.8575

MP2 TOTAL ENERGY:     -418.499634198 Eh
FINAL SINGLE POINT ENERGY      -418.499634198448

DIPOLE MOMENT
-------------
                                X             Y             Z
Electronic contribution:      0.59466      -8.43177       7.42495
Nuclear contribution   :     -0.66817       9.33913      -8.14779
                        -----------------------------------------
Total Dipole Moment    :     -0.07350       0.90736      -0.72284
                        -----------------------------------------
Magnitude (a.u.)       :      1.16241
Magnitude (Debye)      :      2.95461

                             ****ORCA TERMINATED NORMALLY****
TOTAL RUN TIME: 0 days 0 hours 13 minutes 37 seconds 338 msec
