                         Program Version 3.0.3 - RELEASE   -
|  1> ! RI-MP2 RIJK def2-TZVP def2-TZVP/C def2-TZVP/JK TIGHTSCF
|  2> % maxcore 2000
|  3> % mp2 density relaxed end
|  4> *xyz 0 1
|  5>  O       -0.2018831863     1.1229489883     0.5805389709
|  6>  C       -0.4713548638    -0.2600357200     0.4985548872
|  7>  C       -1.6066311877    -0.5353363306    -0.4865882564
|  8>  O       -1.3019350746     0.0593413820    -1.7511306166
|  9>  C       -1.9174639533    -2.0195611771    -0.6550972570
| 10>  O       -2.2963252617    -2.5406982095     0.6037141569
| 11>  C       -2.6083737901    -3.8993208325     0.5720534338
| 12>  C       -3.5655909116    -4.3847773962     1.6088042149
| 13>  C       -3.9918555902    -4.3277716314     0.1538912779
| 14>  H       -0.2556800309     1.4508442513    -0.3263462437
| 15>  H        0.4227993612    -0.8290204810     0.1774101784
| 16>  H       -0.7433543266    -0.6138137025     1.4961564688
| 17>  H       -2.5057961905    -0.0153458162    -0.1397934786
| 18>  H       -0.5525172815    -0.4186018421    -2.1274456186
| 19>  H       -2.7186329873    -2.1476143971    -1.3970531332
| 20>  H       -1.0240012443    -2.5472132545    -1.0381872606
| 21>  H       -1.7704951429    -4.5414125152     0.2964375419
| 22>  H       -3.3859321428    -5.3499970563     2.0681748194
| 23>  H       -3.9772860466    -3.6328520555     2.2720430252
| 24>  H       -4.6865502517    -3.5422168022    -0.1219889828
| 25>  H       -4.1084221167    -5.2544536916    -0.3971369679
| 26> *
| 27>
| 28>                          ****END OF INPUT****

CARTESIAN COORDINATES (ANGSTROEM)
---------------------------------
  O     -0.201883    1.122949    0.580539
  C     -0.471355   -0.260036    0.498555
  C     -1.606631   -0.535336   -0.486588
  O     -1.301935    0.059341   -1.751131
  C     -1.917464   -2.019561   -0.655097
  O     -2.296325   -2.540698    0.603714
  C     -2.608374   -3.899321    0.572053
  C     -3.565591   -4.384777    1.608804
  C     -3.991856   -4.327772    0.153891
  H     -0.255680    1.450844   -0.326346
  H      0.422799   -0.829020    0.177410
  H     -0.743354   -0.613814    1.496156
  H     -2.505796   -0.015346   -0.139793
  H     -0.552517   -0.418602   -2.127446
  H     -2.718633   -2.147614   -1.397053
  H     -1.024001   -2.547213   -1.038187
  H     -1.770495   -4.541413    0.296438
  H     -3.385932   -5.349997    2.068175
  H     -3.977286   -3.632852    2.272043
  H     -4.686550   -3.542217   -0.121989
  H     -4.108422   -5.254454   -0.397137

 Total Charge           Charge          ....    0
 Multiplicity           Mult            ....    1
 Number of Electrons    NEL             ....   72
 Basis Dimension        Dim             ....  351

ORBITAL ENERGIES
----------------

  NO   OCC          E(Eh)            E(eV)
   0   2.0000     -20.573818      -559.8421
   1   2.0000     -20.572151      -559.7967
   2   2.0000     -20.547932      -559.1376
   3   2.0000     -11.289548      -307.2042
   4   2.0000     -11.287829      -307.1574
   5   2.0000     -11.286073      -307.1097
   6   2.0000     -11.271569      -306.7150
   7   2.0000     -11.231998      -305.6382
   8   2.0000     -11.230923      -305.6090
   9   2.0000      -1.399298       -38.0768
  10   2.0000      -1.382356       -37.6158
  11   2.0000      -1.348308       -36.6893
  12   2.0000      -1.138037       -30.9676
  13   2.0000      -1.029567       -28.0160
  14   2.0000      -0.923056       -25.1176
  15   2.0000      -0.838565       -22.8185
  16   2.0000      -0.828276       -22.5385
  17   2.0000      -0.813672       -22.1412
  18   2.0000      -0.715322       -19.4649
  19   2.0000      -0.704004       -19.1569
  20   2.0000      -0.684104       -18.6154
  21   2.0000      -0.662262       -18.0211
  22   2.0000      -0.642326       -17.4786
  23   2.0000      -0.623212       -16.9585
  24   2.0000      -0.615148       -16.7390
  25   2.0000      -0.587393       -15.9838
  26   2.0000      -0.569833       -15.5059
  27   2.0000      -0.544355       -14.8126
  28   2.0000      -0.524484       -14.2719
  29   2.0000      -0.521423       -14.1886
  30   2.0000      -0.504238       -13.7210
  31   2.0000      -0.470944       -12.8150
  32   2.0000      -0.462261       -12.5788
  33   2.0000      -0.431544       -11.7429
  34   2.0000      -0.426071       -11.5940
  35   2.0000      -0.403088       -10.9686
  36   0.0000       0.126311         3.4371
  37   0.0000       0.149227         4.0607
  38   0.0000       0.155262         4.2249
  39   0.0000       0.166774         4.5381
  40   0.0000       0.177765         4.8372

MULLIKEN ATOMIC CHARGES
-----------------------
   0 O :   -0.473755
   1 C :   -0.016756
   2 C :    0.075241
   3 O :   -0.488004
   4 C :   -0.105613
   5 O :   -0.292661
   6 C :    0.015447
   7 C :   -0.249669
   8 C :   -0.267633
   9 H :    0.325255
  10 H :    0.073126
  11 H :    0.127953
  12 H :    0.106801
  13 H :    0.318288
  14 H :    0.125175
  15 H :    0.085253
  16 H :    0.101590
  17 H :    0.132240
  18 H :    0.140408
  19 H :    0.137158
  20 H :    0.130156
Sum of atomic charges:    0.0000000

LOEWDIN ATOMIC CHARGES
----------------------
   0 O :   -0.046618
   1 C :   -0.342977
   2 C :   -0.358489
   3 O :   -0.025966
   4 C :   -0.309343
   5 O :    0.198494
   6 C :   -0.323547
   7 C :   -0.224526
   8 C :   -0.235652
   9 H :    0.175216
  10 H :    0.114569
  11 H :    0.134917
  12 H :    0.150030
  13 H :    0.176481
  14 H :    0.127779
  15 H :    0.119107
  16 H :    0.131757
  17 H :    0.132348
  18 H :    0.139745
  19 H :    0.136705
  20 H :    0.129969

  Mayer bond orders larger than 0.1
B(  0-O ,  1-C ) :   0.9400 B(  0-O ,  9-H ) :   0.8276 B(  1-C ,  2-C ) :   0.9706
B(  1-C , 10-H ) :   0.8954 B(  1-C , 11-H ) :   0.9240 B(  2-C ,  3-O ) :   0.8553
B(  2-C ,  4-C ) :   0.9695 B(  2-C , 12-H ) :   0.9105 B(  3-O , 13-H ) :   0.8375
B(  4-C ,  5-O ) :   0.9100 B(  4-C , 14-H ) :   0.9264 B(  4-C , 15-H ) :   0.9040
B(  5-O ,  6-C ) :   0.9783 B(  6-C ,  7-C ) :   0.9019 B(  6-C ,  8-C ) :   0.8916
B(  6-C , 16-H ) :   0.9327 B(  7-C ,  8-C ) :   0.9073 B(  7-C , 17-H ) :   0.9259
B(  7-C , 18-H ) :   0.9240 B(  8-C , 19-H ) :   0.9227 B(  8-C , 20-H ) :   0.9216

MP2 TOTAL ENERGY:     -460.595162702 Eh
FINAL SINGLE POINT ENERGY      -460.595162701744

DIPOLE MOMENT
-------------
                                X             Y             Z
Electronic contribution:      1.89687       4.54093      -0.33534
Nuclear contribution   :     -1.86995      -5.69448      -0.32095
                        -----------------------------------------
Total Dipole Moment    :      0.02692      -1.15355      -0.65629
                        -----------------------------------------
Magnitude (a.u.)       :      1.32745
Magnitude (Debye)      :      3.37410

                             ****ORCA TERMINATED NORMALLY****
TOTAL RUN TIME: 0 days 0 hours 14 minutes 34 seconds 324 msec
