                         Program Version 3.0.3 - RELEASE   -
|  1> ! RI-MP2 RIJK def2-TZVP def2-TZVP/C def2-TZVP/JK TIGHTSCF
|  2> % maxcore 2000
|  3> % mp2 density relaxed end
|  4> *xyz 0 1
|  5>  C       -0.0084961896     1.5405912836     0.1314717819
|  6>  C        1.3108091888     0.8230314429     0.0481815437
|  7>  C        0.0146067652     0.0294186017     0.0352879904
|  8>  C        0.0049928507    -0.6762261446    -1.3422659156
|  9>  C       -0.1906292545     0.3532497037    -2.4892612983
| 10>  C        1.3005895941     0.7135557236    -2.6975840207
| 11>  C        1.8335613154    -0.6981702684    -3.0813605322
| 12>  C        1.5249125678    -1.0029065256    -1.5984758126
| 13>  C        1.9658027478     0.4566686183    -1.2780524793
| 14>  H       -0.2670649085     1.9474993447     1.1048747848
| 15>  H       -0.3470215631     2.1583057998    -0.6897652784
| 16>  H        1.9599906390     0.8419600581     0.9180905671
| 17>  H       -0.3134362250    -0.5371605633     0.9003335177
| 18>  H       -0.6792103397    -1.5252686634    -1.3784512517
| 19>  H       -0.5968868131    -0.1136424683    -3.3921369563
| 20>  H       -0.8512807092     1.1794023946    -2.2321646444
| 21>  H        1.5345669888     1.5980521454    -3.2912728023
| 22>  H        1.3018871929    -1.2411752401    -3.8683396945
| 23>  H        2.9085562680    -0.7159154550    -3.2792280934
| 24>  H        1.9420988103    -1.8596634467    -1.0663836848
| 25>  H        3.0424656239     0.6319032192    -1.3098808011
| 26> *
| 27>
| 28>                          ****END OF INPUT****

CARTESIAN COORDINATES (ANGSTROEM)
---------------------------------
  C     -0.008496    1.540591    0.131472
  C      1.310809    0.823031    0.048182
  C      0.014607    0.029419    0.035288
  C      0.004993   -0.676226   -1.342266
  C     -0.190629    0.353250   -2.489261
  C      1.300590    0.713556   -2.697584
  C      1.833561   -0.698170   -3.081361
  C      1.524913   -1.002907   -1.598476
  C      1.965803    0.456669   -1.278052
  H     -0.267065    1.947499    1.104875
  H     -0.347022    2.158306   -0.689765
  H      1.959991    0.841960    0.918091
  H     -0.313436   -0.537161    0.900334
  H     -0.679210   -1.525269   -1.378451
  H     -0.596887   -0.113642   -3.392137
  H     -0.851281    1.179402   -2.232165
  H      1.534567    1.598052   -3.291273
  H      1.301887   -1.241175   -3.868340
  H      2.908556   -0.715915   -3.279228
  H      1.942099   -1.859663   -1.066384
  H      3.042466    0.631903   -1.309881

 Total Charge           Charge          ....    0
 Multiplicity           Mult            ....    1
 Number of Electrons    NEL             ....   66
 Basis Dimension        Dim             ....  351

ORBITAL ENERGIES
----------------

  NO   OCC          E(Eh)            E(eV)
   0   2.0000     -11.229576      -305.5723
   1   2.0000     -11.226432      -305.4867
   2   2.0000     -11.225265      -305.4550
   3   2.0000     -11.221399      -305.3498
   4   2.0000     -11.221267      -305.3462
   5   2.0000     -11.219985      -305.3113
   6   2.0000     -11.218911      -305.2821
   7   2.0000     -11.215886      -305.1998
   8   2.0000     -11.212450      -305.1063
   9   2.0000      -1.204843       -32.7854
  10   2.0000      -1.113359       -30.2960
  11   2.0000      -0.983372       -26.7589
  12   2.0000      -0.938522       -25.5385
  13   2.0000      -0.903037       -24.5729
  14   2.0000      -0.807257       -21.9666
  15   2.0000      -0.789163       -21.4742
  16   2.0000      -0.728031       -19.8107
  17   2.0000      -0.715401       -19.4671
  18   2.0000      -0.690259       -18.7829
  19   2.0000      -0.663187       -18.0462
  20   2.0000      -0.608124       -16.5479
  21   2.0000      -0.590508       -16.0685
  22   2.0000      -0.546821       -14.8798
  23   2.0000      -0.537634       -14.6298
  24   2.0000      -0.509173       -13.8553
  25   2.0000      -0.492131       -13.3916
  26   2.0000      -0.467942       -12.7334
  27   2.0000      -0.454232       -12.3603
  28   2.0000      -0.440470       -11.9858
  29   2.0000      -0.434532       -11.8242
  30   2.0000      -0.413949       -11.2641
  31   2.0000      -0.390922       -10.6375
  32   2.0000      -0.371464       -10.1081
  33   0.0000       0.143268         3.8985
  34   0.0000       0.160753         4.3743
  35   0.0000       0.166342         4.5264
  36   0.0000       0.170956         4.6519
  37   0.0000       0.189959         5.1690

MULLIKEN ATOMIC CHARGES
-----------------------
   0 C :   -0.269171
   1 C :   -0.133325
   2 C :   -0.198669
   3 C :    0.031195
   4 C :   -0.304769
   5 C :   -0.060757
   6 C :   -0.257111
   7 C :   -0.110276
   8 C :   -0.119679
   9 H :    0.122789
  10 H :    0.128760
  11 H :    0.119127
  12 H :    0.120533
  13 H :    0.123343
  14 H :    0.112694
  15 H :    0.121815
  16 H :    0.119979
  17 H :    0.111645
  18 H :    0.113950
  19 H :    0.113688
  20 H :    0.114238
Sum of atomic charges:   -0.0000000

LOEWDIN ATOMIC CHARGES
----------------------
   0 C :   -0.205008
   1 C :   -0.182373
   2 C :   -0.168291
   3 C :   -0.173392
   4 C :   -0.206007
   5 C :   -0.175212
   6 C :   -0.206852
   7 C :   -0.156283
   8 C :   -0.155102
   9 H :    0.135050
  10 H :    0.129738
  11 H :    0.142560
  12 H :    0.139661
  13 H :    0.142808
  14 H :    0.135271
  15 H :    0.130217
  16 H :    0.130219
  17 H :    0.124252
  18 H :    0.136610
  19 H :    0.132090
  20 H :    0.150045

  Mayer bond orders larger than 0.1
B(  0-C ,  1-C ) :   0.8960 B(  0-C ,  2-C ) :   0.9024 B(  0-C ,  9-H ) :   0.9302
B(  0-C , 10-H ) :   0.9132 B(  1-C ,  2-C ) :   0.8917 B(  1-C ,  8-C ) :   0.9283
B(  1-C , 11-H ) :   0.9302 B(  2-C ,  3-C ) :   0.9004 B(  2-C , 12-H ) :   0.9296
B(  3-C ,  4-C ) :   0.9157 B(  3-C ,  7-C ) :   0.8800 B(  3-C , 13-H ) :   0.9107
B(  4-C ,  5-C ) :   0.9271 B(  4-C , 14-H ) :   0.9310 B(  4-C , 15-H ) :   0.9369
B(  5-C ,  6-C ) :   0.9074 B(  5-C ,  8-C ) :   0.8930 B(  5-C , 16-H ) :   0.9109
B(  6-C ,  7-C ) :   0.9311 B(  6-C , 17-H ) :   0.9194 B(  6-C , 18-H ) :   0.9240
B(  7-C ,  8-C ) :   0.9185 B(  7-C , 19-H ) :   0.9147 B(  8-C , 20-H ) :   0.9221

MP2 TOTAL ENERGY:     -349.286443444 Eh
FINAL SINGLE POINT ENERGY      -349.286443443870

DIPOLE MOMENT
-------------
                                X             Y             Z
Electronic contribution:      0.64374      -0.31278       1.06434
Nuclear contribution   :     -0.59643       0.26327      -1.03072
                        -----------------------------------------
Total Dipole Moment    :      0.04731      -0.04951       0.03362
                        -----------------------------------------
Magnitude (a.u.)       :      0.07629
Magnitude (Debye)      :      0.19391

                             ****ORCA TERMINATED NORMALLY****
TOTAL RUN TIME: 0 days 0 hours 21 minutes 52 seconds 630 msec
