                         Program Version 3.0.3 - RELEASE   -
|  1> ! RI-MP2 RIJK def2-TZVP def2-TZVP/C def2-TZVP/JK TIGHTSCF
|  2> % maxcore 2000
|  3> % mp2 density relaxed end
|  4> *xyz 0 1
|  5>  C       -0.3713088389     1.4227919075    -0.1021453692
|  6>  C        0.1185870686    -0.0104421998    -0.0591935587
|  7>  O        1.3747168090    -0.2250267936    -0.7845548739
|  8>  C        2.0649537334    -0.6124394963     0.4107829708
|  9>  C        3.2689296277    -1.5123156699     0.3940666503
| 10>  C        3.4509370730    -0.0333699136     0.6239599015
| 11>  O        3.9219732662     0.7815459840    -0.3937879533
| 12>  C        0.8239307910    -0.4877031712     1.2287482424
| 13>  O        0.5107395108    -0.6602612294     2.3692347152
| 14>  H        0.3971070232     2.1107231968     0.2619235651
| 15>  H       -0.6379864470     1.7055448358    -1.1245798943
| 16>  H       -1.2595403716     1.5267200756     0.5287302891
| 17>  H       -0.6435974403    -0.7125643989    -0.4176815289
| 18>  H        3.3899358465    -2.1905026004     1.2327211881
| 19>  H        3.5497971161    -1.9002761872    -0.5796173024
| 20>  H        3.7192528516     0.3080094161     1.6201206161
| 21>  H        3.1844165408     0.9154803744    -1.0078939978
| 22> *
| 23>
| 24>                          ****END OF INPUT****

CARTESIAN COORDINATES (ANGSTROEM)
---------------------------------
  C     -0.371309    1.422792   -0.102145
  C      0.118587   -0.010442   -0.059194
  O      1.374717   -0.225027   -0.784555
  C      2.064954   -0.612439    0.410783
  C      3.268930   -1.512316    0.394067
  C      3.450937   -0.033370    0.623960
  O      3.921973    0.781546   -0.393788
  C      0.823931   -0.487703    1.228748
  O      0.510740   -0.660261    2.369235
  H      0.397107    2.110723    0.261924
  H     -0.637986    1.705545   -1.124580
  H     -1.259540    1.526720    0.528730
  H     -0.643597   -0.712564   -0.417682
  H      3.389936   -2.190503    1.232721
  H      3.549797   -1.900276   -0.579617
  H      3.719253    0.308009    1.620121
  H      3.184417    0.915480   -1.007894

 Total Charge           Charge          ....    0
 Multiplicity           Mult            ....    1
 Number of Electrons    NEL             ....   68
 Basis Dimension        Dim             ....  327

ORBITAL ENERGIES
----------------

  NO   OCC          E(Eh)            E(eV)
   0   2.0000     -20.586830      -560.1961
   1   2.0000     -20.574434      -559.8588
   2   2.0000     -20.571866      -559.7889
   3   2.0000     -11.353528      -308.9452
   4   2.0000     -11.315292      -307.9048
   5   2.0000     -11.310040      -307.7618
   6   2.0000     -11.307273      -307.6865
   7   2.0000     -11.252104      -306.1853
   8   2.0000     -11.244370      -305.9749
   9   2.0000      -1.434138       -39.0249
  10   2.0000      -1.405733       -38.2519
  11   2.0000      -1.380056       -37.5532
  12   2.0000      -1.140973       -31.0474
  13   2.0000      -1.047885       -28.5144
  14   2.0000      -0.956426       -26.0257
  15   2.0000      -0.860722       -23.4214
  16   2.0000      -0.846251       -23.0276
  17   2.0000      -0.749203       -20.3868
  18   2.0000      -0.711371       -19.3574
  19   2.0000      -0.700452       -19.0603
  20   2.0000      -0.690843       -18.7988
  21   2.0000      -0.650502       -17.7010
  22   2.0000      -0.621401       -16.9092
  23   2.0000      -0.600303       -16.3351
  24   2.0000      -0.579217       -15.7613
  25   2.0000      -0.573395       -15.6029
  26   2.0000      -0.569755       -15.5038
  27   2.0000      -0.547603       -14.9010
  28   2.0000      -0.537498       -14.6261
  29   2.0000      -0.535913       -14.5829
  30   2.0000      -0.508834       -13.8461
  31   2.0000      -0.454991       -12.3809
  32   2.0000      -0.408523       -11.1165
  33   2.0000      -0.390170       -10.6171
  34   0.0000       0.110143         2.9971
  35   0.0000       0.140285         3.8174
  36   0.0000       0.162271         4.4156
  37   0.0000       0.165891         4.5141
  38   0.0000       0.175842         4.7849

MULLIKEN ATOMIC CHARGES
-----------------------
   0 C :   -0.430003
   1 C :    0.156662
   2 O :   -0.357560
   3 C :    0.089481
   4 C :   -0.224816
   5 C :    0.043007
   6 O :   -0.465523
   7 C :    0.101929
   8 O :   -0.249202
   9 H :    0.142982
  10 H :    0.148294
  11 H :    0.146004
  12 H :    0.128261
  13 H :    0.149493
  14 H :    0.146163
  15 H :    0.134380
  16 H :    0.340449
Sum of atomic charges:   -0.0000000

LOEWDIN ATOMIC CHARGES
----------------------
   0 C :   -0.286101
   1 C :   -0.245495
   2 O :    0.175471
   3 C :   -0.266302
   4 C :   -0.175797
   5 C :   -0.287601
   6 O :    0.012038
   7 C :   -0.278379
   8 O :    0.174886
   9 H :    0.131331
  10 H :    0.131907
  11 H :    0.137255
  12 H :    0.148626
  13 H :    0.146886
  14 H :    0.150685
  15 H :    0.143562
  16 H :    0.187027

  Mayer bond orders larger than 0.1
B(  0-C ,  1-C ) :   0.9122 B(  0-C ,  9-H ) :   0.9329 B(  0-C , 10-H ) :   0.9314
B(  0-C , 11-H ) :   0.9251 B(  1-C ,  2-O ) :   0.8604 B(  1-C ,  7-C ) :   0.8934
B(  1-C , 12-H ) :   0.8981 B(  2-O ,  3-C ) :   0.9295 B(  3-C ,  4-C ) :   0.8530
B(  3-C ,  5-C ) :   0.8282 B(  3-C ,  7-C ) :   0.8958 B(  4-C ,  5-C ) :   0.8975
B(  4-C , 13-H ) :   0.9013 B(  4-C , 14-H ) :   0.8971 B(  5-C ,  6-O ) :   1.0050
B(  5-C , 15-H ) :   0.9303 B(  6-O , 16-H ) :   0.8092 B(  7-C ,  8-O ) :   2.0516

MP2 TOTAL ENERGY:     -458.196800857 Eh
FINAL SINGLE POINT ENERGY      -458.196800857458

DIPOLE MOMENT
-------------
                                X             Y             Z
Electronic contribution:      1.23246      -2.53286       2.02272
Nuclear contribution   :     -1.72936       2.51866      -2.42029
                        -----------------------------------------
Total Dipole Moment    :     -0.49691      -0.01420      -0.39758
                        -----------------------------------------
Magnitude (a.u.)       :      0.63655
Magnitude (Debye)      :      1.61797

                             ****ORCA TERMINATED NORMALLY****
TOTAL RUN TIME: 0 days 0 hours 15 minutes 6 seconds 543 msec
