                         Program Version 3.0.3 - RELEASE   -
|  1> ! RI-MP2 RIJK def2-TZVP def2-TZVP/C def2-TZVP/JK TIGHTSCF
|  2> % maxcore 2000
|  3> % mp2 density relaxed end
|  4> *xyz 0 1
|  5>  C       -0.1125420764     1.4455277191     0.0049462958
|  6>  C       -0.0576947273    -0.0417809525     0.0968060863
|  7>  C       -1.0021285211    -0.9467567925     0.3358689829
|  8>  C       -2.3924014216    -1.3885476218    -0.0798326736
|  9>  O       -2.2322977339    -1.6935808724    -1.4802032037
| 10>  C       -1.8406985545    -2.6909706564    -0.5403007085
| 11>  C       -0.4692977807    -2.3325692242     0.1194488714
| 12>  O        0.7774027716    -2.1866461605    -0.5209515498
| 13>  C        1.2058658897    -0.8392449445    -0.2483554871
| 14>  H        0.5558453512     1.9165281146     0.7370670134
| 15>  H        0.2155886226     1.7876773463    -0.9844754553
| 16>  H       -1.1234035812     1.8200841657     0.1822708238
| 17>  H       -3.3818872577    -1.1250738215     0.2692570091
| 18>  H       -2.3150971153    -3.6625626066    -0.6171134862
| 19>  H       -0.3841610269    -2.9355074568     1.0398234631
| 20>  H        1.6876901018    -0.4365794710    -1.1489973987
| 21>  H        1.9559420397    -0.8340431850     0.5600199971
| 22> *
| 23>
| 24>                          ****END OF INPUT****

CARTESIAN COORDINATES (ANGSTROEM)
---------------------------------
  C     -0.112542    1.445528    0.004946
  C     -0.057695   -0.041781    0.096806
  C     -1.002129   -0.946757    0.335869
  C     -2.392401   -1.388548   -0.079833
  O     -2.232298   -1.693581   -1.480203
  C     -1.840699   -2.690971   -0.540301
  C     -0.469298   -2.332569    0.119449
  O      0.777403   -2.186646   -0.520952
  C      1.205866   -0.839245   -0.248355
  H      0.555845    1.916528    0.737067
  H      0.215589    1.787677   -0.984475
  H     -1.123404    1.820084    0.182271
  H     -3.381887   -1.125074    0.269257
  H     -2.315097   -3.662563   -0.617113
  H     -0.384161   -2.935507    1.039823
  H      1.687690   -0.436579   -1.148997
  H      1.955942   -0.834043    0.560020

 Total Charge           Charge          ....    0
 Multiplicity           Mult            ....    1
 Number of Electrons    NEL             ....   66
 Basis Dimension        Dim             ....  327

ORBITAL ENERGIES
----------------

  NO   OCC          E(Eh)            E(eV)
   0   2.0000     -20.576937      -559.9269
   1   2.0000     -20.557626      -559.4014
   2   2.0000     -11.306885      -307.6760
   3   2.0000     -11.296195      -307.3851
   4   2.0000     -11.287506      -307.1487
   5   2.0000     -11.286788      -307.1291
   6   2.0000     -11.252161      -306.1869
   7   2.0000     -11.236477      -305.7601
   8   2.0000     -11.231281      -305.6187
   9   2.0000      -1.427937       -38.8561
  10   2.0000      -1.378717       -37.5168
  11   2.0000      -1.112470       -30.2718
  12   2.0000      -1.053106       -28.6565
  13   2.0000      -0.950272       -25.8582
  14   2.0000      -0.899715       -24.4825
  15   2.0000      -0.882089       -24.0029
  16   2.0000      -0.787860       -21.4388
  17   2.0000      -0.748655       -20.3719
  18   2.0000      -0.684396       -18.6234
  19   2.0000      -0.668061       -18.1789
  20   2.0000      -0.651227       -17.7208
  21   2.0000      -0.606642       -16.5076
  22   2.0000      -0.591121       -16.0852
  23   2.0000      -0.576073       -15.6757
  24   2.0000      -0.567663       -15.4469
  25   2.0000      -0.559285       -15.2189
  26   2.0000      -0.536217       -14.5912
  27   2.0000      -0.520915       -14.1748
  28   2.0000      -0.490164       -13.3380
  29   2.0000      -0.439362       -11.9557
  30   2.0000      -0.428956       -11.6725
  31   2.0000      -0.409756       -11.1500
  32   2.0000      -0.343004        -9.3336
  33   0.0000       0.127900         3.4803
  34   0.0000       0.133429         3.6308
  35   0.0000       0.158318         4.3080
  36   0.0000       0.164863         4.4861
  37   0.0000       0.186575         5.0770

MULLIKEN ATOMIC CHARGES
-----------------------
   0 C :   -0.411118
   1 C :   -0.040180
   2 C :   -0.096518
   3 C :    0.027398
   4 O :   -0.297204
   5 C :   -0.083798
   6 C :    0.210972
   7 O :   -0.332562
   8 C :   -0.011148
   9 H :    0.146105
  10 H :    0.146654
  11 H :    0.143845
  12 H :    0.151781
  13 H :    0.141291
  14 H :    0.085301
  15 H :    0.114956
  16 H :    0.104226
Sum of atomic charges:    0.0000000

LOEWDIN ATOMIC CHARGES
----------------------
   0 C :   -0.269830
   1 C :   -0.150458
   2 C :   -0.115183
   3 C :   -0.194077
   4 O :    0.187143
   5 C :   -0.216362
   6 C :   -0.248375
   7 O :    0.169123
   8 C :   -0.233808
   9 H :    0.135590
  10 H :    0.135917
  11 H :    0.134574
  12 H :    0.133088
  13 H :    0.129960
  14 H :    0.146709
  15 H :    0.131490
  16 H :    0.124498

  Mayer bond orders larger than 0.1
B(  0-C ,  1-C ) :   0.8910 B(  0-C ,  9-H ) :   0.9264 B(  0-C , 10-H ) :   0.9295
B(  0-C , 11-H ) :   0.9418 B(  1-C ,  2-C ) :   1.7270 B(  1-C ,  8-C ) :   0.9732
B(  2-C ,  3-C ) :   0.8922 B(  2-C ,  6-C ) :   0.9867 B(  3-C ,  4-O ) :   0.9154
B(  3-C ,  5-C ) :   0.9096 B(  3-C , 12-H ) :   0.9145 B(  4-O ,  5-C ) :   0.9315
B(  5-C ,  6-C ) :   0.8509 B(  5-C , 13-H ) :   0.9320 B(  6-C ,  7-O ) :   0.9420
B(  6-C , 14-H ) :   0.8919 B(  7-O ,  8-C ) :   0.9416 B(  8-C , 15-H ) :   0.9042
B(  8-C , 16-H ) :   0.9177

MP2 TOTAL ENERGY:     -421.035592387 Eh
FINAL SINGLE POINT ENERGY      -421.035592387354

DIPOLE MOMENT
-------------
                                X             Y             Z
Electronic contribution:     -2.50304      -5.13590      -1.41969
Nuclear contribution   :      2.34882       5.62140       2.17397
                        -----------------------------------------
Total Dipole Moment    :     -0.15422       0.48550       0.75428
                        -----------------------------------------
Magnitude (a.u.)       :      0.91018
Magnitude (Debye)      :      2.31350

                             ****ORCA TERMINATED NORMALLY****
TOTAL RUN TIME: 0 days 0 hours 21 minutes 26 seconds 312 msec
