                         Program Version 3.0.3 - RELEASE   -
|  1> ! RI-MP2 RIJK def2-TZVP def2-TZVP/C def2-TZVP/JK TIGHTSCF
|  2> % maxcore 2000
|  3> % mp2 density relaxed end
|  4> *xyz 0 1
|  5>  O        0.0592559848     0.0194045514    -0.4446279105
|  6>  C        0.0306495587     1.1917951978    -0.1381825388
|  7>  N        1.0535040239     1.8703134998     0.4666365187
|  8>  C        2.5064823551     1.6471093154     0.2423639187
|  9>  C        2.6054099863     2.7186358432    -0.9059751710
| 10>  C        3.7682549145     3.4501865715    -0.2067305942
| 11>  C        2.8747884317     2.9869801439     0.9623890223
| 12>  C        1.5619977898     3.2343551857     0.1492566314
| 13>  H       -0.8755794378     1.8250379764    -0.2418134933
| 14>  H        2.9798752620     0.6711605465     0.3139036355
| 15>  H        2.4205524021     2.5443966395    -1.9662954811
| 16>  H        4.7541222306     2.9840978846    -0.2815401976
| 17>  H        3.8402829629     4.5286785357    -0.3707629070
| 18>  H        2.9939160445     3.1221927255     2.0369128680
| 19>  H        0.9307705809     4.1218269331     0.1201613190
| 20> *
| 21>
| 22>                          ****END OF INPUT****

CARTESIAN COORDINATES (ANGSTROEM)
---------------------------------
  O      0.059256    0.019405   -0.444628
  C      0.030650    1.191795   -0.138183
  N      1.053504    1.870313    0.466637
  C      2.506482    1.647109    0.242364
  C      2.605410    2.718636   -0.905975
  C      3.768255    3.450187   -0.206731
  C      2.874788    2.986980    0.962389
  C      1.561998    3.234355    0.149257
  H     -0.875579    1.825038   -0.241813
  H      2.979875    0.671161    0.313904
  H      2.420552    2.544397   -1.966295
  H      4.754122    2.984098   -0.281540
  H      3.840283    4.528679   -0.370763
  H      2.993916    3.122193    2.036913
  H      0.930771    4.121827    0.120161

 Total Charge           Charge          ....    0
 Multiplicity           Mult            ....    1
 Number of Electrons    NEL             ....   58
 Basis Dimension        Dim             ....  290

ORBITAL ENERGIES
----------------

  NO   OCC          E(Eh)            E(eV)
   0   2.0000     -20.525030      -558.5145
   1   2.0000     -15.581579      -423.9963
   2   2.0000     -11.343038      -308.6598
   3   2.0000     -11.301359      -307.5256
   4   2.0000     -11.294544      -307.3402
   5   2.0000     -11.265193      -306.5415
   6   2.0000     -11.264234      -306.5154
   7   2.0000     -11.246041      -306.0203
   8   2.0000      -1.383853       -37.6565
   9   2.0000      -1.320742       -35.9392
  10   2.0000      -1.145470       -31.1698
  11   2.0000      -0.950047       -25.8521
  12   2.0000      -0.903368       -24.5819
  13   2.0000      -0.889315       -24.1995
  14   2.0000      -0.798315       -21.7233
  15   2.0000      -0.723032       -19.6747
  16   2.0000      -0.714365       -19.4389
  17   2.0000      -0.687696       -18.7131
  18   2.0000      -0.647283       -17.6135
  19   2.0000      -0.613929       -16.7059
  20   2.0000      -0.605054       -16.4644
  21   2.0000      -0.522020       -14.2049
  22   2.0000      -0.510598       -13.8941
  23   2.0000      -0.504435       -13.7264
  24   2.0000      -0.471075       -12.8186
  25   2.0000      -0.462413       -12.5829
  26   2.0000      -0.452686       -12.3182
  27   2.0000      -0.424866       -11.5612
  28   2.0000      -0.372200       -10.1281
  29   0.0000       0.139159         3.7867
  30   0.0000       0.151440         4.1209
  31   0.0000       0.161815         4.4032
  32   0.0000       0.164099         4.4654
  33   0.0000       0.173764         4.7284

MULLIKEN ATOMIC CHARGES
-----------------------
   0 O :   -0.339124
   1 C :    0.124591
   2 N :   -0.103703
   3 C :   -0.081174
   4 C :   -0.116178
   5 C :   -0.225308
   6 C :   -0.088847
   7 C :   -0.076723
   8 H :    0.078182
   9 H :    0.150814
  10 H :    0.144964
  11 H :    0.124107
  12 H :    0.121705
  13 H :    0.139943
  14 H :    0.146752
Sum of atomic charges:   -0.0000000

LOEWDIN ATOMIC CHARGES
----------------------
   0 O :    0.071298
   1 C :   -0.420070
   2 N :    0.189748
   3 C :   -0.127658
   4 C :   -0.137142
   5 C :   -0.204704
   6 C :   -0.135192
   7 C :   -0.140862
   8 H :    0.109146
   9 H :    0.137806
  10 H :    0.131758
  11 H :    0.131639
  12 H :    0.130409
  13 H :    0.131026
  14 H :    0.132797

  Mayer bond orders larger than 0.1
B(  0-O ,  1-C ) :   1.9279 B(  1-C ,  2-N ) :   1.0945 B(  1-C ,  8-H ) :   0.9371
B(  2-N ,  3-C ) :   0.8710 B(  2-N ,  7-C ) :   0.8689 B(  3-C ,  4-C ) :   0.8545
B(  3-C ,  6-C ) :   0.8662 B(  3-C ,  9-H ) :   0.9140 B(  4-C ,  5-C ) :   0.9167
B(  4-C ,  7-C ) :   0.8620 B(  4-C , 10-H ) :   0.9037 B(  5-C ,  6-C ) :   0.9105
B(  5-C , 11-H ) :   0.9299 B(  5-C , 12-H ) :   0.9283 B(  6-C ,  7-C ) :   0.8846
B(  6-C , 13-H ) :   0.8968 B(  7-C , 14-H ) :   0.8941

MP2 TOTAL ENERGY:     -361.960791486 Eh
FINAL SINGLE POINT ENERGY      -361.960791485702

DIPOLE MOMENT
-------------
                                X             Y             Z
Electronic contribution:     -3.53161      -3.30259       0.42862
Nuclear contribution   :      4.33419       4.73747      -0.38558
                        -----------------------------------------
Total Dipole Moment    :      0.80258       1.43488       0.04304
                        -----------------------------------------
Magnitude (a.u.)       :      1.64465
Magnitude (Debye)      :      4.18037

                             ****ORCA TERMINATED NORMALLY****
TOTAL RUN TIME: 0 days 0 hours 12 minutes 44 seconds 326 msec
