                         Program Version 3.0.3 - RELEASE   -
|  1> ! RI-MP2 RIJK def2-TZVP def2-TZVP/C def2-TZVP/JK TIGHTSCF
|  2> % maxcore 2000
|  3> % mp2 density relaxed end
|  4> *xyz 0 1
|  5>  C       -0.0201253049     1.5371041988    -0.1146340256
|  6>  C        1.3129729912     0.8298901926     0.0097525965
|  7>  C       -0.0006600466     0.0314590316     0.0027763653
|  8>  C        0.2546536989    -0.7288185449    -1.2856157183
|  9>  C       -0.0532190645    -1.7209066244    -2.4235383356
| 10>  N        1.3371531869    -1.2178464925    -2.8502406024
| 11>  C        1.7472994933    -1.1553343055    -1.3608951461
| 12>  C        2.0515537256     0.3603495903    -1.2735603661
| 13>  C        0.9529930542     0.1852576222    -2.3260944279
| 14>  H       -0.3580367181     2.0944474714     0.7535965515
| 15>  H       -0.3033868067     1.9907382897    -1.0583861755
| 16>  H        1.8823150347     0.9496267910     0.9243915044
| 17>  H       -0.3657363976    -0.4579175083     0.8976356633
| 18>  H       -0.0774243308    -2.7894353619    -2.1869292096
| 19>  H       -0.8440637566    -1.4617798119    -3.1346050549
| 20>  H        2.2261674363    -2.0044673793    -0.8694456506
| 21>  H        3.0290796186     0.7932749831    -1.4900345610
| 22>  H        0.4854924661     0.9097155482    -2.9939781474
| 23> *
| 24>
| 25>                          ****END OF INPUT****

CARTESIAN COORDINATES (ANGSTROEM)
---------------------------------
  C     -0.020125    1.537104   -0.114634
  C      1.312973    0.829890    0.009753
  C     -0.000660    0.031459    0.002776
  C      0.254654   -0.728819   -1.285616
  C     -0.053219   -1.720907   -2.423538
  N      1.337153   -1.217846   -2.850241
  C      1.747299   -1.155334   -1.360895
  C      2.051554    0.360350   -1.273560
  C      0.952993    0.185258   -2.326094
  H     -0.358037    2.094447    0.753597
  H     -0.303387    1.990738   -1.058386
  H      1.882315    0.949627    0.924392
  H     -0.365736   -0.457918    0.897636
  H     -0.077424   -2.789435   -2.186929
  H     -0.844064   -1.461780   -3.134605
  H      2.226167   -2.004467   -0.869446
  H      3.029080    0.793275   -1.490035
  H      0.485492    0.909716   -2.993978

 Total Charge           Charge          ....    0
 Multiplicity           Mult            ....    1
 Number of Electrons    NEL             ....   64
 Basis Dimension        Dim             ....  333

ORBITAL ENERGIES
----------------

  NO   OCC          E(Eh)            E(eV)
   0   2.0000     -15.560643      -423.4266
   1   2.0000     -11.263378      -306.4921
   2   2.0000     -11.262204      -306.4602
   3   2.0000     -11.261431      -306.4391
   4   2.0000     -11.251867      -306.1789
   5   2.0000     -11.243105      -305.9404
   6   2.0000     -11.239011      -305.8290
   7   2.0000     -11.237807      -305.7963
   8   2.0000     -11.236338      -305.7563
   9   2.0000      -1.321627       -35.9633
  10   2.0000      -1.162466       -31.6323
  11   2.0000      -1.024057       -27.8660
  12   2.0000      -0.937208       -25.5027
  13   2.0000      -0.883281       -24.0353
  14   2.0000      -0.872820       -23.7506
  15   2.0000      -0.813423       -22.1344
  16   2.0000      -0.758978       -20.6528
  17   2.0000      -0.698386       -19.0041
  18   2.0000      -0.679686       -18.4952
  19   2.0000      -0.665812       -18.1177
  20   2.0000      -0.612621       -16.6703
  21   2.0000      -0.607321       -16.5261
  22   2.0000      -0.559431       -15.2229
  23   2.0000      -0.545701       -14.8493
  24   2.0000      -0.498250       -13.5581
  25   2.0000      -0.482979       -13.1425
  26   2.0000      -0.464945       -12.6518
  27   2.0000      -0.441734       -12.0202
  28   2.0000      -0.428583       -11.6623
  29   2.0000      -0.401133       -10.9154
  30   2.0000      -0.379558       -10.3283
  31   2.0000      -0.360719        -9.8157
  32   0.0000       0.150505         4.0955
  33   0.0000       0.152806         4.1581
  34   0.0000       0.156181         4.2499
  35   0.0000       0.173011         4.7079
  36   0.0000       0.193544         5.2666

MULLIKEN ATOMIC CHARGES
-----------------------
   0 C :   -0.259872
   1 C :   -0.159651
   2 C :   -0.176392
   3 C :    0.053027
   4 C :   -0.090782
   5 N :   -0.227568
   6 C :   -0.087561
   7 C :   -0.067822
   8 C :   -0.104601
   9 H :    0.131199
  10 H :    0.132055
  11 H :    0.128637
  12 H :    0.130244
  13 H :    0.112389
  14 H :    0.113563
  15 H :    0.120315
  16 H :    0.129781
  17 H :    0.123040
Sum of atomic charges:   -0.0000000

LOEWDIN ATOMIC CHARGES
----------------------
   0 C :   -0.196757
   1 C :   -0.155886
   2 C :   -0.163888
   3 C :   -0.167465
   4 C :   -0.206282
   5 N :    0.115160
   6 C :   -0.125625
   7 C :   -0.150312
   8 C :   -0.142908
   9 H :    0.135981
  10 H :    0.135766
  11 H :    0.141668
  12 H :    0.142448
  13 H :    0.122655
  14 H :    0.123300
  15 H :    0.126892
  16 H :    0.137121
  17 H :    0.128131

  Mayer bond orders larger than 0.1
B(  0-C ,  1-C ) :   0.8985 B(  0-C ,  2-C ) :   0.8967 B(  0-C ,  9-H ) :   0.9311
B(  0-C , 10-H ) :   0.9101 B(  1-C ,  2-C ) :   0.8967 B(  1-C ,  7-C ) :   0.9137
B(  1-C , 11-H ) :   0.9307 B(  2-C ,  3-C ) :   0.8926 B(  2-C , 12-H ) :   0.9214
B(  3-C ,  4-C ) :   0.9117 B(  3-C ,  6-C ) :   0.9087 B(  3-C ,  8-C ) :   0.8950
B(  4-C ,  5-N ) :   0.9558 B(  4-C , 13-H ) :   0.9160 B(  4-C , 14-H ) :   0.9201
B(  5-N ,  6-C ) :   0.9116 B(  5-N ,  8-C ) :   0.9013 B(  6-C ,  7-C ) :   0.8785
B(  6-C , 15-H ) :   0.8919 B(  7-C ,  8-C ) :   0.8782 B(  7-C , 16-H ) :   0.8994
B(  8-C , 17-H ) :   0.9051

MP2 TOTAL ENERGY:     -364.015034480 Eh
FINAL SINGLE POINT ENERGY      -364.015034479949

DIPOLE MOMENT
-------------
                                X             Y             Z
Electronic contribution:      1.36977      -1.53353      -1.61299
Nuclear contribution   :     -1.72114       1.78664       2.34785
                        -----------------------------------------
Total Dipole Moment    :     -0.35137       0.25310       0.73486
                        -----------------------------------------
Magnitude (a.u.)       :      0.85296
Magnitude (Debye)      :      2.16806

                             ****ORCA TERMINATED NORMALLY****
TOTAL RUN TIME: 0 days 0 hours 19 minutes 45 seconds 934 msec
