                         Program Version 3.0.3 - RELEASE   -
|  1> ! RI-MP2 RIJK def2-TZVP def2-TZVP/C def2-TZVP/JK TIGHTSCF
|  2> % maxcore 2000
|  3> % mp2 density relaxed end
|  4> *xyz 0 1
|  5>  O       -0.0487016845     1.4625534789     0.0101697220
|  6>  C        0.0376059262     0.0447981377     0.0017935711
|  7>  C       -1.3783988709    -0.5146655452     0.0123317168
|  8>  C       -1.4180336014    -2.0453565158     0.0046062428
|  9>  C       -2.8424668749    -2.6111884431     0.0151335335
| 10>  C       -2.8821019451    -4.1418794445     0.0073987217
| 11>  C       -4.2981066439    -4.7013430045     0.0179425317
| 12>  O       -4.2117989283    -6.1190984058     0.0095884545
| 13>  H        0.8446917933     1.8178879989     0.0032806355
| 14>  H        0.5732575203    -0.3162272874    -0.8919816155
| 15>  H        0.5901718412    -0.3256677392     0.8812975203
| 16>  H       -1.8973245986    -0.1276150545     0.8981080504
| 17>  H       -1.9140911237    -0.1183073060    -0.8592319796
| 18>  H       -0.8864130479    -2.4230950498    -0.8798060373
| 19>  H       -0.8697625403    -2.4323831233     0.8747206934
| 20>  H       -3.3740837017    -2.2334568585     0.8995508653
| 21>  H       -3.3907416406    -2.2241550519    -0.8549757211
| 22>  H       -2.3631792094    -4.5289240828    -0.8783817460
| 23>  H       -2.3464067000    -4.5382434064     0.8789581161
| 24>  H       -4.8337592900    -4.3403039751     0.9117119174
| 25>  H       -4.8506716125    -4.3308904774    -0.8615673680
| 26>  H       -5.1051929573    -6.4744326343     0.0164200948
| 27> *
| 28>
| 29>                          ****END OF INPUT****

CARTESIAN COORDINATES (ANGSTROEM)
---------------------------------
  O     -0.048702    1.462553    0.010170
  C      0.037606    0.044798    0.001794
  C     -1.378399   -0.514666    0.012332
  C     -1.418034   -2.045357    0.004606
  C     -2.842467   -2.611188    0.015134
  C     -2.882102   -4.141879    0.007399
  C     -4.298107   -4.701343    0.017943
  O     -4.211799   -6.119098    0.009588
  H      0.844692    1.817888    0.003281
  H      0.573258   -0.316227   -0.891982
  H      0.590172   -0.325668    0.881298
  H     -1.897325   -0.127615    0.898108
  H     -1.914091   -0.118307   -0.859232
  H     -0.886413   -2.423095   -0.879806
  H     -0.869763   -2.432383    0.874721
  H     -3.374084   -2.233457    0.899551
  H     -3.390742   -2.224155   -0.854976
  H     -2.363179   -4.528924   -0.878382
  H     -2.346407   -4.538243    0.878958
  H     -4.833759   -4.340304    0.911712
  H     -4.850672   -4.330890   -0.861567
  H     -5.105193   -6.474433    0.016420

 Total Charge           Charge          ....    0
 Multiplicity           Mult            ....    1
 Number of Electrons    NEL             ....   66
 Basis Dimension        Dim             ....  332

ORBITAL ENERGIES
----------------

  NO   OCC          E(Eh)            E(eV)
   0   2.0000     -20.552418      -559.2597
   1   2.0000     -20.552418      -559.2597
   2   2.0000     -11.272176      -306.7315
   3   2.0000     -11.272176      -306.7315
   4   2.0000     -11.220427      -305.3234
   5   2.0000     -11.219829      -305.3071
   6   2.0000     -11.214946      -305.1742
   7   2.0000     -11.214941      -305.1740
   8   2.0000      -1.356102       -36.9014
   9   2.0000      -1.356087       -36.9010
  10   2.0000      -1.085448       -29.5365
  11   2.0000      -1.030317       -28.0364
  12   2.0000      -0.948716       -25.8159
  13   2.0000      -0.858579       -23.3631
  14   2.0000      -0.799920       -21.7669
  15   2.0000      -0.792241       -21.5580
  16   2.0000      -0.689802       -18.7705
  17   2.0000      -0.688981       -18.7481
  18   2.0000      -0.666536       -18.1374
  19   2.0000      -0.647457       -17.6182
  20   2.0000      -0.602998       -16.4084
  21   2.0000      -0.590214       -16.0605
  22   2.0000      -0.572592       -15.5810
  23   2.0000      -0.543291       -14.7837
  24   2.0000      -0.537094       -14.6151
  25   2.0000      -0.515196       -14.0192
  26   2.0000      -0.489739       -13.3265
  27   2.0000      -0.481177       -13.0935
  28   2.0000      -0.470159       -12.7937
  29   2.0000      -0.464833       -12.6488
  30   2.0000      -0.451112       -12.2754
  31   2.0000      -0.440939       -11.9986
  32   2.0000      -0.440020       -11.9736
  33   0.0000       0.134025         3.6470
  34   0.0000       0.138426         3.7668
  35   0.0000       0.147258         4.0071
  36   0.0000       0.165551         4.5049
  37   0.0000       0.173569         4.7230

MULLIKEN ATOMIC CHARGES
-----------------------
   0 O :   -0.466464
   1 C :   -0.062417
   2 C :   -0.149067
   3 C :   -0.252772
   4 C :   -0.252772
   5 C :   -0.149067
   6 C :   -0.062417
   7 O :   -0.466464
   8 H :    0.314227
   9 H :    0.090516
  10 H :    0.090513
  11 H :    0.109514
  12 H :    0.109508
  13 H :    0.108220
  14 H :    0.108222
  15 H :    0.108220
  16 H :    0.108222
  17 H :    0.109513
  18 H :    0.109509
  19 H :    0.090516
  20 H :    0.090513
  21 H :    0.314227
Sum of atomic charges:   -0.0000000

LOEWDIN ATOMIC CHARGES
----------------------
   0 O :   -0.054226
   1 C :   -0.354278
   2 C :   -0.273047
   3 C :   -0.269455
   4 C :   -0.269455
   5 C :   -0.273047
   6 C :   -0.354278
   7 O :   -0.054226
   8 H :    0.170944
   9 H :    0.113439
  10 H :    0.113439
  11 H :    0.139544
  12 H :    0.139542
  13 H :    0.137049
  14 H :    0.137049
  15 H :    0.137049
  16 H :    0.137049
  17 H :    0.139543
  18 H :    0.139542
  19 H :    0.113439
  20 H :    0.113439
  21 H :    0.170944

  Mayer bond orders larger than 0.1
B(  0-O ,  1-C ) :   1.0211 B(  0-O ,  8-H ) :   0.8500 B(  1-C ,  2-C ) :   0.9401
B(  1-C ,  9-H ) :   0.9332 B(  1-C , 10-H ) :   0.9332 B(  2-C ,  3-C ) :   0.9217
B(  2-C , 11-H ) :   0.9248 B(  2-C , 12-H ) :   0.9248 B(  3-C ,  4-C ) :   0.9491
B(  3-C , 13-H ) :   0.9270 B(  3-C , 14-H ) :   0.9270 B(  4-C ,  5-C ) :   0.9217
B(  4-C , 15-H ) :   0.9270 B(  4-C , 16-H ) :   0.9270 B(  5-C ,  6-C ) :   0.9401
B(  5-C , 17-H ) :   0.9248 B(  5-C , 18-H ) :   0.9248 B(  6-C ,  7-O ) :   1.0211
B(  6-C , 19-H ) :   0.9332 B(  6-C , 20-H ) :   0.9332 B(  7-O , 21-H ) :   0.8500

MP2 TOTAL ENERGY:     -386.708216005 Eh
FINAL SINGLE POINT ENERGY      -386.708216005286

DIPOLE MOMENT
-------------
                                X             Y             Z
Electronic contribution:      0.00000      -0.00000       0.00003
Nuclear contribution   :     -0.00000       0.00000      -0.00008
                        -----------------------------------------
Total Dipole Moment    :     -0.00000       0.00000      -0.00004
                        -----------------------------------------
Magnitude (a.u.)       :      0.00004
Magnitude (Debye)      :      0.00011

                             ****ORCA TERMINATED NORMALLY****
TOTAL RUN TIME: 0 days 0 hours 10 minutes 41 seconds 622 msec
