                         Program Version 3.0.3 - RELEASE   -
|  1> ! RI-MP2 RIJK def2-TZVP def2-TZVP/C def2-TZVP/JK TIGHTSCF
|  2> % maxcore 2000
|  3> % mp2 density relaxed end
|  4> *xyz 0 1
|  5>  C        0.1347129617     1.3093910510    -0.1832559400
|  6>  O        0.0488758980    -0.0993600481    -0.1456210357
|  7>  C        0.7000115415    -0.6397057806     0.9788498111
|  8>  C        0.5910997581    -2.0897187605     0.9826591608
|  9>  C        0.5223334672    -3.2941828621     1.0211689809
| 10>  C        0.4452583141    -4.7265318036     1.0745803402
| 11>  O        0.9325306091    -5.4107776448     1.9510025284
| 12>  C       -0.3108432036    -5.4262946663    -0.0656621176
| 13>  O       -0.8317238964    -4.8551394092    -0.9825857731
| 14>  H        1.1796061063     1.6528081127    -0.2356280830
| 15>  H       -0.3927055277     1.6364588343    -1.0810854432
| 16>  H       -0.3374392015     1.7702299224     0.6983266383
| 17>  H        1.7697155830    -0.3629633947     0.9923582430
| 18>  H        0.2679123410    -0.2478239824     1.9173565654
| 19>  H       -0.3147474508    -6.5288755481     0.0652998346
| 20> *
| 21>
| 22>                          ****END OF INPUT****

CARTESIAN COORDINATES (ANGSTROEM)
---------------------------------
  C      0.134713    1.309391   -0.183256
  O      0.048876   -0.099360   -0.145621
  C      0.700012   -0.639706    0.978850
  C      0.591100   -2.089719    0.982659
  C      0.522333   -3.294183    1.021169
  C      0.445258   -4.726532    1.074580
  O      0.932531   -5.410778    1.951003
  C     -0.310843   -5.426295   -0.065662
  O     -0.831724   -4.855139   -0.982586
  H      1.179606    1.652808   -0.235628
  H     -0.392706    1.636459   -1.081085
  H     -0.337439    1.770230    0.698327
  H      1.769716   -0.362963    0.992358
  H      0.267912   -0.247824    1.917357
  H     -0.314747   -6.528876    0.065300

 Total Charge           Charge          ....    0
 Multiplicity           Mult            ....    1
 Number of Electrons    NEL             ....   66
 Basis Dimension        Dim             ....  315

ORBITAL ENERGIES
----------------

  NO   OCC          E(Eh)            E(eV)
   0   2.0000     -20.596116      -560.4488
   1   2.0000     -20.592241      -560.3434
   2   2.0000     -20.582258      -560.0717
   3   2.0000     -11.379537      -309.6529
   4   2.0000     -11.359355      -309.1038
   5   2.0000     -11.328655      -308.2684
   6   2.0000     -11.289291      -307.1972
   7   2.0000     -11.277188      -306.8679
   8   2.0000     -11.255510      -306.2780
   9   2.0000      -1.438045       -39.1312
  10   2.0000      -1.420397       -38.6510
  11   2.0000      -1.404255       -38.2117
  12   2.0000      -1.094086       -29.7716
  13   2.0000      -1.016284       -27.6545
  14   2.0000      -0.956198       -26.0195
  15   2.0000      -0.911786       -24.8110
  16   2.0000      -0.849533       -23.1170
  17   2.0000      -0.725117       -19.7314
  18   2.0000      -0.705603       -19.2004
  19   2.0000      -0.701361       -19.0850
  20   2.0000      -0.695055       -18.9134
  21   2.0000      -0.678950       -18.4752
  22   2.0000      -0.662089       -18.0163
  23   2.0000      -0.603430       -16.4202
  24   2.0000      -0.586316       -15.9545
  25   2.0000      -0.583470       -15.8770
  26   2.0000      -0.534569       -14.5464
  27   2.0000      -0.525591       -14.3020
  28   2.0000      -0.513475       -13.9724
  29   2.0000      -0.457686       -12.4543
  30   2.0000      -0.440202       -11.9785
  31   2.0000      -0.424162       -11.5420
  32   2.0000      -0.409750       -11.1499
  33   0.0000       0.035458         0.9649
  34   0.0000       0.123484         3.3602
  35   0.0000       0.139632         3.7996
  36   0.0000       0.152432         4.1479
  37   0.0000       0.166987         4.5439

MULLIKEN ATOMIC CHARGES
-----------------------
   0 C :   -0.219339
   1 O :   -0.278088
   2 C :   -0.196829
   3 C :    0.037250
   4 C :    0.174129
   5 C :    0.095604
   6 O :   -0.250780
   7 C :    0.085654
   8 O :   -0.218372
   9 H :    0.116514
  10 H :    0.150292
  11 H :    0.116527
  12 H :    0.135411
  13 H :    0.135406
  14 H :    0.116622
Sum of atomic charges:   -0.0000000

LOEWDIN ATOMIC CHARGES
----------------------
   0 C :   -0.350730
   1 O :    0.147838
   2 C :   -0.313609
   3 C :   -0.001572
   4 C :   -0.016978
   5 C :   -0.326623
   6 O :    0.193711
   7 C :   -0.248478
   8 O :    0.179976
   9 H :    0.103649
  10 H :    0.118207
  11 H :    0.103650
  12 H :    0.144338
  13 H :    0.144347
  14 H :    0.122275

  Mayer bond orders larger than 0.1
B(  0-C ,  1-O ) :   0.9047 B(  0-C ,  9-H ) :   0.9361 B(  0-C , 10-H ) :   0.9373
B(  0-C , 11-H ) :   0.9360 B(  1-O ,  2-C ) :   1.0601 B(  2-C ,  3-C ) :   1.0045
B(  2-C , 12-H ) :   0.9275 B(  2-C , 13-H ) :   0.9275 B(  3-C ,  4-C ) :   2.6573
B(  4-C ,  5-C ) :   0.9041 B(  4-C ,  7-C ) :  -0.1221 B(  5-C ,  6-O ) :   1.9503
B(  5-C ,  7-C ) :   0.9270 B(  7-C ,  8-O ) :   1.9946 B(  7-C , 14-H ) :   0.9282

MP2 TOTAL ENERGY:     -456.968197920 Eh
FINAL SINGLE POINT ENERGY      -456.968197920284

DIPOLE MOMENT
-------------
                                X             Y             Z
Electronic contribution:     -0.45285     -12.36082       0.80871
Nuclear contribution   :      0.70870      13.48328      -0.53380
                        -----------------------------------------
Total Dipole Moment    :      0.25585       1.12246       0.27491
                        -----------------------------------------
Magnitude (a.u.)       :      1.18362
Magnitude (Debye)      :      3.00852

                             ****ORCA TERMINATED NORMALLY****
TOTAL RUN TIME: 0 days 0 hours 10 minutes 42 seconds 340 msec
