                         Program Version 3.0.3 - RELEASE   -
|  1> ! RI-MP2 RIJK def2-TZVP def2-TZVP/C def2-TZVP/JK TIGHTSCF
|  2> % maxcore 2000
|  3> % mp2 density relaxed end
|  4> *xyz 0 1
|  5>  C       -0.0282800595    -1.2256949433    -0.0532906735
|  6>  C        0.0058952317    -0.0265620006     0.0183533911
|  7>  C        0.0526120893     1.4212603961     0.0920549814
|  8>  O       -0.1355896939     1.9614812942     1.4368088783
|  9>  C        1.0762519601     2.7021436220     1.3386529226
| 10>  C        2.2517864338     1.8006398847     1.1958904815
| 11>  C        1.4194640284     2.1345562768    -0.0381641838
| 12>  C        1.9239517584     2.7240407813    -1.2242746421
| 13>  C        2.3363688351     3.2133114583    -2.2437879758
| 14>  H       -0.0605877812    -2.2856040419    -0.1172406367
| 15>  H       -0.6846620171     1.8719592269    -0.5809034284
| 16>  H        1.0856595280     3.7182053667     1.7137022495
| 17>  H        3.2224308087     2.2847257712     1.2028369411
| 18>  H        2.2161473959     0.7983895978     1.6121978854
| 19>  H        2.7026234723     3.6472281598    -3.1409184707
| 20> *
| 21>
| 22>                          ****END OF INPUT****

CARTESIAN COORDINATES (ANGSTROEM)
---------------------------------
  C     -0.028280   -1.225695   -0.053291
  C      0.005895   -0.026562    0.018353
  C      0.052612    1.421260    0.092055
  O     -0.135590    1.961481    1.436809
  C      1.076252    2.702144    1.338653
  C      2.251786    1.800640    1.195890
  C      1.419464    2.134556   -0.038164
  C      1.923952    2.724041   -1.224275
  C      2.336369    3.213311   -2.243788
  H     -0.060588   -2.285604   -0.117241
  H     -0.684662    1.871959   -0.580903
  H      1.085660    3.718205    1.713702
  H      3.222431    2.284726    1.202837
  H      2.216147    0.798390    1.612198
  H      2.702623    3.647228   -3.140918

 Total Charge           Charge          ....    0
 Multiplicity           Mult            ....    1
 Number of Electrons    NEL             ....   62
 Basis Dimension        Dim             ....  315

ORBITAL ENERGIES
----------------

  NO   OCC          E(Eh)            E(eV)
   0   2.0000     -20.575912      -559.8990
   1   2.0000     -11.330444      -308.3171
   2   2.0000     -11.311628      -307.8050
   3   2.0000     -11.279955      -306.9432
   4   2.0000     -11.253047      -306.2110
   5   2.0000     -11.246727      -306.0390
   6   2.0000     -11.242416      -305.9217
   7   2.0000     -11.237832      -305.7969
   8   2.0000     -11.234803      -305.7145
   9   2.0000      -1.415335       -38.5132
  10   2.0000      -1.150263       -31.3002
  11   2.0000      -1.063830       -28.9483
  12   2.0000      -1.035883       -28.1878
  13   2.0000      -0.969360       -26.3776
  14   2.0000      -0.865681       -23.5564
  15   2.0000      -0.821679       -22.3590
  16   2.0000      -0.764491       -20.8029
  17   2.0000      -0.730728       -19.8841
  18   2.0000      -0.706425       -19.2228
  19   2.0000      -0.681537       -18.5456
  20   2.0000      -0.671854       -18.2821
  21   2.0000      -0.595848       -16.2138
  22   2.0000      -0.570017       -15.5110
  23   2.0000      -0.550078       -14.9684
  24   2.0000      -0.529734       -14.4148
  25   2.0000      -0.478212       -13.0128
  26   2.0000      -0.435295       -11.8450
  27   2.0000      -0.413346       -11.2477
  28   2.0000      -0.405003       -11.0207
  29   2.0000      -0.380464       -10.3530
  30   2.0000      -0.358803        -9.7635
  31   0.0000       0.140576         3.8253
  32   0.0000       0.144905         3.9431
  33   0.0000       0.150035         4.0827
  34   0.0000       0.158743         4.3196
  35   0.0000       0.163639         4.4529

MULLIKEN ATOMIC CHARGES
-----------------------
   0 C :   -0.104414
   1 C :   -0.055142
   2 C :   -0.003549
   3 O :   -0.310873
   4 C :    0.077343
   5 C :   -0.238283
   6 C :   -0.205558
   7 C :   -0.025109
   8 C :   -0.096925
   9 H :    0.197912
  10 H :    0.131635
  11 H :    0.140362
  12 H :    0.144695
  13 H :    0.151391
  14 H :    0.196515
Sum of atomic charges:   -0.0000000

LOEWDIN ATOMIC CHARGES
----------------------
   0 C :   -0.067640
   1 C :   -0.077940
   2 C :   -0.199466
   3 O :    0.184710
   4 C :   -0.208618
   5 C :   -0.155653
   6 C :   -0.173375
   7 C :   -0.079053
   8 C :   -0.079552
   9 H :    0.129936
  10 H :    0.165866
  11 H :    0.136989
  12 H :    0.150833
  13 H :    0.144514
  14 H :    0.128449

  Mayer bond orders larger than 0.1
B(  0-C ,  1-C ) :   2.5591 B(  0-C ,  9-H ) :   0.8926 B(  1-C ,  2-C ) :   1.1705
B(  2-C ,  3-O ) :   0.9526 B(  2-C ,  6-C ) :   0.9455 B(  2-C , 10-H ) :   0.9018
B(  3-O ,  4-C ) :   0.9761 B(  4-C ,  5-C ) :   0.9043 B(  4-C ,  6-C ) :   0.8603
B(  4-C , 11-H ) :   0.9127 B(  5-C ,  6-C ) :   0.8461 B(  5-C , 12-H ) :   0.9179
B(  5-C , 13-H ) :   0.8922 B(  6-C ,  7-C ) :   1.2192 B(  6-C ,  8-C ) :  -0.1636
B(  7-C ,  8-C ) :   2.6079 B(  8-C , 14-H ) :   0.8702

MP2 TOTAL ENERGY:     -382.673723641 Eh
FINAL SINGLE POINT ENERGY      -382.673723640760

DIPOLE MOMENT
-------------
                                X             Y             Z
Electronic contribution:     -1.99364      -0.08210      -0.31994
Nuclear contribution   :      2.46422       0.14843       0.06165
                        -----------------------------------------
Total Dipole Moment    :      0.47057       0.06633      -0.25829
                        -----------------------------------------
Magnitude (a.u.)       :      0.54088
Magnitude (Debye)      :      1.37481

                             ****ORCA TERMINATED NORMALLY****
TOTAL RUN TIME: 0 days 0 hours 14 minutes 35 seconds 403 msec
