                         Program Version 3.0.3 - RELEASE   -
|  1> ! RI-MP2 RIJK def2-TZVP def2-TZVP/C def2-TZVP/JK TIGHTSCF
|  2> % maxcore 2000
|  3> % mp2 density relaxed end
|  4> *xyz 0 1
|  5>  C        0.0125285705     1.4854547355    -0.3215544099
|  6>  C       -0.0544141795     0.0893509501     0.3076000434
|  7>  C       -1.4316800452    -0.5329600926     0.2018327778
|  8>  C       -1.8632808862    -1.2361910627    -1.0679857499
|  9>  C       -1.6318809831    -2.0288045360     0.1925071136
| 10>  N       -0.4741648321    -2.8800333823     0.2386266427
| 11>  C       -0.2948024247    -3.6716170580     1.4517209353
| 12>  C       -0.7212445016    -4.3170450321     0.1786803557
| 13>  H        1.0146606458     1.9157385989    -0.2266587464
| 14>  H       -0.2396686732     1.4492268038    -1.3866591626
| 15>  H       -0.6916301253     2.1734734729     0.1601037558
| 16>  H        0.6728718262    -0.5759088087    -0.1672572312
| 17>  H        0.2348536270     0.1515610651     1.3652726001
| 18>  H       -2.2133957304     0.0255765524     0.7129678844
| 19>  H       -2.8781680241    -1.1127014379    -1.4295803489
| 20>  H       -1.1139901925    -1.3496141187    -1.8446169649
| 21>  H       -2.5199576479    -2.4073742693     0.7083582774
| 22>  H        0.7268350587    -3.7696968393     1.8077607057
| 23>  H       -1.0438707737    -3.5761910012     2.2362277301
| 24>  H       -1.7550987478    -4.6522669329     0.1130461796
| 25>  H       -0.0166360311    -4.8950480669    -0.4126735878
| 26> *
| 27>
| 28>                          ****END OF INPUT****

CARTESIAN COORDINATES (ANGSTROEM)
---------------------------------
  C      0.012529    1.485455   -0.321554
  C     -0.054414    0.089351    0.307600
  C     -1.431680   -0.532960    0.201833
  C     -1.863281   -1.236191   -1.067986
  C     -1.631881   -2.028805    0.192507
  N     -0.474165   -2.880033    0.238627
  C     -0.294802   -3.671617    1.451721
  C     -0.721245   -4.317045    0.178680
  H      1.014661    1.915739   -0.226659
  H     -0.239669    1.449227   -1.386659
  H     -0.691630    2.173473    0.160104
  H      0.672872   -0.575909   -0.167257
  H      0.234854    0.151561    1.365273
  H     -2.213396    0.025577    0.712968
  H     -2.878168   -1.112701   -1.429580
  H     -1.113990   -1.349614   -1.844617
  H     -2.519958   -2.407374    0.708358
  H      0.726835   -3.769697    1.807761
  H     -1.043871   -3.576191    2.236228
  H     -1.755099   -4.652267    0.113046
  H     -0.016636   -4.895048   -0.412674

 Total Charge           Charge          ....    0
 Multiplicity           Mult            ....    1
 Number of Electrons    NEL             ....   62
 Basis Dimension        Dim             ....  326

ORBITAL ENERGIES
----------------

  NO   OCC          E(Eh)            E(eV)
   0   2.0000     -15.558260      -423.3618
   1   2.0000     -11.252679      -306.2010
   2   2.0000     -11.252284      -306.1902
   3   2.0000     -11.251566      -306.1707
   4   2.0000     -11.222136      -305.3698
   5   2.0000     -11.214532      -305.1629
   6   2.0000     -11.211302      -305.0750
   7   2.0000     -11.205072      -304.9055
   8   2.0000      -1.275569       -34.7100
   9   2.0000      -1.136959       -30.9382
  10   2.0000      -1.015154       -27.6237
  11   2.0000      -0.914990       -24.8982
  12   2.0000      -0.862428       -23.4679
  13   2.0000      -0.839396       -22.8411
  14   2.0000      -0.790964       -21.5232
  15   2.0000      -0.751039       -20.4368
  16   2.0000      -0.683258       -18.5924
  17   2.0000      -0.663174       -18.0459
  18   2.0000      -0.627490       -17.0749
  19   2.0000      -0.588559       -16.0155
  20   2.0000      -0.569678       -15.5017
  21   2.0000      -0.541220       -14.7273
  22   2.0000      -0.529924       -14.4200
  23   2.0000      -0.524842       -14.2817
  24   2.0000      -0.501330       -13.6419
  25   2.0000      -0.482964       -13.1421
  26   2.0000      -0.476280       -12.9602
  27   2.0000      -0.459962       -12.5162
  28   2.0000      -0.413448       -11.2505
  29   2.0000      -0.381099       -10.3702
  30   2.0000      -0.367347        -9.9960
  31   0.0000       0.146706         3.9921
  32   0.0000       0.153454         4.1757
  33   0.0000       0.165599         4.5062
  34   0.0000       0.171416         4.6645
  35   0.0000       0.188569         5.1312

MULLIKEN ATOMIC CHARGES
-----------------------
   0 C :   -0.387186
   1 C :   -0.218830
   2 C :   -0.053239
   3 C :   -0.277641
   4 C :   -0.058572
   5 N :   -0.218046
   6 C :   -0.170521
   7 C :   -0.178167
   8 H :    0.130563
   9 H :    0.125426
  10 H :    0.116066
  11 H :    0.130937
  12 H :    0.104816
  13 H :    0.111567
  14 H :    0.128679
  15 H :    0.130170
  16 H :    0.090105
  17 H :    0.130493
  18 H :    0.117543
  19 H :    0.116683
  20 H :    0.129152
Sum of atomic charges:   -0.0000000

LOEWDIN ATOMIC CHARGES
----------------------
   0 C :   -0.316736
   1 C :   -0.275799
   2 C :   -0.210111
   3 C :   -0.207513
   4 C :   -0.262036
   5 N :    0.116906
   6 C :   -0.263659
   7 C :   -0.263525
   8 H :    0.119120
   9 H :    0.120836
  10 H :    0.118740
  11 H :    0.143544
  12 H :    0.137354
  13 H :    0.147120
  14 H :    0.129171
  15 H :    0.140015
  16 H :    0.134700
  17 H :    0.123644
  18 H :    0.122127
  19 H :    0.122667
  20 H :    0.123435

  Mayer bond orders larger than 0.1
B(  0-C ,  1-C ) :   0.9187 B(  0-C ,  8-H ) :   0.9430 B(  0-C ,  9-H ) :   0.9404
B(  0-C , 10-H ) :   0.9367 B(  1-C ,  2-C ) :   0.9236 B(  1-C , 11-H ) :   0.9299
B(  1-C , 12-H ) :   0.9338 B(  2-C ,  3-C ) :   0.9012 B(  2-C ,  4-C ) :   0.8674
B(  2-C , 13-H ) :   0.9233 B(  3-C ,  4-C ) :   0.8905 B(  3-C , 14-H ) :   0.9251
B(  3-C , 15-H ) :   0.9243 B(  4-C ,  5-N ) :   0.9652 B(  4-C , 16-H ) :   0.9130
B(  5-N ,  6-C ) :   0.8732 B(  5-N ,  7-C ) :   0.8941 B(  6-C ,  7-C ) :   0.9491
B(  6-C , 17-H ) :   0.9273 B(  6-C , 18-H ) :   0.9219 B(  7-C , 19-H ) :   0.9225
B(  7-C , 20-H ) :   0.9253

MP2 TOTAL ENERGY:     -328.485709639 Eh
FINAL SINGLE POINT ENERGY      -328.485709639432

DIPOLE MOMENT
-------------
                                X             Y             Z
Electronic contribution:     -0.77433      -4.34579       0.49155
Nuclear contribution   :      0.48545       4.11454      -0.25406
                        -----------------------------------------
Total Dipole Moment    :     -0.28888      -0.23125       0.23750
                        -----------------------------------------
Magnitude (a.u.)       :      0.43970
Magnitude (Debye)      :      1.11763

                             ****ORCA TERMINATED NORMALLY****
TOTAL RUN TIME: 0 days 0 hours 13 minutes 3 seconds 281 msec
