                         Program Version 3.0.3 - RELEASE   -
|  1> ! RI-MP2 RIJK def2-TZVP def2-TZVP/C def2-TZVP/JK TIGHTSCF
|  2> % maxcore 2000
|  3> % mp2 density relaxed end
|  4> *xyz 0 1
|  5>  C       -0.0506105398     1.4855515959     0.1528638582
|  6>  C        0.0307854566    -0.0164833159    -0.0067287917
|  7>  O        1.0839071572    -0.6146770666    -0.1063643784
|  8>  C       -1.2514304247    -0.7532177066    -0.0382778428
|  9>  C       -1.4216613401    -2.0955387579    -0.1723191457
| 10>  O       -2.7524286807    -2.3565345588    -0.1525176983
| 11>  C       -3.3501448401    -1.1340600298    -0.0038478876
| 12>  C       -4.8334210181    -1.0993998497     0.0522227034
| 13>  N       -2.5081775585    -0.1560908723     0.0684330524
| 14>  H        0.9561131496     1.9039192319     0.1609318085
| 15>  H       -0.6379570835     1.9216436527    -0.6617705772
| 16>  H       -0.5764330946     1.7400303527     1.0788944938
| 17>  H       -0.7511795933    -2.9293449355    -0.2830148370
| 18>  H       -5.2086530451    -1.6927663359     0.8921850465
| 19>  H       -5.1583945722    -0.0658419349     0.1714130399
| 20>  H       -5.2707842527    -1.5098246292    -0.8635791540
| 21> *
| 22>
| 23>                          ****END OF INPUT****

CARTESIAN COORDINATES (ANGSTROEM)
---------------------------------
  C     -0.050611    1.485552    0.152864
  C      0.030785   -0.016483   -0.006729
  O      1.083907   -0.614677   -0.106364
  C     -1.251430   -0.753218   -0.038278
  C     -1.421661   -2.095539   -0.172319
  O     -2.752429   -2.356535   -0.152518
  C     -3.350145   -1.134060   -0.003848
  C     -4.833421   -1.099400    0.052223
  N     -2.508178   -0.156091    0.068433
  H      0.956113    1.903919    0.160932
  H     -0.637957    1.921644   -0.661771
  H     -0.576433    1.740030    1.078894
  H     -0.751180   -2.929345   -0.283015
  H     -5.208653   -1.692766    0.892185
  H     -5.158395   -0.065842    0.171413
  H     -5.270784   -1.509825   -0.863579

 Total Charge           Charge          ....    0
 Multiplicity           Mult            ....    1
 Number of Electrons    NEL             ....   66
 Basis Dimension        Dim             ....  321

ORBITAL ENERGIES
----------------

  NO   OCC          E(Eh)            E(eV)
   0   2.0000     -20.651388      -561.9528
   1   2.0000     -20.541379      -558.9593
   2   2.0000     -15.575075      -423.8193
   3   2.0000     -11.351593      -308.8925
   4   2.0000     -11.336648      -308.4859
   5   2.0000     -11.314356      -307.8793
   6   2.0000     -11.269301      -306.6533
   7   2.0000     -11.255154      -306.2683
   8   2.0000     -11.228706      -305.5486
   9   2.0000      -1.500777       -40.8382
  10   2.0000      -1.384888       -37.6847
  11   2.0000      -1.247507       -33.9464
  12   2.0000      -1.086255       -29.5585
  13   2.0000      -1.014170       -27.5970
  14   2.0000      -0.978826       -26.6352
  15   2.0000      -0.878803       -23.9134
  16   2.0000      -0.811494       -22.0819
  17   2.0000      -0.767142       -20.8750
  18   2.0000      -0.710289       -19.3279
  19   2.0000      -0.683246       -18.5921
  20   2.0000      -0.653950       -17.7949
  21   2.0000      -0.623400       -16.9636
  22   2.0000      -0.608543       -16.5593
  23   2.0000      -0.598208       -16.2781
  24   2.0000      -0.585125       -15.9221
  25   2.0000      -0.584046       -15.8927
  26   2.0000      -0.569919       -15.5083
  27   2.0000      -0.548145       -14.9158
  28   2.0000      -0.507087       -13.7985
  29   2.0000      -0.474532       -12.9127
  30   2.0000      -0.461325       -12.5533
  31   2.0000      -0.422828       -11.5057
  32   2.0000      -0.346621        -9.4320
  33   0.0000       0.094281         2.5655
  34   0.0000       0.132953         3.6178
  35   0.0000       0.149514         4.0685
  36   0.0000       0.154270         4.1979
  37   0.0000       0.181333         4.9343

MULLIKEN ATOMIC CHARGES
-----------------------
   0 C :   -0.374880
   1 C :    0.159470
   2 O :   -0.302294
   3 C :    0.071297
   4 C :   -0.005536
   5 O :   -0.196456
   6 C :    0.264891
   7 C :   -0.423405
   8 N :   -0.292421
   9 H :    0.149474
  10 H :    0.146876
  11 H :    0.146876
  12 H :    0.177529
  13 H :    0.155884
  14 H :    0.166808
  15 H :    0.155887
Sum of atomic charges:   -0.0000000

LOEWDIN ATOMIC CHARGES
----------------------
   0 C :   -0.270387
   1 C :   -0.327871
   2 O :    0.143852
   3 C :   -0.235880
   4 C :   -0.181209
   5 O :    0.354719
   6 C :   -0.350081
   7 C :   -0.265501
   8 N :    0.148024
   9 H :    0.132160
  10 H :    0.141187
  11 H :    0.141187
  12 H :    0.144860
  13 H :    0.139922
  14 H :    0.145096
  15 H :    0.139921

  Mayer bond orders larger than 0.1
B(  0-C ,  1-C ) :   0.9672 B(  0-C ,  9-H ) :   0.9364 B(  0-C , 10-H ) :   0.9072
B(  0-C , 11-H ) :   0.9072 B(  1-C ,  2-O ) :   2.0023 B(  1-C ,  3-C ) :   0.8883
B(  2-O ,  3-C ) :  -0.1049 B(  3-C ,  4-C ) :   1.5405 B(  3-C ,  8-N ) :   1.1431
B(  4-C ,  5-O ) :   1.0690 B(  4-C , 12-H ) :   0.9022 B(  5-O ,  6-C ) :   1.0485
B(  6-C ,  7-C ) :   0.8627 B(  6-C ,  8-N ) :   1.6784 B(  7-C , 13-H ) :   0.9289
B(  7-C , 14-H ) :   0.9490 B(  7-C , 15-H ) :   0.9289

MP2 TOTAL ENERGY:     -437.219199019 Eh
FINAL SINGLE POINT ENERGY      -437.219199018580

DIPOLE MOMENT
-------------
                                X             Y             Z
Electronic contribution:      3.40623      -4.44123      -0.58385
Nuclear contribution   :     -4.61580       4.30921       0.61283
                        -----------------------------------------
Total Dipole Moment    :     -1.20957      -0.13202       0.02899
                        -----------------------------------------
Magnitude (a.u.)       :      1.21710
Magnitude (Debye)      :      3.09362

                             ****ORCA TERMINATED NORMALLY****
TOTAL RUN TIME: 0 days 0 hours 14 minutes 23 seconds 975 msec
