                         Program Version 3.0.3 - RELEASE   -
|  1> ! RI-MP2 RIJK def2-TZVP def2-TZVP/C def2-TZVP/JK TIGHTSCF
|  2> % maxcore 2000
|  3> % mp2 density relaxed end
|  4> *xyz 0 1
|  5>  O       -0.0433101254     1.4190096900     0.0634703788
|  6>  C        0.0405796340     0.0349307655     0.0268868630
|  7>  C        0.6662311787    -0.9666006597     1.0110182968
|  8>  N        0.0201005884    -1.8789474155    -0.0313471730
|  9>  C       -1.1818221559    -0.9020729436    -0.0301806606
| 10>  C       -1.7826400335    -0.9350991230    -1.4275778797
| 11>  C       -0.4684895552    -0.9352479353    -2.2577284264
| 12>  C        0.5339698516    -0.9066767050    -1.1138812988
| 13>  H        0.8481625685     1.7839630005     0.0355492370
| 14>  H        1.7563691648    -1.0539170251     1.0486946488
| 15>  H        0.2258194983    -1.0594728234     2.0075370894
| 16>  H       -1.8389929020    -0.9922841118     0.8364354490
| 17>  H       -2.3837558282    -1.8341673298    -1.5865104991
| 18>  H       -2.4128439007    -0.0624137618    -1.6186015285
| 19>  H       -0.3566182980    -1.8303509144    -2.8752824433
| 20>  H       -0.3695560070    -0.0590492683    -2.9047626602
| 21>  H        1.6001109918    -0.9965244092    -1.3337954631
| 22> *
| 23>
| 24>                          ****END OF INPUT****

CARTESIAN COORDINATES (ANGSTROEM)
---------------------------------
  O     -0.043310    1.419010    0.063470
  C      0.040580    0.034931    0.026887
  C      0.666231   -0.966601    1.011018
  N      0.020101   -1.878947   -0.031347
  C     -1.181822   -0.902073   -0.030181
  C     -1.782640   -0.935099   -1.427578
  C     -0.468490   -0.935248   -2.257728
  C      0.533970   -0.906677   -1.113881
  H      0.848163    1.783963    0.035549
  H      1.756369   -1.053917    1.048695
  H      0.225819   -1.059473    2.007537
  H     -1.838993   -0.992284    0.836435
  H     -2.383756   -1.834167   -1.586510
  H     -2.412844   -0.062414   -1.618602
  H     -0.356618   -1.830351   -2.875282
  H     -0.369556   -0.059049   -2.904763
  H      1.600111   -0.996524   -1.333795

 Total Charge           Charge          ....    0
 Multiplicity           Mult            ....    1
 Number of Electrons    NEL             ....   60
 Basis Dimension        Dim             ....  302

ORBITAL ENERGIES
----------------

  NO   OCC          E(Eh)            E(eV)
   0   2.0000     -20.571328      -559.7743
   1   2.0000     -15.566245      -423.5791
   2   2.0000     -11.298954      -307.4602
   3   2.0000     -11.261684      -306.4460
   4   2.0000     -11.260196      -306.4055
   5   2.0000     -11.256001      -306.2913
   6   2.0000     -11.222960      -305.3923
   7   2.0000     -11.221540      -305.3536
   8   2.0000      -1.384862       -37.6840
   9   2.0000      -1.298751       -35.3408
  10   2.0000      -1.061078       -28.8734
  11   2.0000      -0.957887       -26.0654
  12   2.0000      -0.909270       -24.7425
  13   2.0000      -0.883358       -24.0374
  14   2.0000      -0.796640       -21.6777
  15   2.0000      -0.737352       -20.0644
  16   2.0000      -0.708958       -19.2917
  17   2.0000      -0.665449       -18.1078
  18   2.0000      -0.632603       -17.2140
  19   2.0000      -0.611274       -16.6336
  20   2.0000      -0.590482       -16.0678
  21   2.0000      -0.567742       -15.4490
  22   2.0000      -0.525808       -14.3080
  23   2.0000      -0.491827       -13.3833
  24   2.0000      -0.490553       -13.3486
  25   2.0000      -0.469791       -12.7837
  26   2.0000      -0.454658       -12.3719
  27   2.0000      -0.441629       -12.0173
  28   2.0000      -0.417699       -11.3662
  29   2.0000      -0.386848       -10.5267
  30   0.0000       0.130599         3.5538
  31   0.0000       0.156923         4.2701
  32   0.0000       0.163970         4.4618
  33   0.0000       0.170791         4.6475
  34   0.0000       0.194035         5.2799

MULLIKEN ATOMIC CHARGES
-----------------------
   0 O :   -0.448019
   1 C :    0.128746
   2 C :   -0.149914
   3 N :   -0.217320
   4 C :   -0.034893
   5 C :   -0.240311
   6 C :   -0.230784
   7 C :   -0.071196
   8 H :    0.322563
   9 H :    0.113457
  10 H :    0.116464
  11 H :    0.117179
  12 H :    0.120416
  13 H :    0.120286
  14 H :    0.122487
  15 H :    0.112987
  16 H :    0.117851
Sum of atomic charges:   -0.0000000

LOEWDIN ATOMIC CHARGES
----------------------
   0 O :    0.015911
   1 C :   -0.344402
   2 C :   -0.220724
   3 N :    0.136124
   4 C :   -0.186019
   5 C :   -0.226850
   6 C :   -0.230213
   7 C :   -0.200036
   8 H :    0.180727
   9 H :    0.121632
  10 H :    0.124393
  11 H :    0.138617
  12 H :    0.138769
  13 H :    0.140318
  14 H :    0.138490
  15 H :    0.138575
  16 H :    0.134688

  Mayer bond orders larger than 0.1
B(  0-O ,  1-C ) :   1.0799 B(  0-O ,  8-H ) :   0.8343 B(  1-C ,  2-C ) :   0.9358
B(  1-C ,  4-C ) :   0.9216 B(  1-C ,  7-C ) :   0.9191 B(  2-C ,  3-N ) :   0.9130
B(  2-C ,  9-H ) :   0.9202 B(  2-C , 10-H ) :   0.9268 B(  3-N ,  4-C ) :   0.9400
B(  3-N ,  7-C ) :   0.9447 B(  4-C ,  5-C ) :   0.9558 B(  4-C , 11-H ) :   0.9129
B(  5-C ,  6-C ) :   1.0227 B(  5-C , 12-H ) :   0.9156 B(  5-C , 13-H ) :   0.9146
B(  6-C ,  7-C ) :   0.9467 B(  6-C , 14-H ) :   0.9176 B(  6-C , 15-H ) :   0.9121
B(  7-C , 16-H ) :   0.9058

MP2 TOTAL ENERGY:     -363.199936100 Eh
FINAL SINGLE POINT ENERGY      -363.199936099720

DIPOLE MOMENT
-------------
                                X             Y             Z
Electronic contribution:      0.95140       1.20815       1.95201
Nuclear contribution   :     -0.48917      -0.75497      -2.08028
                        -----------------------------------------
Total Dipole Moment    :      0.46223       0.45319      -0.12827
                        -----------------------------------------
Magnitude (a.u.)       :      0.65992
Magnitude (Debye)      :      1.67738

                             ****ORCA TERMINATED NORMALLY****
TOTAL RUN TIME: 0 days 0 hours 13 minutes 51 seconds 77 msec
