                         Program Version 3.0.3 - RELEASE   -
|  1> ! RI-MP2 RIJK def2-TZVP def2-TZVP/C def2-TZVP/JK TIGHTSCF
|  2> % maxcore 2000
|  3> % mp2 density relaxed end
|  4> *xyz 0 1
|  5>  C        0.1328876746     1.6679635038    -0.1475555890
|  6>  C       -0.0207799420     0.1657307811     0.0409185805
|  7>  C        0.8375612433    -0.7640794563    -0.8399711451
|  8>  O        1.3854303720    -1.4432252239     0.3106700358
|  9>  C        0.6852933053    -0.5606572816     1.2343746501
| 10>  C        1.6786479167     0.2443328058     2.0638410615
| 11>  C       -0.2363328229    -1.3618542294     2.1346279176
| 12>  C       -0.8830287391    -2.6053852239     1.6586974120
| 13>  N        0.2155998344    -2.6650569291     2.6448817230
| 14>  H        1.1825646123     1.9763469353    -0.1542272073
| 15>  H       -0.3074491266     1.9785698848    -1.1013566256
| 16>  H       -0.3771812164     2.2257405027     0.6449636252
| 17>  H       -1.0799489636    -0.1026072487     0.0062656375
| 18>  H        0.2983885975    -1.4501264363    -1.5034012537
| 19>  H        1.6219020280    -0.2562184540    -1.4169402498
| 20>  H        2.3941893582     0.7716791024     1.4287500186
| 21>  H        1.1603978999     0.9780024761     2.6903970122
| 22>  H        2.2372785937    -0.4272892157     2.7228311200
| 23>  H       -0.7586371986    -0.7575321984     2.8757535826
| 24>  H       -1.8595234130    -2.8895662699     2.0405321333
| 25>  H       -0.6668967314    -2.9333622901     0.6463973919
| 26>  H        1.0642811579    -2.9169756547     2.1388076385
| 27> *
| 28>
| 29>                          ****END OF INPUT****

CARTESIAN COORDINATES (ANGSTROEM)
---------------------------------
  C      0.132888    1.667964   -0.147556
  C     -0.020780    0.165731    0.040919
  C      0.837561   -0.764079   -0.839971
  O      1.385430   -1.443225    0.310670
  C      0.685293   -0.560657    1.234375
  C      1.678648    0.244333    2.063841
  C     -0.236333   -1.361854    2.134628
  C     -0.883029   -2.605385    1.658697
  N      0.215600   -2.665057    2.644882
  H      1.182565    1.976347   -0.154227
  H     -0.307449    1.978570   -1.101357
  H     -0.377181    2.225741    0.644964
  H     -1.079949   -0.102607    0.006266
  H      0.298389   -1.450126   -1.503401
  H      1.621902   -0.256218   -1.416940
  H      2.394189    0.771679    1.428750
  H      1.160398    0.978002    2.690397
  H      2.237279   -0.427289    2.722831
  H     -0.758637   -0.757532    2.875754
  H     -1.859523   -2.889566    2.040532
  H     -0.666897   -2.933362    0.646397
  H      1.064281   -2.916976    2.138808

 Total Charge           Charge          ....    0
 Multiplicity           Mult            ....    1
 Number of Electrons    NEL             ....   70
 Basis Dimension        Dim             ....  357

ORBITAL ENERGIES
----------------

  NO   OCC          E(Eh)            E(eV)
   0   2.0000     -20.550646      -559.2115
   1   2.0000     -15.547991      -423.0824
   2   2.0000     -11.293870      -307.3218
   3   2.0000     -11.280800      -306.9662
   4   2.0000     -11.253712      -306.2291
   5   2.0000     -11.246256      -306.0262
   6   2.0000     -11.239624      -305.8457
   7   2.0000     -11.227363      -305.5121
   8   2.0000     -11.218873      -305.2810
   9   2.0000      -1.383329       -37.6423
  10   2.0000      -1.250817       -34.0364
  11   2.0000      -1.066399       -29.0182
  12   2.0000      -1.017014       -27.6743
  13   2.0000      -0.923346       -25.1255
  14   2.0000      -0.906010       -24.6538
  15   2.0000      -0.866287       -23.5729
  16   2.0000      -0.821807       -22.3625
  17   2.0000      -0.726428       -19.7671
  18   2.0000      -0.709681       -19.3114
  19   2.0000      -0.652308       -17.7502
  20   2.0000      -0.646386       -17.5891
  21   2.0000      -0.617416       -16.8008
  22   2.0000      -0.605974       -16.4894
  23   2.0000      -0.576558       -15.6889
  24   2.0000      -0.565588       -15.3904
  25   2.0000      -0.548573       -14.9274
  26   2.0000      -0.540068       -14.6960
  27   2.0000      -0.527325       -14.3492
  28   2.0000      -0.507334       -13.8053
  29   2.0000      -0.482039       -13.1170
  30   2.0000      -0.472422       -12.8553
  31   2.0000      -0.452336       -12.3087
  32   2.0000      -0.438721       -11.9382
  33   2.0000      -0.414873       -11.2893
  34   2.0000      -0.378931       -10.3112
  35   0.0000       0.129248         3.5170
  36   0.0000       0.153289         4.1712
  37   0.0000       0.163541         4.4502
  38   0.0000       0.166414         4.5284
  39   0.0000       0.185487         5.0474

MULLIKEN ATOMIC CHARGES
-----------------------
   0 C :   -0.417382
   1 C :   -0.113739
   2 C :   -0.054108
   3 O :   -0.368260
   4 C :    0.254791
   5 C :   -0.411426
   6 C :   -0.082698
   7 C :   -0.177893
   8 N :   -0.368228
   9 H :    0.127444
  10 H :    0.141311
  11 H :    0.134234
  12 H :    0.118376
  13 H :    0.103410
  14 H :    0.098451
  15 H :    0.133447
  16 H :    0.132131
  17 H :    0.150560
  18 H :    0.117166
  19 H :    0.118779
  20 H :    0.130044
  21 H :    0.233589
Sum of atomic charges:   -0.0000000

LOEWDIN ATOMIC CHARGES
----------------------
   0 C :   -0.296318
   1 C :   -0.220039
   2 C :   -0.250693
   3 O :    0.149202
   4 C :   -0.312255
   5 C :   -0.262718
   6 C :   -0.254446
   7 C :   -0.264434
   8 N :   -0.013150
   9 H :    0.124211
  10 H :    0.127677
  11 H :    0.126649
  12 H :    0.152397
  13 H :    0.115879
  14 H :    0.119823
  15 H :    0.126788
  16 H :    0.130880
  17 H :    0.135155
  18 H :    0.146791
  19 H :    0.122278
  20 H :    0.125534
  21 H :    0.170790

  Mayer bond orders larger than 0.1
B(  0-C ,  1-C ) :   0.9175 B(  0-C ,  9-H ) :   0.9341 B(  0-C , 10-H ) :   0.9354
B(  0-C , 11-H ) :   0.9378 B(  1-C ,  2-C ) :   0.9783 B(  1-C ,  4-C ) :   0.8698
B(  1-C , 12-H ) :   0.9296 B(  2-C ,  3-O ) :   0.9443 B(  2-C , 13-H ) :   0.9202
B(  2-C , 14-H ) :   0.9065 B(  3-O ,  4-C ) :   0.8433 B(  4-C ,  5-C ) :   0.9040
B(  4-C ,  6-C ) :   0.9436 B(  5-C , 15-H ) :   0.9402 B(  5-C , 16-H ) :   0.9314
B(  5-C , 17-H ) :   0.9283 B(  6-C ,  7-C ) :   0.9434 B(  6-C ,  8-N ) :   0.9283
B(  6-C , 18-H ) :   0.9106 B(  7-C ,  8-N ) :   0.9227 B(  7-C , 19-H ) :   0.9189
B(  7-C , 20-H ) :   0.9162 B(  8-N , 21-H ) :   0.8681

MP2 TOTAL ENERGY:     -403.620613688 Eh
FINAL SINGLE POINT ENERGY      -403.620613687784

DIPOLE MOMENT
-------------
                                X             Y             Z
Electronic contribution:      0.45906      -5.39867       1.09479
Nuclear contribution   :     -0.79838       6.27533      -1.83529
                        -----------------------------------------
Total Dipole Moment    :     -0.33932       0.87667      -0.74050
                        -----------------------------------------
Magnitude (a.u.)       :      1.19667
Magnitude (Debye)      :      3.04169

                             ****ORCA TERMINATED NORMALLY****
TOTAL RUN TIME: 0 days 0 hours 20 minutes 21 seconds 227 msec
