                         Program Version 3.0.3 - RELEASE   -
|  1> ! RI-MP2 RIJK def2-TZVP def2-TZVP/C def2-TZVP/JK TIGHTSCF
|  2> % maxcore 2000
|  3> % mp2 density relaxed end
|  4> *xyz 0 1
|  5>  C        0.0301257767     1.4950470292     0.0893002378
|  6>  C       -0.0133421885    -0.0174594029    -0.0338052464
|  7>  C        0.5537319403    -0.5738915546    -1.3554888417
|  8>  O        0.0242074561    -1.8982784177    -1.4742068892
|  9>  C       -1.2080215680    -1.9247193566    -0.7931571765
| 10>  C       -1.1642649400    -1.9814262720     0.7193590913
| 11>  C        0.2120365012    -1.8858940814     1.3609965363
| 12>  O        0.7123043151    -0.5820723159     1.0661219477
| 13>  C       -1.4092061004    -0.6735680598     0.0017135804
| 14>  H        1.0639312200     1.8511354507     0.0540677972
| 15>  H       -0.5265171262     1.9699029554    -0.7237185079
| 16>  H       -0.4018468560     1.8075862416     1.0433539943
| 17>  H        0.2330424700     0.0401139863    -2.2110213755
| 18>  H        1.6445108265    -0.6361601028    -1.3395734242
| 19>  H       -2.0024829627    -2.4241164211    -1.3372975343
| 20>  H       -1.9627856919    -2.4916739090     1.2459516530
| 21>  H        0.1557934561    -1.9935125085     2.4498393788
| 22>  H        0.8927346346    -2.6524292254     0.9676523079
| 23>  H       -2.3201202829    -0.0914097555     0.0521582608
| 24> *
| 25>
| 26>                          ****END OF INPUT****

CARTESIAN COORDINATES (ANGSTROEM)
---------------------------------
  C      0.030126    1.495047    0.089300
  C     -0.013342   -0.017459   -0.033805
  C      0.553732   -0.573892   -1.355489
  O      0.024207   -1.898278   -1.474207
  C     -1.208022   -1.924719   -0.793157
  C     -1.164265   -1.981426    0.719359
  C      0.212037   -1.885894    1.360997
  O      0.712304   -0.582072    1.066122
  C     -1.409206   -0.673568    0.001714
  H      1.063931    1.851135    0.054068
  H     -0.526517    1.969903   -0.723719
  H     -0.401847    1.807586    1.043354
  H      0.233042    0.040114   -2.211021
  H      1.644511   -0.636160   -1.339573
  H     -2.002483   -2.424116   -1.337298
  H     -1.962786   -2.491674    1.245952
  H      0.155793   -1.993513    2.449839
  H      0.892735   -2.652429    0.967652
  H     -2.320120   -0.091410    0.052158

 Total Charge           Charge          ....    0
 Multiplicity           Mult            ....    1
 Number of Electrons    NEL             ....   68
 Basis Dimension        Dim             ....  339

ORBITAL ENERGIES
----------------

  NO   OCC          E(Eh)            E(eV)
   0   2.0000     -20.558059      -559.4132
   1   2.0000     -20.547851      -559.1355
   2   2.0000     -11.291514      -307.2577
   3   2.0000     -11.285688      -307.0992
   4   2.0000     -11.273305      -306.7622
   5   2.0000     -11.272050      -306.7281
   6   2.0000     -11.237144      -305.7782
   7   2.0000     -11.234657      -305.7106
   8   2.0000     -11.221545      -305.3538
   9   2.0000      -1.400812       -38.1180
  10   2.0000      -1.359942       -37.0059
  11   2.0000      -1.141497       -31.0617
  12   2.0000      -1.058396       -28.8004
  13   2.0000      -0.939483       -25.5646
  14   2.0000      -0.931410       -25.3449
  15   2.0000      -0.820224       -22.3194
  16   2.0000      -0.791095       -21.5268
  17   2.0000      -0.777237       -21.1497
  18   2.0000      -0.712353       -19.3841
  19   2.0000      -0.663805       -18.0631
  20   2.0000      -0.632681       -17.2161
  21   2.0000      -0.617906       -16.8141
  22   2.0000      -0.600007       -16.3270
  23   2.0000      -0.590728       -16.0745
  24   2.0000      -0.583785       -15.8856
  25   2.0000      -0.568697       -15.4750
  26   2.0000      -0.533583       -14.5195
  27   2.0000      -0.516942       -14.0667
  28   2.0000      -0.485588       -13.2135
  29   2.0000      -0.476678       -12.9711
  30   2.0000      -0.474149       -12.9023
  31   2.0000      -0.419486       -11.4148
  32   2.0000      -0.404503       -11.0071
  33   2.0000      -0.384897       -10.4736
  34   0.0000       0.137998         3.7551
  35   0.0000       0.156141         4.2488
  36   0.0000       0.174996         4.7619
  37   0.0000       0.180626         4.9151
  38   0.0000       0.195883         5.3303

MULLIKEN ATOMIC CHARGES
-----------------------
   0 C :   -0.417027
   1 C :    0.208201
   2 C :   -0.043260
   3 O :   -0.324975
   4 C :    0.061470
   5 C :   -0.195629
   6 C :   -0.012131
   7 O :   -0.316577
   8 C :   -0.196568
   9 H :    0.144282
  10 H :    0.130813
  11 H :    0.140439
  12 H :    0.087549
  13 H :    0.118788
  14 H :    0.123578
  15 H :    0.135068
  16 H :    0.111971
  17 H :    0.098730
  18 H :    0.145277
Sum of atomic charges:    0.0000000

LOEWDIN ATOMIC CHARGES
----------------------
   0 C :   -0.263480
   1 C :   -0.342032
   2 C :   -0.246623
   3 O :    0.178130
   4 C :   -0.252820
   5 C :   -0.184172
   6 C :   -0.273040
   7 O :    0.189377
   8 C :   -0.142025
   9 H :    0.132756
  10 H :    0.129438
  11 H :    0.131770
  12 H :    0.124567
  13 H :    0.132653
  14 H :    0.137963
  15 H :    0.148035
  16 H :    0.127211
  17 H :    0.127753
  18 H :    0.144540

  Mayer bond orders larger than 0.1
B(  0-C ,  1-C ) :   0.8659 B(  0-C ,  9-H ) :   0.9391 B(  0-C , 10-H ) :   0.9389
B(  0-C , 11-H ) :   0.9415 B(  1-C ,  2-C ) :   0.9650 B(  1-C ,  7-O ) :   0.9497
B(  1-C ,  8-C ) :   0.8921 B(  2-C ,  3-O ) :   0.9240 B(  2-C , 12-H ) :   0.9118
B(  2-C , 13-H ) :   0.9163 B(  3-O ,  4-C ) :   0.9803 B(  4-C ,  5-C ) :   0.8527
B(  4-C ,  8-C ) :   0.9042 B(  4-C , 14-H ) :   0.9448 B(  5-C ,  6-C ) :   0.9770
B(  5-C ,  8-C ) :   0.8391 B(  5-C , 15-H ) :   0.9142 B(  6-C ,  7-O ) :   0.9396
B(  6-C , 16-H ) :   0.9236 B(  6-C , 17-H ) :   0.9101 B(  8-C , 18-H ) :   0.9143

MP2 TOTAL ENERGY:     -422.316547841 Eh
FINAL SINGLE POINT ENERGY      -422.316547841116

DIPOLE MOMENT
-------------
                                X             Y             Z
Electronic contribution:      0.26989      -3.63203      -0.60479
Nuclear contribution   :     -0.96302       3.91997       0.66478
                        -----------------------------------------
Total Dipole Moment    :     -0.69313       0.28794       0.05999
                        -----------------------------------------
Magnitude (a.u.)       :      0.75295
Magnitude (Debye)      :      1.91386

                             ****ORCA TERMINATED NORMALLY****
TOTAL RUN TIME: 0 days 0 hours 18 minutes 14 seconds 204 msec
