                         Program Version 3.0.3 - RELEASE   -
|  1> ! RI-MP2 RIJK def2-TZVP def2-TZVP/C def2-TZVP/JK TIGHTSCF
|  2> % maxcore 2000
|  3> % mp2 density relaxed end
|  4> *xyz 0 1
|  5>  O        0.1667976719     0.0020242807     0.3859024421
|  6>  C        0.1367662911     1.1073926750    -0.0843184718
|  7>  C        1.3500428902     2.0442123128    -0.1076061831
|  8>  C        1.3414584928     2.8780589168    -1.3023326641
|  9>  C        1.2928603627     3.5684286321    -2.2851605850
| 10>  C        1.3282565349     2.8985368370     1.1832683862
| 11>  C        1.6788460620     2.1355758541     2.4803423802
| 12>  O        2.9561936345     2.8002302540     2.5712453241
| 13>  C        2.6338099058     3.6726393238     1.4705811952
| 14>  H       -0.7947438211     1.5460070833    -0.5031009878
| 15>  H        2.2445730751     1.4103698449    -0.0843843913
| 16>  H        1.2680427987     4.1729021724    -3.1583146636
| 17>  H        0.4159599002     3.4976733467     1.2161008000
| 18>  H        1.0325959204     2.3692728193     3.3358970210
| 19>  H        1.7761821176     1.0485318405     2.3903190248
| 20>  H        3.3933409263     3.6486977504     0.6807228095
| 21>  H        2.4872843369     4.7107561661     1.7952012534
| 22> *
| 23>
| 24>                          ****END OF INPUT****

CARTESIAN COORDINATES (ANGSTROEM)
---------------------------------
  O      0.166798    0.002024    0.385902
  C      0.136766    1.107393   -0.084318
  C      1.350043    2.044212   -0.107606
  C      1.341458    2.878059   -1.302333
  C      1.292860    3.568429   -2.285161
  C      1.328257    2.898537    1.183268
  C      1.678846    2.135576    2.480342
  O      2.956194    2.800230    2.571245
  C      2.633810    3.672639    1.470581
  H     -0.794744    1.546007   -0.503101
  H      2.244573    1.410370   -0.084384
  H      1.268043    4.172902   -3.158315
  H      0.415960    3.497673    1.216101
  H      1.032596    2.369273    3.335897
  H      1.776182    1.048532    2.390319
  H      3.393341    3.648698    0.680723
  H      2.487284    4.710756    1.795201

 Total Charge           Charge          ....    0
 Multiplicity           Mult            ....    1
 Number of Electrons    NEL             ....   66
 Basis Dimension        Dim             ....  327

ORBITAL ENERGIES
----------------

  NO   OCC          E(Eh)            E(eV)
   0   2.0000     -20.575241      -559.8808
   1   2.0000     -20.556529      -559.3716
   2   2.0000     -11.350569      -308.8647
   3   2.0000     -11.290594      -307.2327
   4   2.0000     -11.287845      -307.1579
   5   2.0000     -11.285925      -307.1056
   6   2.0000     -11.264011      -306.5093
   7   2.0000     -11.255664      -306.2822
   8   2.0000     -11.246985      -306.0460
   9   2.0000      -1.415512       -38.5180
  10   2.0000      -1.387737       -37.7622
  11   2.0000      -1.127633       -30.6845
  12   2.0000      -1.034473       -28.1494
  13   2.0000      -0.970152       -26.3992
  14   2.0000      -0.945378       -25.7250
  15   2.0000      -0.829072       -22.5602
  16   2.0000      -0.779807       -21.2196
  17   2.0000      -0.753729       -20.5100
  18   2.0000      -0.704951       -19.1827
  19   2.0000      -0.694809       -18.9067
  20   2.0000      -0.682093       -18.5607
  21   2.0000      -0.654778       -17.8174
  22   2.0000      -0.612531       -16.6678
  23   2.0000      -0.601609       -16.3706
  24   2.0000      -0.574182       -15.6243
  25   2.0000      -0.568407       -15.4671
  26   2.0000      -0.524127       -14.2622
  27   2.0000      -0.488614       -13.2959
  28   2.0000      -0.475728       -12.9452
  29   2.0000      -0.447966       -12.1898
  30   2.0000      -0.427663       -11.6373
  31   2.0000      -0.409293       -11.1374
  32   2.0000      -0.399966       -10.8836
  33   0.0000       0.110849         3.0164
  34   0.0000       0.133263         3.6263
  35   0.0000       0.149436         4.0663
  36   0.0000       0.154865         4.2141
  37   0.0000       0.164267         4.4699

MULLIKEN ATOMIC CHARGES
-----------------------
   0 O :   -0.248176
   1 C :    0.092602
   2 C :   -0.153663
   3 C :   -0.065468
   4 C :   -0.135241
   5 C :   -0.116497
   6 C :   -0.026755
   7 O :   -0.327347
   8 C :   -0.020482
   9 H :    0.098991
  10 H :    0.139126
  11 H :    0.198457
  12 H :    0.126913
  13 H :    0.100962
  14 H :    0.125437
  15 H :    0.110641
  16 H :    0.100500
Sum of atomic charges:    0.0000000

LOEWDIN ATOMIC CHARGES
----------------------
   0 O :    0.150648
   1 C :   -0.249514
   2 C :   -0.225738
   3 C :   -0.090471
   4 C :   -0.081393
   5 C :   -0.199629
   6 C :   -0.247713
   7 O :    0.113794
   8 C :   -0.245390
   9 H :    0.120763
  10 H :    0.184147
  11 H :    0.130083
  12 H :    0.150841
  13 H :    0.120047
  14 H :    0.125643
  15 H :    0.123974
  16 H :    0.119908

  Mayer bond orders larger than 0.1
B(  0-O ,  1-C ) :   1.9926 B(  1-C ,  2-C ) :   0.8416 B(  1-C ,  9-H ) :   0.9297
B(  2-C ,  3-C ) :   1.0590 B(  2-C ,  5-C ) :   0.8989 B(  2-C , 10-H ) :   0.8969
B(  3-C ,  4-C ) :   2.6233 B(  4-C , 11-H ) :   0.8890 B(  5-C ,  6-C ) :   0.9477
B(  5-C ,  8-C ) :   0.9499 B(  5-C , 12-H ) :   0.9074 B(  6-C ,  7-O ) :   0.9445
B(  6-C , 13-H ) :   0.9164 B(  6-C , 14-H ) :   0.9041 B(  7-O ,  8-C ) :   0.9535
B(  8-C , 15-H ) :   0.9090 B(  8-C , 16-H ) :   0.9135

MP2 TOTAL ENERGY:     -421.051773042 Eh
FINAL SINGLE POINT ENERGY      -421.051773042085

DIPOLE MOMENT
-------------
                                X             Y             Z
Electronic contribution:     -0.70348      -2.70725      -1.73437
Nuclear contribution   :      0.26536       3.62345       1.15903
                        -----------------------------------------
Total Dipole Moment    :     -0.43811       0.91620      -0.57534
                        -----------------------------------------
Magnitude (a.u.)       :      1.16721
Magnitude (Debye)      :      2.96682

                             ****ORCA TERMINATED NORMALLY****
TOTAL RUN TIME: 0 days 0 hours 15 minutes 54 seconds 321 msec
