                         Program Version 3.0.3 - RELEASE   -
|  1> ! RI-MP2 RIJK def2-TZVP def2-TZVP/C def2-TZVP/JK TIGHTSCF
|  2> % maxcore 2000
|  3> % mp2 density relaxed end
|  4> *xyz 0 1
|  5>  C        0.3305989177     1.3653270988    -0.2860800782
|  6>  C       -0.1887819447    -0.0244237845     0.1023680855
|  7>  C        0.5720526250    -0.6153364953     1.2721499521
|  8>  C        0.7273095796    -2.0973934410     1.5244378577
|  9>  C        0.2758293965    -3.1464628520     0.5320544065
| 10>  O        0.8357539056    -3.0160549525    -0.7901495119
| 11>  C        1.9548416113    -2.2747340341    -0.9599353044
| 12>  N        2.5169564570    -1.4672426212    -0.1642122984
| 13>  C        1.9352996931    -1.2805559935     1.1292703564
| 14>  H        1.3751597942     1.3084398744    -0.6057765377
| 15>  H       -0.2561924336     1.7918239783    -1.1056626040
| 16>  H        0.2754363004     2.0595955521     0.5598413668
| 17>  H       -1.2502018659     0.0397861328     0.3760088242
| 18>  H       -0.1428687426    -0.6880391977    -0.7655008317
| 19>  H        0.4800751856    -0.0239811022     2.1815897727
| 20>  H        0.6539688637    -2.4349970329     2.5543611681
| 21>  H        0.5654101091    -4.1360441164     0.9054132360
| 22>  H       -0.8098501080    -3.1481398414     0.3867697341
| 23>  H        2.3544373537    -2.4405443153    -1.9583541951
| 24>  H        2.6746156321    -1.0409671365     1.8861354714
| 25> *
| 26>
| 27>                          ****END OF INPUT****

CARTESIAN COORDINATES (ANGSTROEM)
---------------------------------
  C      0.330599    1.365327   -0.286080
  C     -0.188782   -0.024424    0.102368
  C      0.572053   -0.615336    1.272150
  C      0.727310   -2.097393    1.524438
  C      0.275829   -3.146463    0.532054
  O      0.835754   -3.016055   -0.790150
  C      1.954842   -2.274734   -0.959935
  N      2.516956   -1.467243   -0.164212
  C      1.935300   -1.280556    1.129270
  H      1.375160    1.308440   -0.605777
  H     -0.256192    1.791824   -1.105663
  H      0.275436    2.059596    0.559841
  H     -1.250202    0.039786    0.376009
  H     -0.142869   -0.688039   -0.765501
  H      0.480075   -0.023981    2.181590
  H      0.653969   -2.434997    2.554361
  H      0.565410   -4.136044    0.905413
  H     -0.809850   -3.148140    0.386770
  H      2.354437   -2.440544   -1.958354
  H      2.674616   -1.040967    1.886135

 Total Charge           Charge          ....    0
 Multiplicity           Mult            ....    1
 Number of Electrons    NEL             ....   68
 Basis Dimension        Dim             ....  345

ORBITAL ENERGIES
----------------

  NO   OCC          E(Eh)            E(eV)
   0   2.0000     -20.594440      -560.4032
   1   2.0000     -15.544516      -422.9878
   2   2.0000     -11.329937      -308.3033
   3   2.0000     -11.297176      -307.4118
   4   2.0000     -11.259561      -306.3882
   5   2.0000     -11.238421      -305.8130
   6   2.0000     -11.234877      -305.7166
   7   2.0000     -11.223172      -305.3980
   8   2.0000     -11.208773      -305.0062
   9   2.0000      -1.424961       -38.7752
  10   2.0000      -1.229816       -33.4650
  11   2.0000      -1.138140       -30.9704
  12   2.0000      -1.030707       -28.0470
  13   2.0000      -0.969861       -26.3913
  14   2.0000      -0.888463       -24.1763
  15   2.0000      -0.864679       -23.5291
  16   2.0000      -0.774467       -21.0743
  17   2.0000      -0.734750       -19.9936
  18   2.0000      -0.690429       -18.7875
  19   2.0000      -0.685770       -18.6607
  20   2.0000      -0.667201       -18.1555
  21   2.0000      -0.627168       -17.0661
  22   2.0000      -0.600642       -16.3443
  23   2.0000      -0.589702       -16.0466
  24   2.0000      -0.561394       -15.2763
  25   2.0000      -0.542828       -14.7711
  26   2.0000      -0.517968       -14.0946
  27   2.0000      -0.502815       -13.6823
  28   2.0000      -0.494447       -13.4546
  29   2.0000      -0.477031       -12.9807
  30   2.0000      -0.472653       -12.8615
  31   2.0000      -0.434960       -11.8359
  32   2.0000      -0.385706       -10.4956
  33   2.0000      -0.355004        -9.6602
  34   0.0000       0.132507         3.6057
  35   0.0000       0.154171         4.1952
  36   0.0000       0.162970         4.4346
  37   0.0000       0.170800         4.6477
  38   0.0000       0.182435         4.9643

MULLIKEN ATOMIC CHARGES
-----------------------
   0 C :   -0.399482
   1 C :   -0.206181
   2 C :   -0.115040
   3 C :   -0.156020
   4 C :   -0.036603
   5 O :   -0.272449
   6 C :    0.080144
   7 N :   -0.283872
   8 C :   -0.014133
   9 H :    0.147521
  10 H :    0.130597
  11 H :    0.117556
  12 H :    0.114363
  13 H :    0.127986
  14 H :    0.118465
  15 H :    0.132002
  16 H :    0.124666
  17 H :    0.124880
  18 H :    0.135075
  19 H :    0.130524
Sum of atomic charges:   -0.0000000

LOEWDIN ATOMIC CHARGES
----------------------
   0 C :   -0.311490
   1 C :   -0.270079
   2 C :   -0.183364
   3 C :   -0.204377
   4 C :   -0.253862
   5 O :    0.220020
   6 C :   -0.364219
   7 N :    0.096117
   8 C :   -0.233496
   9 H :    0.127011
  10 H :    0.120003
  11 H :    0.119839
  12 H :    0.140055
  13 H :    0.145181
  14 H :    0.154029
  15 H :    0.153018
  16 H :    0.135006
  17 H :    0.133232
  18 H :    0.133216
  19 H :    0.144160

  Mayer bond orders larger than 0.1
B(  0-C ,  1-C ) :   0.9156 B(  0-C ,  9-H ) :   0.9369 B(  0-C , 10-H ) :   0.9390
B(  0-C , 11-H ) :   0.9365 B(  1-C ,  2-C ) :   0.9239 B(  1-C , 12-H ) :   0.9317
B(  1-C , 13-H ) :   0.9243 B(  2-C ,  3-C ) :   0.8611 B(  2-C ,  8-C ) :   0.8516
B(  2-C , 14-H ) :   0.9203 B(  3-C ,  4-C ) :   0.9504 B(  3-C ,  8-C ) :   0.8682
B(  3-C , 15-H ) :   0.9141 B(  4-C ,  5-O ) :   0.8633 B(  4-C , 16-H ) :   0.9316
B(  4-C , 17-H ) :   0.9291 B(  5-O ,  6-C ) :   1.0592 B(  6-C ,  7-N ) :   1.8081
B(  6-C , 18-H ) :   0.9292 B(  7-N ,  8-C ) :   0.9483 B(  8-C , 19-H ) :   0.9482

MP2 TOTAL ENERGY:     -402.451815522 Eh
FINAL SINGLE POINT ENERGY      -402.451815522138

DIPOLE MOMENT
-------------
                                X             Y             Z
Electronic contribution:      3.85193      -6.43865      -1.15395
Nuclear contribution   :     -4.49320       6.19313       1.70753
                        -----------------------------------------
Total Dipole Moment    :     -0.64127      -0.24551       0.55358
                        -----------------------------------------
Magnitude (a.u.)       :      0.88201
Magnitude (Debye)      :      2.24190

                             ****ORCA TERMINATED NORMALLY****
TOTAL RUN TIME: 0 days 0 hours 32 minutes 32 seconds 336 msec
