                         Program Version 3.0.3 - RELEASE   -
|  1> ! RI-MP2 RIJK def2-TZVP def2-TZVP/C def2-TZVP/JK TIGHTSCF
|  2> % maxcore 2000
|  3> % mp2 density relaxed end
|  4> *xyz 0 1
|  5>  N        0.0367890195    -1.1477032197    -0.1260633614
|  6>  C        0.0423090366     0.0075595660    -0.0421897376
|  7>  C        0.0356680276     1.4230723969     0.0936475362
|  8>  N        0.2578713802     2.3246910691    -1.0663517077
|  9>  C        1.1834454091     2.4063905300     0.0651975542
| 10>  C        0.5203670987     3.2689063350     1.1640066082
| 11>  C       -0.5663186851     4.2753385491     0.7166169322
| 12>  O       -1.5964461170     3.2483144368     0.7889843617
| 13>  C       -0.6549841491     2.2702647824     1.2162246972
| 14>  H        0.6969592157     1.7721781679    -1.8023134215
| 15>  H        2.2394283747     2.1989424344    -0.0532658131
| 16>  H        1.1339103535     3.4962917294     2.0322840751
| 17>  H       -0.7639717231     5.0739003663     1.4394433950
| 18>  H       -0.4671289279     4.6833118679    -0.2916978531
| 19>  H       -0.9559319836     1.6986499786     2.0964433843
| 20> *
| 21>
| 22>                          ****END OF INPUT****

CARTESIAN COORDINATES (ANGSTROEM)
---------------------------------
  N      0.036789   -1.147703   -0.126063
  C      0.042309    0.007560   -0.042190
  C      0.035668    1.423072    0.093648
  N      0.257871    2.324691   -1.066352
  C      1.183445    2.406391    0.065198
  C      0.520367    3.268906    1.164007
  C     -0.566319    4.275339    0.716617
  O     -1.596446    3.248314    0.788984
  C     -0.654984    2.270265    1.216225
  H      0.696959    1.772178   -1.802313
  H      2.239428    2.198942   -0.053266
  H      1.133910    3.496292    2.032284
  H     -0.763972    5.073900    1.439443
  H     -0.467129    4.683312   -0.291698
  H     -0.955932    1.698650    2.096443

 Total Charge           Charge          ....    0
 Multiplicity           Mult            ....    1
 Number of Electrons    NEL             ....   64
 Basis Dimension        Dim             ....  315

ORBITAL ENERGIES
----------------

  NO   OCC          E(Eh)            E(eV)
   0   2.0000     -20.566097      -559.6319
   1   2.0000     -15.605704      -424.6528
   2   2.0000     -15.584383      -424.0726
   3   2.0000     -11.320472      -308.0457
   4   2.0000     -11.317777      -307.9724
   5   2.0000     -11.310061      -307.7624
   6   2.0000     -11.294588      -307.3414
   7   2.0000     -11.287100      -307.1376
   8   2.0000     -11.264133      -306.5126
   9   2.0000      -1.406375       -38.2694
  10   2.0000      -1.316730       -35.8300
  11   2.0000      -1.225837       -33.3567
  12   2.0000      -1.071709       -29.1627
  13   2.0000      -0.996254       -27.1095
  14   2.0000      -0.917098       -24.9555
  15   2.0000      -0.878056       -23.8931
  16   2.0000      -0.800260       -21.7762
  17   2.0000      -0.754633       -20.5346
  18   2.0000      -0.683740       -18.6055
  19   2.0000      -0.681721       -18.5506
  20   2.0000      -0.645920       -17.5764
  21   2.0000      -0.604130       -16.4392
  22   2.0000      -0.580116       -15.7858
  23   2.0000      -0.569382       -15.4937
  24   2.0000      -0.562669       -15.3110
  25   2.0000      -0.537258       -14.6195
  26   2.0000      -0.497538       -13.5387
  27   2.0000      -0.483715       -13.1626
  28   2.0000      -0.476117       -12.9558
  29   2.0000      -0.455566       -12.3966
  30   2.0000      -0.425581       -11.5806
  31   2.0000      -0.383919       -10.4470
  32   0.0000       0.117703         3.2029
  33   0.0000       0.126612         3.4453
  34   0.0000       0.143890         3.9155
  35   0.0000       0.154004         4.1907
  36   0.0000       0.173391         4.7182

MULLIKEN ATOMIC CHARGES
-----------------------
   0 N :   -0.040865
   1 C :   -0.242207
   2 C :    0.208203
   3 N :   -0.341090
   4 C :   -0.134419
   5 C :   -0.081669
   6 C :   -0.041824
   7 O :   -0.323061
   8 C :    0.099613
   9 H :    0.234748
  10 H :    0.160139
  11 H :    0.140297
  12 H :    0.111684
  13 H :    0.115923
  14 H :    0.134530
Sum of atomic charges:   -0.0000000

LOEWDIN ATOMIC CHARGES
----------------------
   0 N :    0.078173
   1 C :   -0.170173
   2 C :   -0.223589
   3 N :    0.071117
   4 C :   -0.170237
   5 C :   -0.170619
   6 C :   -0.231408
   7 O :    0.156440
   8 C :   -0.195417
   9 H :    0.184967
  10 H :    0.138551
  11 H :    0.145336
  12 H :    0.120785
  13 H :    0.125435
  14 H :    0.140638

  Mayer bond orders larger than 0.1
B(  0-N ,  1-C ) :   2.8542 B(  1-C ,  2-C ) :   0.8897 B(  2-C ,  3-N ) :   0.9414
B(  2-C ,  4-C ) :   0.8338 B(  2-C ,  8-C ) :   0.8325 B(  3-N ,  4-C ) :   0.9902
B(  3-N ,  9-H ) :   0.8636 B(  4-C ,  5-C ) :   0.9351 B(  4-C , 10-H ) :   0.8982
B(  5-C ,  6-C ) :   0.9669 B(  5-C ,  8-C ) :   0.9893 B(  5-C , 11-H ) :   0.9215
B(  6-C ,  7-O ) :   0.9315 B(  6-C , 12-H ) :   0.9172 B(  6-C , 13-H ) :   0.9001
B(  7-O ,  8-C ) :   0.9835 B(  8-C , 14-H ) :   0.9422

MP2 TOTAL ENERGY:     -416.025618219 Eh
FINAL SINGLE POINT ENERGY      -416.025618218770

DIPOLE MOMENT
-------------
                                X             Y             Z
Electronic contribution:     -1.15611      -4.92258      -1.08146
Nuclear contribution   :      2.33678       6.16270       1.45654
                        -----------------------------------------
Total Dipole Moment    :      1.18067       1.24012       0.37508
                        -----------------------------------------
Magnitude (a.u.)       :      1.75287
Magnitude (Debye)      :      4.45545

                             ****ORCA TERMINATED NORMALLY****
TOTAL RUN TIME: 0 days 0 hours 15 minutes 52 seconds 250 msec
