                         Program Version 3.0.3 - RELEASE   -
|  1> ! RI-MP2 RIJK def2-TZVP def2-TZVP/C def2-TZVP/JK TIGHTSCF
|  2> % maxcore 2000
|  3> % mp2 density relaxed end
|  4> *xyz 0 1
|  5>  O       -0.0166364348    -0.0135971287    -0.0767985997
|  6>  C        0.0256752331     1.1776744075     0.0023988805
|  7>  C       -1.0588548521     2.2957304227     0.1040094575
|  8>  C        0.0181947277     3.3603151528    -0.2275411825
|  9>  O        0.5209701166     4.0996793854     0.9070729796
| 10>  C        1.4820473319     3.0763928925     1.1752674653
| 11>  C        2.8420198897     3.1818972094     0.4409839287
| 12>  O        2.4074498705     2.2496730655    -0.5959172943
| 13>  C        1.1069196705     2.2315279285    -0.0771435642
| 14>  H       -1.8225068348     2.1871348565    -0.6706848854
| 15>  H       -1.5400851199     2.4017238192     1.0784271591
| 16>  H       -0.1324511854     3.9747352332    -1.1148150686
| 17>  H        1.4847070064     2.7326804338     2.2107586141
| 18>  H        3.0555695529     4.1779432131     0.0417381806
| 19>  H        3.7077068678     2.7876085787     0.9815863292
| 20> *
| 21>
| 22>                          ****END OF INPUT****

CARTESIAN COORDINATES (ANGSTROEM)
---------------------------------
  O     -0.016636   -0.013597   -0.076799
  C      0.025675    1.177674    0.002399
  C     -1.058855    2.295730    0.104009
  C      0.018195    3.360315   -0.227541
  O      0.520970    4.099679    0.907073
  C      1.482047    3.076393    1.175267
  C      2.842020    3.181897    0.440984
  O      2.407450    2.249673   -0.595917
  C      1.106920    2.231528   -0.077144
  H     -1.822507    2.187135   -0.670685
  H     -1.540085    2.401724    1.078427
  H     -0.132451    3.974735   -1.114815
  H      1.484707    2.732680    2.210759
  H      3.055570    4.177943    0.041738
  H      3.707707    2.787609    0.981586

 Total Charge           Charge          ....    0
 Multiplicity           Mult            ....    1
 Number of Electrons    NEL             ....   66
 Basis Dimension        Dim             ....  315

ORBITAL ENERGIES
----------------

  NO   OCC          E(Eh)            E(eV)
   0   2.0000     -20.585764      -560.1671
   1   2.0000     -20.581920      -560.0625
   2   2.0000     -20.567529      -559.6709
   3   2.0000     -11.351175      -308.8812
   4   2.0000     -11.320834      -308.0556
   5   2.0000     -11.317166      -307.9557
   6   2.0000     -11.315833      -307.9195
   7   2.0000     -11.308112      -307.7094
   8   2.0000     -11.258462      -306.3583
   9   2.0000      -1.444846       -39.3163
  10   2.0000      -1.408435       -38.3255
  11   2.0000      -1.388896       -37.7938
  12   2.0000      -1.129817       -30.7439
  13   2.0000      -1.015045       -27.6208
  14   2.0000      -0.945612       -25.7314
  15   2.0000      -0.880306       -23.9544
  16   2.0000      -0.821366       -22.3505
  17   2.0000      -0.737169       -20.0594
  18   2.0000      -0.717295       -19.5186
  19   2.0000      -0.704826       -19.1793
  20   2.0000      -0.689036       -18.7496
  21   2.0000      -0.644346       -17.5335
  22   2.0000      -0.617694       -16.8083
  23   2.0000      -0.614377       -16.7180
  24   2.0000      -0.596787       -16.2394
  25   2.0000      -0.569037       -15.4843
  26   2.0000      -0.551185       -14.9985
  27   2.0000      -0.538461       -14.6523
  28   2.0000      -0.517726       -14.0880
  29   2.0000      -0.478721       -13.0267
  30   2.0000      -0.452518       -12.3136
  31   2.0000      -0.409746       -11.1498
  32   2.0000      -0.403795       -10.9878
  33   0.0000       0.104525         2.8443
  34   0.0000       0.139595         3.7986
  35   0.0000       0.153568         4.1788
  36   0.0000       0.159057         4.3282
  37   0.0000       0.167281         4.5519

MULLIKEN ATOMIC CHARGES
-----------------------
   0 O :   -0.233897
   1 C :    0.048469
   2 C :   -0.229618
   3 C :    0.006868
   4 O :   -0.314980
   5 C :   -0.019212
   6 C :   -0.003758
   7 O :   -0.309590
   8 C :    0.270050
   9 H :    0.148332
  10 H :    0.151610
  11 H :    0.129363
  12 H :    0.124957
  13 H :    0.112306
  14 H :    0.119101
Sum of atomic charges:    0.0000000

LOEWDIN ATOMIC CHARGES
----------------------
   0 O :    0.176972
   1 C :   -0.283930
   2 C :   -0.180392
   3 C :   -0.198101
   4 O :    0.162257
   5 C :   -0.210626
   6 C :   -0.213098
   7 O :    0.184571
   8 C :   -0.261913
   9 H :    0.152607
  10 H :    0.148280
  11 H :    0.134148
  12 H :    0.135557
  13 H :    0.128266
  14 H :    0.125401

  Mayer bond orders larger than 0.1
B(  0-O ,  1-C ) :   2.0620 B(  1-C ,  2-C ) :   0.9258 B(  1-C ,  8-C ) :   0.8071
B(  2-C ,  3-C ) :   0.9015 B(  2-C ,  8-C ) :  -0.1486 B(  2-C ,  9-H ) :   0.8959
B(  2-C , 10-H ) :   0.8836 B(  3-C ,  4-O ) :   0.9484 B(  3-C ,  8-C ) :   0.9030
B(  3-C , 11-H ) :   0.9028 B(  4-O ,  5-C ) :   0.9725 B(  5-C ,  6-C ) :   0.9333
B(  5-C ,  8-C ) :   0.9185 B(  5-C , 12-H ) :   0.8980 B(  6-C ,  7-O ) :   0.9074
B(  6-C , 13-H ) :   0.8909 B(  6-C , 14-H ) :   0.9111 B(  7-O ,  8-C ) :   1.0079

MP2 TOTAL ENERGY:     -456.962774770 Eh
FINAL SINGLE POINT ENERGY      -456.962774769739

DIPOLE MOMENT
-------------
                                X             Y             Z
Electronic contribution:      0.20599      -2.68025      -0.96569
Nuclear contribution   :     -0.19532       3.55818       1.32478
                        -----------------------------------------
Total Dipole Moment    :      0.01068       0.87794       0.35909
                        -----------------------------------------
Magnitude (a.u.)       :      0.94859
Magnitude (Debye)      :      2.41114

                             ****ORCA TERMINATED NORMALLY****
TOTAL RUN TIME: 0 days 0 hours 16 minutes 37 seconds 946 msec
