                         Program Version 3.0.3 - RELEASE   -
|  1> ! RI-MP2 RIJK def2-TZVP def2-TZVP/C def2-TZVP/JK TIGHTSCF
|  2> % maxcore 2000
|  3> % mp2 density relaxed end
|  4> *xyz 0 1
|  5>  C        0.0571975223     1.4261075856    -0.0763936338
|  6>  N       -0.0382932996    -0.0231115465     0.0878014519
|  7>  C        0.8169709239    -0.5280206906     1.1601073892
|  8>  C       -1.3393336895    -0.5516713872     0.0518654664
|  9>  C       -1.8737518875    -1.3722580922    -0.9182036524
| 10>  O       -1.2192484096    -1.8169675299    -2.0248239681
| 11>  C       -3.2152314444    -1.6729625197    -0.5689725299
| 12>  C       -3.4693575879    -1.0210873355     0.6194816533
| 13>  N       -2.3434655273    -0.3444462671     0.9972177575
| 14>  H        1.0970552031     1.7064587464    -0.2782856623
| 15>  H       -0.5592723371     1.7370358628    -0.9225805769
| 16>  H       -0.2711147567     1.9891551802     0.8158103809
| 17>  H        0.5518760731    -0.1275990544     2.1552154356
| 18>  H        0.7448758565    -1.6170486810     1.1997382138
| 19>  H        1.8587245735    -0.2525068604     0.9613577890
| 20>  H       -0.3303750595    -1.4390916468    -1.9728453938
| 21>  H       -3.9021095830    -2.2908743002    -1.1245510409
| 22>  H       -4.3646255477    -0.9902370788     1.2194825552
| 23>  H       -2.2533213526     0.2141544653     1.8266018953
| 24> *
| 25>
| 26>                          ****END OF INPUT****

CARTESIAN COORDINATES (ANGSTROEM)
---------------------------------
  C      0.057198    1.426108   -0.076394
  N     -0.038293   -0.023112    0.087801
  C      0.816971   -0.528021    1.160107
  C     -1.339334   -0.551671    0.051865
  C     -1.873752   -1.372258   -0.918204
  O     -1.219248   -1.816968   -2.024824
  C     -3.215231   -1.672963   -0.568973
  C     -3.469358   -1.021087    0.619482
  N     -2.343466   -0.344446    0.997218
  H      1.097055    1.706459   -0.278286
  H     -0.559272    1.737036   -0.922581
  H     -0.271115    1.989155    0.815810
  H      0.551876   -0.127599    2.155215
  H      0.744876   -1.617049    1.199738
  H      1.858725   -0.252507    0.961358
  H     -0.330375   -1.439092   -1.972845
  H     -3.902110   -2.290874   -1.124551
  H     -4.364626   -0.990237    1.219483
  H     -2.253321    0.214154    1.826602

 Total Charge           Charge          ....    0
 Multiplicity           Mult            ....    1
 Number of Electrons    NEL             ....   68
 Basis Dimension        Dim             ....  339

ORBITAL ENERGIES
----------------

  NO   OCC          E(Eh)            E(eV)
   0   2.0000     -20.564494      -559.5883
   1   2.0000     -15.597201      -424.4214
   2   2.0000     -15.567285      -423.6074
   3   2.0000     -11.264419      -306.5204
   4   2.0000     -11.261531      -306.4418
   5   2.0000     -11.254255      -306.2439
   6   2.0000     -11.254234      -306.2433
   7   2.0000     -11.254202      -306.2424
   8   2.0000     -11.202698      -304.8409
   9   2.0000      -1.381510       -37.5928
  10   2.0000      -1.293539       -35.1990
  11   2.0000      -1.222998       -33.2795
  12   2.0000      -1.033964       -28.1356
  13   2.0000      -0.973816       -26.4989
  14   2.0000      -0.961088       -26.1525
  15   2.0000      -0.868612       -23.6361
  16   2.0000      -0.801751       -21.8167
  17   2.0000      -0.764405       -20.8005
  18   2.0000      -0.716237       -19.4898
  19   2.0000      -0.684326       -18.6215
  20   2.0000      -0.632395       -17.2083
  21   2.0000      -0.632244       -17.2042
  22   2.0000      -0.616738       -16.7823
  23   2.0000      -0.582497       -15.8505
  24   2.0000      -0.576570       -15.6893
  25   2.0000      -0.567956       -15.4549
  26   2.0000      -0.551985       -15.0203
  27   2.0000      -0.545253       -14.8371
  28   2.0000      -0.527603       -14.3568
  29   2.0000      -0.519249       -14.1295
  30   2.0000      -0.503611       -13.7039
  31   2.0000      -0.378164       -10.2904
  32   2.0000      -0.328586        -8.9413
  33   2.0000      -0.282156        -7.6779
  34   0.0000       0.118759         3.2316
  35   0.0000       0.149243         4.0611
  36   0.0000       0.167343         4.5536
  37   0.0000       0.179112         4.8739
  38   0.0000       0.184725         5.0266

MULLIKEN ATOMIC CHARGES
-----------------------
   0 C :   -0.297449
   1 N :   -0.245071
   2 C :   -0.297484
   3 C :    0.143717
   4 C :    0.104928
   5 O :   -0.449398
   6 C :   -0.223848
   7 C :   -0.091660
   8 N :   -0.260059
   9 H :    0.134460
  10 H :    0.151276
  11 H :    0.103319
  12 H :    0.103296
  13 H :    0.151271
  14 H :    0.134472
  15 H :    0.326258
  16 H :    0.130594
  17 H :    0.141077
  18 H :    0.240301
Sum of atomic charges:   -0.0000000

LOEWDIN ATOMIC CHARGES
----------------------
   0 C :   -0.314957
   1 N :    0.068699
   2 C :   -0.314978
   3 C :   -0.301316
   4 C :   -0.295820
   5 O :    0.054510
   6 C :   -0.178483
   7 C :   -0.243376
   8 N :    0.186130
   9 H :    0.117102
  10 H :    0.124633
  11 H :    0.101529
  12 H :    0.101519
  13 H :    0.124629
  14 H :    0.117108
  15 H :    0.191378
  16 H :    0.141700
  17 H :    0.131188
  18 H :    0.188805

  Mayer bond orders larger than 0.1
B(  0-C ,  1-N ) :   0.8981 B(  0-C ,  9-H ) :   0.9344 B(  0-C , 10-H ) :   0.9380
B(  0-C , 11-H ) :   0.9290 B(  1-N ,  2-C ) :   0.8982 B(  1-N ,  3-C ) :   0.9421
B(  2-C , 12-H ) :   0.9290 B(  2-C , 13-H ) :   0.9380 B(  2-C , 14-H ) :   0.9344
B(  3-C ,  4-C ) :   1.4087 B(  3-C ,  8-N ) :   1.0127 B(  4-C ,  5-O ) :   1.1178
B(  4-C ,  6-C ) :   1.3180 B(  5-O , 15-H ) :   0.8200 B(  6-C ,  7-C ) :   1.4635
B(  6-C , 16-H ) :   0.9346 B(  7-C ,  8-N ) :   1.1690 B(  7-C , 17-H ) :   0.9196
B(  8-N , 18-H ) :   0.8702

MP2 TOTAL ENERGY:     -418.512603640 Eh
FINAL SINGLE POINT ENERGY      -418.512603639763

DIPOLE MOMENT
-------------
                                X             Y             Z
Electronic contribution:     -5.10249      -4.06305      -3.28876
Nuclear contribution   :      5.58239       4.93054       4.36692
                        -----------------------------------------
Total Dipole Moment    :      0.47990       0.86748       1.07816
                        -----------------------------------------
Magnitude (a.u.)       :      1.46467
Magnitude (Debye)      :      3.72290

                             ****ORCA TERMINATED NORMALLY****
TOTAL RUN TIME: 0 days 0 hours 16 minutes 37 seconds 549 msec
