                         Program Version 3.0.3 - RELEASE   -
|  1> ! RI-MP2 RIJK def2-TZVP def2-TZVP/C def2-TZVP/JK TIGHTSCF
|  2> % maxcore 2000
|  3> % mp2 density relaxed end
|  4> *xyz 0 1
|  5>  C       -0.0239367056     1.5159845237    -0.0667745510
|  6>  C        1.5334411131     1.3346402218     0.0014454511
|  7>  C        1.1374699179     0.1573520029     0.9606914564
|  8>  N       -0.1064287420    -0.0312014503     0.0490173785
|  9>  C        0.6276096177    -0.3243951022    -1.1684316171
| 10>  C        1.7019383764     0.5125079858    -1.2761350186
| 11>  N        2.3838049839     0.2412920111    -2.4057862581
| 12>  N        1.7649301473    -0.7498684297    -3.0167830476
| 13>  N        0.6754921780    -1.1027567851    -2.2521594649
| 14>  H       -0.4707377655     1.9697498019     0.8218431416
| 15>  H       -0.4628918849     1.9205249981    -0.9802142283
| 16>  H        2.2253928223     2.1291916110     0.2699436906
| 17>  H        1.7903748637    -0.7153822798     1.0131972538
| 18>  H        0.8122047140     0.4689504214     1.9568261801
| 19>  H        0.0802798837    -1.8510192605    -2.5689067564
| 20> *
| 21>
| 22>                          ****END OF INPUT****

CARTESIAN COORDINATES (ANGSTROEM)
---------------------------------
  C     -0.023937    1.515985   -0.066775
  C      1.533441    1.334640    0.001445
  C      1.137470    0.157352    0.960691
  N     -0.106429   -0.031201    0.049017
  C      0.627610   -0.324395   -1.168432
  C      1.701938    0.512508   -1.276135
  N      2.383805    0.241292   -2.405786
  N      1.764930   -0.749868   -3.016783
  N      0.675492   -1.102757   -2.252159
  H     -0.470738    1.969750    0.821843
  H     -0.462892    1.920525   -0.980214
  H      2.225393    2.129192    0.269944
  H      1.790375   -0.715382    1.013197
  H      0.812205    0.468950    1.956826
  H      0.080280   -1.851019   -2.568907

 Total Charge           Charge          ....    0
 Multiplicity           Mult            ....    1
 Number of Electrons    NEL             ....   64
 Basis Dimension        Dim             ....  315

ORBITAL ENERGIES
----------------

  NO   OCC          E(Eh)            E(eV)
   0   2.0000     -15.661370      -426.1675
   1   2.0000     -15.625805      -425.1998
   2   2.0000     -15.602071      -424.5539
   3   2.0000     -15.602068      -424.5538
   4   2.0000     -11.300820      -307.5109
   5   2.0000     -11.287809      -307.1569
   6   2.0000     -11.287795      -307.1565
   7   2.0000     -11.274319      -306.7898
   8   2.0000     -11.243754      -305.9581
   9   2.0000      -1.423630       -38.7390
  10   2.0000      -1.301920       -35.4270
  11   2.0000      -1.201363       -32.6907
  12   2.0000      -1.055282       -28.7157
  13   2.0000      -1.009196       -27.4616
  14   2.0000      -0.937450       -25.5093
  15   2.0000      -0.882562       -24.0157
  16   2.0000      -0.836502       -22.7624
  17   2.0000      -0.782648       -21.2969
  18   2.0000      -0.722779       -19.6678
  19   2.0000      -0.686054       -18.6685
  20   2.0000      -0.651129       -17.7181
  21   2.0000      -0.599510       -16.3135
  22   2.0000      -0.583383       -15.8747
  23   2.0000      -0.577148       -15.7050
  24   2.0000      -0.556025       -15.1302
  25   2.0000      -0.543335       -14.7849
  26   2.0000      -0.491312       -13.3693
  27   2.0000      -0.483683       -13.1617
  28   2.0000      -0.446388       -12.1468
  29   2.0000      -0.418722       -11.3940
  30   2.0000      -0.409903       -11.1540
  31   2.0000      -0.322307        -8.7704
  32   0.0000       0.131780         3.5859
  33   0.0000       0.141420         3.8482
  34   0.0000       0.145203         3.9512
  35   0.0000       0.163633         4.4527
  36   0.0000       0.168026         4.5722

MULLIKEN ATOMIC CHARGES
-----------------------
   0 C :   -0.161575
   1 C :   -0.055062
   2 C :   -0.161575
   3 N :   -0.188925
   4 C :    0.031358
   5 C :   -0.104493
   6 N :   -0.128663
   7 N :   -0.109036
   8 N :   -0.089126
   9 H :    0.133163
  10 H :    0.141433
  11 H :    0.148096
  12 H :    0.141432
  13 H :    0.133169
  14 H :    0.269803
Sum of atomic charges:   -0.0000000

LOEWDIN ATOMIC CHARGES
----------------------
   0 C :   -0.184469
   1 C :   -0.167265
   2 C :   -0.184470
   3 N :    0.115019
   4 C :   -0.303448
   5 C :   -0.251042
   6 N :    0.015958
   7 N :   -0.048765
   8 N :    0.152347
   9 H :    0.131502
  10 H :    0.130285
  11 H :    0.139516
  12 H :    0.130285
  13 H :    0.131504
  14 H :    0.193045

  Mayer bond orders larger than 0.1
B(  0-C ,  1-C ) :   0.9157 B(  0-C ,  3-N ) :   0.8683 B(  0-C ,  9-H ) :   0.9214
B(  0-C , 10-H ) :   0.9235 B(  1-C ,  2-C ) :   0.9157 B(  1-C ,  5-C ) :   0.9741
B(  1-C , 11-H ) :   0.9140 B(  2-C ,  3-N ) :   0.8683 B(  2-C , 12-H ) :   0.9235
B(  2-C , 13-H ) :   0.9214 B(  3-N ,  4-C ) :   1.0376 B(  4-C ,  5-C ) :   1.2736
B(  4-C ,  7-N ) :   0.1498 B(  4-C ,  8-N ) :   1.2223 B(  5-C ,  6-N ) :   1.5055
B(  6-N ,  7-N ) :   1.2465 B(  7-N ,  8-N ) :   0.9957 B(  8-N , 14-H ) :   0.8497

MP2 TOTAL ENERGY:     -412.196966165 Eh
FINAL SINGLE POINT ENERGY      -412.196966165080

DIPOLE MOMENT
-------------
                                X             Y             Z
Electronic contribution:      1.31474      -2.67296      -5.02079
Nuclear contribution   :     -2.25391       2.77587       6.21840
                        -----------------------------------------
Total Dipole Moment    :     -0.93917       0.10291       1.19761
                        -----------------------------------------
Magnitude (a.u.)       :      1.52541
Magnitude (Debye)      :      3.87729

                             ****ORCA TERMINATED NORMALLY****
TOTAL RUN TIME: 0 days 0 hours 17 minutes 31 seconds 829 msec
