                         Program Version 3.0.3 - RELEASE   -
|  1> ! RI-MP2 RIJK def2-TZVP def2-TZVP/C def2-TZVP/JK TIGHTSCF
|  2> % maxcore 2000
|  3> % mp2 density relaxed end
|  4> *xyz 0 1
|  5>  N        0.2252442855    -0.9308384622     0.7837779761
|  6>  C        0.1011474781     0.1532962091     0.3939210997
|  7>  C        0.0018257299     1.4848641581    -0.1109365738
|  8>  C       -1.1090068356     2.2109620055     0.0732274355
|  9>  C       -1.2591339925     3.5985691542    -0.4703058910
| 10>  C        0.0644997173     4.2616182467    -0.8153437582
| 11>  C        1.1725433275     4.2743999829     0.1805524881
| 12>  N        1.2738731060     3.4649070089    -1.0330431030
| 13>  C        1.1977283333     2.0149870384    -0.8887009960
| 14>  H       -1.9463333634     1.7855057053     0.6174464097
| 15>  H       -1.8888722282     3.5545371007    -1.3714836989
| 16>  H       -1.8165420989     4.2210427859     0.2414383732
| 17>  H       -0.0240487114     5.1070950829    -1.4944551469
| 18>  H        1.8579601780     5.1154094136     0.2360823418
| 19>  H        0.9943378499     3.7664138773     1.1265364376
| 20>  H        2.1251635220     1.6669622513    -0.4209839803
| 21>  H        1.1794152925     1.5793872915    -1.8964489634
| 22> *
| 23>
| 24>                          ****END OF INPUT****

CARTESIAN COORDINATES (ANGSTROEM)
---------------------------------
  N      0.225244   -0.930838    0.783778
  C      0.101147    0.153296    0.393921
  C      0.001826    1.484864   -0.110937
  C     -1.109007    2.210962    0.073227
  C     -1.259134    3.598569   -0.470306
  C      0.064500    4.261618   -0.815344
  C      1.172543    4.274400    0.180552
  N      1.273873    3.464907   -1.033043
  C      1.197728    2.014987   -0.888701
  H     -1.946333    1.785506    0.617446
  H     -1.888872    3.554537   -1.371484
  H     -1.816542    4.221043    0.241438
  H     -0.024049    5.107095   -1.494455
  H      1.857960    5.115409    0.236082
  H      0.994338    3.766414    1.126536
  H      2.125164    1.666962   -0.420984
  H      1.179415    1.579387   -1.896449

 Total Charge           Charge          ....    0
 Multiplicity           Mult            ....    1
 Number of Electrons    NEL             ....   64
 Basis Dimension        Dim             ....  327

ORBITAL ENERGIES
----------------

  NO   OCC          E(Eh)            E(eV)
   0   2.0000     -15.575599      -423.8336
   1   2.0000     -15.572584      -423.7515
   2   2.0000     -11.282561      -307.0141
   3   2.0000     -11.280995      -306.9715
   4   2.0000     -11.278982      -306.9167
   5   2.0000     -11.277318      -306.8714
   6   2.0000     -11.275669      -306.8266
   7   2.0000     -11.264257      -306.5160
   8   2.0000     -11.261175      -306.4321
   9   2.0000      -1.295504       -35.2525
  10   2.0000      -1.220485       -33.2111
  11   2.0000      -1.124899       -30.6100
  12   2.0000      -1.060021       -28.8446
  13   2.0000      -0.958992       -26.0955
  14   2.0000      -0.881376       -23.9835
  15   2.0000      -0.843686       -22.9579
  16   2.0000      -0.768817       -20.9206
  17   2.0000      -0.725469       -19.7410
  18   2.0000      -0.673199       -18.3187
  19   2.0000      -0.663860       -18.0645
  20   2.0000      -0.623511       -16.9666
  21   2.0000      -0.600384       -16.3373
  22   2.0000      -0.580547       -15.7975
  23   2.0000      -0.577307       -15.7093
  24   2.0000      -0.554088       -15.0775
  25   2.0000      -0.521258       -14.1842
  26   2.0000      -0.508583       -13.8393
  27   2.0000      -0.480204       -13.0670
  28   2.0000      -0.464499       -12.6397
  29   2.0000      -0.460055       -12.5187
  30   2.0000      -0.385264       -10.4836
  31   2.0000      -0.372428       -10.1343
  32   0.0000       0.091790         2.4977
  33   0.0000       0.122523         3.3340
  34   0.0000       0.150710         4.1010
  35   0.0000       0.162925         4.4334
  36   0.0000       0.170529         4.6403

MULLIKEN ATOMIC CHARGES
-----------------------
   0 N :   -0.052530
   1 C :   -0.209573
   2 C :    0.144351
   3 C :   -0.235905
   4 C :   -0.138666
   5 C :   -0.077105
   6 C :   -0.190137
   7 N :   -0.212316
   8 C :   -0.157793
   9 H :    0.150616
  10 H :    0.140955
  11 H :    0.137764
  12 H :    0.127151
  13 H :    0.136040
  14 H :    0.136540
  15 H :    0.154800
  16 H :    0.145809
Sum of atomic charges:   -0.0000000

LOEWDIN ATOMIC CHARGES
----------------------
   0 N :    0.072577
   1 C :   -0.157327
   2 C :   -0.172992
   3 C :   -0.092893
   4 C :   -0.230743
   5 C :   -0.243470
   6 C :   -0.236312
   7 N :    0.120311
   8 C :   -0.232119
   9 H :    0.155413
  10 H :    0.158670
  11 H :    0.154552
  12 H :    0.143896
  13 H :    0.126501
  14 H :    0.131524
  15 H :    0.150714
  16 H :    0.151697

  Mayer bond orders larger than 0.1
B(  0-N ,  1-C ) :   2.8460 B(  1-C ,  2-C ) :   0.9227 B(  2-C ,  3-C ) :   1.6864
B(  2-C ,  8-C ) :   0.8962 B(  3-C ,  4-C ) :   0.9665 B(  3-C ,  9-H ) :   0.9312
B(  4-C ,  5-C ) :   0.9357 B(  4-C , 10-H ) :   0.8986 B(  4-C , 11-H ) :   0.9202
B(  5-C ,  6-C ) :   0.9299 B(  5-C ,  7-N ) :   0.9111 B(  5-C , 12-H ) :   0.9213
B(  6-C ,  7-N ) :   0.8725 B(  6-C , 13-H ) :   0.9246 B(  6-C , 14-H ) :   0.9177
B(  7-N ,  8-C ) :   0.9582 B(  8-C , 15-H ) :   0.9425 B(  8-C , 16-H ) :   0.9079

MP2 TOTAL ENERGY:     -380.184957257 Eh
FINAL SINGLE POINT ENERGY      -380.184957257123

DIPOLE MOMENT
-------------
                                X             Y             Z
Electronic contribution:      0.42559      -6.20858       0.93501
Nuclear contribution   :     -1.01174       7.72005      -1.14453
                        -----------------------------------------
Total Dipole Moment    :     -0.58615       1.51147      -0.20952
                        -----------------------------------------
Magnitude (a.u.)       :      1.63463
Magnitude (Debye)      :      4.15490

                             ****ORCA TERMINATED NORMALLY****
TOTAL RUN TIME: 0 days 0 hours 18 minutes 27 seconds 32 msec
