                         Program Version 3.0.3 - RELEASE   -
|  1> ! RI-MP2 RIJK def2-TZVP def2-TZVP/C def2-TZVP/JK TIGHTSCF
|  2> % maxcore 2000
|  3> % mp2 density relaxed end
|  4> *xyz 0 1
|  5>  O        0.0087614807    -0.0297135726    -0.0737618596
|  6>  C        0.0684803012     1.1821796529    -0.1407645631
|  7>  N        1.2190574650     1.8944634295    -0.0381090985
|  8>  C        2.5113661686     1.2475916633     0.2042410153
|  9>  C        3.4216720576     2.4111882986     0.6202733073
| 10>  C        2.8339875098     3.6085038522    -0.1404879556
| 11>  C        1.3075105921     3.3664022460    -0.0559010682
| 12>  C        0.5544359791     3.9868159740    -1.1412821390
| 13>  C       -0.0584312019     4.5227362585    -2.0249911675
| 14>  H       -0.8160165894     1.8279427668    -0.2972486064
| 15>  H        2.4047394261     0.4728121593     0.9671995120
| 16>  H        2.8685189559     0.7581185805    -0.7106024179
| 17>  H        3.3523025949     2.5778671634     1.7007200624
| 18>  H        4.4706734574     2.2287523070     0.3781947196
| 19>  H        3.1103070543     4.5796863624     0.2741156110
| 20>  H        3.1396949838     3.5864197303    -1.1906569099
| 21>  H        0.9360013499     3.7722326484     0.8973674289
| 22>  H       -0.6035590952     4.9865458295    -2.8099211810
| 23> *
| 24>
| 25>                          ****END OF INPUT****

CARTESIAN COORDINATES (ANGSTROEM)
---------------------------------
  O      0.008761   -0.029714   -0.073762
  C      0.068480    1.182180   -0.140765
  N      1.219057    1.894463   -0.038109
  C      2.511366    1.247592    0.204241
  C      3.421672    2.411188    0.620273
  C      2.833988    3.608504   -0.140488
  C      1.307511    3.366402   -0.055901
  C      0.554436    3.986816   -1.141282
  C     -0.058431    4.522736   -2.024991
  H     -0.816017    1.827943   -0.297249
  H      2.404739    0.472812    0.967200
  H      2.868519    0.758119   -0.710602
  H      3.352303    2.577867    1.700720
  H      4.470673    2.228752    0.378195
  H      3.110307    4.579686    0.274116
  H      3.139695    3.586420   -1.190657
  H      0.936001    3.772233    0.897367
  H     -0.603559    4.986546   -2.809921

 Total Charge           Charge          ....    0
 Multiplicity           Mult            ....    1
 Number of Electrons    NEL             ....   66
 Basis Dimension        Dim             ....  333

ORBITAL ENERGIES
----------------

  NO   OCC          E(Eh)            E(eV)
   0   2.0000     -20.516894      -558.2931
   1   2.0000     -15.588944      -424.1967
   2   2.0000     -11.340879      -308.6010
   3   2.0000     -11.312112      -307.8182
   4   2.0000     -11.267866      -306.6142
   5   2.0000     -11.250389      -306.1386
   6   2.0000     -11.248552      -306.0887
   7   2.0000     -11.243245      -305.9443
   8   2.0000     -11.240855      -305.8792
   9   2.0000      -1.377838       -37.4929
  10   2.0000      -1.267470       -34.4896
  11   2.0000      -1.086206       -29.5572
  12   2.0000      -1.065526       -28.9944
  13   2.0000      -0.995804       -27.0972
  14   2.0000      -0.900279       -24.4978
  15   2.0000      -0.837758       -22.7966
  16   2.0000      -0.791330       -21.5332
  17   2.0000      -0.734920       -19.9982
  18   2.0000      -0.719212       -19.5708
  19   2.0000      -0.696096       -18.9417
  20   2.0000      -0.643075       -17.4989
  21   2.0000      -0.623300       -16.9609
  22   2.0000      -0.599350       -16.3092
  23   2.0000      -0.581824       -15.8322
  24   2.0000      -0.569283       -15.4910
  25   2.0000      -0.533063       -14.5054
  26   2.0000      -0.523625       -14.2486
  27   2.0000      -0.506491       -13.7823
  28   2.0000      -0.494920       -13.4674
  29   2.0000      -0.431252       -11.7350
  30   2.0000      -0.407787       -11.0964
  31   2.0000      -0.405538       -11.0352
  32   2.0000      -0.375165       -10.2088
  33   0.0000       0.120117         3.2685
  34   0.0000       0.142809         3.8860
  35   0.0000       0.153818         4.1856
  36   0.0000       0.160166         4.3583
  37   0.0000       0.167143         4.5482

MULLIKEN ATOMIC CHARGES
-----------------------
   0 O :   -0.363368
   1 C :    0.134093
   2 N :   -0.058784
   3 C :   -0.185648
   4 C :   -0.197395
   5 C :   -0.223549
   6 C :   -0.162067
   7 C :   -0.056811
   8 C :   -0.111876
   9 H :    0.095498
  10 H :    0.146406
  11 H :    0.127631
  12 H :    0.118524
  13 H :    0.138608
  14 H :    0.138187
  15 H :    0.132988
  16 H :    0.129121
  17 H :    0.198443
Sum of atomic charges:    0.0000000

LOEWDIN ATOMIC CHARGES
----------------------
   0 O :    0.057283
   1 C :   -0.410407
   2 N :    0.193772
   3 C :   -0.233569
   4 C :   -0.250157
   5 C :   -0.210396
   6 C :   -0.235263
   7 C :   -0.091512
   8 C :   -0.080623
   9 H :    0.120715
  10 H :    0.139907
  11 H :    0.135861
  12 H :    0.140629
  13 H :    0.139702
  14 H :    0.141038
  15 H :    0.147998
  16 H :    0.165230
  17 H :    0.129794

  Mayer bond orders larger than 0.1
B(  0-O ,  1-C ) :   1.8953 B(  1-C ,  2-N ) :   1.1290 B(  1-C ,  9-H ) :   0.9318
B(  2-N ,  3-C ) :   0.8733 B(  2-N ,  6-C ) :   0.8723 B(  3-C ,  4-C ) :   0.9368
B(  3-C , 10-H ) :   0.9261 B(  3-C , 11-H ) :   0.9290 B(  4-C ,  5-C ) :   0.9153
B(  4-C , 12-H ) :   0.9253 B(  4-C , 13-H ) :   0.9308 B(  5-C ,  6-C ) :   0.9110
B(  5-C , 14-H ) :   0.9276 B(  5-C , 15-H ) :   0.9293 B(  6-C ,  7-C ) :   1.1330
B(  6-C , 16-H ) :   0.9197 B(  7-C ,  8-C ) :   2.6050 B(  8-C , 17-H ) :   0.8828

MP2 TOTAL ENERGY:     -401.250358770 Eh
FINAL SINGLE POINT ENERGY      -401.250358769746

DIPOLE MOMENT
-------------
                                X             Y             Z
Electronic contribution:     -5.53238      -1.56609      -1.53103
Nuclear contribution   :      6.43139       2.98152       1.64067
                        -----------------------------------------
Total Dipole Moment    :      0.89901       1.41543       0.10964
                        -----------------------------------------
Magnitude (a.u.)       :      1.68038
Magnitude (Debye)      :      4.27119

                             ****ORCA TERMINATED NORMALLY****
TOTAL RUN TIME: 0 days 0 hours 17 minutes 42 seconds 435 msec
