                         Program Version 3.0.3 - RELEASE   -
|  1> ! RI-MP2 RIJK def2-TZVP def2-TZVP/C def2-TZVP/JK TIGHTSCF
|  2> % maxcore 2000
|  3> % mp2 density relaxed end
|  4> *xyz 0 1
|  5>  O        0.1729025289    -0.3660653472     0.2743083420
|  6>  C        0.0774239449     0.8309323662     0.4520081299
|  7>  N        1.0779444244     1.7334154005     0.2634703226
|  8>  C        2.4070605078     1.3344660117    -0.1062516561
|  9>  C        3.0025667046     1.6948587116    -1.4952423876
| 10>  N        4.2819659909     2.1376790077    -0.8517205856
| 11>  C        3.6282673496     2.0810887709     0.4955015580
| 12>  C        3.4535253909     3.5258435637     0.9274892516
| 13>  O        2.4052122559     4.1066284521     1.0768010329
| 14>  H       -0.8575430369     1.3186302145     0.7897766633
| 15>  H        0.9377208461     2.7042144244     0.5048161154
| 16>  H        2.4788399780     0.2601168040     0.0707973505
| 17>  H        3.1008773645     0.8733760380    -2.2090469449
| 18>  H        2.4991730634     2.5346267967    -1.9853847900
| 19>  H        5.0042759337     1.4313651912    -0.9385981264
| 20>  H        4.1936537640     1.5533130415     1.2738007735
| 21>  H        4.4237850492     4.0545717926     1.0474662611
| 22> *
| 23>
| 24>                          ****END OF INPUT****

CARTESIAN COORDINATES (ANGSTROEM)
---------------------------------
  O      0.172903   -0.366065    0.274308
  C      0.077424    0.830932    0.452008
  N      1.077944    1.733415    0.263470
  C      2.407061    1.334466   -0.106252
  C      3.002567    1.694859   -1.495242
  N      4.281966    2.137679   -0.851721
  C      3.628267    2.081089    0.495502
  C      3.453525    3.525844    0.927489
  O      2.405212    4.106628    1.076801
  H     -0.857543    1.318630    0.789777
  H      0.937721    2.704214    0.504816
  H      2.478840    0.260117    0.070797
  H      3.100877    0.873376   -2.209047
  H      2.499173    2.534627   -1.985385
  H      5.004276    1.431365   -0.938598
  H      4.193654    1.553313    1.273801
  H      4.423785    4.054572    1.047466

 Total Charge           Charge          ....    0
 Multiplicity           Mult            ....    1
 Number of Electrons    NEL             ....   68
 Basis Dimension        Dim             ....  327

ORBITAL ENERGIES
----------------

  NO   OCC          E(Eh)            E(eV)
   0   2.0000     -20.578004      -559.9560
   1   2.0000     -20.523499      -558.4728
   2   2.0000     -15.586750      -424.1370
   3   2.0000     -15.573504      -423.7766
   4   2.0000     -11.351221      -308.8824
   5   2.0000     -11.349533      -308.8365
   6   2.0000     -11.292294      -307.2789
   7   2.0000     -11.286687      -307.1264
   8   2.0000     -11.270027      -306.6730
   9   2.0000      -1.417884       -38.5826
  10   2.0000      -1.384057       -37.6621
  11   2.0000      -1.271113       -34.5887
  12   2.0000      -1.222963       -33.2785
  13   2.0000      -0.998922       -27.1820
  14   2.0000      -0.982136       -26.7253
  15   2.0000      -0.866436       -23.5769
  16   2.0000      -0.821524       -22.3548
  17   2.0000      -0.795864       -21.6566
  18   2.0000      -0.725080       -19.7304
  19   2.0000      -0.709380       -19.3032
  20   2.0000      -0.686418       -18.6784
  21   2.0000      -0.671056       -18.2604
  22   2.0000      -0.625731       -17.0270
  23   2.0000      -0.608831       -16.5671
  24   2.0000      -0.603671       -16.4267
  25   2.0000      -0.569015       -15.4837
  26   2.0000      -0.549667       -14.9572
  27   2.0000      -0.539980       -14.6936
  28   2.0000      -0.535200       -14.5635
  29   2.0000      -0.497837       -13.5468
  30   2.0000      -0.451683       -12.2909
  31   2.0000      -0.432756       -11.7759
  32   2.0000      -0.398092       -10.8326
  33   2.0000      -0.389917       -10.6102
  34   0.0000       0.106302         2.8926
  35   0.0000       0.130273         3.5449
  36   0.0000       0.154797         4.2122
  37   0.0000       0.162036         4.4092
  38   0.0000       0.171647         4.6707

MULLIKEN ATOMIC CHARGES
-----------------------
   0 O :   -0.371765
   1 C :    0.189817
   2 N :   -0.328862
   3 C :   -0.014083
   4 C :   -0.149257
   5 N :   -0.360337
   6 C :    0.013847
   7 C :    0.129096
   8 O :   -0.306590
   9 H :    0.086721
  10 H :    0.267066
  11 H :    0.138855
  12 H :    0.139779
  13 H :    0.111776
  14 H :    0.217654
  15 H :    0.139611
  16 H :    0.096673
Sum of atomic charges:   -0.0000000

LOEWDIN ATOMIC CHARGES
----------------------
   0 O :    0.050571
   1 C :   -0.429735
   2 N :    0.103806
   3 C :   -0.241174
   4 C :   -0.235699
   5 N :   -0.006069
   6 C :   -0.253262
   7 C :   -0.261037
   8 O :    0.123653
   9 H :    0.111682
  10 H :    0.189801
  11 H :    0.160813
  12 H :    0.123863
  13 H :    0.128883
  14 H :    0.164442
  15 H :    0.148003
  16 H :    0.121459

  Mayer bond orders larger than 0.1
B(  0-O ,  1-C ) :   1.8758 B(  1-C ,  2-N ) :   1.1498 B(  1-C ,  9-H ) :   0.9313
B(  2-N ,  3-C ) :   0.8738 B(  2-N , 10-H ) :   0.8433 B(  3-C ,  4-C ) :   0.9628
B(  3-C ,  6-C ) :   0.9061 B(  3-C , 11-H ) :   0.9108 B(  4-C ,  5-N ) :   0.9489
B(  4-C , 12-H ) :   0.9342 B(  4-C , 13-H ) :   0.8981 B(  5-N ,  6-C ) :   0.9557
B(  5-N , 14-H ) :   0.8769 B(  6-C ,  7-C ) :   0.8548 B(  6-C , 15-H ) :   0.9031
B(  7-C ,  8-O ) :   1.9018 B(  7-C , 16-H ) :   0.9338

MP2 TOTAL ENERGY:     -454.406724693 Eh
FINAL SINGLE POINT ENERGY      -454.406724692827

DIPOLE MOMENT
-------------
                                X             Y             Z
Electronic contribution:     -2.41901       0.71263       2.27826
Nuclear contribution   :      3.46751      -0.39278      -2.23561
                        -----------------------------------------
Total Dipole Moment    :      1.04850       0.31985       0.04264
                        -----------------------------------------
Magnitude (a.u.)       :      1.09703
Magnitude (Debye)      :      2.78844

                             ****ORCA TERMINATED NORMALLY****
TOTAL RUN TIME: 0 days 0 hours 14 minutes 24 seconds 642 msec
