                         Program Version 3.0.3 - RELEASE   -
|  1> ! RI-MP2 RIJK def2-TZVP def2-TZVP/C def2-TZVP/JK TIGHTSCF
|  2> % maxcore 2000
|  3> % mp2 density relaxed end
|  4> *xyz 0 1
|  5>  N        0.0066604419    -1.1349706822     0.0608181946
|  6>  C       -0.0092853704     0.0211787885     0.0483614136
|  7>  C       -0.0003163673     1.4664477037    -0.0128369074
|  8>  C       -0.4250394723     2.1244217425    -1.3637943656
|  9>  C        0.8940054754     2.9627302723    -1.3664532319
| 10>  C        1.3138603527     2.3036342410    -0.0226936256
| 11>  C        0.8167801529     2.9375514380     1.2848059965
| 12>  C       -0.5233337498     3.5378617463     1.1776313283
| 13>  N       -0.4419633375     2.0707575516     1.3197422119
| 14>  H       -0.4775728516     1.3924767207    -2.1711764582
| 15>  H       -1.3696303930     2.6714805110    -1.3361914667
| 16>  H        1.5585136722     2.7090658523    -2.1942057500
| 17>  H        0.7760242532     4.0482833171    -1.3383953256
| 18>  H        2.2877691965     1.8225176494     0.0363240360
| 19>  H        1.4325120233     3.0543552831     2.1705369067
| 20>  H       -0.9301950675     3.9963413723     2.0739079116
| 21>  H       -0.8736829088     3.9913083722     0.2569247218
| 22> *
| 23>
| 24>                          ****END OF INPUT****

CARTESIAN COORDINATES (ANGSTROEM)
---------------------------------
  N      0.006660   -1.134971    0.060818
  C     -0.009285    0.021179    0.048361
  C     -0.000316    1.466448   -0.012837
  C     -0.425039    2.124422   -1.363794
  C      0.894005    2.962730   -1.366453
  C      1.313860    2.303634   -0.022694
  C      0.816780    2.937551    1.284806
  C     -0.523334    3.537862    1.177631
  N     -0.441963    2.070758    1.319742
  H     -0.477573    1.392477   -2.171176
  H     -1.369630    2.671481   -1.336191
  H      1.558514    2.709066   -2.194206
  H      0.776024    4.048283   -1.338395
  H      2.287769    1.822518    0.036324
  H      1.432512    3.054355    2.170537
  H     -0.930195    3.996341    2.073908
  H     -0.873683    3.991308    0.256925

 Total Charge           Charge          ....    0
 Multiplicity           Mult            ....    1
 Number of Electrons    NEL             ....   64
 Basis Dimension        Dim             ....  327

ORBITAL ENERGIES
----------------

  NO   OCC          E(Eh)            E(eV)
   0   2.0000     -15.587163      -424.1483
   1   2.0000     -15.568087      -423.6292
   2   2.0000     -11.313845      -307.8654
   3   2.0000     -11.285645      -307.0980
   4   2.0000     -11.278876      -306.9138
   5   2.0000     -11.268143      -306.6218
   6   2.0000     -11.266274      -306.5709
   7   2.0000     -11.257270      -306.3259
   8   2.0000     -11.251747      -306.1756
   9   2.0000      -1.317501       -35.8510
  10   2.0000      -1.213550       -33.0224
  11   2.0000      -1.132813       -30.8254
  12   2.0000      -0.996147       -27.1065
  13   2.0000      -0.963797       -26.2262
  14   2.0000      -0.869748       -23.6670
  15   2.0000      -0.837587       -22.7919
  16   2.0000      -0.789549       -21.4847
  17   2.0000      -0.722887       -19.6707
  18   2.0000      -0.695902       -18.9365
  19   2.0000      -0.642178       -17.4746
  20   2.0000      -0.611130       -16.6297
  21   2.0000      -0.592719       -16.1287
  22   2.0000      -0.562796       -15.3145
  23   2.0000      -0.555821       -15.1246
  24   2.0000      -0.538286       -14.6475
  25   2.0000      -0.525108       -14.2889
  26   2.0000      -0.485672       -13.2158
  27   2.0000      -0.482743       -13.1361
  28   2.0000      -0.468256       -12.7419
  29   2.0000      -0.446822       -12.1586
  30   2.0000      -0.418162       -11.3788
  31   2.0000      -0.380822       -10.3627
  32   0.0000       0.127562         3.4711
  33   0.0000       0.132801         3.6137
  34   0.0000       0.136238         3.7072
  35   0.0000       0.164611         4.4793
  36   0.0000       0.168693         4.5904

MULLIKEN ATOMIC CHARGES
-----------------------
   0 N :   -0.044713
   1 C :   -0.249288
   2 C :    0.294049
   3 C :   -0.287646
   4 C :   -0.271180
   5 C :   -0.065962
   6 C :   -0.120223
   7 C :   -0.163773
   8 N :   -0.219281
   9 H :    0.149313
  10 H :    0.144595
  11 H :    0.132809
  12 H :    0.138916
  13 H :    0.144030
  14 H :    0.141816
  15 H :    0.142762
  16 H :    0.133775
Sum of atomic charges:    0.0000000

LOEWDIN ATOMIC CHARGES
----------------------
   0 N :    0.074443
   1 C :   -0.147644
   2 C :   -0.227891
   3 C :   -0.179148
   4 C :   -0.211436
   5 C :   -0.138788
   6 C :   -0.182926
   7 C :   -0.240209
   8 N :    0.150157
   9 H :    0.145166
  10 H :    0.135517
  11 H :    0.136533
  12 H :    0.132006
  13 H :    0.148805
  14 H :    0.136617
  15 H :    0.139208
  16 H :    0.129591

  Mayer bond orders larger than 0.1
B(  0-N ,  1-C ) :   2.8740 B(  1-C ,  2-C ) :   0.9204 B(  2-C ,  3-C ) :   0.8672
B(  2-C ,  5-C ) :   0.8654 B(  2-C ,  8-N ) :   0.9664 B(  3-C ,  4-C ) :   0.9642
B(  3-C ,  9-H ) :   0.9089 B(  3-C , 10-H ) :   0.9260 B(  4-C ,  5-C ) :   0.9323
B(  4-C , 11-H ) :   0.9173 B(  4-C , 12-H ) :   0.9353 B(  5-C ,  6-C ) :   0.8952
B(  5-C , 13-H ) :   0.9065 B(  6-C ,  7-C ) :   0.9675 B(  6-C ,  8-N ) :   0.8667
B(  6-C , 14-H ) :   0.9000 B(  7-C ,  8-N ) :   0.8851 B(  7-C , 15-H ) :   0.9254
B(  7-C , 16-H ) :   0.9035

MP2 TOTAL ENERGY:     -380.131266945 Eh
FINAL SINGLE POINT ENERGY      -380.131266945068

DIPOLE MOMENT
-------------
                                X             Y             Z
Electronic contribution:     -0.51124      -6.42567       2.64925
Nuclear contribution   :      0.92977       8.37687      -3.20029
                        -----------------------------------------
Total Dipole Moment    :      0.41853       1.95120      -0.55103
                        -----------------------------------------
Magnitude (a.u.)       :      2.07026
Magnitude (Debye)      :      5.26219

                             ****ORCA TERMINATED NORMALLY****
TOTAL RUN TIME: 0 days 0 hours 18 minutes 51 seconds 442 msec
