                         Program Version 3.0.3 - RELEASE   -
|  1> ! RI-MP2 RIJK def2-TZVP def2-TZVP/C def2-TZVP/JK TIGHTSCF
|  2> % maxcore 2000
|  3> % mp2 density relaxed end
|  4> *xyz 0 1
|  5>  C       -0.1366015164     1.5945438618     0.0792772781
|  6>  C        0.0243264134     0.0828822159     0.0288548468
|  7>  C        1.1207256264    -0.5403382002    -0.9253916370
|  8>  O        2.0109458959     0.3376338975    -1.5755106971
|  9>  C        1.7630724812    -1.2493812107     0.2602574086
| 10>  C        2.1732930456    -0.2613419113     1.3040611926
| 11>  C        0.7096483161    -0.6329845954     1.2123945354
| 12>  C        0.0143098602    -1.2635635607     2.2853967801
| 13>  N       -0.5724370109    -1.7688978574     3.1465580915
| 14>  H        0.8195078817     2.1032377527     0.2224367185
| 15>  H       -0.5722550341     1.9666658084    -0.8548240132
| 16>  H       -0.8068635193     1.8850490252     0.8943691181
| 17>  H       -0.9404766595    -0.3906707707    -0.1728202394
| 18>  H        0.6716486409    -1.2473222447    -1.6330016857
| 19>  H        1.5565713137     0.7326808047    -2.3265231541
| 20>  H        2.1298774320    -2.2675112389     0.2592989577
| 21>  H        2.6946029739    -0.6805041844     2.1572911940
| 22>  H        2.4936182190     0.7344460481     1.0193384251
| 23> *
| 24>
| 25>                          ****END OF INPUT****

CARTESIAN COORDINATES (ANGSTROEM)
---------------------------------
  C     -0.136602    1.594544    0.079277
  C      0.024326    0.082882    0.028855
  C      1.120726   -0.540338   -0.925392
  O      2.010946    0.337634   -1.575511
  C      1.763072   -1.249381    0.260257
  C      2.173293   -0.261342    1.304061
  C      0.709648   -0.632985    1.212395
  C      0.014310   -1.263564    2.285397
  N     -0.572437   -1.768898    3.146558
  H      0.819508    2.103238    0.222437
  H     -0.572255    1.966666   -0.854824
  H     -0.806864    1.885049    0.894369
  H     -0.940477   -0.390671   -0.172820
  H      0.671649   -1.247322   -1.633002
  H      1.556571    0.732681   -2.326523
  H      2.129877   -2.267511    0.259299
  H      2.694603   -0.680504    2.157291
  H      2.493618    0.734446    1.019338

 Total Charge           Charge          ....    0
 Multiplicity           Mult            ....    1
 Number of Electrons    NEL             ....   66
 Basis Dimension        Dim             ....  333

ORBITAL ENERGIES
----------------

  NO   OCC          E(Eh)            E(eV)
   0   2.0000     -20.576199      -559.9068
   1   2.0000     -15.564642      -423.5354
   2   2.0000     -11.306861      -307.6753
   3   2.0000     -11.285465      -307.0931
   4   2.0000     -11.270847      -306.6953
   5   2.0000     -11.264941      -306.5346
   6   2.0000     -11.260359      -306.4099
   7   2.0000     -11.259071      -306.3749
   8   2.0000     -11.230401      -305.5948
   9   2.0000      -1.385683       -37.7064
  10   2.0000      -1.231722       -33.5169
  11   2.0000      -1.199158       -32.6308
  12   2.0000      -1.042982       -28.3810
  13   2.0000      -0.967160       -26.3178
  14   2.0000      -0.922361       -25.0987
  15   2.0000      -0.827667       -22.5220
  16   2.0000      -0.791703       -21.5433
  17   2.0000      -0.742524       -20.2051
  18   2.0000      -0.702718       -19.1219
  19   2.0000      -0.654142       -17.8001
  20   2.0000      -0.630392       -17.1538
  21   2.0000      -0.605798       -16.4846
  22   2.0000      -0.578316       -15.7368
  23   2.0000      -0.559242       -15.2178
  24   2.0000      -0.557980       -15.1834
  25   2.0000      -0.538559       -14.6549
  26   2.0000      -0.529074       -14.3968
  27   2.0000      -0.505777       -13.7629
  28   2.0000      -0.496487       -13.5101
  29   2.0000      -0.481705       -13.1079
  30   2.0000      -0.442940       -12.0530
  31   2.0000      -0.422018       -11.4837
  32   2.0000      -0.389909       -10.6100
  33   0.0000       0.113168         3.0795
  34   0.0000       0.139437         3.7943
  35   0.0000       0.145826         3.9681
  36   0.0000       0.157124         4.2756
  37   0.0000       0.180371         4.9081

MULLIKEN ATOMIC CHARGES
-----------------------
   0 C :   -0.443139
   1 C :   -0.037714
   2 C :    0.000523
   3 O :   -0.448236
   4 C :   -0.079231
   5 C :   -0.278584
   6 C :    0.181408
   7 C :   -0.279370
   8 N :   -0.049992
   9 H :    0.143270
  10 H :    0.128906
  11 H :    0.148447
  12 H :    0.120682
  13 H :    0.106872
  14 H :    0.319042
  15 H :    0.154760
  16 H :    0.157306
  17 H :    0.155052
Sum of atomic charges:   -0.0000000

LOEWDIN ATOMIC CHARGES
----------------------
   0 C :   -0.292598
   1 C :   -0.181948
   2 C :   -0.283146
   3 O :   -0.003139
   4 C :   -0.115065
   5 C :   -0.145799
   6 C :   -0.174613
   7 C :   -0.161873
   8 N :    0.061980
   9 H :    0.127201
  10 H :    0.125239
  11 H :    0.132297
  12 H :    0.158401
  13 H :    0.135998
  14 H :    0.178885
  15 H :    0.144704
  16 H :    0.151171
  17 H :    0.142302

  Mayer bond orders larger than 0.1
B(  0-C ,  1-C ) :   0.8731 B(  0-C ,  9-H ) :   0.9354 B(  0-C , 10-H ) :   0.9380
B(  0-C , 11-H ) :   0.9331 B(  1-C ,  2-C ) :   0.9517 B(  1-C ,  6-C ) :   0.8896
B(  1-C , 12-H ) :   0.9227 B(  2-C ,  3-O ) :   1.1060 B(  2-C ,  4-C ) :   0.9341
B(  2-C , 13-H ) :   0.9504 B(  3-O , 14-H ) :   0.8423 B(  4-C ,  5-C ) :   0.9051
B(  4-C ,  6-C ) :   0.7560 B(  4-C , 15-H ) :   0.9104 B(  5-C ,  6-C ) :   0.8607
B(  5-C , 16-H ) :   0.9286 B(  5-C , 17-H ) :   0.9040 B(  6-C ,  7-C ) :   0.9172
B(  7-C ,  8-N ) :   2.8839

MP2 TOTAL ENERGY:     -401.248527492 Eh
FINAL SINGLE POINT ENERGY      -401.248527492484

DIPOLE MOMENT
-------------
                                X             Y             Z
Electronic contribution:     -0.37116      -5.02722       3.67151
Nuclear contribution   :      0.67855       5.66503      -5.18407
                        -----------------------------------------
Total Dipole Moment    :      0.30739       0.63781      -1.51256
                        -----------------------------------------
Magnitude (a.u.)       :      1.67007
Magnitude (Debye)      :      4.24498

                             ****ORCA TERMINATED NORMALLY****
TOTAL RUN TIME: 0 days 0 hours 18 minutes 11 seconds 782 msec
