                         Program Version 3.0.3 - RELEASE   -
|  1> ! RI-MP2 RIJK def2-TZVP def2-TZVP/C def2-TZVP/JK TIGHTSCF
|  2> % maxcore 2000
|  3> % mp2 density relaxed end
|  4> *xyz 0 1
|  5>  C       -0.0443409550     1.5161253237    -0.1221175557
|  6>  C        1.3420426575     2.0860284387     0.0748110934
|  7>  C        2.2101448814     1.5622050494     0.9398100036
|  8>  C        1.8749186326     0.3579019998     1.7900363678
|  9>  C        0.9911462819    -0.6355410753     1.0228386486
| 10>  C       -0.2026470728    -1.2759198240     1.7497015397
| 11>  O       -1.0789411118    -0.2104868722     2.1422897837
| 12>  C       -1.1616391571    -0.6966272650     0.7953684051
| 13>  C       -0.0384857307    -0.0142858195    -0.0025769252
| 14>  H       -0.7103722615     1.9282051461     0.6475303377
| 15>  H       -0.4551344712     1.8277039885    -1.0882429936
| 16>  H        1.6084023600     2.9726525281    -0.4941343805
| 17>  H        3.1855262862     2.0209791241     1.0773248608
| 18>  H        2.7891576805    -0.1300518731     2.1440126415
| 19>  H        1.3343336133     0.6941134966     2.6847451261
| 20>  H        1.6034837556    -1.3896752318     0.5213023325
| 21>  H       -0.2475655420    -2.1881122811     2.3343894517
| 22>  H       -2.1304085875    -1.0508313439     0.4606981837
| 23>  H        0.0915653307    -0.4777468391    -0.9841747907
| 24> *
| 25>
| 26>                          ****END OF INPUT****

CARTESIAN COORDINATES (ANGSTROEM)
---------------------------------
  C     -0.044341    1.516125   -0.122118
  C      1.342043    2.086028    0.074811
  C      2.210145    1.562205    0.939810
  C      1.874919    0.357902    1.790036
  C      0.991146   -0.635541    1.022839
  C     -0.202647   -1.275920    1.749702
  O     -1.078941   -0.210487    2.142290
  C     -1.161639   -0.696627    0.795368
  C     -0.038486   -0.014286   -0.002577
  H     -0.710372    1.928205    0.647530
  H     -0.455134    1.827704   -1.088243
  H      1.608402    2.972653   -0.494134
  H      3.185526    2.020979    1.077325
  H      2.789158   -0.130052    2.144013
  H      1.334334    0.694113    2.684745
  H      1.603484   -1.389675    0.521302
  H     -0.247566   -2.188112    2.334389
  H     -2.130409   -1.050831    0.460698
  H      0.091565   -0.477747   -0.984175

 Total Charge           Charge          ....    0
 Multiplicity           Mult            ....    1
 Number of Electrons    NEL             ....   66
 Basis Dimension        Dim             ....  339

ORBITAL ENERGIES
----------------

  NO   OCC          E(Eh)            E(eV)
   0   2.0000     -20.564883      -559.5989
   1   2.0000     -11.282842      -307.0217
   2   2.0000     -11.282066      -307.0006
   3   2.0000     -11.236726      -305.7669
   4   2.0000     -11.236222      -305.7531
   5   2.0000     -11.222001      -305.3662
   6   2.0000     -11.221923      -305.3640
   7   2.0000     -11.221090      -305.3414
   8   2.0000     -11.219446      -305.2966
   9   2.0000      -1.415016       -38.5046
  10   2.0000      -1.126142       -30.6439
  11   2.0000      -1.046005       -28.4632
  12   2.0000      -1.009765       -27.4771
  13   2.0000      -0.907691       -24.6995
  14   2.0000      -0.877411       -23.8756
  15   2.0000      -0.820621       -22.3302
  16   2.0000      -0.757760       -20.6197
  17   2.0000      -0.719144       -19.5689
  18   2.0000      -0.685158       -18.6441
  19   2.0000      -0.664256       -18.0753
  20   2.0000      -0.639886       -17.4122
  21   2.0000      -0.577385       -15.7114
  22   2.0000      -0.572650       -15.5826
  23   2.0000      -0.549988       -14.9659
  24   2.0000      -0.539891       -14.6912
  25   2.0000      -0.539390       -14.6776
  26   2.0000      -0.520911       -14.1747
  27   2.0000      -0.488160       -13.2835
  28   2.0000      -0.464549       -12.6410
  29   2.0000      -0.438584       -11.9345
  30   2.0000      -0.424680       -11.5561
  31   2.0000      -0.397575       -10.8186
  32   2.0000      -0.341238        -9.2856
  33   0.0000       0.141134         3.8405
  34   0.0000       0.155215         4.2236
  35   0.0000       0.163810         4.4575
  36   0.0000       0.167157         4.5486
  37   0.0000       0.183153         4.9838

MULLIKEN ATOMIC CHARGES
-----------------------
   0 C :   -0.211707
   1 C :   -0.183171
   2 C :   -0.183137
   3 C :   -0.211776
   4 C :   -0.005733
   5 C :   -0.045535
   6 O :   -0.337269
   7 C :   -0.046341
   8 C :   -0.005365
   9 H :    0.130728
  10 H :    0.120276
  11 H :    0.119264
  12 H :    0.119267
  13 H :    0.120268
  14 H :    0.130772
  15 H :    0.109649
  16 H :    0.135065
  17 H :    0.135028
  18 H :    0.109720
Sum of atomic charges:    0.0000000

LOEWDIN ATOMIC CHARGES
----------------------
   0 C :   -0.228703
   1 C :   -0.171507
   2 C :   -0.171502
   3 C :   -0.228678
   4 C :   -0.175371
   5 C :   -0.225835
   6 O :    0.170803
   7 C :   -0.225758
   8 C :   -0.175365
   9 H :    0.155309
  10 H :    0.139606
  11 H :    0.139970
  12 H :    0.139973
  13 H :    0.139609
  14 H :    0.155310
  15 H :    0.152269
  16 H :    0.128788
  17 H :    0.128793
  18 H :    0.152290

  Mayer bond orders larger than 0.1
B(  0-C ,  1-C ) :   0.9493 B(  0-C ,  8-C ) :   0.9187 B(  0-C ,  9-H ) :   0.8943
B(  0-C , 10-H ) :   0.9336 B(  1-C ,  2-C ) :   1.8014 B(  1-C , 11-H ) :   0.9323
B(  2-C ,  3-C ) :   0.9493 B(  2-C , 12-H ) :   0.9323 B(  3-C ,  4-C ) :   0.9188
B(  3-C , 13-H ) :   0.9336 B(  3-C , 14-H ) :   0.8942 B(  4-C ,  5-C ) :   0.8980
B(  4-C ,  8-C ) :   0.9735 B(  4-C , 15-H ) :   0.9067 B(  5-C ,  6-O ) :   0.9034
B(  5-C ,  7-C ) :   0.8756 B(  5-C , 16-H ) :   0.9322 B(  6-O ,  7-C ) :   0.9040
B(  7-C ,  8-C ) :   0.8978 B(  7-C , 17-H ) :   0.9323 B(  8-C , 18-H ) :   0.9066

MP2 TOTAL ENERGY:     -385.177195127 Eh
FINAL SINGLE POINT ENERGY      -385.177195126751

DIPOLE MOMENT
-------------
                                X             Y             Z
Electronic contribution:     -2.59024      -1.63983       1.60870
Nuclear contribution   :      2.80315       1.19783      -2.09088
                        -----------------------------------------
Total Dipole Moment    :      0.21291      -0.44200      -0.48217
                        -----------------------------------------
Magnitude (a.u.)       :      0.68788
Magnitude (Debye)      :      1.74846

                             ****ORCA TERMINATED NORMALLY****
TOTAL RUN TIME: 0 days 0 hours 19 minutes 36 seconds 368 msec
