                         Program Version 3.0.3 - RELEASE   -
|  1> ! RI-MP2 RIJK def2-TZVP def2-TZVP/C def2-TZVP/JK TIGHTSCF
|  2> % maxcore 2000
|  3> % mp2 density relaxed end
|  4> *xyz 0 1
|  5>  C       -0.3114685979     1.4925290168    -0.0598523040
|  6>  C        0.1104961424     0.0406877168    -0.0316029732
|  7>  O        1.3685936449    -0.1756380445    -0.7697102893
|  8>  C        1.9809420888    -0.7227035639     0.3259970512
|  9>  O        3.0946101101    -1.1344908899     0.4087211731
| 10>  C        0.7561188471    -0.5873363017     1.2421421965
| 11>  C        0.9810991628     0.3148037113     2.4551207014
| 12>  C        0.1698370706    -1.9411503005     1.6506510765
| 13>  H        0.4776630077     2.1500532520     0.3124783008
| 14>  H       -0.5488472019     1.7935697594    -1.0843567897
| 15>  H       -1.2070083004     1.6394874605     0.5527878005
| 16>  H       -0.6639465173    -0.5975056819    -0.4687397742
| 17>  H        1.4363121496     1.2713379063     2.1872493031
| 18>  H        0.0350307007     0.5163791387     2.9686646332
| 19>  H        1.6508732450    -0.1818788082     3.1632303062
| 20>  H        0.8507871584    -2.4599890640     2.3317133778
| 21>  H       -0.7880668977    -1.8060881482     2.1645728351
| 22>  H        0.0042171070    -2.5877127691     0.7834640949
| 23> *
| 24>
| 25>                          ****END OF INPUT****

CARTESIAN COORDINATES (ANGSTROEM)
---------------------------------
  C     -0.311469    1.492529   -0.059852
  C      0.110496    0.040688   -0.031603
  O      1.368594   -0.175638   -0.769710
  C      1.980942   -0.722704    0.325997
  O      3.094610   -1.134491    0.408721
  C      0.756119   -0.587336    1.242142
  C      0.981099    0.314804    2.455121
  C      0.169837   -1.941150    1.650651
  H      0.477663    2.150053    0.312478
  H     -0.548847    1.793570   -1.084357
  H     -1.207008    1.639487    0.552788
  H     -0.663947   -0.597506   -0.468740
  H      1.436312    1.271338    2.187249
  H      0.035031    0.516379    2.968665
  H      1.650873   -0.181879    3.163230
  H      0.850787   -2.459989    2.331713
  H     -0.788067   -1.806088    2.164573
  H      0.004217   -2.587713    0.783464

 Total Charge           Charge          ....    0
 Multiplicity           Mult            ....    1
 Number of Electrons    NEL             ....   62
 Basis Dimension        Dim             ....  308

ORBITAL ENERGIES
----------------

  NO   OCC          E(Eh)            E(eV)
   0   2.0000     -20.595268      -560.4257
   1   2.0000     -20.546770      -559.1060
   2   2.0000     -11.374002      -309.5023
   3   2.0000     -11.309207      -307.7392
   4   2.0000     -11.269896      -306.6695
   5   2.0000     -11.240454      -305.8683
   6   2.0000     -11.239912      -305.8536
   7   2.0000     -11.237590      -305.7904
   8   2.0000      -1.457913       -39.6718
   9   2.0000      -1.373066       -37.3630
  10   2.0000      -1.111317       -30.2405
  11   2.0000      -1.027419       -27.9575
  12   2.0000      -0.959176       -26.1005
  13   2.0000      -0.905427       -24.6379
  14   2.0000      -0.847813       -23.0702
  15   2.0000      -0.715467       -19.4689
  16   2.0000      -0.689924       -18.7738
  17   2.0000      -0.683712       -18.6047
  18   2.0000      -0.666007       -18.1230
  19   2.0000      -0.616847       -16.7853
  20   2.0000      -0.598821       -16.2948
  21   2.0000      -0.580631       -15.7998
  22   2.0000      -0.573369       -15.6022
  23   2.0000      -0.564752       -15.3677
  24   2.0000      -0.556115       -15.1327
  25   2.0000      -0.537509       -14.6264
  26   2.0000      -0.520983       -14.1767
  27   2.0000      -0.507039       -13.7972
  28   2.0000      -0.469575       -12.7778
  29   2.0000      -0.453753       -12.3472
  30   2.0000      -0.426110       -11.5950
  31   0.0000       0.118830         3.2335
  32   0.0000       0.150529         4.0961
  33   0.0000       0.162401         4.4192
  34   0.0000       0.171742         4.6733
  35   0.0000       0.182233         4.9588

MULLIKEN ATOMIC CHARGES
-----------------------
   0 C :   -0.390147
   1 C :    0.037583
   2 O :   -0.236204
   3 C :    0.217429
   4 O :   -0.270679
   5 C :    0.086141
   6 C :   -0.409438
   7 C :   -0.423006
   8 H :    0.132792
   9 H :    0.151346
  10 H :    0.133637
  11 H :    0.108238
  12 H :    0.140168
  13 H :    0.136101
  14 H :    0.154221
  15 H :    0.150412
  16 H :    0.137272
  17 H :    0.144135
Sum of atomic charges:   -0.0000000

LOEWDIN ATOMIC CHARGES
----------------------
   0 C :   -0.289637
   1 C :   -0.230304
   2 O :    0.251423
   3 C :   -0.431314
   4 O :    0.151538
   5 C :   -0.264601
   6 C :   -0.257234
   7 C :   -0.258149
   8 H :    0.128817
   9 H :    0.133132
  10 H :    0.132664
  11 H :    0.141867
  12 H :    0.129591
  13 H :    0.129583
  14 H :    0.137101
  15 H :    0.134983
  16 H :    0.128957
  17 H :    0.131582

  Mayer bond orders larger than 0.1
B(  0-C ,  1-C ) :   0.9156 B(  0-C ,  8-H ) :   0.9348 B(  0-C ,  9-H ) :   0.9318
B(  0-C , 10-H ) :   0.9276 B(  1-C ,  2-O ) :   0.8841 B(  1-C ,  5-C ) :   0.8829
B(  1-C , 11-H ) :   0.9192 B(  2-O ,  3-C ) :   1.1062 B(  3-C ,  4-O ) :   2.0589
B(  3-C ,  5-C ) :   0.8888 B(  5-C ,  6-C ) :   0.9045 B(  5-C ,  7-C ) :   0.9047
B(  6-C , 12-H ) :   0.9326 B(  6-C , 13-H ) :   0.9337 B(  6-C , 14-H ) :   0.9297
B(  7-C , 15-H ) :   0.9331 B(  7-C , 16-H ) :   0.9346 B(  7-C , 17-H ) :   0.9259

MP2 TOTAL ENERGY:     -384.347537742 Eh
FINAL SINGLE POINT ENERGY      -384.347537742358

DIPOLE MOMENT
-------------
                                X             Y             Z
Electronic contribution:      6.87718      -2.47477      -5.31666
Nuclear contribution   :     -8.40666       2.87414       5.98222
                        -----------------------------------------
Total Dipole Moment    :     -1.52949       0.39937       0.66555
                        -----------------------------------------
Magnitude (a.u.)       :      1.71516
Magnitude (Debye)      :      4.35959

                             ****ORCA TERMINATED NORMALLY****
TOTAL RUN TIME: 0 days 0 hours 13 minutes 25 seconds 424 msec
