                         Program Version 3.0.3 - RELEASE   -
|  1> ! RI-MP2 RIJK def2-TZVP def2-TZVP/C def2-TZVP/JK TIGHTSCF
|  2> % maxcore 2000
|  3> % mp2 density relaxed end
|  4> *xyz 0 1
|  5>  C        0.0345299503     1.3033972162     0.1899116922
|  6>  O       -0.0724768069    -0.0818374249    -0.0406037895
|  7>  C        0.6027277914    -0.5499519101    -1.2056288501
|  8>  C        2.1252984573    -0.6105574096    -0.9988449210
|  9>  C        0.0272246782    -1.9012051209    -1.5148178792
| 10>  C       -0.3539225491    -2.3868277821    -2.6918374789
| 11>  C       -0.8380003141    -3.7999307605    -2.5366567371
| 12>  O       -0.7060358630    -4.0892987300    -1.1482528127
| 13>  C       -0.1893397344    -2.9552698591    -0.4562668433
| 14>  H        1.0590948523     1.6181357549     0.4355300998
| 15>  H       -0.3055418887     1.8866320159    -0.6804261749
| 16>  H       -0.6103204203     1.5360676276     1.0410134786
| 17>  H        0.3880810510     0.1283537807    -2.0475143294
| 18>  H        2.6111729174    -0.9970028058    -1.8992639747
| 19>  H        2.5370904117     0.3814675688    -0.7926294128
| 20>  H        2.3730131386    -1.2671573069    -0.1600208823
| 21>  H       -0.3352159769    -1.8670358625    -3.6421606202
| 22>  H       -1.8887490081    -3.9191669762    -2.8479425869
| 23>  H       -0.2459652930    -4.5180324181    -3.1273334559
| 24>  H        0.7414046894    -3.2306690909     0.0645341301
| 25>  H       -0.9011118631    -2.6174219764     0.3098551781
| 26> *
| 27>
| 28>                          ****END OF INPUT****

CARTESIAN COORDINATES (ANGSTROEM)
---------------------------------
  C      0.034530    1.303397    0.189912
  O     -0.072477   -0.081837   -0.040604
  C      0.602728   -0.549952   -1.205629
  C      2.125298   -0.610557   -0.998845
  C      0.027225   -1.901205   -1.514818
  C     -0.353923   -2.386828   -2.691837
  C     -0.838000   -3.799931   -2.536657
  O     -0.706036   -4.089299   -1.148253
  C     -0.189340   -2.955270   -0.456267
  H      1.059095    1.618136    0.435530
  H     -0.305542    1.886632   -0.680426
  H     -0.610320    1.536068    1.041013
  H      0.388081    0.128354   -2.047514
  H      2.611173   -0.997003   -1.899264
  H      2.537090    0.381468   -0.792629
  H      2.373013   -1.267157   -0.160021
  H     -0.335216   -1.867036   -3.642161
  H     -1.888749   -3.919167   -2.847943
  H     -0.245965   -4.518032   -3.127333
  H      0.741405   -3.230669    0.064534
  H     -0.901112   -2.617422    0.309855

 Total Charge           Charge          ....    0
 Multiplicity           Mult            ....    1
 Number of Electrons    NEL             ....   70
 Basis Dimension        Dim             ....  351

ORBITAL ENERGIES
----------------

  NO   OCC          E(Eh)            E(eV)
   0   2.0000     -20.559365      -559.4488
   1   2.0000     -20.543389      -559.0140
   2   2.0000     -11.294267      -307.3326
   3   2.0000     -11.274924      -306.8063
   4   2.0000     -11.273513      -306.7679
   5   2.0000     -11.269556      -306.6602
   6   2.0000     -11.232761      -305.6590
   7   2.0000     -11.225289      -305.4556
   8   2.0000     -11.223197      -305.3987
   9   2.0000      -1.380354       -37.5614
  10   2.0000      -1.367918       -37.2229
  11   2.0000      -1.095154       -29.8007
  12   2.0000      -1.018021       -27.7018
  13   2.0000      -0.978114       -26.6158
  14   2.0000      -0.934152       -25.4196
  15   2.0000      -0.853050       -23.2127
  16   2.0000      -0.810868       -22.0648
  17   2.0000      -0.743247       -20.2248
  18   2.0000      -0.690489       -18.7892
  19   2.0000      -0.669711       -18.2238
  20   2.0000      -0.660658       -17.9774
  21   2.0000      -0.636151       -17.3105
  22   2.0000      -0.613288       -16.6884
  23   2.0000      -0.583771       -15.8852
  24   2.0000      -0.575231       -15.6528
  25   2.0000      -0.557582       -15.1726
  26   2.0000      -0.553326       -15.0568
  27   2.0000      -0.535681       -14.5766
  28   2.0000      -0.531933       -14.4746
  29   2.0000      -0.496469       -13.5096
  30   2.0000      -0.486688       -13.2435
  31   2.0000      -0.462419       -12.5831
  32   2.0000      -0.430810       -11.7229
  33   2.0000      -0.423488       -11.5237
  34   2.0000      -0.343063        -9.3352
  35   0.0000       0.135225         3.6797
  36   0.0000       0.154136         4.1943
  37   0.0000       0.163201         4.4409
  38   0.0000       0.166221         4.5231
  39   0.0000       0.176803         4.8111

MULLIKEN ATOMIC CHARGES
-----------------------
   0 C :   -0.227039
   1 O :   -0.300965
   2 C :    0.054657
   3 C :   -0.406453
   4 C :    0.037048
   5 C :   -0.220114
   6 C :    0.027400
   7 O :   -0.342248
   8 C :   -0.021290
   9 H :    0.112748
  10 H :    0.112660
  11 H :    0.142705
  12 H :    0.075640
  13 H :    0.137302
  14 H :    0.131247
  15 H :    0.132789
  16 H :    0.133516
  17 H :    0.102959
  18 H :    0.102355
  19 H :    0.098270
  20 H :    0.116811
Sum of atomic charges:    0.0000000

LOEWDIN ATOMIC CHARGES
----------------------
   0 C :   -0.358427
   1 O :    0.158098
   2 C :   -0.312432
   3 C :   -0.285657
   4 C :   -0.151414
   5 C :   -0.139904
   6 C :   -0.288796
   7 O :    0.145460
   8 C :   -0.254072
   9 H :    0.100298
  10 H :    0.102607
  11 H :    0.115143
  12 H :    0.143247
  13 H :    0.129685
  14 H :    0.121513
  15 H :    0.126998
  16 H :    0.141210
  17 H :    0.124896
  18 H :    0.123978
  19 H :    0.126081
  20 H :    0.131486

  Mayer bond orders larger than 0.1
B(  0-C ,  1-O ) :   0.9241 B(  0-C ,  9-H ) :   0.9337 B(  0-C , 10-H ) :   0.9365
B(  0-C , 11-H ) :   0.9395 B(  1-O ,  2-C ) :   0.9785 B(  2-C ,  3-C ) :   0.9035
B(  2-C ,  4-C ) :   0.8832 B(  2-C , 12-H ) :   0.9516 B(  3-C , 13-H ) :   0.9329
B(  3-C , 14-H ) :   0.9327 B(  3-C , 15-H ) :   0.9339 B(  4-C ,  5-C ) :   1.7433
B(  4-C ,  8-C ) :   0.9780 B(  5-C ,  6-C ) :   0.9831 B(  5-C , 16-H ) :   0.9125
B(  6-C ,  7-O ) :   0.9398 B(  6-C , 17-H ) :   0.9170 B(  6-C , 18-H ) :   0.9150
B(  7-O ,  8-C ) :   0.9370 B(  8-C , 19-H ) :   0.9061 B(  8-C , 20-H ) :   0.9130

MP2 TOTAL ENERGY:     -423.501318629 Eh
FINAL SINGLE POINT ENERGY      -423.501318629005

DIPOLE MOMENT
-------------
                                X             Y             Z
Electronic contribution:     -3.75540      -5.45650      -0.56010
Nuclear contribution   :      4.20178       6.41726       0.06757
                        -----------------------------------------
Total Dipole Moment    :      0.44639       0.96076      -0.49253
                        -----------------------------------------
Magnitude (a.u.)       :      1.16829
Magnitude (Debye)      :      2.96957

                             ****ORCA TERMINATED NORMALLY****
TOTAL RUN TIME: 0 days 0 hours 17 minutes 43 seconds 717 msec
