                         Program Version 3.0.3 - RELEASE   -
|  1> ! RI-MP2 RIJK def2-TZVP def2-TZVP/C def2-TZVP/JK TIGHTSCF
|  2> % maxcore 2000
|  3> % mp2 density relaxed end
|  4> *xyz 0 1
|  5>  C       -0.0795412143     1.5530029933     0.0302252328
|  6>  C        1.2970444177     2.2425587374     0.1061065177
|  7>  C        2.2284320233     1.7449156357     1.2404845908
|  8>  C        3.6136827163     1.2557536754     0.7778296390
|  9>  C        3.5668130730     0.1596831739    -0.2886934534
| 10>  O        2.7139468801    -0.8905273678     0.1393312938
| 11>  C        1.8893874298    -1.4567714486    -0.8641375366
| 12>  C        0.7287498140    -0.5471864849    -1.2987547655
| 13>  C       -0.0790068488     0.0168708274    -0.1041313977
| 14>  H       -0.6567443792     1.8126746285     0.9276626901
| 15>  H       -0.6301400529     1.9846981522    -0.8164278604
| 16>  H        1.8015023473     2.1405047290    -0.8616615681
| 17>  H        1.1233712762     3.3188841153     0.2172692088
| 18>  H        2.3779156718     2.5436536293     1.9749879212
| 19>  H        1.7482375938     0.9258186125     1.7824008737
| 20>  H        4.2019358799     2.0906482784     0.3738808950
| 21>  H        4.1628030847     0.8810918972     1.6498857502
| 22>  H        3.2188987326     0.5754357814    -1.2426161598
| 23>  H        4.5787888909    -0.2356245451    -0.4679779465
| 24>  H        2.4868356790    -1.7567621250    -1.7400230314
| 25>  H        1.4870132051    -2.3721793837    -0.4152238941
| 26>  H        1.1096865128     0.2707250644    -1.9207661059
| 27>  H        0.0850974136    -1.1382589225    -1.9609953623
| 28>  H        0.3080301399    -0.4232814099     0.8201595028
| 29>  H       -1.1225216166    -0.3089802139    -0.1769537841
| 30> *
| 31>
| 32>                          ****END OF INPUT****

CARTESIAN COORDINATES (ANGSTROEM)
---------------------------------
  C     -0.079541    1.553003    0.030225
  C      1.297044    2.242559    0.106107
  C      2.228432    1.744916    1.240485
  C      3.613683    1.255754    0.777830
  C      3.566813    0.159683   -0.288693
  O      2.713947   -0.890527    0.139331
  C      1.889387   -1.456771   -0.864138
  C      0.728750   -0.547186   -1.298755
  C     -0.079007    0.016871   -0.104131
  H     -0.656744    1.812675    0.927663
  H     -0.630140    1.984698   -0.816428
  H      1.801502    2.140505   -0.861662
  H      1.123371    3.318884    0.217269
  H      2.377916    2.543654    1.974988
  H      1.748238    0.925819    1.782401
  H      4.201936    2.090648    0.373881
  H      4.162803    0.881092    1.649886
  H      3.218899    0.575436   -1.242616
  H      4.578789   -0.235625   -0.467978
  H      2.486836   -1.756762   -1.740023
  H      1.487013   -2.372179   -0.415224
  H      1.109687    0.270725   -1.920766
  H      0.085097   -1.138259   -1.960995
  H      0.308030   -0.423281    0.820160
  H     -1.122522   -0.308980   -0.176954

 Total Charge           Charge          ....    0
 Multiplicity           Mult            ....    1
 Number of Electrons    NEL             ....   72
 Basis Dimension        Dim             ....  375

ORBITAL ENERGIES
----------------

  NO   OCC          E(Eh)            E(eV)
   0   2.0000     -20.543384      -559.0139
   1   2.0000     -11.269362      -306.6549
   2   2.0000     -11.266691      -306.5822
   3   2.0000     -11.216966      -305.2292
   4   2.0000     -11.215219      -305.1816
   5   2.0000     -11.214669      -305.1667
   6   2.0000     -11.212611      -305.1107
   7   2.0000     -11.211928      -305.0921
   8   2.0000     -11.209794      -305.0340
   9   2.0000      -1.364423       -37.1278
  10   2.0000      -1.080712       -29.4077
  11   2.0000      -1.061224       -28.8774
  12   2.0000      -0.982559       -26.7368
  13   2.0000      -0.955309       -25.9953
  14   2.0000      -0.870157       -23.6782
  15   2.0000      -0.837539       -22.7906
  16   2.0000      -0.770967       -20.9791
  17   2.0000      -0.754817       -20.5396
  18   2.0000      -0.672683       -18.3046
  19   2.0000      -0.653851       -17.7922
  20   2.0000      -0.631819       -17.1927
  21   2.0000      -0.613801       -16.7024
  22   2.0000      -0.611462       -16.6387
  23   2.0000      -0.582978       -15.8636
  24   2.0000      -0.556866       -15.1531
  25   2.0000      -0.536107       -14.5882
  26   2.0000      -0.521103       -14.1799
  27   2.0000      -0.513535       -13.9740
  28   2.0000      -0.501007       -13.6331
  29   2.0000      -0.495015       -13.4700
  30   2.0000      -0.464555       -12.6412
  31   2.0000      -0.447737       -12.1835
  32   2.0000      -0.441955       -12.0262
  33   2.0000      -0.440961       -11.9992
  34   2.0000      -0.436194       -11.8694
  35   2.0000      -0.405807       -11.0426
  36   0.0000       0.141640         3.8542
  37   0.0000       0.153464         4.1760
  38   0.0000       0.155007         4.2180
  39   0.0000       0.162639         4.4256
  40   0.0000       0.188848         5.1388

MULLIKEN ATOMIC CHARGES
-----------------------
   0 C :   -0.256699
   1 C :   -0.214672
   2 C :   -0.208650
   3 C :   -0.215757
   4 C :   -0.083712
   5 O :   -0.322578
   6 C :   -0.071892
   7 C :   -0.251109
   8 C :   -0.209113
   9 H :    0.114580
  10 H :    0.112597
  11 H :    0.098620
  12 H :    0.122056
  13 H :    0.120325
  14 H :    0.115563
  15 H :    0.109335
  16 H :    0.115251
  17 H :    0.102717
  18 H :    0.112317
  19 H :    0.106363
  20 H :    0.118726
  21 H :    0.115716
  22 H :    0.122447
  23 H :    0.126703
  24 H :    0.120865
Sum of atomic charges:   -0.0000000

LOEWDIN ATOMIC CHARGES
----------------------
   0 C :   -0.276450
   1 C :   -0.267519
   2 C :   -0.265025
   3 C :   -0.275686
   4 C :   -0.325885
   5 O :    0.153172
   6 C :   -0.333243
   7 C :   -0.275579
   8 C :   -0.268228
   9 H :    0.137488
  10 H :    0.135745
  11 H :    0.132532
  12 H :    0.135854
  13 H :    0.134621
  14 H :    0.140952
  15 H :    0.139131
  16 H :    0.139204
  17 H :    0.120021
  18 H :    0.121334
  19 H :    0.119506
  20 H :    0.129880
  21 H :    0.133608
  22 H :    0.139109
  23 H :    0.140225
  24 H :    0.135232

  Mayer bond orders larger than 0.1
B(  0-C ,  1-C ) :   0.9252 B(  0-C ,  8-C ) :   0.9306 B(  0-C ,  9-H ) :   0.9344
B(  0-C , 10-H ) :   0.9363 B(  1-C ,  2-C ) :   0.8951 B(  1-C , 11-H ) :   0.9402
B(  1-C , 12-H ) :   0.9327 B(  2-C ,  3-C ) :   0.9298 B(  2-C , 13-H ) :   0.9306
B(  2-C , 14-H ) :   0.9326 B(  3-C ,  4-C ) :   0.9507 B(  3-C , 15-H ) :   0.9266
B(  3-C , 16-H ) :   0.9268 B(  4-C ,  5-O ) :   0.9056 B(  4-C , 17-H ) :   0.9408
B(  4-C , 18-H ) :   0.9263 B(  5-O ,  6-C ) :   0.9184 B(  6-C ,  7-C ) :   0.9280
B(  6-C , 19-H ) :   0.9443 B(  6-C , 20-H ) :   0.9362 B(  7-C ,  8-C ) :   0.8711
B(  7-C , 21-H ) :   0.9402 B(  7-C , 22-H ) :   0.9226 B(  8-C , 23-H ) :   0.9349
B(  8-C , 24-H ) :   0.9320

MP2 TOTAL ENERGY:     -388.818892679 Eh
FINAL SINGLE POINT ENERGY      -388.818892678565

DIPOLE MOMENT
-------------
                                X             Y             Z
Electronic contribution:      1.96416      -2.93080       0.81929
Nuclear contribution   :     -2.02844       3.11641      -1.21697
                        -----------------------------------------
Total Dipole Moment    :     -0.06428       0.18562      -0.39769
                        -----------------------------------------
Magnitude (a.u.)       :      0.44356
Magnitude (Debye)      :      1.12743

                             ****ORCA TERMINATED NORMALLY****
TOTAL RUN TIME: 0 days 0 hours 23 minutes 53 seconds 216 msec
