                         Program Version 3.0.3 - RELEASE   -
|  1> ! RI-MP2 RIJK def2-TZVP def2-TZVP/C def2-TZVP/JK TIGHTSCF
|  2> % maxcore 2000
|  3> % mp2 density relaxed end
|  4> *xyz 0 1
|  5>  C       -0.2363135697     1.5097294607    -0.0723625513
|  6>  C        0.0812488202     0.0041810385     0.0212402626
|  7>  C        0.8055758720    -0.5025327729    -1.1810793068
|  8>  C        2.0668605519    -0.9213006637    -1.3405974081
|  9>  C        2.2925413440    -1.3172502738    -2.7649607170
| 10>  O        3.2940077151    -1.7403606418    -3.2853472001
| 11>  N        1.0676039290    -1.0945654463    -3.4052745095
| 12>  C        0.1117224402    -0.6072401345    -2.5234837923
| 13>  O       -1.0349263610    -0.3327709521    -2.7834396249
| 14>  H        0.6816716964     2.1000537216    -0.1494098210
| 15>  H       -0.8565660989     1.7167161829    -0.9474951211
| 16>  H       -0.7786427860     1.8364794803     0.8191997864
| 17>  H        0.6745826608    -0.2030403320     0.9172547841
| 18>  H       -0.8616447765    -0.5474840384     0.1161412784
| 19>  H        2.8533233824    -0.9938790293    -0.6021828072
| 20>  H        0.9001303000    -1.2753048891    -4.3820790521
| 21> *
| 22>
| 23>                          ****END OF INPUT****

CARTESIAN COORDINATES (ANGSTROEM)
---------------------------------
  C     -0.236314    1.509729   -0.072363
  C      0.081249    0.004181    0.021240
  C      0.805576   -0.502533   -1.181079
  C      2.066861   -0.921301   -1.340597
  C      2.292541   -1.317250   -2.764961
  O      3.294008   -1.740361   -3.285347
  N      1.067604   -1.094565   -3.405275
  C      0.111722   -0.607240   -2.523484
  O     -1.034926   -0.332771   -2.783440
  H      0.681672    2.100054   -0.149410
  H     -0.856566    1.716716   -0.947495
  H     -0.778643    1.836479    0.819200
  H      0.674583   -0.203040    0.917255
  H     -0.861645   -0.547484    0.116141
  H      2.853323   -0.993879   -0.602183
  H      0.900130   -1.275305   -4.382079

 Total Charge           Charge          ....    0
 Multiplicity           Mult            ....    1
 Number of Electrons    NEL             ....   66
 Basis Dimension        Dim             ....  321

ORBITAL ENERGIES
----------------

  NO   OCC          E(Eh)            E(eV)
   0   2.0000     -20.563762      -559.5684
   1   2.0000     -20.560303      -559.4743
   2   2.0000     -15.615139      -424.9095
   3   2.0000     -11.385502      -309.8153
   4   2.0000     -11.383817      -309.7694
   5   2.0000     -11.289461      -307.2018
   6   2.0000     -11.273835      -306.7766
   7   2.0000     -11.256429      -306.3030
   8   2.0000     -11.233054      -305.6669
   9   2.0000      -1.430071       -38.9142
  10   2.0000      -1.411056       -38.3968
  11   2.0000      -1.280961       -34.8567
  12   2.0000      -1.130138       -30.7526
  13   2.0000      -1.040597       -28.3161
  14   2.0000      -0.928454       -25.2645
  15   2.0000      -0.880474       -23.9589
  16   2.0000      -0.831002       -22.6127
  17   2.0000      -0.785696       -21.3799
  18   2.0000      -0.716360       -19.4931
  19   2.0000      -0.665604       -18.1120
  20   2.0000      -0.659057       -17.9339
  21   2.0000      -0.649544       -17.6750
  22   2.0000      -0.637309       -17.3421
  23   2.0000      -0.618942       -16.8423
  24   2.0000      -0.600219       -16.3328
  25   2.0000      -0.558438       -15.1959
  26   2.0000      -0.546643       -14.8749
  27   2.0000      -0.530084       -14.4243
  28   2.0000      -0.518071       -14.0974
  29   2.0000      -0.475622       -12.9423
  30   2.0000      -0.441308       -12.0086
  31   2.0000      -0.438237       -11.9250
  32   2.0000      -0.404810       -11.0154
  33   0.0000       0.046038         1.2527
  34   0.0000       0.130744         3.5577
  35   0.0000       0.149054         4.0560
  36   0.0000       0.161241         4.3876
  37   0.0000       0.174269         4.7421

MULLIKEN ATOMIC CHARGES
-----------------------
   0 C :   -0.408568
   1 C :   -0.190345
   2 C :    0.034852
   3 C :   -0.212861
   4 C :    0.291982
   5 O :   -0.283528
   6 N :   -0.280207
   7 C :    0.234658
   8 O :   -0.290333
   9 H :    0.129510
  10 H :    0.157909
  11 H :    0.137040
  12 H :    0.130931
  13 H :    0.135608
  14 H :    0.158372
  15 H :    0.254979
Sum of atomic charges:   -0.0000000

LOEWDIN ATOMIC CHARGES
----------------------
   0 C :   -0.299198
   1 C :   -0.241476
   2 C :   -0.109463
   3 C :   -0.068943
   4 C :   -0.391057
   5 O :    0.141770
   6 N :    0.168245
   7 C :   -0.366293
   8 O :    0.138954
   9 H :    0.122755
  10 H :    0.129442
  11 H :    0.124298
  12 H :    0.146705
  13 H :    0.156657
  14 H :    0.151623
  15 H :    0.195983

  Mayer bond orders larger than 0.1
B(  0-C ,  1-C ) :   0.9031 B(  0-C ,  9-H ) :   0.9345 B(  0-C , 10-H ) :   0.9352
B(  0-C , 11-H ) :   0.9343 B(  1-C ,  2-C ) :   0.8880 B(  1-C , 12-H ) :   0.9474
B(  1-C , 13-H ) :   0.9166 B(  2-C ,  3-C ) :   1.6347 B(  2-C ,  7-C ) :   0.8963
B(  3-C ,  4-C ) :   0.9752 B(  3-C , 14-H ) :   0.9250 B(  4-C ,  5-O ) :   2.0062
B(  4-C ,  6-N ) :   1.0289 B(  6-N ,  7-C ) :   1.0874 B(  6-N , 15-H ) :   0.8522
B(  7-C ,  8-O ) :   2.0126

MP2 TOTAL ENERGY:     -437.242524997 Eh
FINAL SINGLE POINT ENERGY      -437.242524997311

DIPOLE MOMENT
-------------
                                X             Y             Z
Electronic contribution:      3.48602      -5.75766      -8.01443
Nuclear contribution   :     -3.59038       6.01563       8.77135
                        -----------------------------------------
Total Dipole Moment    :     -0.10436       0.25797       0.75692
                        -----------------------------------------
Magnitude (a.u.)       :      0.80646
Magnitude (Debye)      :      2.04985

                             ****ORCA TERMINATED NORMALLY****
TOTAL RUN TIME: 0 days 0 hours 15 minutes 31 seconds 667 msec
