                         Program Version 3.0.3 - RELEASE   -
|  1> ! RI-MP2 RIJK def2-TZVP def2-TZVP/C def2-TZVP/JK TIGHTSCF
|  2> % maxcore 2000
|  3> % mp2 density relaxed end
|  4> *xyz 0 1
|  5>  C        0.0426224543     1.7378196596     0.0752609993
|  6>  C        0.0617261667     0.1989148567    -0.0073736017
|  7>  N        0.6958796940    -0.2734144304    -1.2399862888
|  8>  C       -0.0327155646    -0.6526078751    -2.3237529317
|  9>  O       -1.2426305860    -0.6074173815    -2.3948557442
| 10>  C        0.7146756656    -0.3988540726     1.1538129385
| 11>  C        1.2722308272    -0.8722831153     2.1179350550
| 12>  C        1.8984624885    -1.4054313036     3.2020087462
| 13>  C        2.4548125087    -1.8791114453     4.1631518762
| 14>  H        1.0602127752     2.1379522276     0.0869873978
| 15>  H       -0.4891833460     2.1378999851    -0.7913478027
| 16>  H       -0.4670265225     2.0626198060     0.9861584861
| 17>  H       -0.9736954143    -0.1561516374    -0.0679611494
| 18>  H        1.6991322477    -0.3670845095    -1.2597987804
| 19>  H        0.6120719160    -1.0099373575    -3.1499403619
| 20>  H        2.9427334097    -2.2954055268     5.0093755015
| 21> *
| 22>
| 23>                          ****END OF INPUT****

CARTESIAN COORDINATES (ANGSTROEM)
---------------------------------
  C      0.042622    1.737820    0.075261
  C      0.061726    0.198915   -0.007374
  N      0.695880   -0.273414   -1.239986
  C     -0.032716   -0.652608   -2.323753
  O     -1.242631   -0.607417   -2.394856
  C      0.714676   -0.398854    1.153813
  C      1.272231   -0.872283    2.117935
  C      1.898462   -1.405431    3.202009
  C      2.454813   -1.879111    4.163152
  H      1.060213    2.137952    0.086987
  H     -0.489183    2.137900   -0.791348
  H     -0.467027    2.062620    0.986158
  H     -0.973695   -0.156152   -0.067961
  H      1.699132   -0.367085   -1.259799
  H      0.612072   -1.009937   -3.149940
  H      2.942733   -2.295406    5.009376

 Total Charge           Charge          ....    0
 Multiplicity           Mult            ....    1
 Number of Electrons    NEL             ....   64
 Basis Dimension        Dim             ....  321

ORBITAL ENERGIES
----------------

  NO   OCC          E(Eh)            E(eV)
   0   2.0000     -20.531691      -558.6957
   1   2.0000     -15.601753      -424.5453
   2   2.0000     -11.358709      -309.0862
   3   2.0000     -11.311833      -307.8106
   4   2.0000     -11.265854      -306.5595
   5   2.0000     -11.264384      -306.5195
   6   2.0000     -11.260546      -306.4150
   7   2.0000     -11.256505      -306.3051
   8   2.0000     -11.236937      -305.7726
   9   2.0000      -1.393204       -37.9110
  10   2.0000      -1.254057       -34.1246
  11   2.0000      -1.103175       -30.0189
  12   2.0000      -1.062619       -28.9153
  13   2.0000      -1.006921       -27.3997
  14   2.0000      -0.911003       -24.7896
  15   2.0000      -0.844689       -22.9852
  16   2.0000      -0.817268       -22.2390
  17   2.0000      -0.763721       -20.7819
  18   2.0000      -0.717214       -19.5164
  19   2.0000      -0.674486       -18.3537
  20   2.0000      -0.652593       -17.7579
  21   2.0000      -0.618985       -16.8434
  22   2.0000      -0.605350       -16.4724
  23   2.0000      -0.558303       -15.1922
  24   2.0000      -0.548511       -14.9257
  25   2.0000      -0.533403       -14.5146
  26   2.0000      -0.492568       -13.4035
  27   2.0000      -0.486945       -13.2504
  28   2.0000      -0.442350       -12.0369
  29   2.0000      -0.413451       -11.2506
  30   2.0000      -0.365484        -9.9453
  31   2.0000      -0.361347        -9.8328
  32   0.0000       0.103288         2.8106
  33   0.0000       0.106730         2.9043
  34   0.0000       0.125412         3.4126
  35   0.0000       0.147654         4.0179
  36   0.0000       0.155633         4.2350

MULLIKEN ATOMIC CHARGES
-----------------------
   0 C :   -0.364330
   1 C :   -0.003416
   2 N :   -0.323485
   3 C :    0.201412
   4 O :   -0.365386
   5 C :   -0.163182
   6 C :    0.051021
   7 C :   -0.006716
   8 C :   -0.139088
   9 H :    0.122566
  10 H :    0.155681
  11 H :    0.139324
  12 H :    0.162869
  13 H :    0.247803
  14 H :    0.088061
  15 H :    0.196866
Sum of atomic charges:   -0.0000000

LOEWDIN ATOMIC CHARGES
----------------------
   0 C :   -0.267493
   1 C :   -0.282644
   2 N :    0.115066
   3 C :   -0.431350
   4 O :    0.058508
   5 C :   -0.003724
   6 C :   -0.052887
   7 C :   -0.097300
   8 C :   -0.040327
   9 H :    0.125408
  10 H :    0.131851
  11 H :    0.131260
  12 H :    0.179630
  13 H :    0.189958
  14 H :    0.112665
  15 H :    0.131380

  Mayer bond orders larger than 0.1
B(  0-C ,  1-C ) :   0.9412 B(  0-C ,  9-H ) :   0.9217 B(  0-C , 10-H ) :   0.9369
B(  0-C , 11-H ) :   0.9340 B(  1-C ,  2-N ) :   0.7938 B(  1-C ,  5-C ) :   1.0186
B(  1-C , 12-H ) :   0.9238 B(  2-N ,  3-C ) :   1.1638 B(  2-N , 13-H ) :   0.8651
B(  3-C ,  4-O ) :   1.8725 B(  3-C , 14-H ) :   0.9272 B(  5-C ,  6-C ) :   2.5458
B(  5-C ,  8-C ) :   0.1211 B(  6-C ,  7-C ) :   1.2893 B(  7-C ,  8-C ) :   2.5435
B(  8-C , 15-H ) :   0.8865

MP2 TOTAL ENERGY:     -400.006977254 Eh
FINAL SINGLE POINT ENERGY      -400.006977253654

DIPOLE MOMENT
-------------
                                X             Y             Z
Electronic contribution:      0.99544      -4.81978       2.19317
Nuclear contribution   :      0.22147       5.08022      -1.76972
                        -----------------------------------------
Total Dipole Moment    :      1.21692       0.26044       0.42345
                        -----------------------------------------
Magnitude (a.u.)       :      1.31454
Magnitude (Debye)      :      3.34130

                             ****ORCA TERMINATED NORMALLY****
TOTAL RUN TIME: 0 days 0 hours 14 minutes 20 seconds 861 msec
