                         Program Version 3.0.3 - RELEASE   -
|  1> ! RI-MP2 RIJK def2-TZVP def2-TZVP/C def2-TZVP/JK TIGHTSCF
|  2> % maxcore 2000
|  3> % mp2 density relaxed end
|  4> *xyz 0 1
|  5>  C       -0.0472049023     1.5337573221    -0.0489997773
|  6>  C        0.0157407333     0.0313135079     0.0966126857
|  7>  N        1.2545516235    -0.7589459986    -0.1672902211
|  8>  C        2.4507009488     0.0444886519    -0.1704377453
|  9>  O        3.1060390372     0.3082420374    -1.1460445485
| 10>  N        2.7176604659     0.4265592288     1.1231608766
| 11>  C        1.6908029349     0.0761206299     2.0798989562
| 12>  C        0.6955712241    -0.6984339394     1.2025298946
| 13>  C        0.1114997140    -1.9642777416     1.7787063791
| 14>  H        0.7879298372     2.0466552568     0.4318086310
| 15>  H       -0.0469164160     1.8130264749    -1.1072821092
| 16>  H       -0.9766265962     1.9044670936     0.3957044989
| 17>  H       -0.8526261616    -0.4726712956    -0.3250268753
| 18>  H        3.5004363815     1.0270665792     1.3225538672
| 19>  H        2.0761647296    -0.5745735350     2.8749957446
| 20>  H        1.2436712146     0.9582991343     2.5585752771
| 21>  H       -0.5113656951    -1.7417562110     2.6527447361
| 22>  H       -0.5075775634    -2.4763818786     1.0381548825
| 23>  H        0.9039341701    -2.6520153971     2.0929112171
| 24> *
| 25>
| 26>                          ****END OF INPUT****

CARTESIAN COORDINATES (ANGSTROEM)
---------------------------------
  C     -0.047205    1.533757   -0.049000
  C      0.015741    0.031314    0.096613
  N      1.254552   -0.758946   -0.167290
  C      2.450701    0.044489   -0.170438
  O      3.106039    0.308242   -1.146045
  N      2.717660    0.426559    1.123161
  C      1.690803    0.076121    2.079899
  C      0.695571   -0.698434    1.202530
  C      0.111500   -1.964278    1.778706
  H      0.787930    2.046655    0.431809
  H     -0.046916    1.813026   -1.107282
  H     -0.976627    1.904467    0.395704
  H     -0.852626   -0.472671   -0.325027
  H      3.500436    1.027067    1.322554
  H      2.076165   -0.574574    2.874996
  H      1.243671    0.958299    2.558575
  H     -0.511366   -1.741756    2.652745
  H     -0.507578   -2.476382    1.038155
  H      0.903934   -2.652015    2.092911

 Total Charge           Charge          ....    0
 Multiplicity           Mult            ....    1
 Number of Electrons    NEL             ....   68
 Basis Dimension        Dim             ....  339

ORBITAL ENERGIES
----------------

  NO   OCC          E(Eh)            E(eV)
   0   2.0000     -20.515863      -558.2650
   1   2.0000     -15.585539      -424.1041
   2   2.0000     -15.574282      -423.7978
   3   2.0000     -11.369284      -309.3739
   4   2.0000     -11.287021      -307.1355
   5   2.0000     -11.285286      -307.0882
   6   2.0000     -11.283820      -307.0484
   7   2.0000     -11.235022      -305.7205
   8   2.0000     -11.234224      -305.6988
   9   2.0000      -1.397937       -38.0398
  10   2.0000      -1.309367       -35.6297
  11   2.0000      -1.214946       -33.0604
  12   2.0000      -1.038874       -28.2692
  13   2.0000      -1.014769       -27.6133
  14   2.0000      -0.949014       -25.8240
  15   2.0000      -0.892718       -24.2921
  16   2.0000      -0.797880       -21.7114
  17   2.0000      -0.751452       -20.4480
  18   2.0000      -0.692253       -18.8372
  19   2.0000      -0.687292       -18.7022
  20   2.0000      -0.644574       -17.5397
  21   2.0000      -0.627114       -17.0646
  22   2.0000      -0.608603       -16.5609
  23   2.0000      -0.593068       -16.1382
  24   2.0000      -0.580670       -15.8008
  25   2.0000      -0.564592       -15.3633
  26   2.0000      -0.554624       -15.0921
  27   2.0000      -0.545756       -14.8508
  28   2.0000      -0.505211       -13.7475
  29   2.0000      -0.500665       -13.6238
  30   2.0000      -0.463832       -12.6215
  31   2.0000      -0.422406       -11.4942
  32   2.0000      -0.403865       -10.9897
  33   2.0000      -0.385680       -10.4949
  34   0.0000       0.121479         3.3056
  35   0.0000       0.142431         3.8757
  36   0.0000       0.155277         4.2253
  37   0.0000       0.173077         4.7097
  38   0.0000       0.183889         5.0039

MULLIKEN ATOMIC CHARGES
-----------------------
   0 C :   -0.399647
   1 C :   -0.073332
   2 N :   -0.203958
   3 C :    0.227295
   4 O :   -0.312057
   5 N :   -0.331140
   6 C :   -0.124306
   7 C :    0.154664
   8 C :   -0.418597
   9 H :    0.142602
  10 H :    0.154527
  11 H :    0.141510
  12 H :    0.119989
  13 H :    0.243330
  14 H :    0.127351
  15 H :    0.136631
  16 H :    0.132065
  17 H :    0.145628
  18 H :    0.137446
Sum of atomic charges:   -0.0000000

LOEWDIN ATOMIC CHARGES
----------------------
   0 C :   -0.287360
   1 C :   -0.216417
   2 N :    0.185177
   3 C :   -0.513926
   4 O :    0.099836
   5 N :    0.106735
   6 C :   -0.235593
   7 C :   -0.272727
   8 C :   -0.263608
   9 H :    0.131337
  10 H :    0.136488
  11 H :    0.132638
  12 H :    0.149670
  13 H :    0.184336
  14 H :    0.135240
  15 H :    0.132214
  16 H :    0.130272
  17 H :    0.134837
  18 H :    0.130848

  Mayer bond orders larger than 0.1
B(  0-C ,  1-C ) :   0.9011 B(  0-C ,  9-H ) :   0.9304 B(  0-C , 10-H ) :   0.9339
B(  0-C , 11-H ) :   0.9263 B(  1-C ,  2-N ) :   0.8893 B(  1-C ,  7-C ) :   0.9452
B(  1-C , 12-H ) :   0.9140 B(  2-N ,  3-C ) :   0.9898 B(  2-N ,  7-C ) :   0.8027
B(  3-C ,  4-O ) :   2.0586 B(  3-C ,  5-N ) :   1.1566 B(  5-N ,  6-C ) :   0.9147
B(  5-N , 13-H ) :   0.8659 B(  6-C ,  7-C ) :   0.9055 B(  6-C , 14-H ) :   0.9215
B(  6-C , 15-H ) :   0.9313 B(  7-C ,  8-C ) :   0.8779 B(  8-C , 16-H ) :   0.9344
B(  8-C , 17-H ) :   0.9393 B(  8-C , 18-H ) :   0.9369

MP2 TOTAL ENERGY:     -418.532937053 Eh
FINAL SINGLE POINT ENERGY      -418.532937052721

DIPOLE MOMENT
-------------
                                X             Y             Z
Electronic contribution:      6.44777      -0.29768      -4.48180
Nuclear contribution   :     -7.34318       0.71235       6.23434
                        -----------------------------------------
Total Dipole Moment    :     -0.89541       0.41467       1.75254
                        -----------------------------------------
Magnitude (a.u.)       :      2.01125
Magnitude (Debye)      :      5.11218

                             ****ORCA TERMINATED NORMALLY****
TOTAL RUN TIME: 0 days 0 hours 18 minutes 15 seconds 632 msec
