                         Program Version 3.0.3 - RELEASE   -
|  1> ! RI-MP2 RIJK def2-TZVP def2-TZVP/C def2-TZVP/JK TIGHTSCF
|  2> % maxcore 2000
|  3> % mp2 density relaxed end
|  4> *xyz 0 1
|  5>  O        0.1824219081     1.3628041781    -0.2780645843
|  6>  C        0.1028708781     0.0048287320     0.0438576185
|  7>  C       -0.0814857785    -0.4035530485     1.5217015897
|  8>  O       -1.2524917282    -1.1815769477     1.1923022381
|  9>  C       -1.3042717794    -0.6366645933    -0.1528353577
| 10>  C       -2.4112192569     0.2795150781    -0.3679046514
| 11>  C       -3.3421525283     1.0164324159    -0.5522960963
| 12>  H        1.1085361095     1.6197714164    -0.3094020717
| 13>  H        0.8764059415    -0.5837713606    -0.4633425859
| 14>  H        0.6996971948    -1.0154119989     1.9856926737
| 15>  H       -0.3209488459     0.4527818599     2.1651167917
| 16>  H       -1.3398065597    -1.4441052964    -0.8939471228
| 17>  H       -4.1597963950     1.6751479950    -0.7116612517
| 18> *
| 19>
| 20>                          ****END OF INPUT****

CARTESIAN COORDINATES (ANGSTROEM)
---------------------------------
  O      0.182422    1.362804   -0.278065
  C      0.102871    0.004829    0.043858
  C     -0.081486   -0.403553    1.521702
  O     -1.252492   -1.181577    1.192302
  C     -1.304272   -0.636665   -0.152835
  C     -2.411219    0.279515   -0.367905
  C     -3.342153    1.016432   -0.552296
  H      1.108536    1.619771   -0.309402
  H      0.876406   -0.583771   -0.463343
  H      0.699697   -1.015412    1.985693
  H     -0.320949    0.452782    2.165117
  H     -1.339807   -1.444105   -0.893947
  H     -4.159796    1.675148   -0.711661

 Total Charge           Charge          ....    0
 Multiplicity           Mult            ....    1
 Number of Electrons    NEL             ....   52
 Basis Dimension        Dim             ....  253

ORBITAL ENERGIES
----------------

  NO   OCC          E(Eh)            E(eV)
   0   2.0000     -20.576293      -559.9094
   1   2.0000     -20.560604      -559.4825
   2   2.0000     -11.312867      -307.8388
   3   2.0000     -11.304549      -307.6124
   4   2.0000     -11.283708      -307.0453
   5   2.0000     -11.230907      -305.6085
   6   2.0000     -11.225390      -305.4584
   7   2.0000      -1.402553       -38.1654
   8   2.0000      -1.372487       -37.3473
   9   2.0000      -1.051651       -28.6169
  10   2.0000      -0.999140       -27.1880
  11   2.0000      -0.948739       -25.8165
  12   2.0000      -0.811858       -22.0918
  13   2.0000      -0.747409       -20.3380
  14   2.0000      -0.713961       -19.4279
  15   2.0000      -0.693121       -18.8608
  16   2.0000      -0.658694       -17.9240
  17   2.0000      -0.633958       -17.2509
  18   2.0000      -0.591872       -16.1056
  19   2.0000      -0.570029       -15.5113
  20   2.0000      -0.538857       -14.6630
  21   2.0000      -0.489357       -13.3161
  22   2.0000      -0.454255       -12.3609
  23   2.0000      -0.432924       -11.7805
  24   2.0000      -0.392973       -10.6933
  25   2.0000      -0.382814       -10.4169
  26   0.0000       0.119873         3.2619
  27   0.0000       0.148604         4.0437
  28   0.0000       0.165629         4.5070
  29   0.0000       0.169416         4.6100
  30   0.0000       0.177929         4.8417

MULLIKEN ATOMIC CHARGES
-----------------------
   0 O :   -0.439656
   1 C :    0.018976
   2 C :   -0.029533
   3 O :   -0.318347
   4 C :    0.003514
   5 C :   -0.037505
   6 C :   -0.139482
   7 H :    0.323483
   8 H :    0.098131
   9 H :    0.104628
  10 H :    0.099817
  11 H :    0.123723
  12 H :    0.192250
Sum of atomic charges:   -0.0000000

LOEWDIN ATOMIC CHARGES
----------------------
   0 O :    0.007356
   1 C :   -0.315354
   2 C :   -0.259716
   3 O :    0.143247
   4 C :   -0.252040
   5 C :   -0.081179
   6 C :   -0.073901
   7 H :    0.180505
   8 H :    0.131068
   9 H :    0.115745
  10 H :    0.123513
  11 H :    0.152889
  12 H :    0.127868

  Mayer bond orders larger than 0.1
B(  0-O ,  1-C ) :   1.0968 B(  0-O ,  4-C ) :  -0.1074 B(  0-O ,  7-H ) :   0.8401
B(  1-C ,  2-C ) :   0.9532 B(  1-C ,  4-C ) :   0.9401 B(  1-C ,  8-H ) :   0.9441
B(  2-C ,  3-O ) :   0.9501 B(  2-C ,  9-H ) :   0.9155 B(  2-C , 10-H ) :   0.9008
B(  3-O ,  4-C ) :   0.9561 B(  4-C ,  5-C ) :   1.1215 B(  4-C , 11-H ) :   0.9186
B(  5-C ,  6-C ) :   2.6039 B(  6-C , 12-H ) :   0.8963

MP2 TOTAL ENERGY:     -343.813867439 Eh
FINAL SINGLE POINT ENERGY      -343.813867438905

DIPOLE MOMENT
-------------
                                X             Y             Z
Electronic contribution:     -2.02512      -0.06215      -0.65661
Nuclear contribution   :      3.08681       0.27482       0.38841
                        -----------------------------------------
Total Dipole Moment    :      1.06169       0.21267      -0.26820
                        -----------------------------------------
Magnitude (a.u.)       :      1.11550
Magnitude (Debye)      :      2.83537

                             ****ORCA TERMINATED NORMALLY****
TOTAL RUN TIME: 0 days 0 hours 7 minutes 32 seconds 365 msec
