                         Program Version 3.0.3 - RELEASE   -
|  1> ! RI-MP2 RIJK def2-TZVP def2-TZVP/C def2-TZVP/JK TIGHTSCF
|  2> % maxcore 2000
|  3> % mp2 density relaxed end
|  4> *xyz 0 1
|  5>  C       -0.2857888311     1.4507360190     0.0056143030
|  6>  C       -0.1471761891    -0.0387002327    -0.0086586301
|  7>  C       -0.0592379923    -0.8468644839    -1.0714535132
|  8>  C        0.0723761884    -2.3083712227    -0.6969400715
|  9>  C        0.1239349756    -2.2634955844     0.8246472934
| 10>  O        1.2410903688    -1.5425518387     1.3547821588
| 11>  C       -0.0479964839    -0.8629636284     1.2484999085
| 12>  C       -0.5866331441    -0.4131916390     2.5788838360
| 13>  O        0.1998359244     0.6363077836     3.1227873256
| 14>  H        0.5391170108     1.9196492744     0.5521957764
| 15>  H       -0.3117207240     1.8536562806    -1.0104133699
| 16>  H       -1.2045199568     1.7625320638     0.5172622417
| 17>  H       -0.0408782581    -0.5093336231    -2.1024433982
| 18>  H       -0.7817424028    -2.9052056044    -1.0429996222
| 19>  H        0.9742781473    -2.7703346313    -1.1167818612
| 20>  H       -0.2039657663    -3.1118448087     1.4205136089
| 21>  H       -1.6005193842    -0.0137864033     2.4708452410
| 22>  H       -0.6325331158    -1.2751679449     3.2604699588
| 23>  H        1.1038534730     0.3025370441     3.1622419741
| 24> *
| 25>
| 26>                          ****END OF INPUT****

CARTESIAN COORDINATES (ANGSTROEM)
---------------------------------
  C     -0.285789    1.450736    0.005614
  C     -0.147176   -0.038700   -0.008659
  C     -0.059238   -0.846864   -1.071454
  C      0.072376   -2.308371   -0.696940
  C      0.123935   -2.263496    0.824647
  O      1.241090   -1.542552    1.354782
  C     -0.047996   -0.862964    1.248500
  C     -0.586633   -0.413192    2.578884
  O      0.199836    0.636308    3.122787
  H      0.539117    1.919649    0.552196
  H     -0.311721    1.853656   -1.010413
  H     -1.204520    1.762532    0.517262
  H     -0.040878   -0.509334   -2.102443
  H     -0.781742   -2.905206   -1.043000
  H      0.974278   -2.770335   -1.116782
  H     -0.203966   -3.111845    1.420514
  H     -1.600519   -0.013786    2.470845
  H     -0.632533   -1.275168    3.260470
  H      1.103853    0.302537    3.162242

 Total Charge           Charge          ....    0
 Multiplicity           Mult            ....    1
 Number of Electrons    NEL             ....   68
 Basis Dimension        Dim             ....  339

ORBITAL ENERGIES
----------------

  NO   OCC          E(Eh)            E(eV)
   0   2.0000     -20.566809      -559.6513
   1   2.0000     -20.558432      -559.4234
   2   2.0000     -11.290176      -307.2213
   3   2.0000     -11.289288      -307.1972
   4   2.0000     -11.285428      -307.0921
   5   2.0000     -11.237897      -305.7987
   6   2.0000     -11.237806      -305.7962
   7   2.0000     -11.229326      -305.5655
   8   2.0000     -11.222561      -305.3814
   9   2.0000      -1.412325       -38.4313
  10   2.0000      -1.361233       -37.0410
  11   2.0000      -1.118629       -30.4394
  12   2.0000      -1.019564       -27.7437
  13   2.0000      -0.982846       -26.7446
  14   2.0000      -0.913107       -24.8469
  15   2.0000      -0.873453       -23.7679
  16   2.0000      -0.794585       -21.6217
  17   2.0000      -0.742384       -20.2013
  18   2.0000      -0.699633       -19.0380
  19   2.0000      -0.666704       -18.1419
  20   2.0000      -0.623457       -16.9651
  21   2.0000      -0.614166       -16.7123
  22   2.0000      -0.606133       -16.4937
  23   2.0000      -0.580291       -15.7905
  24   2.0000      -0.569792       -15.5048
  25   2.0000      -0.563000       -15.3200
  26   2.0000      -0.544395       -14.8138
  27   2.0000      -0.519939       -14.1483
  28   2.0000      -0.514078       -13.9888
  29   2.0000      -0.497558       -13.5392
  30   2.0000      -0.469588       -12.7781
  31   2.0000      -0.436728       -11.8840
  32   2.0000      -0.421737       -11.4761
  33   2.0000      -0.343763        -9.3543
  34   0.0000       0.142157         3.8683
  35   0.0000       0.142832         3.8866
  36   0.0000       0.155303         4.2260
  37   0.0000       0.165037         4.4909
  38   0.0000       0.173377         4.7178

MULLIKEN ATOMIC CHARGES
-----------------------
   0 C :   -0.396835
   1 C :   -0.055682
   2 C :   -0.197432
   3 C :   -0.107542
   4 C :   -0.055267
   5 O :   -0.348342
   6 C :    0.151478
   7 C :    0.013750
   8 O :   -0.472653
   9 H :    0.147378
  10 H :    0.135095
  11 H :    0.134242
  12 H :    0.127955
  13 H :    0.116605
  14 H :    0.126132
  15 H :    0.124675
  16 H :    0.115708
  17 H :    0.112395
  18 H :    0.328339
Sum of atomic charges:   -0.0000000

LOEWDIN ATOMIC CHARGES
----------------------
   0 C :   -0.265948
   1 C :   -0.150283
   2 C :   -0.119290
   3 C :   -0.220416
   4 C :   -0.225526
   5 O :    0.168901
   6 C :   -0.257477
   7 C :   -0.303034
   8 O :   -0.039832
   9 H :    0.135585
  10 H :    0.129765
  11 H :    0.133267
  12 H :    0.137943
  13 H :    0.145204
  14 H :    0.149374
  15 H :    0.135393
  16 H :    0.137075
  17 H :    0.128298
  18 H :    0.181000

  Mayer bond orders larger than 0.1
B(  0-C ,  1-C ) :   0.9158 B(  0-C ,  9-H ) :   0.9251 B(  0-C , 10-H ) :   0.9465
B(  0-C , 11-H ) :   0.9280 B(  1-C ,  2-C ) :   1.7606 B(  1-C ,  6-C ) :   0.9431
B(  2-C ,  3-C ) :   0.9497 B(  2-C , 12-H ) :   0.9201 B(  3-C ,  4-C ) :   0.9433
B(  3-C , 13-H ) :   0.9027 B(  3-C , 14-H ) :   0.8940 B(  4-C ,  5-O ) :   0.9374
B(  4-C ,  6-C ) :   0.9221 B(  4-C , 15-H ) :   0.9187 B(  5-O ,  6-C ) :   0.7896
B(  6-C ,  7-C ) :   0.9306 B(  6-C ,  8-O ) :   0.1067 B(  7-C ,  8-O ) :   0.8837
B(  7-C , 16-H ) :   0.9347 B(  7-C , 17-H ) :   0.9067 B(  8-O , 18-H ) :   0.8359

MP2 TOTAL ENERGY:     -422.312145418 Eh
FINAL SINGLE POINT ENERGY      -422.312145417739

DIPOLE MOMENT
-------------
                                X             Y             Z
Electronic contribution:      2.27622      -2.20374       2.13704
Nuclear contribution   :     -2.72757       1.70506      -2.58553
                        -----------------------------------------
Total Dipole Moment    :     -0.45135      -0.49868      -0.44849
                        -----------------------------------------
Magnitude (a.u.)       :      0.80842
Magnitude (Debye)      :      2.05484

                             ****ORCA TERMINATED NORMALLY****
TOTAL RUN TIME: 0 days 0 hours 17 minutes 53 seconds 173 msec
