                         Program Version 3.0.3 - RELEASE   -
|  1> ! RI-MP2 RIJK def2-TZVP def2-TZVP/C def2-TZVP/JK TIGHTSCF
|  2> % maxcore 2000
|  3> % mp2 density relaxed end
|  4> *xyz 0 1
|  5>  C       -0.1212646063     1.4502362739     0.0000770771
|  6>  C        0.0537074338    -0.0373444078     0.0024120618
|  7>  C        0.9347355413    -0.9075472735    -0.8802108467
|  8>  N        0.1045154598    -2.1187988807    -0.5083894492
|  9>  C        0.4206831711    -2.2476302083     0.9686825910
| 10>  C       -0.2729393559    -0.9212817650     1.2146561144
| 11>  C       -1.0164216298    -1.1131988938    -0.0962919501
| 12>  C       -2.3706337867    -1.1236155334    -0.4744848516
| 13>  C       -3.5296473447    -1.1218283323    -0.8035549075
| 14>  H        0.7480250056     1.9516358830     0.4407012061
| 15>  H       -0.2483123704     1.8297644381    -1.0194200010
| 16>  H       -1.0041867066     1.7449383394     0.5763039388
| 17>  H        0.8018872217    -0.6890379174    -1.9433996849
| 18>  H        2.0027334766    -1.0042160866    -0.6520171226
| 19>  H       -0.1284276693    -3.0960941133     1.3840771736
| 20>  H        1.4882567643    -2.3491183260     1.1935574419
| 21>  H       -0.6701357983    -0.4987181724     2.1293883859
| 22>  H       -4.5505452963    -1.1267750540    -1.0945344270
| 23> *
| 24>
| 25>                          ****END OF INPUT****

CARTESIAN COORDINATES (ANGSTROEM)
---------------------------------
  C     -0.121265    1.450236    0.000077
  C      0.053707   -0.037344    0.002412
  C      0.934736   -0.907547   -0.880211
  N      0.104515   -2.118799   -0.508389
  C      0.420683   -2.247630    0.968683
  C     -0.272939   -0.921282    1.214656
  C     -1.016422   -1.113199   -0.096292
  C     -2.370634   -1.123616   -0.474485
  C     -3.529647   -1.121828   -0.803555
  H      0.748025    1.951636    0.440701
  H     -0.248312    1.829764   -1.019420
  H     -1.004187    1.744938    0.576304
  H      0.801887   -0.689038   -1.943400
  H      2.002733   -1.004216   -0.652017
  H     -0.128428   -3.096094    1.384077
  H      1.488257   -2.349118    1.193557
  H     -0.670136   -0.498718    2.129388
  H     -4.550545   -1.126775   -1.094534

 Total Charge           Charge          ....    0
 Multiplicity           Mult            ....    1
 Number of Electrons    NEL             ....   64
 Basis Dimension        Dim             ....  333

ORBITAL ENERGIES
----------------

  NO   OCC          E(Eh)            E(eV)
   0   2.0000     -15.565616      -423.5620
   1   2.0000     -11.282764      -307.0196
   2   2.0000     -11.259408      -306.3841
   3   2.0000     -11.258043      -306.3469
   4   2.0000     -11.257390      -306.3292
   5   2.0000     -11.249972      -306.1273
   6   2.0000     -11.239309      -305.8371
   7   2.0000     -11.231360      -305.6208
   8   2.0000     -11.227875      -305.5260
   9   2.0000      -1.308436       -35.6044
  10   2.0000      -1.069646       -29.1066
  11   2.0000      -1.037601       -28.2345
  12   2.0000      -1.003341       -27.3023
  13   2.0000      -0.946382       -25.7524
  14   2.0000      -0.898734       -24.4558
  15   2.0000      -0.807081       -21.9618
  16   2.0000      -0.747914       -20.3518
  17   2.0000      -0.703765       -19.1504
  18   2.0000      -0.668508       -18.1910
  19   2.0000      -0.649077       -17.6623
  20   2.0000      -0.620689       -16.8898
  21   2.0000      -0.613855       -16.7038
  22   2.0000      -0.571658       -15.5556
  23   2.0000      -0.547004       -14.8847
  24   2.0000      -0.533384       -14.5141
  25   2.0000      -0.494387       -13.4530
  26   2.0000      -0.481432       -13.1004
  27   2.0000      -0.454153       -12.3581
  28   2.0000      -0.444850       -12.1050
  29   2.0000      -0.399697       -10.8763
  30   2.0000      -0.360508        -9.8099
  31   2.0000      -0.338941        -9.2231
  32   0.0000       0.133049         3.6204
  33   0.0000       0.150883         4.1057
  34   0.0000       0.154985         4.2173
  35   0.0000       0.161681         4.3996
  36   0.0000       0.169313         4.6072

MULLIKEN ATOMIC CHARGES
-----------------------
   0 C :   -0.431111
   1 C :   -0.025126
   2 C :   -0.110255
   3 N :   -0.198893
   4 C :   -0.132905
   5 C :   -0.165552
   6 C :   -0.090604
   7 C :    0.037814
   8 C :   -0.111441
   9 H :    0.141976
  10 H :    0.141707
  11 H :    0.141516
  12 H :    0.121308
  13 H :    0.109249
  14 H :    0.127564
  15 H :    0.111571
  16 H :    0.140276
  17 H :    0.192905
Sum of atomic charges:    0.0000000

LOEWDIN ATOMIC CHARGES
----------------------
   0 C :   -0.267188
   1 C :   -0.192608
   2 C :   -0.204125
   3 N :    0.132565
   4 C :   -0.226342
   5 C :   -0.125288
   6 C :   -0.154330
   7 C :   -0.076177
   8 C :   -0.075423
   9 H :    0.131494
  10 H :    0.132648
  11 H :    0.135901
  12 H :    0.137843
  13 H :    0.122069
  14 H :    0.136405
  15 H :    0.121185
  16 H :    0.143566
  17 H :    0.127805

  Mayer bond orders larger than 0.1
B(  0-C ,  1-C ) :   0.8926 B(  0-C ,  9-H ) :   0.9418 B(  0-C , 10-H ) :   0.9394
B(  0-C , 11-H ) :   0.9281 B(  1-C ,  2-C ) :   0.9786 B(  1-C ,  5-C ) :   0.8343
B(  1-C ,  6-C ) :   0.8036 B(  2-C ,  3-N ) :   0.9359 B(  2-C , 12-H ) :   0.9154
B(  2-C , 13-H ) :   0.9195 B(  3-N ,  4-C ) :   0.9332 B(  3-N ,  6-C ) :   0.8815
B(  4-C ,  5-C ) :   0.9909 B(  4-C , 14-H ) :   0.9231 B(  4-C , 15-H ) :   0.9228
B(  5-C ,  6-C ) :   0.7840 B(  5-C , 16-H ) :   0.9203 B(  6-C ,  7-C ) :   1.2339
B(  6-C ,  8-C ) :  -0.1462 B(  7-C ,  8-C ) :   2.6004 B(  8-C , 17-H ) :   0.8632

MP2 TOTAL ENERGY:     -364.037204889 Eh
FINAL SINGLE POINT ENERGY      -364.037204888890

DIPOLE MOMENT
-------------
                                X             Y             Z
Electronic contribution:     -3.36677      -3.70631      -0.96156
Nuclear contribution   :      3.57003       4.41496       1.44002
                        -----------------------------------------
Total Dipole Moment    :      0.20326       0.70864       0.47846
                        -----------------------------------------
Magnitude (a.u.)       :      0.87887
Magnitude (Debye)      :      2.23391

                             ****ORCA TERMINATED NORMALLY****
TOTAL RUN TIME: 0 days 0 hours 19 minutes 15 seconds 297 msec
