                         Program Version 3.0.3 - RELEASE   -
|  1> ! RI-MP2 RIJK def2-TZVP def2-TZVP/C def2-TZVP/JK TIGHTSCF
|  2> % maxcore 2000
|  3> % mp2 density relaxed end
|  4> *xyz 0 1
|  5>  N       -0.0391390467     1.2200414526    -0.0044329549
|  6>  C       -0.1185046673    -0.0194436982    -0.2287086871
|  7>  O       -1.1349573524    -0.7346448788     0.2887496503
|  8>  C       -1.0846338057    -2.1487081291     0.1007790340
|  9>  C       -2.4744059188    -2.7072047645     0.3819417373
| 10>  C       -2.5004570483    -4.2106064327     0.2616037769
| 11>  C       -3.6305622936    -4.9296687677    -0.3368768617
| 12>  O       -2.4165532149    -4.7424086264    -1.0660503736
| 13>  H        0.7701817777     1.6072411321    -0.4851829301
| 14>  H        0.5737699359    -0.6180570327    -0.8379002235
| 15>  H       -0.7837716480    -2.3904623637    -0.9265155823
| 16>  H       -0.3442862053    -2.5863046061     0.7853324554
| 17>  H       -2.7816530024    -2.4120400037     1.3920352915
| 18>  H       -3.1866262261    -2.2647968617    -0.3215838992
| 19>  H       -1.8876985200    -4.7512553881     0.9861390714
| 20>  H       -3.8423927051    -5.9543563232    -0.0352728092
| 21>  H       -4.4878138390    -4.3668999281    -0.7040708953
| 22> *
| 23>
| 24>                          ****END OF INPUT****

CARTESIAN COORDINATES (ANGSTROEM)
---------------------------------
  N     -0.039139    1.220041   -0.004433
  C     -0.118505   -0.019444   -0.228709
  O     -1.134957   -0.734645    0.288750
  C     -1.084634   -2.148708    0.100779
  C     -2.474406   -2.707205    0.381942
  C     -2.500457   -4.210606    0.261604
  C     -3.630562   -4.929669   -0.336877
  O     -2.416553   -4.742409   -1.066050
  H      0.770182    1.607241   -0.485183
  H      0.573770   -0.618057   -0.837900
  H     -0.783772   -2.390462   -0.926516
  H     -0.344286   -2.586305    0.785332
  H     -2.781653   -2.412040    1.392035
  H     -3.186626   -2.264797   -0.321584
  H     -1.887699   -4.751255    0.986139
  H     -3.842393   -5.954356   -0.035273
  H     -4.487814   -4.366900   -0.704071

 Total Charge           Charge          ....    0
 Multiplicity           Mult            ....    1
 Number of Electrons    NEL             ....   62
 Basis Dimension        Dim             ....  302

ORBITAL ENERGIES
----------------

  NO   OCC          E(Eh)            E(eV)
   0   2.0000     -20.592211      -560.3426
   1   2.0000     -20.576276      -559.9089
   2   2.0000     -15.539124      -422.8411
   3   2.0000     -11.337611      -308.5121
   4   2.0000     -11.299675      -307.4798
   5   2.0000     -11.298686      -307.4529
   6   2.0000     -11.291710      -307.2630
   7   2.0000     -11.242896      -305.9348
   8   2.0000      -1.428578       -38.8736
   9   2.0000      -1.419512       -38.6269
  10   2.0000      -1.198364       -32.6091
  11   2.0000      -1.066231       -29.0136
  12   2.0000      -0.945542       -25.7295
  13   2.0000      -0.893503       -24.3134
  14   2.0000      -0.828524       -22.5453
  15   2.0000      -0.815679       -22.1957
  16   2.0000      -0.723983       -19.7006
  17   2.0000      -0.707785       -19.2598
  18   2.0000      -0.677129       -18.4256
  19   2.0000      -0.668892       -18.2015
  20   2.0000      -0.639080       -17.3903
  21   2.0000      -0.587308       -15.9815
  22   2.0000      -0.582519       -15.8512
  23   2.0000      -0.538475       -14.6527
  24   2.0000      -0.531844       -14.4722
  25   2.0000      -0.523600       -14.2479
  26   2.0000      -0.502479       -13.6732
  27   2.0000      -0.457731       -12.4555
  28   2.0000      -0.445370       -12.1191
  29   2.0000      -0.435635       -11.8542
  30   2.0000      -0.401089       -10.9142
  31   0.0000       0.140450         3.8218
  32   0.0000       0.149685         4.0731
  33   0.0000       0.151309         4.1173
  34   0.0000       0.163831         4.4581
  35   0.0000       0.172105         4.6832

MULLIKEN ATOMIC CHARGES
-----------------------
   0 N :   -0.346517
   1 C :    0.069386
   2 O :   -0.207378
   3 C :   -0.093979
   4 C :   -0.199260
   5 C :    0.015328
   6 C :   -0.071241
   7 O :   -0.339395
   8 H :    0.224275
   9 H :    0.079665
  10 H :    0.129930
  11 H :    0.111230
  12 H :    0.129124
  13 H :    0.128735
  14 H :    0.130030
  15 H :    0.119758
  16 H :    0.120310
Sum of atomic charges:   -0.0000000

LOEWDIN ATOMIC CHARGES
----------------------
   0 N :   -0.082986
   1 C :   -0.403292
   2 O :    0.239862
   3 C :   -0.296589
   4 C :   -0.249914
   5 C :   -0.293461
   6 C :   -0.263280
   7 O :    0.138949
   8 H :    0.167553
   9 H :    0.106573
  10 H :    0.129279
  11 H :    0.125573
  12 H :    0.151058
  13 H :    0.150373
  14 H :    0.138581
  15 H :    0.120179
  16 H :    0.121542

  Mayer bond orders larger than 0.1
B(  0-N ,  1-C ) :   1.9498 B(  0-N ,  8-H ) :   0.8509 B(  1-C ,  2-O ) :   1.0556
B(  1-C ,  9-H ) :   0.9291 B(  2-O ,  3-C ) :   0.9009 B(  3-C ,  4-C ) :   0.9475
B(  3-C , 10-H ) :   0.9272 B(  3-C , 11-H ) :   0.9217 B(  4-C ,  5-C ) :   0.9092
B(  4-C , 12-H ) :   0.9259 B(  4-C , 13-H ) :   0.9267 B(  5-C ,  6-C ) :   0.9888
B(  5-C ,  7-O ) :   0.8593 B(  5-C , 14-H ) :   0.9100 B(  6-C ,  7-O ) :   0.9151
B(  6-C , 15-H ) :   0.9223 B(  6-C , 16-H ) :   0.9086

MP2 TOTAL ENERGY:     -400.312646484 Eh
FINAL SINGLE POINT ENERGY      -400.312646484284

DIPOLE MOMENT
-------------
                                X             Y             Z
Electronic contribution:      1.09353       1.96787      -0.62423
Nuclear contribution   :     -0.94943      -2.98981       0.62376
                        -----------------------------------------
Total Dipole Moment    :      0.14411      -1.02194      -0.00046
                        -----------------------------------------
Magnitude (a.u.)       :      1.03205
Magnitude (Debye)      :      2.62327

                             ****ORCA TERMINATED NORMALLY****
TOTAL RUN TIME: 0 days 0 hours 10 minutes 41 seconds 24 msec
