                         Program Version 3.0.3 - RELEASE   -
|  1> ! RI-MP2 RIJK def2-TZVP def2-TZVP/C def2-TZVP/JK TIGHTSCF
|  2> % maxcore 2000
|  3> % mp2 density relaxed end
|  4> *xyz 0 1
|  5>  O       -0.0630210758     1.4937197792     0.0106239167
|  6>  C        0.0398567282     0.0774160382     0.0019997387
|  7>  C       -1.3701165710    -0.4974188862     0.0123960149
|  8>  C       -1.3932304554    -2.0286197445     0.0043850470
|  9>  C       -2.8114519540    -2.6094492928     0.0148259676
| 10>  C       -2.8359237464    -4.1404278452     0.0068402833
| 11>  C       -4.2688462247    -4.7104955805     0.0175131112
| 12>  C       -4.3056530126    -6.1679324287     0.0101301772
| 13>  C       -4.3078091029    -7.3700738117     0.0036137299
| 14>  H        0.8260140527     1.8598027325     0.0039912360
| 15>  H        0.5793844138    -0.2774986814    -0.8918855059
| 16>  H        0.5963585464    -0.2870626670     0.8815156704
| 17>  H       -1.8932020133    -0.1161710962     0.8981751044
| 18>  H       -1.9100134823    -0.1067225721    -0.8590625518
| 19>  H       -0.8574400930    -2.4000719563    -0.8802168331
| 20>  H       -0.8406565665    -2.4095043380     0.8745332087
| 21>  H       -3.3486031710    -2.2399117476     0.8993923697
| 22>  H       -3.3653849703    -2.2304893982    -0.8552856282
| 23>  H       -2.3099312832    -4.5190563685    -0.8776443834
| 24>  H       -2.2931336069    -4.5284706734     0.8769792080
| 25>  H       -4.8033234997    -4.3368362708     0.9011015519
| 26>  H       -4.8201008182    -4.3274938111    -0.8516563042
| 27>  H       -4.3223843540    -8.4314465397    -0.0022160892
| 28> *
| 29>
| 30>                          ****END OF INPUT****

CARTESIAN COORDINATES (ANGSTROEM)
---------------------------------
  O     -0.063021    1.493720    0.010624
  C      0.039857    0.077416    0.002000
  C     -1.370117   -0.497419    0.012396
  C     -1.393230   -2.028620    0.004385
  C     -2.811452   -2.609449    0.014826
  C     -2.835924   -4.140428    0.006840
  C     -4.268846   -4.710496    0.017513
  C     -4.305653   -6.167932    0.010130
  C     -4.307809   -7.370074    0.003614
  H      0.826014    1.859803    0.003991
  H      0.579384   -0.277499   -0.891886
  H      0.596359   -0.287063    0.881516
  H     -1.893202   -0.116171    0.898175
  H     -1.910013   -0.106723   -0.859063
  H     -0.857440   -2.400072   -0.880217
  H     -0.840657   -2.409504    0.874533
  H     -3.348603   -2.239912    0.899392
  H     -3.365385   -2.230489   -0.855286
  H     -2.309931   -4.519056   -0.877644
  H     -2.293134   -4.528471    0.876979
  H     -4.803323   -4.336836    0.901102
  H     -4.820101   -4.327494   -0.851656
  H     -4.322384   -8.431447   -0.002216

 Total Charge           Charge          ....    0
 Multiplicity           Mult            ....    1
 Number of Electrons    NEL             ....   70
 Basis Dimension        Dim             ....  363

ORBITAL ENERGIES
----------------

  NO   OCC          E(Eh)            E(eV)
   0   2.0000     -20.554235      -559.3092
   1   2.0000     -11.274350      -306.7907
   2   2.0000     -11.250120      -306.1313
   3   2.0000     -11.230235      -305.5902
   4   2.0000     -11.229101      -305.5594
   5   2.0000     -11.224539      -305.4352
   6   2.0000     -11.223667      -305.4115
   7   2.0000     -11.217686      -305.2488
   8   2.0000     -11.216050      -305.2042
   9   2.0000      -1.358053       -36.9545
  10   2.0000      -1.101234       -29.9661
  11   2.0000      -1.064743       -28.9731
  12   2.0000      -1.013286       -27.5729
  13   2.0000      -0.959381       -26.1061
  14   2.0000      -0.882362       -24.0103
  15   2.0000      -0.811891       -22.0927
  16   2.0000      -0.795989       -21.6600
  17   2.0000      -0.716081       -19.4856
  18   2.0000      -0.691502       -18.8167
  19   2.0000      -0.667669       -18.1682
  20   2.0000      -0.642951       -17.4956
  21   2.0000      -0.634769       -17.2729
  22   2.0000      -0.594963       -16.1898
  23   2.0000      -0.581851       -15.8330
  24   2.0000      -0.570129       -15.5140
  25   2.0000      -0.536840       -14.6081
  26   2.0000      -0.527450       -14.3527
  27   2.0000      -0.498299       -13.5594
  28   2.0000      -0.489095       -13.3089
  29   2.0000      -0.473881       -12.8950
  30   2.0000      -0.469045       -12.7634
  31   2.0000      -0.463148       -12.6029
  32   2.0000      -0.442488       -12.0407
  33   2.0000      -0.382041       -10.3959
  34   2.0000      -0.380736       -10.3604
  35   0.0000       0.130569         3.5530
  36   0.0000       0.137939         3.7535
  37   0.0000       0.154277         4.1981
  38   0.0000       0.165090         4.4923
  39   0.0000       0.167835         4.5670

MULLIKEN ATOMIC CHARGES
-----------------------
   0 O :   -0.465772
   1 C :   -0.063438
   2 C :   -0.149939
   3 C :   -0.255027
   4 C :   -0.232494
   5 C :   -0.177997
   6 C :   -0.386795
   7 C :   -0.004095
   8 C :   -0.124851
   9 H :    0.314486
  10 H :    0.090746
  11 H :    0.090745
  12 H :    0.110644
  13 H :    0.110642
  14 H :    0.108829
  15 H :    0.108830
  16 H :    0.110423
  17 H :    0.110422
  18 H :    0.117369
  19 H :    0.117369
  20 H :    0.140819
  21 H :    0.140814
  22 H :    0.188272
Sum of atomic charges:   -0.0000000

LOEWDIN ATOMIC CHARGES
----------------------
   0 O :   -0.053482
   1 C :   -0.354404
   2 C :   -0.272560
   3 C :   -0.269061
   4 C :   -0.269918
   5 C :   -0.252541
   6 C :   -0.251037
   7 C :   -0.112942
   8 C :   -0.112000
   9 H :    0.171204
  10 H :    0.113511
  11 H :    0.113511
  12 H :    0.139870
  13 H :    0.139869
  14 H :    0.137206
  15 H :    0.137206
  16 H :    0.138048
  17 H :    0.138048
  18 H :    0.141061
  19 H :    0.141063
  20 H :    0.156078
  21 H :    0.156080
  22 H :    0.125192

  Mayer bond orders larger than 0.1
B(  0-O ,  1-C ) :   1.0230 B(  0-O ,  9-H ) :   0.8498 B(  1-C ,  2-C ) :   0.9398
B(  1-C , 10-H ) :   0.9330 B(  1-C , 11-H ) :   0.9330 B(  2-C ,  3-C ) :   0.9223
B(  2-C , 12-H ) :   0.9250 B(  2-C , 13-H ) :   0.9250 B(  3-C ,  4-C ) :   0.9466
B(  3-C , 14-H ) :   0.9262 B(  3-C , 15-H ) :   0.9262 B(  4-C ,  5-C ) :   0.9338
B(  4-C , 16-H ) :   0.9281 B(  4-C , 17-H ) :   0.9281 B(  5-C ,  6-C ) :   0.9347
B(  5-C , 18-H ) :   0.9280 B(  5-C , 19-H ) :   0.9280 B(  6-C ,  7-C ) :   1.1226
B(  6-C ,  8-C ) :  -0.1213 B(  6-C , 20-H ) :   0.9245 B(  6-C , 21-H ) :   0.9244
B(  7-C ,  8-C ) :   2.6117 B(  8-C , 22-H ) :   0.8958

MP2 TOTAL ENERGY:     -387.576826992 Eh
FINAL SINGLE POINT ENERGY      -387.576826992200

DIPOLE MOMENT
-------------
                                X             Y             Z
Electronic contribution:     -2.13219      -3.25837       0.00322
Nuclear contribution   :      2.73873       3.26205      -0.00921
                        -----------------------------------------
Total Dipole Moment    :      0.60654       0.00368      -0.00599
                        -----------------------------------------
Magnitude (a.u.)       :      0.60658
Magnitude (Debye)      :      1.54182

                             ****ORCA TERMINATED NORMALLY****
TOTAL RUN TIME: 0 days 0 hours 15 minutes 27 seconds 660 msec
