                         Program Version 3.0.3 - RELEASE   -
|  1> ! RI-MP2 RIJK def2-TZVP def2-TZVP/C def2-TZVP/JK TIGHTSCF
|  2> % maxcore 2000
|  3> % mp2 density relaxed end
|  4> *xyz 0 1
|  5>  C       -0.0476442159     1.5134898286    -0.0198334871
|  6>  C        0.0129431434     0.0001818185     0.1064100469
|  7>  O       -1.3037927975    -0.5045978023    -0.0037495738
|  8>  C       -1.4138444837    -1.9172641284     0.0072263276
|  9>  C       -1.4077202165    -2.4753624825     1.4331059413
| 10>  C       -2.7272382950    -2.2567149132    -0.7215246847
| 11>  C       -2.7092019015    -1.9027620778    -2.1349326501
| 12>  C       -2.6812858549    -1.6292166084    -3.3047843575
| 13>  H        0.9563830387     1.9429378600     0.0490324134
| 14>  H       -0.4854750876     1.7975586242    -0.9806859735
| 15>  H       -0.6635402648     1.9407328466     0.7766886638
| 16>  H        0.6468722594    -0.4286108481    -0.6871434008
| 17>  H        0.4661057986    -0.2819824189     1.0704242587
| 18>  H       -0.5782666644    -2.3553720158    -0.5614360994
| 19>  H       -1.4751884734    -3.5680502192     1.4251780924
| 20>  H       -0.4878814082    -2.2029048252     1.9577468579
| 21>  H       -2.2546902453    -2.0774284671     2.0012543995
| 22>  H       -2.9299379775    -3.3289589185    -0.6111584780
| 23>  H       -3.5414878250    -1.7259720166    -0.2123190615
| 24>  H       -2.6639571090    -1.3793349761    -4.3363310652
| 25> *
| 26>
| 27>                          ****END OF INPUT****

CARTESIAN COORDINATES (ANGSTROEM)
---------------------------------
  C     -0.047644    1.513490   -0.019833
  C      0.012943    0.000182    0.106410
  O     -1.303793   -0.504598   -0.003750
  C     -1.413844   -1.917264    0.007226
  C     -1.407720   -2.475362    1.433106
  C     -2.727238   -2.256715   -0.721525
  C     -2.709202   -1.902762   -2.134933
  C     -2.681286   -1.629217   -3.304784
  H      0.956383    1.942938    0.049032
  H     -0.485475    1.797559   -0.980686
  H     -0.663540    1.940733    0.776689
  H      0.646872   -0.428611   -0.687143
  H      0.466106   -0.281982    1.070424
  H     -0.578267   -2.355372   -0.561436
  H     -1.475188   -3.568050    1.425178
  H     -0.487881   -2.202905    1.957747
  H     -2.254690   -2.077428    2.001254
  H     -2.929938   -3.328959   -0.611158
  H     -3.541488   -1.725972   -0.212319
  H     -2.663957   -1.379335   -4.336331

 Total Charge           Charge          ....    0
 Multiplicity           Mult            ....    1
 Number of Electrons    NEL             ....   62
 Basis Dimension        Dim             ....  320

ORBITAL ENERGIES
----------------

  NO   OCC          E(Eh)            E(eV)
   0   2.0000     -20.550360      -559.2037
   1   2.0000     -11.288371      -307.1722
   2   2.0000     -11.273316      -306.7625
   3   2.0000     -11.248349      -306.0831
   4   2.0000     -11.227641      -305.5197
   5   2.0000     -11.220691      -305.3305
   6   2.0000     -11.213132      -305.1248
   7   2.0000     -11.211790      -305.0883
   8   2.0000      -1.375089       -37.4181
   9   2.0000      -1.087430       -29.5905
  10   2.0000      -1.024733       -27.8844
  11   2.0000      -0.992918       -27.0187
  12   2.0000      -0.944611       -25.7042
  13   2.0000      -0.844253       -22.9733
  14   2.0000      -0.807007       -21.9598
  15   2.0000      -0.717217       -19.5165
  16   2.0000      -0.683734       -18.6054
  17   2.0000      -0.656524       -17.8649
  18   2.0000      -0.645254       -17.5583
  19   2.0000      -0.607350       -16.5268
  20   2.0000      -0.577558       -15.7161
  21   2.0000      -0.565427       -15.3861
  22   2.0000      -0.552697       -15.0397
  23   2.0000      -0.539500       -14.6806
  24   2.0000      -0.523777       -14.2527
  25   2.0000      -0.506258       -13.7760
  26   2.0000      -0.486742       -13.2449
  27   2.0000      -0.467606       -12.7242
  28   2.0000      -0.419487       -11.4148
  29   2.0000      -0.379596       -10.3293
  30   2.0000      -0.378740       -10.3060
  31   0.0000       0.134482         3.6594
  32   0.0000       0.152112         4.1392
  33   0.0000       0.168966         4.5978
  34   0.0000       0.170455         4.6383
  35   0.0000       0.177824         4.8388

MULLIKEN ATOMIC CHARGES
-----------------------
   0 C :   -0.367404
   1 C :   -0.050763
   2 O :   -0.294869
   3 C :    0.089810
   4 C :   -0.391070
   5 C :   -0.323693
   6 C :   -0.021907
   7 C :   -0.139590
   8 H :    0.119380
   9 H :    0.134558
  10 H :    0.127507
  11 H :    0.096418
  12 H :    0.086471
  13 H :    0.076529
  14 H :    0.130119
  15 H :    0.133965
  16 H :    0.129589
  17 H :    0.139875
  18 H :    0.138271
  19 H :    0.186802
Sum of atomic charges:   -0.0000000

LOEWDIN ATOMIC CHARGES
----------------------
   0 C :   -0.316516
   1 C :   -0.351401
   2 O :    0.186520
   3 C :   -0.340752
   4 C :   -0.295881
   5 C :   -0.229972
   6 C :   -0.108171
   7 C :   -0.109710
   8 H :    0.123405
   9 H :    0.125329
  10 H :    0.123401
  11 H :    0.117652
  12 H :    0.114507
  13 H :    0.139165
  14 H :    0.125698
  15 H :    0.123071
  16 H :    0.126979
  17 H :    0.159706
  18 H :    0.162017
  19 H :    0.124951

  Mayer bond orders larger than 0.1
B(  0-C ,  1-C ) :   0.9559 B(  0-C ,  8-H ) :   0.9319 B(  0-C ,  9-H ) :   0.9369
B(  0-C , 10-H ) :   0.9363 B(  1-C ,  2-O ) :   0.9229 B(  1-C , 11-H ) :   0.9266
B(  1-C , 12-H ) :   0.9199 B(  2-O ,  3-C ) :   0.9269 B(  3-C ,  4-C ) :   0.9158
B(  3-C ,  5-C ) :   0.9134 B(  3-C , 13-H ) :   0.9318 B(  4-C , 14-H ) :   0.9352
B(  4-C , 15-H ) :   0.9377 B(  4-C , 16-H ) :   0.9311 B(  5-C ,  6-C ) :   1.1405
B(  5-C ,  7-C ) :  -0.1138 B(  5-C , 17-H ) :   0.9244 B(  5-C , 18-H ) :   0.9044
B(  6-C ,  7-C ) :   2.6066 B(  7-C , 19-H ) :   0.8982

MP2 TOTAL ENERGY:     -348.355375578 Eh
FINAL SINGLE POINT ENERGY      -348.355375578236

DIPOLE MOMENT
-------------
                                X             Y             Z
Electronic contribution:     -4.00408      -1.76100      -5.19175
Nuclear contribution   :      4.43469       1.50211       5.50890
                        -----------------------------------------
Total Dipole Moment    :      0.43061      -0.25889       0.31715
                        -----------------------------------------
Magnitude (a.u.)       :      0.59416
Magnitude (Debye)      :      1.51024

                             ****ORCA TERMINATED NORMALLY****
TOTAL RUN TIME: 0 days 0 hours 12 minutes 36 seconds 428 msec
