                         Program Version 3.0.3 - RELEASE   -
|  1> ! RI-MP2 RIJK def2-TZVP def2-TZVP/C def2-TZVP/JK TIGHTSCF
|  2> % maxcore 2000
|  3> % mp2 density relaxed end
|  4> *xyz 0 1
|  5>  O        0.2700220781     1.3546458877     0.1701490226
|  6>  C        0.0300572463    -0.0258482345    -0.0104009648
|  7>  C       -1.0559372904    -0.3782521559    -1.0211911663
|  8>  C       -1.3338107055    -0.4332590401     0.4666415783
|  9>  C       -1.6813034857    -1.7086948892     1.2114932455
| 10>  C       -0.9128230251    -2.9770926858     0.8315852295
| 11>  C        0.5540782767    -3.0005541521     1.2841282802
| 12>  C        1.5001946076    -2.0463491967     0.6030707810
| 13>  C        1.2708211470    -0.8384297578     0.0858529564
| 14>  H        0.7840305706     1.6644567353    -0.5842038189
| 15>  H       -1.4892315134     0.4406670881    -1.5859209249
| 16>  H       -0.9438808877    -1.3080542053    -1.5676486709
| 17>  H       -1.8905753894     0.4276794053     0.8268472812
| 18>  H       -1.5545067501    -1.5308542973     2.2884379076
| 19>  H       -2.7534993689    -1.8922451604     1.0608706580
| 20>  H       -1.4221729967    -3.8306094345     1.2944992626
| 21>  H       -0.9649423473    -3.1463675624    -0.2508961370
| 22>  H        0.5921999528    -2.8277204833     2.3713737882
| 23>  H        0.9446666099    -4.0163760599     1.1454918078
| 24>  H        2.5266584722    -2.4043163099     0.5423001536
| 25>  H        2.1278404192    -0.3217256214    -0.3480699196
| 26> *
| 27>
| 28>                          ****END OF INPUT****

CARTESIAN COORDINATES (ANGSTROEM)
---------------------------------
  O      0.270022    1.354646    0.170149
  C      0.030057   -0.025848   -0.010401
  C     -1.055937   -0.378252   -1.021191
  C     -1.333811   -0.433259    0.466642
  C     -1.681303   -1.708695    1.211493
  C     -0.912823   -2.977093    0.831585
  C      0.554078   -3.000554    1.284128
  C      1.500195   -2.046349    0.603071
  C      1.270821   -0.838430    0.085853
  H      0.784031    1.664457   -0.584204
  H     -1.489232    0.440667   -1.585921
  H     -0.943881   -1.308054   -1.567649
  H     -1.890575    0.427679    0.826847
  H     -1.554507   -1.530854    2.288438
  H     -2.753499   -1.892245    1.060871
  H     -1.422173   -3.830609    1.294499
  H     -0.964942   -3.146368   -0.250896
  H      0.592200   -2.827720    2.371374
  H      0.944667   -4.016376    1.145492
  H      2.526658   -2.404316    0.542300
  H      2.127840   -0.321726   -0.348070

 Total Charge           Charge          ....    0
 Multiplicity           Mult            ....    1
 Number of Electrons    NEL             ....   68
 Basis Dimension        Dim             ....  351

ORBITAL ENERGIES
----------------

  NO   OCC          E(Eh)            E(eV)
   0   2.0000     -20.556689      -559.3759
   1   2.0000     -11.286571      -307.1232
   2   2.0000     -11.228724      -305.5491
   3   2.0000     -11.228014      -305.5298
   4   2.0000     -11.226383      -305.4854
   5   2.0000     -11.225984      -305.4746
   6   2.0000     -11.223298      -305.4015
   7   2.0000     -11.222189      -305.3713
   8   2.0000     -11.220707      -305.3309
   9   2.0000      -1.367248       -37.2047
  10   2.0000      -1.143415       -31.1139
  11   2.0000      -1.073619       -29.2147
  12   2.0000      -1.033995       -28.1364
  13   2.0000      -0.936698       -25.4888
  14   2.0000      -0.871646       -23.7187
  15   2.0000      -0.825521       -22.4636
  16   2.0000      -0.761161       -20.7122
  17   2.0000      -0.715335       -19.4653
  18   2.0000      -0.686544       -18.6818
  19   2.0000      -0.648987       -17.6598
  20   2.0000      -0.646179       -17.5834
  21   2.0000      -0.606539       -16.5048
  22   2.0000      -0.583491       -15.8776
  23   2.0000      -0.571327       -15.5466
  24   2.0000      -0.567277       -15.4364
  25   2.0000      -0.540436       -14.7060
  26   2.0000      -0.517368       -14.0783
  27   2.0000      -0.503034       -13.6883
  28   2.0000      -0.482882       -13.1399
  29   2.0000      -0.467054       -12.7092
  30   2.0000      -0.459822       -12.5124
  31   2.0000      -0.412324       -11.2199
  32   2.0000      -0.400384       -10.8950
  33   2.0000      -0.335573        -9.1314
  34   0.0000       0.134958         3.6724
  35   0.0000       0.150534         4.0962
  36   0.0000       0.155385         4.2282
  37   0.0000       0.163849         4.4586
  38   0.0000       0.169111         4.6018

MULLIKEN ATOMIC CHARGES
-----------------------
   0 O :   -0.469528
   1 C :    0.288220
   2 C :   -0.330410
   3 C :   -0.113099
   4 C :   -0.190469
   5 C :   -0.229257
   6 C :   -0.153020
   7 C :   -0.206772
   8 C :   -0.207903
   9 H :    0.316225
  10 H :    0.134457
  11 H :    0.125962
  12 H :    0.120149
  13 H :    0.112119
  14 H :    0.120862
  15 H :    0.123838
  16 H :    0.112347
  17 H :    0.117991
  18 H :    0.125072
  19 H :    0.115054
  20 H :    0.088162
Sum of atomic charges:    0.0000000

LOEWDIN ATOMIC CHARGES
----------------------
   0 O :    0.017839
   1 C :   -0.325200
   2 C :   -0.189034
   3 C :   -0.185896
   4 C :   -0.246155
   5 C :   -0.260503
   6 C :   -0.256673
   7 C :   -0.170801
   8 C :   -0.145633
   9 H :    0.177080
  10 H :    0.133446
  11 H :    0.133194
  12 H :    0.160709
  13 H :    0.144827
  14 H :    0.145177
  15 H :    0.140549
  16 H :    0.137991
  17 H :    0.149041
  18 H :    0.144321
  19 H :    0.146289
  20 H :    0.149433

  Mayer bond orders larger than 0.1
B(  0-O ,  1-C ) :   0.9317 B(  0-O ,  9-H ) :   0.8421 B(  1-C ,  2-C ) :   0.8436
B(  1-C ,  3-C ) :   0.8403 B(  1-C ,  8-C ) :   0.9710 B(  2-C ,  3-C ) :   0.9056
B(  2-C , 10-H ) :   0.9220 B(  2-C , 11-H ) :   0.9125 B(  3-C ,  4-C ) :   0.9317
B(  3-C , 12-H ) :   0.9227 B(  4-C ,  5-C ) :   0.9194 B(  4-C , 13-H ) :   0.9273
B(  4-C , 14-H ) :   0.9267 B(  5-C ,  6-C ) :   0.9110 B(  5-C , 15-H ) :   0.9326
B(  5-C , 16-H ) :   0.9361 B(  6-C ,  7-C ) :   0.9324 B(  6-C , 17-H ) :   0.9119
B(  6-C , 18-H ) :   0.9321 B(  7-C ,  8-C ) :   1.8099 B(  7-C , 19-H ) :   0.9219
B(  8-C , 20-H ) :   0.9161

MP2 TOTAL ENERGY:     -386.404407391 Eh
FINAL SINGLE POINT ENERGY      -386.404407391120

DIPOLE MOMENT
-------------
                                X             Y             Z
Electronic contribution:      2.07215       4.96810      -0.75279
Nuclear contribution   :     -2.03580      -5.37979       0.38937
                        -----------------------------------------
Total Dipole Moment    :      0.03636      -0.41169      -0.36342
                        -----------------------------------------
Magnitude (a.u.)       :      0.55035
Magnitude (Debye)      :      1.39888

                             ****ORCA TERMINATED NORMALLY****
TOTAL RUN TIME: 0 days 0 hours 19 minutes 4 seconds 485 msec
