                         Program Version 3.0.3 - RELEASE   -
|  1> ! RI-MP2 RIJK def2-TZVP def2-TZVP/C def2-TZVP/JK TIGHTSCF
|  2> % maxcore 2000
|  3> % mp2 density relaxed end
|  4> *xyz 0 1
|  5>  N       -0.1207758072     1.3858948428     0.1105799677
|  6>  C        0.0310772297    -0.0259068225     0.0031811423
|  7>  C        0.6915423081    -0.9465082365    -1.0860712216
|  8>  C        0.0960450530    -1.9060735827    -0.0197376222
|  9>  C        0.6785219640    -0.9579884294     1.0674333257
| 10>  C       -1.1945640574    -1.0115194552    -0.0054993498
| 11>  N       -2.0171281890    -0.9970513611     1.1898612526
| 12>  C       -2.0119503214    -1.0191003685    -1.2280847069
| 13>  N       -2.7181374159    -1.0222407426    -2.1453827664
| 14>  H        0.7488130327     1.8266569497     0.3920037625
| 15>  H       -0.4006709235     1.7955432194    -0.7758216779
| 16>  H        0.2403177764    -0.9535376626    -2.0803671600
| 17>  H        1.7817650134    -0.9157176841    -1.1369895197
| 18>  H        0.1108472859    -2.9937161043    -0.0314587050
| 19>  H        1.7691989509    -0.9209198575     1.1195520313
| 20>  H        0.2094107242    -0.9850082267     2.0476870490
| 21>  H       -2.4045094117    -0.0660999866     1.3183786184
| 22>  H       -2.7967607823    -1.6404556315     1.1024890000
| 23> *
| 24>
| 25>                          ****END OF INPUT****

CARTESIAN COORDINATES (ANGSTROEM)
---------------------------------
  N     -0.120776    1.385895    0.110580
  C      0.031077   -0.025907    0.003181
  C      0.691542   -0.946508   -1.086071
  C      0.096045   -1.906074   -0.019738
  C      0.678522   -0.957988    1.067433
  C     -1.194564   -1.011519   -0.005499
  N     -2.017128   -0.997051    1.189861
  C     -2.011950   -1.019100   -1.228085
  N     -2.718137   -1.022241   -2.145383
  H      0.748813    1.826657    0.392004
  H     -0.400671    1.795543   -0.775822
  H      0.240318   -0.953538   -2.080367
  H      1.781765   -0.915718   -1.136990
  H      0.110847   -2.993716   -0.031459
  H      1.769199   -0.920920    1.119552
  H      0.209411   -0.985008    2.047687
  H     -2.404509   -0.066100    1.318379
  H     -2.796761   -1.640456    1.102489

 Total Charge           Charge          ....    0
 Multiplicity           Mult            ....    1
 Number of Electrons    NEL             ....   66
 Basis Dimension        Dim             ....  333

ORBITAL ENERGIES
----------------

  NO   OCC          E(Eh)            E(eV)
   0   2.0000     -15.567192      -423.6048
   1   2.0000     -15.563379      -423.5011
   2   2.0000     -15.560669      -423.4273
   3   2.0000     -11.311496      -307.8015
   4   2.0000     -11.300748      -307.5090
   5   2.0000     -11.267758      -306.6113
   6   2.0000     -11.265895      -306.5606
   7   2.0000     -11.242508      -305.9242
   8   2.0000     -11.239603      -305.8451
   9   2.0000      -1.275273       -34.7019
  10   2.0000      -1.212914       -33.0051
  11   2.0000      -1.188505       -32.3409
  12   2.0000      -1.154595       -31.4181
  13   2.0000      -0.946899       -25.7664
  14   2.0000      -0.914513       -24.8852
  15   2.0000      -0.854191       -23.2437
  16   2.0000      -0.783540       -21.3212
  17   2.0000      -0.696723       -18.9588
  18   2.0000      -0.692495       -18.8437
  19   2.0000      -0.680940       -18.5293
  20   2.0000      -0.662262       -18.0211
  21   2.0000      -0.644085       -17.5264
  22   2.0000      -0.568923       -15.4812
  23   2.0000      -0.548605       -14.9283
  24   2.0000      -0.531837       -14.4720
  25   2.0000      -0.519195       -14.1280
  26   2.0000      -0.500283       -13.6134
  27   2.0000      -0.481593       -13.1048
  28   2.0000      -0.473382       -12.8814
  29   2.0000      -0.461478       -12.5575
  30   2.0000      -0.435310       -11.8454
  31   2.0000      -0.416246       -11.3266
  32   2.0000      -0.392983       -10.6936
  33   0.0000       0.122232         3.3261
  34   0.0000       0.139594         3.7985
  35   0.0000       0.153011         4.1637
  36   0.0000       0.171003         4.6532
  37   0.0000       0.178970         4.8700

MULLIKEN ATOMIC CHARGES
-----------------------
   0 N :   -0.543472
   1 C :   -0.011536
   2 C :   -0.234918
   3 C :   -0.160311
   4 C :   -0.178870
   5 C :    0.370241
   6 N :   -0.583051
   7 C :   -0.287166
   8 N :   -0.042205
   9 H :    0.246193
  10 H :    0.248331
  11 H :    0.145772
  12 H :    0.119847
  13 H :    0.154135
  14 H :    0.123778
  15 H :    0.139564
  16 H :    0.249868
  17 H :    0.243800
Sum of atomic charges:    0.0000000

LOEWDIN ATOMIC CHARGES
----------------------
   0 N :   -0.114348
   1 C :   -0.274569
   2 C :   -0.176403
   3 C :   -0.130773
   4 C :   -0.168867
   5 C :   -0.270992
   6 N :   -0.088536
   7 C :   -0.167775
   8 N :    0.056767
   9 H :    0.166252
  10 H :    0.166835
  11 H :    0.137207
  12 H :    0.131358
  13 H :    0.132654
  14 H :    0.131265
  15 H :    0.136652
  16 H :    0.169914
  17 H :    0.163359

  Mayer bond orders larger than 0.1
B(  0-N ,  1-C ) :   1.0112 B(  0-N ,  9-H ) :   0.8796 B(  0-N , 10-H ) :   0.8789
B(  1-C ,  2-C ) :   0.9360 B(  1-C ,  4-C ) :   0.9143 B(  1-C ,  5-C ) :   0.8148
B(  2-C ,  3-C ) :   0.9484 B(  2-C , 11-H ) :   0.9181 B(  2-C , 12-H ) :   0.9322
B(  3-C ,  4-C ) :   0.9319 B(  3-C ,  5-C ) :   0.8619 B(  3-C , 13-H ) :   0.8842
B(  4-C , 14-H ) :   0.9339 B(  4-C , 15-H ) :   0.9024 B(  5-C ,  6-N ) :   0.9162
B(  5-C ,  7-C ) :   0.9061 B(  6-N , 16-H ) :   0.8776 B(  6-N , 17-H ) :   0.8888
B(  7-C ,  8-N ) :   2.8969

MP2 TOTAL ENERGY:     -397.407065878 Eh
FINAL SINGLE POINT ENERGY      -397.407065877914

DIPOLE MOMENT
-------------
                                X             Y             Z
Electronic contribution:     -4.37260      -0.93249      -2.93510
Nuclear contribution   :      5.41155       1.22954       3.55433
                        -----------------------------------------
Total Dipole Moment    :      1.03895       0.29705       0.61923
                        -----------------------------------------
Magnitude (a.u.)       :      1.24543
Magnitude (Debye)      :      3.16563

                             ****ORCA TERMINATED NORMALLY****
TOTAL RUN TIME: 0 days 0 hours 18 minutes 22 seconds 484 msec
