                         Program Version 3.0.3 - RELEASE   -
|  1> ! RI-MP2 RIJK def2-TZVP def2-TZVP/C def2-TZVP/JK TIGHTSCF
|  2> % maxcore 2000
|  3> % mp2 density relaxed end
|  4> *xyz 0 1
|  5>  C        0.0562770167     1.3795289763    -0.1019589668
|  6>  O        1.4176434733     1.8342001278     0.1097504685
|  7>  C        2.0239109653     0.7555416037     0.6602841996
|  8>  N        3.2013379034     0.4500772175     1.1331651014
|  9>  N        3.0455829620    -0.8946241870     1.3498875018
| 10>  N        1.7908339011    -1.4031807193     1.1344249142
| 11>  C        1.1824291330    -0.3501017326     0.6610042647
| 12>  O       -0.0191110937    -0.0535936992     0.1109713006
| 13>  H       -0.5996069851     1.8791729459     0.6199602214
| 14>  H       -0.2348510475     1.6004356203    -1.1309438936
| 15>  H        3.6276076914    -1.3371282232     2.0433994181
| 16> *
| 17>
| 18>                          ****END OF INPUT****

CARTESIAN COORDINATES (ANGSTROEM)
---------------------------------
  C      0.056277    1.379529   -0.101959
  O      1.417643    1.834200    0.109750
  C      2.023911    0.755542    0.660284
  N      3.201338    0.450077    1.133165
  N      3.045583   -0.894624    1.349888
  N      1.790834   -1.403181    1.134425
  C      1.182429   -0.350102    0.661004
  O     -0.019111   -0.053594    0.110971
  H     -0.599607    1.879173    0.619960
  H     -0.234851    1.600436   -1.130944
  H      3.627608   -1.337128    2.043399

 Total Charge           Charge          ....    0
 Multiplicity           Mult            ....    1
 Number of Electrons    NEL             ....   58
 Basis Dimension        Dim             ....  266

ORBITAL ENERGIES
----------------

  NO   OCC          E(Eh)            E(eV)
   0   2.0000     -20.631338      -561.4073
   1   2.0000     -20.631320      -561.4068
   2   2.0000     -15.662858      -426.2080
   3   2.0000     -15.626513      -425.2190
   4   2.0000     -15.626460      -425.2176
   5   2.0000     -11.384861      -309.7978
   6   2.0000     -11.335826      -308.4635
   7   2.0000     -11.334580      -308.4296
   8   2.0000      -1.509904       -41.0866
   9   2.0000      -1.426634       -38.8207
  10   2.0000      -1.409339       -38.3501
  11   2.0000      -1.202603       -32.7245
  12   2.0000      -1.104414       -30.0526
  13   2.0000      -0.967800       -26.3352
  14   2.0000      -0.886093       -24.1118
  15   2.0000      -0.837588       -22.7919
  16   2.0000      -0.752368       -20.4730
  17   2.0000      -0.726647       -19.7731
  18   2.0000      -0.713882       -19.4257
  19   2.0000      -0.676073       -18.3969
  20   2.0000      -0.659678       -17.9508
  21   2.0000      -0.615627       -16.7521
  22   2.0000      -0.605310       -16.4713
  23   2.0000      -0.585890       -15.9429
  24   2.0000      -0.529122       -14.3981
  25   2.0000      -0.502936       -13.6856
  26   2.0000      -0.489303       -13.3146
  27   2.0000      -0.411896       -11.2083
  28   2.0000      -0.349989        -9.5237
  29   0.0000       0.120714         3.2848
  30   0.0000       0.145786         3.9670
  31   0.0000       0.147274         4.0075
  32   0.0000       0.175863         4.7855
  33   0.0000       0.187370         5.0986

MULLIKEN ATOMIC CHARGES
-----------------------
   0 C :    0.134710
   1 O :   -0.275907
   2 C :    0.155289
   3 N :   -0.197356
   4 N :   -0.031120
   5 N :   -0.197357
   6 C :    0.155289
   7 O :   -0.275907
   8 H :    0.123274
   9 H :    0.136796
  10 H :    0.272288
Sum of atomic charges:    0.0000000

LOEWDIN ATOMIC CHARGES
----------------------
   0 C :   -0.237345
   1 O :    0.236525
   2 C :   -0.403658
   3 N :    0.050483
   4 N :    0.044720
   5 N :    0.050483
   6 C :   -0.403658
   7 O :    0.236526
   8 H :    0.119920
   9 H :    0.123284
  10 H :    0.182720

  Mayer bond orders larger than 0.1
B(  0-C ,  1-O ) :   0.9019 B(  0-C ,  7-O ) :   0.9019 B(  0-C ,  8-H ) :   0.9250
B(  0-C ,  9-H ) :   0.9222 B(  1-O ,  2-C ) :   1.0440 B(  2-C ,  3-N ) :   1.5812
B(  2-C ,  6-C ) :   1.2410 B(  3-N ,  4-N ) :   1.0450 B(  4-N ,  5-N ) :   1.0450
B(  4-N , 10-H ) :   0.8604 B(  5-N ,  6-C ) :   1.5812 B(  6-C ,  7-O ) :   1.0440

MP2 TOTAL ENERGY:     -429.999599772 Eh
FINAL SINGLE POINT ENERGY      -429.999599771763

DIPOLE MOMENT
-------------
                                X             Y             Z
Electronic contribution:      1.34140      -1.02067       0.37935
Nuclear contribution   :     -1.79144       1.36323      -0.31992
                        -----------------------------------------
Total Dipole Moment    :     -0.45004       0.34256       0.05943
                        -----------------------------------------
Magnitude (a.u.)       :      0.56870
Magnitude (Debye)      :      1.44551

                             ****ORCA TERMINATED NORMALLY****
TOTAL RUN TIME: 0 days 0 hours 8 minutes 48 seconds 735 msec
