                         Program Version 3.0.3 - RELEASE   -
|  1> ! RI-MP2 RIJK def2-TZVP def2-TZVP/C def2-TZVP/JK TIGHTSCF
|  2> % maxcore 2000
|  3> % mp2 density relaxed end
|  4> *xyz 0 1
|  5>  C        0.3186739305     1.1211269544    -0.7306850036
|  6>  C        0.0475770367     0.0023090691     0.2783551687
|  7>  O        0.2573355724     0.4501902952     1.6192052535
|  8>  C       -1.3176004800    -0.6136376320     0.1319949779
|  9>  C       -2.1981165002    -0.5689114885    -0.9342009092
| 10>  N       -3.2908967949    -1.2923577315    -0.5839519148
| 11>  C       -4.5102979844    -1.4824647851    -1.3391635176
| 12>  N       -3.1898304928    -1.8012714176     0.6597518835
| 13>  C       -1.9986749688    -1.3983804699     1.0923965877
| 14>  H        1.3052029545     1.5525367172    -0.5441814694
| 15>  H        0.2953449018     0.7439541780    -1.7586267572
| 16>  H       -0.4307222427     1.9157868120    -0.6417946953
| 17>  H        0.8140301304    -0.7725403293     0.1451659929
| 18>  H       -0.4830023285     1.0251195574     1.8447146401
| 19>  H       -2.1303295326    -0.0930178900    -1.8997461846
| 20>  H       -4.3118153674    -1.2934110987    -2.3958879515
| 21>  H       -4.8506272374    -2.5115260358    -1.2121670864
| 22>  H       -5.2989421744    -0.8049752255    -0.9951936705
| 23>  H       -1.6566851220    -1.6774085794     2.0778743157
| 24> *
| 25>
| 26>                          ****END OF INPUT****

CARTESIAN COORDINATES (ANGSTROEM)
---------------------------------
  C      0.318674    1.121127   -0.730685
  C      0.047577    0.002309    0.278355
  O      0.257336    0.450190    1.619205
  C     -1.317600   -0.613638    0.131995
  C     -2.198117   -0.568911   -0.934201
  N     -3.290897   -1.292358   -0.583952
  C     -4.510298   -1.482465   -1.339164
  N     -3.189830   -1.801271    0.659752
  C     -1.998675   -1.398380    1.092397
  H      1.305203    1.552537   -0.544181
  H      0.295345    0.743954   -1.758627
  H     -0.430722    1.915787   -0.641795
  H      0.814030   -0.772540    0.145166
  H     -0.483002    1.025120    1.844715
  H     -2.130330   -0.093018   -1.899746
  H     -4.311815   -1.293411   -2.395888
  H     -4.850627   -2.511526   -1.212167
  H     -5.298942   -0.804975   -0.995194
  H     -1.656685   -1.677409    2.077874

 Total Charge           Charge          ....    0
 Multiplicity           Mult            ....    1
 Number of Electrons    NEL             ....   68
 Basis Dimension        Dim             ....  339

ORBITAL ENERGIES
----------------

  NO   OCC          E(Eh)            E(eV)
   0   2.0000     -20.552573      -559.2639
   1   2.0000     -15.638956      -425.5576
   2   2.0000     -15.581864      -424.0041
   3   2.0000     -11.288819      -307.1844
   4   2.0000     -11.275395      -306.8191
   5   2.0000     -11.273107      -306.7568
   6   2.0000     -11.246792      -306.0408
   7   2.0000     -11.221878      -305.3628
   8   2.0000     -11.220808      -305.3337
   9   2.0000      -1.378062       -37.4990
  10   2.0000      -1.358407       -36.9641
  11   2.0000      -1.123294       -30.5664
  12   2.0000      -1.076909       -29.3042
  13   2.0000      -1.006146       -27.3786
  14   2.0000      -0.947976       -25.7957
  15   2.0000      -0.860717       -23.4213
  16   2.0000      -0.789205       -21.4754
  17   2.0000      -0.774840       -21.0845
  18   2.0000      -0.721208       -19.6251
  19   2.0000      -0.661809       -18.0087
  20   2.0000      -0.653349       -17.7785
  21   2.0000      -0.628530       -17.1032
  22   2.0000      -0.606116       -16.4933
  23   2.0000      -0.599740       -16.3197
  24   2.0000      -0.572420       -15.5763
  25   2.0000      -0.558262       -15.1911
  26   2.0000      -0.548376       -14.9221
  27   2.0000      -0.540813       -14.7163
  28   2.0000      -0.527822       -14.3628
  29   2.0000      -0.486610       -13.2413
  30   2.0000      -0.464030       -12.6269
  31   2.0000      -0.441984       -12.0270
  32   2.0000      -0.352956        -9.6044
  33   2.0000      -0.336560        -9.1583
  34   0.0000       0.127699         3.4749
  35   0.0000       0.139903         3.8070
  36   0.0000       0.151347         4.1184
  37   0.0000       0.164872         4.4864
  38   0.0000       0.171713         4.6725

MULLIKEN ATOMIC CHARGES
-----------------------
   0 C :   -0.386664
   1 C :    0.149442
   2 O :   -0.469894
   3 C :   -0.101017
   4 C :   -0.177881
   5 N :    0.125735
   6 C :   -0.312999
   7 N :   -0.246864
   8 C :   -0.137177
   9 H :    0.146329
  10 H :    0.121345
  11 H :    0.120740
  12 H :    0.103067
  13 H :    0.311658
  14 H :    0.153411
  15 H :    0.143141
  16 H :    0.164946
  17 H :    0.150390
  18 H :    0.142293
Sum of atomic charges:    0.0000000

LOEWDIN ATOMIC CHARGES
----------------------
   0 C :   -0.295864
   1 C :   -0.334907
   2 O :   -0.020967
   3 C :   -0.197806
   4 C :   -0.204380
   5 N :    0.171509
   6 C :   -0.274829
   7 N :    0.043252
   8 C :   -0.245142
   9 H :    0.127144
  10 H :    0.124819
  11 H :    0.122191
  12 H :    0.151954
  13 H :    0.174605
  14 H :    0.140013
  15 H :    0.125647
  16 H :    0.130076
  17 H :    0.123642
  18 H :    0.139043

  Mayer bond orders larger than 0.1
B(  0-C ,  1-C ) :   0.9355 B(  0-C ,  9-H ) :   0.9380 B(  0-C , 10-H ) :   0.9294
B(  0-C , 11-H ) :   0.9268 B(  1-C ,  2-O ) :   0.8964 B(  1-C ,  3-C ) :   0.9667
B(  1-C , 12-H ) :   0.9049 B(  2-O , 13-H ) :   0.8394 B(  3-C ,  4-C ) :   1.3914
B(  3-C ,  8-C ) :   1.3066 B(  4-C ,  5-N ) :   1.2170 B(  4-C ,  7-N ) :   0.1039
B(  4-C , 14-H ) :   0.8952 B(  5-N ,  6-C ) :   0.8663 B(  5-N ,  7-N ) :   1.0177
B(  6-C , 15-H ) :   0.9304 B(  6-C , 16-H ) :   0.9306 B(  6-C , 17-H ) :   0.9268
B(  7-N ,  8-C ) :   1.4851 B(  8-C , 18-H ) :   0.9306

MP2 TOTAL ENERGY:     -418.524180644 Eh
FINAL SINGLE POINT ENERGY      -418.524180643582

DIPOLE MOMENT
-------------
                                X             Y             Z
Electronic contribution:     -1.21700      -3.19064       4.04465
Nuclear contribution   :      0.62743       3.66389      -5.28479
                        -----------------------------------------
Total Dipole Moment    :     -0.58957       0.47325      -1.24014
                        -----------------------------------------
Magnitude (a.u.)       :      1.45242
Magnitude (Debye)      :      3.69175

                             ****ORCA TERMINATED NORMALLY****
TOTAL RUN TIME: 0 days 0 hours 16 minutes 59 seconds 634 msec
