                         Program Version 3.0.3 - RELEASE   -
|  1> ! RI-MP2 RIJK def2-TZVP def2-TZVP/C def2-TZVP/JK TIGHTSCF
|  2> % maxcore 2000
|  3> % mp2 density relaxed end
|  4> *xyz 0 1
|  5>  C       -1.2465222218    -0.4036686147    -0.3610913317
|  6>  N        0.1810648262    -0.1299989221    -0.1445065846
|  7>  C        0.7202824826    -0.6182925527     1.0547187418
|  8>  C        1.1201046996    -1.8599513106     1.4932223852
|  9>  O        1.0540552161    -3.0134583968     0.7834929925
| 10>  N        1.6326232955    -1.8142746920     2.7511364973
| 11>  C        1.5459165837    -0.5413906794     3.1054439090
| 12>  N        1.0143461814     0.2286021429     2.1287686191
| 13>  C        0.7489026698     1.6507788359     2.1737289818
| 14>  H       -1.8327209620     0.0895693548     0.4199658898
| 15>  H       -1.5481959072     0.0169812028    -1.3253395626
| 16>  H       -1.4937044088    -1.4746749616    -0.3487633398
| 17>  H        0.7198873490    -0.4598955603    -0.9367358279
| 18>  H        1.4307260392    -3.6968737262     1.3508571795
| 19>  H        1.8536192933    -0.1336702456     4.0568362450
| 20>  H        1.4568375001     2.1316221146     2.8521049894
| 21>  H        0.8653038837     2.0617893206     1.1695332535
| 22>  H       -0.2701467404     1.8609370504     2.5176857825
| 23> *
| 24>
| 25>                          ****END OF INPUT****

CARTESIAN COORDINATES (ANGSTROEM)
---------------------------------
  C     -1.246522   -0.403669   -0.361091
  N      0.181065   -0.129999   -0.144507
  C      0.720282   -0.618293    1.054719
  C      1.120105   -1.859951    1.493222
  O      1.054055   -3.013458    0.783493
  N      1.632623   -1.814275    2.751136
  C      1.545917   -0.541391    3.105444
  N      1.014346    0.228602    2.128769
  C      0.748903    1.650779    2.173729
  H     -1.832721    0.089569    0.419966
  H     -1.548196    0.016981   -1.325340
  H     -1.493704   -1.474675   -0.348763
  H      0.719887   -0.459896   -0.936736
  H      1.430726   -3.696874    1.350857
  H      1.853619   -0.133670    4.056836
  H      1.456838    2.131622    2.852105
  H      0.865304    2.061789    1.169533
  H     -0.270147    1.860937    2.517686

 Total Charge           Charge          ....    0
 Multiplicity           Mult            ....    1
 Number of Electrons    NEL             ....   68
 Basis Dimension        Dim             ....  333

ORBITAL ENERGIES
----------------

  NO   OCC          E(Eh)            E(eV)
   0   2.0000     -20.576081      -559.9036
   1   2.0000     -15.613186      -424.8564
   2   2.0000     -15.558954      -423.3807
   3   2.0000     -15.539318      -422.8463
   4   2.0000     -11.294373      -307.3355
   5   2.0000     -11.290974      -307.2430
   6   2.0000     -11.273357      -306.7636
   7   2.0000     -11.266018      -306.5639
   8   2.0000     -11.248139      -306.0774
   9   2.0000      -1.402627       -38.1674
  10   2.0000      -1.335683       -36.3458
  11   2.0000      -1.214128       -33.0381
  12   2.0000      -1.172145       -31.8957
  13   2.0000      -0.996286       -27.1103
  14   2.0000      -0.956674       -26.0324
  15   2.0000      -0.904283       -24.6068
  16   2.0000      -0.818704       -22.2781
  17   2.0000      -0.774211       -21.0674
  18   2.0000      -0.723223       -19.6799
  19   2.0000      -0.682962       -18.5843
  20   2.0000      -0.656500       -17.8643
  21   2.0000      -0.634255       -17.2589
  22   2.0000      -0.629764       -17.1368
  23   2.0000      -0.600799       -16.3486
  24   2.0000      -0.587840       -15.9959
  25   2.0000      -0.572465       -15.5776
  26   2.0000      -0.562003       -15.2929
  27   2.0000      -0.546214       -14.8632
  28   2.0000      -0.528375       -14.3778
  29   2.0000      -0.517692       -14.0871
  30   2.0000      -0.453114       -12.3299
  31   2.0000      -0.392249       -10.6736
  32   2.0000      -0.374668       -10.1952
  33   2.0000      -0.288663        -7.8549
  34   0.0000       0.128838         3.5059
  35   0.0000       0.150799         4.1035
  36   0.0000       0.158071         4.3013
  37   0.0000       0.170665         4.6440
  38   0.0000       0.181274         4.9327

MULLIKEN ATOMIC CHARGES
-----------------------
   0 C :   -0.267754
   1 N :   -0.377163
   2 C :    0.026787
   3 C :    0.172123
   4 O :   -0.454460
   5 N :   -0.313336
   6 C :   -0.011451
   7 N :   -0.023036
   8 C :   -0.330623
   9 H :    0.125538
  10 H :    0.131224
  11 H :    0.137975
  12 H :    0.231742
  13 H :    0.339873
  14 H :    0.144839
  15 H :    0.150274
  16 H :    0.171870
  17 H :    0.145576
Sum of atomic charges:   -0.0000000

LOEWDIN ATOMIC CHARGES
----------------------
   0 C :   -0.329717
   1 N :   -0.001711
   2 C :   -0.292212
   3 C :   -0.397350
   4 O :    0.053164
   5 N :    0.080682
   6 C :   -0.311589
   7 N :    0.241444
   8 C :   -0.269811
   9 H :    0.114333
  10 H :    0.113763
  11 H :    0.108362
  12 H :    0.182500
  13 H :    0.197644
  14 H :    0.130628
  15 H :    0.126909
  16 H :    0.131609
  17 H :    0.121351

  Mayer bond orders larger than 0.1
B(  0-C ,  1-N ) :   0.8911 B(  0-C ,  9-H ) :   0.9405 B(  0-C , 10-H ) :   0.9368
B(  0-C , 11-H ) :   0.9304 B(  1-N ,  2-C ) :   1.0604 B(  1-N , 12-H ) :   0.8796
B(  2-C ,  3-C ) :   1.4780 B(  2-C ,  7-N ) :   1.0824 B(  3-C ,  4-O ) :   1.1076
B(  3-C ,  5-N ) :   1.3398 B(  4-O , 13-H ) :   0.8214 B(  5-N ,  6-C ) :   1.4848
B(  6-C ,  7-N ) :   1.2204 B(  6-C , 14-H ) :   0.9239 B(  7-N ,  8-C ) :   0.8594
B(  8-C , 15-H ) :   0.9306 B(  8-C , 16-H ) :   0.9260 B(  8-C , 17-H ) :   0.9280

MP2 TOTAL ENERGY:     -434.573329746 Eh
FINAL SINGLE POINT ENERGY      -434.573329746338

DIPOLE MOMENT
-------------
                                X             Y             Z
Electronic contribution:      4.69436      -5.57905       2.51761
Nuclear contribution   :     -5.01669       6.52512      -2.69864
                        -----------------------------------------
Total Dipole Moment    :     -0.32232       0.94607      -0.18103
                        -----------------------------------------
Magnitude (a.u.)       :      1.01573
Magnitude (Debye)      :      2.58179

                             ****ORCA TERMINATED NORMALLY****
TOTAL RUN TIME: 0 days 0 hours 17 minutes 2 seconds 702 msec
