                         Program Version 3.0.3 - RELEASE   -
|  1> ! RI-MP2 RIJK def2-TZVP def2-TZVP/C def2-TZVP/JK TIGHTSCF
|  2> % maxcore 2000
|  3> % mp2 density relaxed end
|  4> *xyz 0 1
|  5>  C       -0.2693404975     1.6012552254     0.0353881973
|  6>  C       -0.0057563971     0.1158203661    -0.0762120174
|  7>  C        0.6279079667    -0.6272872440    -1.2087419645
|  8>  C        1.5155088892     0.0298869227    -2.2337910291
|  9>  O        1.7426547105     1.4397806814    -2.0928853485
| 10>  C        2.7104185353     0.5393540955    -1.5414799310
| 11>  C        2.5359017390     0.2466297978    -0.0548492843
| 12>  N        1.2967951303    -0.5486186670     0.1197501766
| 13>  H        0.4854312285     2.2119699292    -0.4507710702
| 14>  H       -1.2371356716     1.8323816128    -0.4228860045
| 15>  H       -0.3364700663     1.8777410058     1.0941932293
| 16>  H       -0.7796257390    -0.4595112779     0.4351819258
| 17>  H        0.2357582287    -1.6009426191    -1.4967324739
| 18>  H        1.5227084482    -0.3425283169    -3.2541930125
| 19>  H        3.7015093456     0.5920544394    -1.9873289776
| 20>  H        3.3757663485    -0.3635609637     0.2960398342
| 21>  H        2.5179484510     1.1615847925     0.5473184704
| 22> *
| 23>
| 24>                          ****END OF INPUT****

CARTESIAN COORDINATES (ANGSTROEM)
---------------------------------
  C     -0.269340    1.601255    0.035388
  C     -0.005756    0.115820   -0.076212
  C      0.627908   -0.627287   -1.208742
  C      1.515509    0.029887   -2.233791
  O      1.742655    1.439781   -2.092885
  C      2.710419    0.539354   -1.541480
  C      2.535902    0.246630   -0.054849
  N      1.296795   -0.548619    0.119750
  H      0.485431    2.211970   -0.450771
  H     -1.237136    1.832382   -0.422886
  H     -0.336470    1.877741    1.094193
  H     -0.779626   -0.459511    0.435182
  H      0.235758   -1.600943   -1.496732
  H      1.522708   -0.342528   -3.254193
  H      3.701509    0.592054   -1.987329
  H      3.375766   -0.363561    0.296040
  H      2.517948    1.161585    0.547318

 Total Charge           Charge          ....    0
 Multiplicity           Mult            ....    1
 Number of Electrons    NEL             ....   60
 Basis Dimension        Dim             ....  302

ORBITAL ENERGIES
----------------

  NO   OCC          E(Eh)            E(eV)
   0   2.0000     -20.571873      -559.7891
   1   2.0000     -15.556235      -423.3067
   2   2.0000     -11.293382      -307.3085
   3   2.0000     -11.289332      -307.1984
   4   2.0000     -11.264961      -306.5352
   5   2.0000     -11.261748      -306.4477
   6   2.0000     -11.259313      -306.3815
   7   2.0000     -11.212735      -305.1140
   8   2.0000      -1.420947       -38.6659
   9   2.0000      -1.268571       -34.5196
  10   2.0000      -1.032707       -28.1014
  11   2.0000      -0.979387       -26.6505
  12   2.0000      -0.957195       -26.0466
  13   2.0000      -0.842764       -22.9328
  14   2.0000      -0.797781       -21.7087
  15   2.0000      -0.759096       -20.6561
  16   2.0000      -0.723827       -19.6963
  17   2.0000      -0.653019       -17.7695
  18   2.0000      -0.622590       -16.9415
  19   2.0000      -0.611253       -16.6331
  20   2.0000      -0.581424       -15.8213
  21   2.0000      -0.557934       -15.1821
  22   2.0000      -0.545603       -14.8466
  23   2.0000      -0.530238       -14.4285
  24   2.0000      -0.518937       -14.1210
  25   2.0000      -0.481734       -13.1086
  26   2.0000      -0.466430       -12.6922
  27   2.0000      -0.433043       -11.7837
  28   2.0000      -0.419991       -11.4285
  29   2.0000      -0.356962        -9.7134
  30   0.0000       0.146302         3.9811
  31   0.0000       0.162785         4.4296
  32   0.0000       0.169595         4.6149
  33   0.0000       0.185563         5.0494
  34   0.0000       0.194730         5.2989

MULLIKEN ATOMIC CHARGES
-----------------------
   0 C :   -0.394313
   1 C :   -0.035762
   2 C :   -0.040771
   3 C :   -0.024322
   4 O :   -0.326120
   5 C :   -0.016322
   6 C :   -0.125463
   7 N :   -0.230497
   8 H :    0.164812
   9 H :    0.132877
  10 H :    0.129024
  11 H :    0.108695
  12 H :    0.131885
  13 H :    0.138438
  14 H :    0.129681
  15 H :    0.133148
  16 H :    0.125009
Sum of atomic charges:   -0.0000000

LOEWDIN ATOMIC CHARGES
----------------------
   0 C :   -0.300430
   1 C :   -0.252446
   2 C :   -0.210415
   3 C :   -0.244780
   4 O :    0.169302
   5 C :   -0.257577
   6 C :   -0.254475
   7 N :    0.121246
   8 H :    0.128584
   9 H :    0.132043
  10 H :    0.126819
  11 H :    0.146663
  12 H :    0.143338
  13 H :    0.139174
  14 H :    0.134467
  15 H :    0.140119
  16 H :    0.138369

  Mayer bond orders larger than 0.1
B(  0-C ,  1-C ) :   0.8753 B(  0-C ,  8-H ) :   0.9324 B(  0-C ,  9-H ) :   0.9285
B(  0-C , 10-H ) :   0.9319 B(  1-C ,  2-C ) :   0.9372 B(  1-C ,  7-N ) :   0.8940
B(  1-C , 11-H ) :   0.9296 B(  2-C ,  3-C ) :   0.9550 B(  2-C ,  7-N ) :   0.9046
B(  2-C , 12-H ) :   0.8931 B(  3-C ,  4-O ) :   0.9065 B(  3-C ,  5-C ) :   0.9464
B(  3-C , 13-H ) :   0.9206 B(  4-O ,  5-C ) :   0.8926 B(  5-C ,  6-C ) :   0.9374
B(  5-C , 14-H ) :   0.9190 B(  6-C ,  7-N ) :   0.9347 B(  6-C , 15-H ) :   0.9209
B(  6-C , 16-H ) :   0.9182

MP2 TOTAL ENERGY:     -363.191558002 Eh
FINAL SINGLE POINT ENERGY      -363.191558001572

DIPOLE MOMENT
-------------
                                X             Y             Z
Electronic contribution:      1.96355      -1.48867      -2.72772
Nuclear contribution   :     -1.80976       1.33510       2.52498
                        -----------------------------------------
Total Dipole Moment    :      0.15380      -0.15357      -0.20274
                        -----------------------------------------
Magnitude (a.u.)       :      0.29722
Magnitude (Debye)      :      0.75548

                             ****ORCA TERMINATED NORMALLY****
TOTAL RUN TIME: 0 days 0 hours 13 minutes 21 seconds 837 msec
