                         Program Version 3.0.3 - RELEASE   -
|  1> ! RI-MP2 RIJK def2-TZVP def2-TZVP/C def2-TZVP/JK TIGHTSCF
|  2> % maxcore 2000
|  3> % mp2 density relaxed end
|  4> *xyz 0 1
|  5>  O        0.6241268794     0.2256815863     0.6893403153
|  6>  C       -0.1751976342     0.2376273816    -0.4740832823
|  7>  C       -1.5021026373    -0.4478791187    -0.2805980724
|  8>  C       -2.1952031339    -0.7358271516     1.0057314517
|  9>  C       -1.9109885655    -1.8936113027     0.0493813990
| 10>  C       -2.8202442826    -1.7539847917    -1.1727918199
| 11>  O       -2.4311592625    -0.3665470295    -1.3567963243
| 12>  C       -1.1463344756    -3.0397272034     0.3956431417
| 13>  N       -0.5345367665    -3.9861117987     0.6619217078
| 14>  H        0.2707652670     0.8763151235     1.3042193706
| 15>  H       -0.3803670725     1.2561351673    -0.8397932154
| 16>  H        0.3949739035    -0.2750918977    -1.2548997619
| 17>  H       -1.5585290950    -0.7432360758     1.8832821317
| 18>  H       -3.2216340343    -0.4140031806     1.1591301419
| 19>  H       -2.4953522747    -2.3614890702    -2.0221949292
| 20>  H       -3.8969596954    -1.8680718781    -1.0101571342
| 21> *
| 22>
| 23>                          ****END OF INPUT****

CARTESIAN COORDINATES (ANGSTROEM)
---------------------------------
  O      0.624127    0.225682    0.689340
  C     -0.175198    0.237627   -0.474083
  C     -1.502103   -0.447879   -0.280598
  C     -2.195203   -0.735827    1.005731
  C     -1.910989   -1.893611    0.049381
  C     -2.820244   -1.753985   -1.172792
  O     -2.431159   -0.366547   -1.356796
  C     -1.146334   -3.039727    0.395643
  N     -0.534537   -3.986112    0.661922
  H      0.270765    0.876315    1.304219
  H     -0.380367    1.256135   -0.839793
  H      0.394974   -0.275092   -1.254900
  H     -1.558529   -0.743236    1.883282
  H     -3.221634   -0.414003    1.159130
  H     -2.495352   -2.361489   -2.022195
  H     -3.896960   -1.868072   -1.010157

 Total Charge           Charge          ....    0
 Multiplicity           Mult            ....    1
 Number of Electrons    NEL             ....   66
 Basis Dimension        Dim             ....  321

ORBITAL ENERGIES
----------------

  NO   OCC          E(Eh)            E(eV)
   0   2.0000     -20.588778      -560.2491
   1   2.0000     -20.582772      -560.0857
   2   2.0000     -15.573387      -423.7734
   3   2.0000     -11.334211      -308.4196
   4   2.0000     -11.318938      -308.0040
   5   2.0000     -11.307440      -307.6911
   6   2.0000     -11.295342      -307.3619
   7   2.0000     -11.279267      -306.9245
   8   2.0000     -11.271711      -306.7189
   9   2.0000      -1.432014       -38.9671
  10   2.0000      -1.388167       -37.7739
  11   2.0000      -1.222429       -33.2640
  12   2.0000      -1.157340       -31.4928
  13   2.0000      -1.022267       -27.8173
  14   2.0000      -0.956194       -26.0194
  15   2.0000      -0.880301       -23.9542
  16   2.0000      -0.822378       -22.3780
  17   2.0000      -0.750589       -20.4246
  18   2.0000      -0.716672       -19.5016
  19   2.0000      -0.681189       -18.5361
  20   2.0000      -0.672937       -18.3116
  21   2.0000      -0.630371       -17.1533
  22   2.0000      -0.612267       -16.6606
  23   2.0000      -0.583029       -15.8650
  24   2.0000      -0.578665       -15.7463
  25   2.0000      -0.551208       -14.9991
  26   2.0000      -0.536801       -14.6071
  27   2.0000      -0.531541       -14.4640
  28   2.0000      -0.509885       -13.8747
  29   2.0000      -0.493936       -13.4407
  30   2.0000      -0.462080       -12.5738
  31   2.0000      -0.424566       -11.5530
  32   2.0000      -0.391822       -10.6620
  33   0.0000       0.117472         3.1966
  34   0.0000       0.137188         3.7331
  35   0.0000       0.147078         4.0022
  36   0.0000       0.162833         4.4309
  37   0.0000       0.169138         4.6025

MULLIKEN ATOMIC CHARGES
-----------------------
   0 O :   -0.462231
   1 C :   -0.030343
   2 C :    0.179707
   3 C :   -0.306146
   4 C :    0.083163
   5 C :    0.001228
   6 O :   -0.321767
   7 C :   -0.249845
   8 N :   -0.050857
   9 H :    0.323650
  10 H :    0.135210
  11 H :    0.132182
  12 H :    0.164950
  13 H :    0.151539
  14 H :    0.128495
  15 H :    0.121064
Sum of atomic charges:    0.0000000

LOEWDIN ATOMIC CHARGES
----------------------
   0 O :   -0.022351
   1 C :   -0.302757
   2 C :   -0.263600
   3 C :   -0.139814
   4 C :   -0.190090
   5 C :   -0.189567
   6 O :    0.183021
   7 C :   -0.163092
   8 N :    0.072777
   9 H :    0.178463
  10 H :    0.134885
  11 H :    0.143436
  12 H :    0.154030
  13 H :    0.142573
  14 H :    0.135273
  15 H :    0.126813

  Mayer bond orders larger than 0.1
B(  0-O ,  1-C ) :   0.9402 B(  0-O ,  9-H ) :   0.8416 B(  1-C ,  2-C ) :   0.8609
B(  1-C , 10-H ) :   0.9388 B(  1-C , 11-H ) :   0.9210 B(  2-C ,  3-C ) :   0.9019
B(  2-C ,  4-C ) :   0.8160 B(  2-C ,  6-O ) :   0.9652 B(  3-C ,  4-C ) :   0.8206
B(  3-C , 12-H ) :   0.9261 B(  3-C , 13-H ) :   0.8985 B(  4-C ,  5-C ) :   0.9543
B(  4-C ,  7-C ) :   0.9389 B(  5-C ,  6-O ) :   0.9306 B(  5-C , 14-H ) :   0.9126
B(  5-C , 15-H ) :   0.9075 B(  7-C ,  8-N ) :   2.8616

MP2 TOTAL ENERGY:     -437.126827314 Eh
FINAL SINGLE POINT ENERGY      -437.126827314113

DIPOLE MOMENT
-------------
                                X             Y             Z
Electronic contribution:      0.61346      -3.40262       0.28625
Nuclear contribution   :     -1.56490       4.75516      -0.32051
                        -----------------------------------------
Total Dipole Moment    :     -0.95144       1.35254      -0.03427
                        -----------------------------------------
Magnitude (a.u.)       :      1.65402
Magnitude (Debye)      :      4.20417

                             ****ORCA TERMINATED NORMALLY****
TOTAL RUN TIME: 0 days 0 hours 15 minutes 38 seconds 183 msec
