                         Program Version 3.0.3 - RELEASE   -
|  1> ! RI-MP2 RIJK def2-TZVP def2-TZVP/C def2-TZVP/JK TIGHTSCF
|  2> % maxcore 2000
|  3> % mp2 density relaxed end
|  4> *xyz 0 1
|  5>  C       -0.1050910705     1.5966081111    -0.0269646865
|  6>  C        0.0435241452     0.0765793361    -0.0100627571
|  7>  C        0.8261887270    -0.5321287604    -1.1847878544
|  8>  C        2.3490379465    -0.2734112308    -1.0466150807
|  9>  N        2.5600229997    -1.5903274895    -0.3502066380
| 10>  C        1.1550656476    -1.9734484834    -0.7223078233
| 11>  C        1.5024546016    -1.7319949918     0.6941754064
| 12>  C        0.7891058213    -0.5039550608     1.2387945623
| 13>  O        1.7467983821     0.3711436693     1.8276466075
| 14>  H        0.8666790672     2.0977607642    -0.0308333702
| 15>  H       -0.6552493201     1.9223629602    -0.9154571916
| 16>  H       -0.6639687572     1.9530390096     0.8469301273
| 17>  H       -0.9585007210    -0.3738825507    -0.0164175557
| 18>  H        0.3762433542    -0.3756684193    -2.1658753402
| 19>  H        2.8751946225    -0.3132662630    -2.0034154400
| 20>  H        2.6789108420     0.5967935062    -0.4752911978
| 21>  H        0.8961080923    -2.9223631669    -1.1776289912
| 22>  H        1.7158915139    -2.5564254300     1.3654577519
| 23>  H        0.0618592857    -0.8165092038     2.0025780724
| 24>  H        1.2694680399     1.0833639139     2.2645435090
| 25> *
| 26>
| 27>                          ****END OF INPUT****

CARTESIAN COORDINATES (ANGSTROEM)
---------------------------------
  C     -0.105091    1.596608   -0.026965
  C      0.043524    0.076579   -0.010063
  C      0.826189   -0.532129   -1.184788
  C      2.349038   -0.273411   -1.046615
  N      2.560023   -1.590327   -0.350207
  C      1.155066   -1.973448   -0.722308
  C      1.502455   -1.731995    0.694175
  C      0.789106   -0.503955    1.238795
  O      1.746798    0.371144    1.827647
  H      0.866679    2.097761   -0.030833
  H     -0.655249    1.922363   -0.915457
  H     -0.663969    1.953039    0.846930
  H     -0.958501   -0.373883   -0.016418
  H      0.376243   -0.375668   -2.165875
  H      2.875195   -0.313266   -2.003415
  H      2.678911    0.596794   -0.475291
  H      0.896108   -2.922363   -1.177629
  H      1.715892   -2.556425    1.365458
  H      0.061859   -0.816509    2.002578
  H      1.269468    1.083364    2.264544

 Total Charge           Charge          ....    0
 Multiplicity           Mult            ....    1
 Number of Electrons    NEL             ....   68
 Basis Dimension        Dim             ....  345

ORBITAL ENERGIES
----------------

  NO   OCC          E(Eh)            E(eV)
   0   2.0000     -20.557634      -559.4017
   1   2.0000     -15.554250      -423.2527
   2   2.0000     -11.286162      -307.1121
   3   2.0000     -11.254479      -306.2499
   4   2.0000     -11.252644      -306.2000
   5   2.0000     -11.243986      -305.9644
   6   2.0000     -11.235021      -305.7205
   7   2.0000     -11.234123      -305.6960
   8   2.0000     -11.223199      -305.3988
   9   2.0000      -1.365822       -37.1659
  10   2.0000      -1.290285       -35.1104
  11   2.0000      -1.078129       -29.3374
  12   2.0000      -1.004651       -27.3380
  13   2.0000      -0.953271       -25.9398
  14   2.0000      -0.907906       -24.7054
  15   2.0000      -0.811517       -22.0825
  16   2.0000      -0.771782       -21.0012
  17   2.0000      -0.733358       -19.9557
  18   2.0000      -0.706446       -19.2234
  19   2.0000      -0.687513       -18.7082
  20   2.0000      -0.638537       -17.3755
  21   2.0000      -0.597821       -16.2675
  22   2.0000      -0.588831       -16.0229
  23   2.0000      -0.570967       -15.5368
  24   2.0000      -0.559298       -15.2193
  25   2.0000      -0.540975       -14.7207
  26   2.0000      -0.523348       -14.2410
  27   2.0000      -0.511278       -13.9126
  28   2.0000      -0.496693       -13.5157
  29   2.0000      -0.461219       -12.5504
  30   2.0000      -0.441734       -12.0202
  31   2.0000      -0.418588       -11.3903
  32   2.0000      -0.409101       -11.1322
  33   2.0000      -0.359883        -9.7929
  34   0.0000       0.121400         3.3035
  35   0.0000       0.150218         4.0876
  36   0.0000       0.164363         4.4725
  37   0.0000       0.174891         4.7590
  38   0.0000       0.191073         5.1994

MULLIKEN ATOMIC CHARGES
-----------------------
   0 C :   -0.487429
   1 C :   -0.077539
   2 C :   -0.002397
   3 C :   -0.150081
   4 N :   -0.228292
   5 C :   -0.112198
   6 C :   -0.085953
   7 C :    0.047890
   8 O :   -0.449453
   9 H :    0.148721
  10 H :    0.137870
  11 H :    0.132989
  12 H :    0.092185
  13 H :    0.124190
  14 H :    0.118238
  15 H :    0.117387
  16 H :    0.134592
  17 H :    0.130012
  18 H :    0.094017
  19 H :    0.315250
Sum of atomic charges:   -0.0000000

LOEWDIN ATOMIC CHARGES
----------------------
   0 C :   -0.301364
   1 C :   -0.239122
   2 C :   -0.190383
   3 C :   -0.220092
   4 N :    0.124177
   5 C :   -0.171530
   6 C :   -0.207476
   7 C :   -0.295481
   8 O :   -0.009993
   9 H :    0.125840
  10 H :    0.127352
  11 H :    0.122483
  12 H :    0.156420
  13 H :    0.140858
  14 H :    0.129413
  15 H :    0.124130
  16 H :    0.129923
  17 H :    0.145823
  18 H :    0.136896
  19 H :    0.172127

  Mayer bond orders larger than 0.1
B(  0-C ,  1-C ) :   0.8609 B(  0-C ,  9-H ) :   0.9370 B(  0-C , 10-H ) :   0.9362
B(  0-C , 11-H ) :   0.9427 B(  1-C ,  2-C ) :   0.8892 B(  1-C ,  7-C ) :   0.9328
B(  1-C , 12-H ) :   0.9124 B(  2-C ,  3-C ) :   0.9548 B(  2-C ,  5-C ) :   0.8647
B(  2-C , 13-H ) :   0.9167 B(  3-C ,  4-N ) :   0.9365 B(  3-C , 14-H ) :   0.9209
B(  3-C , 15-H ) :   0.9174 B(  4-N ,  5-C ) :   0.8597 B(  4-N ,  6-C ) :   0.9297
B(  5-C ,  6-C ) :   0.9475 B(  5-C , 16-H ) :   0.9037 B(  6-C ,  7-C ) :   0.8946
B(  6-C , 17-H ) :   0.9326 B(  7-C ,  8-O ) :   1.0696 B(  7-C , 18-H ) :   0.9403
B(  8-O , 19-H ) :   0.8439

MP2 TOTAL ENERGY:     -402.423454400 Eh
FINAL SINGLE POINT ENERGY      -402.423454399552

DIPOLE MOMENT
-------------
                                X             Y             Z
Electronic contribution:      3.27222      -4.43201       1.15416
Nuclear contribution   :     -4.50540       4.91449      -1.19676
                        -----------------------------------------
Total Dipole Moment    :     -1.23319       0.48248      -0.04261
                        -----------------------------------------
Magnitude (a.u.)       :      1.32490
Magnitude (Debye)      :      3.36762

                             ****ORCA TERMINATED NORMALLY****
TOTAL RUN TIME: 0 days 0 hours 20 minutes 50 seconds 911 msec
