                         Program Version 3.0.3 - RELEASE   -
|  1> ! RI-MP2 RIJK def2-TZVP def2-TZVP/C def2-TZVP/JK TIGHTSCF
|  2> % maxcore 2000
|  3> % mp2 density relaxed end
|  4> *xyz 0 1
|  5>  N        0.0863216544    -1.1369465869     0.0435362485
|  6>  C       -0.0043123067     0.0177741873     0.0076958370
|  7>  C       -0.0629123773     1.4266088673    -0.0551563314
|  8>  C       -1.1216446131     2.2493711047    -0.0096646379
|  9>  C       -0.5232674232     3.6454381121     0.0336086120
| 10>  C        0.1363714362     3.7768607907     1.4459400978
| 11>  O        1.2344958646     2.8623403434     1.3355998321
| 12>  C        1.1504422609     2.3823858906    -0.0156732385
| 13>  O        0.6757578217     3.4829140938    -0.7462597965
| 14>  H       -2.1651003629     1.9959237737     0.1103658756
| 15>  H       -1.1215910167     4.4836878136    -0.3133294913
| 16>  H        0.5160930160     4.7905717632     1.6051917000
| 17>  H       -0.5257424553     3.4881219531     2.2672675960
| 18>  H        2.1201690514     2.0268705834    -0.3529888032
| 19> *
| 20>
| 21>                          ****END OF INPUT****

CARTESIAN COORDINATES (ANGSTROEM)
---------------------------------
  N      0.086322   -1.136947    0.043536
  C     -0.004312    0.017774    0.007696
  C     -0.062912    1.426609   -0.055156
  C     -1.121645    2.249371   -0.009665
  C     -0.523267    3.645438    0.033609
  C      0.136371    3.776861    1.445940
  O      1.234496    2.862340    1.335600
  C      1.150442    2.382386   -0.015673
  O      0.675758    3.482914   -0.746260
  H     -2.165100    1.995924    0.110366
  H     -1.121591    4.483688   -0.313329
  H      0.516093    4.790572    1.605192
  H     -0.525742    3.488122    2.267268
  H      2.120169    2.026871   -0.352989

 Total Charge           Charge          ....    0
 Multiplicity           Mult            ....    1
 Number of Electrons    NEL             ....   64
 Basis Dimension        Dim             ....  309

ORBITAL ENERGIES
----------------

  NO   OCC          E(Eh)            E(eV)
   0   2.0000     -20.596921      -560.4707
   1   2.0000     -20.585228      -560.1525
   2   2.0000     -15.584259      -424.0692
   3   2.0000     -11.372506      -309.4616
   4   2.0000     -11.329540      -308.2925
   5   2.0000     -11.307768      -307.7000
   6   2.0000     -11.293207      -307.3038
   7   2.0000     -11.290484      -307.2297
   8   2.0000     -11.287326      -307.1438
   9   2.0000      -1.480919       -40.2979
  10   2.0000      -1.356783       -36.9200
  11   2.0000      -1.229650       -33.4605
  12   2.0000      -1.130413       -30.7601
  13   2.0000      -1.060144       -28.8480
  14   2.0000      -0.907742       -24.7009
  15   2.0000      -0.878236       -23.8980
  16   2.0000      -0.838528       -22.8175
  17   2.0000      -0.783170       -21.3112
  18   2.0000      -0.731079       -19.8937
  19   2.0000      -0.676129       -18.3984
  20   2.0000      -0.658408       -17.9162
  21   2.0000      -0.616330       -16.7712
  22   2.0000      -0.599296       -16.3077
  23   2.0000      -0.585679       -15.9371
  24   2.0000      -0.567332       -15.4379
  25   2.0000      -0.551829       -15.0160
  26   2.0000      -0.528416       -14.3789
  27   2.0000      -0.516476       -14.0540
  28   2.0000      -0.500776       -13.6268
  29   2.0000      -0.468749       -12.7553
  30   2.0000      -0.447834       -12.1862
  31   2.0000      -0.387330       -10.5398
  32   0.0000       0.067448         1.8354
  33   0.0000       0.133081         3.6213
  34   0.0000       0.155935         4.2432
  35   0.0000       0.160724         4.3735
  36   0.0000       0.169957         4.6248

MULLIKEN ATOMIC CHARGES
-----------------------
   0 N :   -0.039450
   1 C :   -0.242190
   2 C :    0.173750
   3 C :   -0.206843
   4 C :    0.044352
   5 C :   -0.042201
   6 O :   -0.304932
   7 C :    0.167796
   8 O :   -0.280685
   9 H :    0.165765
  10 H :    0.161814
  11 H :    0.125805
  12 H :    0.117601
  13 H :    0.159418
Sum of atomic charges:    0.0000000

LOEWDIN ATOMIC CHARGES
----------------------
   0 N :    0.087311
   1 C :   -0.155175
   2 C :   -0.131390
   3 C :   -0.059888
   4 C :   -0.261116
   5 C :   -0.257754
   6 O :    0.166608
   7 C :   -0.312090
   8 O :    0.222401
   9 H :    0.149464
  10 H :    0.146654
  11 H :    0.129478
  12 H :    0.128515
  13 H :    0.146982

  Mayer bond orders larger than 0.1
B(  0-N ,  1-C ) :   2.8369 B(  1-C ,  2-C ) :   0.9044 B(  2-C ,  3-C ) :   1.6660
B(  2-C ,  7-C ) :   0.9184 B(  3-C ,  4-C ) :   0.9663 B(  3-C ,  9-H ) :   0.9194
B(  4-C ,  5-C ) :   0.9268 B(  4-C ,  8-O ) :   0.9182 B(  4-C , 10-H ) :   0.9058
B(  5-C ,  6-O ) :   0.9317 B(  5-C , 11-H ) :   0.9258 B(  5-C , 12-H ) :   0.9059
B(  6-O ,  7-C ) :   0.9539 B(  7-C ,  8-O ) :   1.0163 B(  7-C , 13-H ) :   0.9059

MP2 TOTAL ENERGY:     -435.963074086 Eh
FINAL SINGLE POINT ENERGY      -435.963074085712

DIPOLE MOMENT
-------------
                                X             Y             Z
Electronic contribution:      1.24383      -4.14138      -1.80511
Nuclear contribution   :     -2.05274       5.67601       1.95811
                        -----------------------------------------
Total Dipole Moment    :     -0.80891       1.53463       0.15300
                        -----------------------------------------
Magnitude (a.u.)       :      1.74151
Magnitude (Debye)      :      4.42656

                             ****ORCA TERMINATED NORMALLY****
TOTAL RUN TIME: 0 days 0 hours 16 minutes 4 seconds 947 msec
