                         Program Version 3.0.3 - RELEASE   -
|  1> ! RI-MP2 RIJK def2-TZVP def2-TZVP/C def2-TZVP/JK TIGHTSCF
|  2> % maxcore 2000
|  3> % mp2 density relaxed end
|  4> *xyz 0 1
|  5>  C       -0.0148931450     1.5548420195    -0.0125803361
|  6>  C        0.0702890383     0.0267517911     0.0126367044
|  7>  C        0.8277780108    -0.5209036102    -1.2120189010
|  8>  C        1.0773637495    -2.0286108638    -1.1481174875
|  9>  C        2.3103221853    -2.5542121292    -0.4901704267
| 10>  N        1.0020371259    -2.7628887142     0.1240079150
| 11>  C        0.6454841141    -2.0351490842     1.3380178135
| 12>  C        0.7172568633    -0.4996069187     1.2988079660
| 13>  O        2.0577186738    -0.0026074070     1.3416615522
| 14>  H        0.9825891823     1.9961124346     0.0644678735
| 15>  H       -0.4755426623     1.9066511809    -0.9416231789
| 16>  H       -0.6149492097     1.9315116248     0.8229758813
| 17>  H       -0.9494750625    -0.3828579837    -0.0012553810
| 18>  H        0.2546142864    -0.2914904403    -2.1160473247
| 19>  H        1.7787126090     0.0138787264    -1.3017387300
| 20>  H        0.6691854153    -2.5964441941    -1.9819651537
| 21>  H        2.7943953414    -3.4559448786    -0.8593087609
| 22>  H        2.9748103906    -1.8133783727    -0.0543443596
| 23>  H       -0.3921302229    -2.3035382115     1.5813080758
| 24>  H        1.2656139973    -2.4155288258     2.1610723705
| 25>  H        0.1535004813    -0.1169359351     2.1659560244
| 26>  H        2.4640045380    -0.3151519081     2.1559780137
| 27> *
| 28>
| 29>                          ****END OF INPUT****

CARTESIAN COORDINATES (ANGSTROEM)
---------------------------------
  C     -0.014893    1.554842   -0.012580
  C      0.070289    0.026752    0.012637
  C      0.827778   -0.520904   -1.212019
  C      1.077364   -2.028611   -1.148117
  C      2.310322   -2.554212   -0.490170
  N      1.002037   -2.762889    0.124008
  C      0.645484   -2.035149    1.338018
  C      0.717257   -0.499607    1.298808
  O      2.057719   -0.002607    1.341662
  H      0.982589    1.996112    0.064468
  H     -0.475543    1.906651   -0.941623
  H     -0.614949    1.931512    0.822976
  H     -0.949475   -0.382858   -0.001255
  H      0.254614   -0.291490   -2.116047
  H      1.778713    0.013879   -1.301739
  H      0.669185   -2.596444   -1.981965
  H      2.794395   -3.455945   -0.859309
  H      2.974810   -1.813378   -0.054344
  H     -0.392130   -2.303538    1.581308
  H      1.265614   -2.415529    2.161072
  H      0.153500   -0.116936    2.165956
  H      2.464005   -0.315152    2.155978

 Total Charge           Charge          ....    0
 Multiplicity           Mult            ....    1
 Number of Electrons    NEL             ....   70
 Basis Dimension        Dim             ....  357

ORBITAL ENERGIES
----------------

  NO   OCC          E(Eh)            E(eV)
   0   2.0000     -20.557546      -559.3993
   1   2.0000     -15.548658      -423.1005
   2   2.0000     -11.278925      -306.9152
   3   2.0000     -11.250219      -306.1340
   4   2.0000     -11.250196      -306.1334
   5   2.0000     -11.238942      -305.8272
   6   2.0000     -11.227941      -305.5278
   7   2.0000     -11.218647      -305.2749
   8   2.0000     -11.209049      -305.0137
   9   2.0000      -1.364753       -37.1368
  10   2.0000      -1.262500       -34.3544
  11   2.0000      -1.081831       -29.4381
  12   2.0000      -1.025659       -27.9096
  13   2.0000      -0.945089       -25.7172
  14   2.0000      -0.890175       -24.2229
  15   2.0000      -0.819983       -22.3129
  16   2.0000      -0.807517       -21.9737
  17   2.0000      -0.744370       -20.2553
  18   2.0000      -0.684067       -18.6144
  19   2.0000      -0.671085       -18.2612
  20   2.0000      -0.634057       -17.2536
  21   2.0000      -0.622049       -16.9268
  22   2.0000      -0.601916       -16.3790
  23   2.0000      -0.580069       -15.7845
  24   2.0000      -0.561540       -15.2803
  25   2.0000      -0.542788       -14.7700
  26   2.0000      -0.538632       -14.6569
  27   2.0000      -0.521302       -14.1853
  28   2.0000      -0.486750       -13.2451
  29   2.0000      -0.479487       -13.0475
  30   2.0000      -0.464572       -12.6416
  31   2.0000      -0.463845       -12.6219
  32   2.0000      -0.425563       -11.5802
  33   2.0000      -0.416996       -11.3470
  34   2.0000      -0.354246        -9.6395
  35   0.0000       0.126324         3.4374
  36   0.0000       0.152298         4.1442
  37   0.0000       0.167958         4.5704
  38   0.0000       0.171599         4.6695
  39   0.0000       0.190120         5.1734

MULLIKEN ATOMIC CHARGES
-----------------------
   0 C :   -0.422978
   1 C :   -0.028570
   2 C :   -0.253810
   3 C :   -0.047518
   4 C :   -0.191056
   5 N :   -0.218701
   6 C :   -0.190169
   7 C :    0.071122
   8 O :   -0.480480
   9 H :    0.149083
  10 H :    0.130396
  11 H :    0.124543
  12 H :    0.096117
  13 H :    0.124392
  14 H :    0.129012
  15 H :    0.120387
  16 H :    0.119616
  17 H :    0.124371
  18 H :    0.117130
  19 H :    0.120995
  20 H :    0.092248
  21 H :    0.313870
Sum of atomic charges:    0.0000000

LOEWDIN ATOMIC CHARGES
----------------------
   0 C :   -0.291145
   1 C :   -0.261540
   2 C :   -0.224481
   3 C :   -0.240863
   4 C :   -0.250140
   5 N :    0.108587
   6 C :   -0.284550
   7 C :   -0.331598
   8 O :   -0.018455
   9 H :    0.128952
  10 H :    0.123252
  11 H :    0.122501
  12 H :    0.158779
  13 H :    0.142479
  14 H :    0.148613
  15 H :    0.138237
  16 H :    0.120242
  17 H :    0.125973
  18 H :    0.141099
  19 H :    0.133196
  20 H :    0.138428
  21 H :    0.172436

  Mayer bond orders larger than 0.1
B(  0-C ,  1-C ) :   0.8894 B(  0-C ,  9-H ) :   0.9382 B(  0-C , 10-H ) :   0.9415
B(  0-C , 11-H ) :   0.9388 B(  1-C ,  2-C ) :   0.9383 B(  1-C ,  7-C ) :   0.8816
B(  1-C , 12-H ) :   0.9261 B(  2-C ,  3-C ) :   0.9169 B(  2-C , 13-H ) :   0.9313
B(  2-C , 14-H ) :   0.9216 B(  3-C ,  4-C ) :   0.9380 B(  3-C ,  5-N ) :   0.9131
B(  3-C , 15-H ) :   0.9250 B(  4-C ,  5-N ) :   0.8899 B(  4-C , 16-H ) :   0.9239
B(  4-C , 17-H ) :   0.9030 B(  5-N ,  6-C ) :   0.9526 B(  6-C ,  7-C ) :   0.9300
B(  6-C , 18-H ) :   0.9268 B(  6-C , 19-H ) :   0.9400 B(  7-C ,  8-O ) :   0.9416
B(  7-C , 20-H ) :   0.9213 B(  8-O , 21-H ) :   0.8435

MP2 TOTAL ENERGY:     -403.646092709 Eh
FINAL SINGLE POINT ENERGY      -403.646092708716

DIPOLE MOMENT
-------------
                                X             Y             Z
Electronic contribution:      1.75038      -3.84714       0.93605
Nuclear contribution   :     -1.79850       4.09483      -0.53538
                        -----------------------------------------
Total Dipole Moment    :     -0.04811       0.24769       0.40067
                        -----------------------------------------
Magnitude (a.u.)       :      0.47350
Magnitude (Debye)      :      1.20355

                             ****ORCA TERMINATED NORMALLY****
TOTAL RUN TIME: 0 days 0 hours 20 minutes 22 seconds 851 msec
