                         Program Version 3.0.3 - RELEASE   -
|  1> ! RI-MP2 RIJK def2-TZVP def2-TZVP/C def2-TZVP/JK TIGHTSCF
|  2> % maxcore 2000
|  3> % mp2 density relaxed end
|  4> *xyz 0 1
|  5>  O       -0.4871004281     1.3002812949    -0.6968044682
|  6>  C       -0.0569668826     0.0948269489    -0.0895126967
|  7>  C       -1.3060089612    -0.7858924475     0.1343569107
|  8>  C       -1.1994420953    -1.9175922815    -0.8728720038
|  9>  C       -1.0376474594    -1.6547085351    -2.3401362344
| 10>  C       -1.2499386188    -0.3893050525    -2.9926699390
| 11>  N       -1.4147413363     0.5671392202    -3.6219974535
| 12>  N        0.1365920816    -1.9534213534    -1.4838531221
| 13>  C        0.8780577701    -0.7812796976    -0.9727646432
| 14>  H        0.2738928647     1.7577643699    -1.0674077593
| 15>  H        0.4388376553     0.3188134095     0.8658906614
| 16>  H       -1.3108919787    -1.2144195331     1.1404959519
| 17>  H       -2.2079330539    -0.1801841168     0.0215629842
| 18>  H       -1.6298156911    -2.8789099175    -0.6040541136
| 19>  H       -1.2690885126    -2.4822049124    -3.0076910139
| 20>  H        1.3102396679    -0.2082680635    -1.7998503376
| 21>  H        1.7037910684    -1.1798796724    -0.3753488730
| 22> *
| 23>
| 24>                          ****END OF INPUT****

CARTESIAN COORDINATES (ANGSTROEM)
---------------------------------
  O     -0.487100    1.300281   -0.696804
  C     -0.056967    0.094827   -0.089513
  C     -1.306009   -0.785892    0.134357
  C     -1.199442   -1.917592   -0.872872
  C     -1.037647   -1.654709   -2.340136
  C     -1.249939   -0.389305   -2.992670
  N     -1.414741    0.567139   -3.621997
  N      0.136592   -1.953421   -1.483853
  C      0.878058   -0.781280   -0.972765
  H      0.273893    1.757764   -1.067408
  H      0.438838    0.318813    0.865891
  H     -1.310892   -1.214420    1.140496
  H     -2.207933   -0.180184    0.021563
  H     -1.629816   -2.878910   -0.604054
  H     -1.269089   -2.482205   -3.007691
  H      1.310240   -0.208268   -1.799850
  H      1.703791   -1.179880   -0.375349

 Total Charge           Charge          ....    0
 Multiplicity           Mult            ....    1
 Number of Electrons    NEL             ....   66
 Basis Dimension        Dim             ....  327

ORBITAL ENERGIES
----------------

  NO   OCC          E(Eh)            E(eV)
   0   2.0000     -20.563016      -559.5481
   1   2.0000     -15.592005      -424.2800
   2   2.0000     -15.569551      -423.6690
   3   2.0000     -11.309526      -307.7479
   4   2.0000     -11.299323      -307.4702
   5   2.0000     -11.292422      -307.2824
   6   2.0000     -11.273197      -306.7593
   7   2.0000     -11.272666      -306.7448
   8   2.0000     -11.245940      -306.0176
   9   2.0000      -1.375003       -37.4157
  10   2.0000      -1.311463       -35.6867
  11   2.0000      -1.213530       -33.0218
  12   2.0000      -1.060091       -28.8466
  13   2.0000      -1.024487       -27.8777
  14   2.0000      -0.938129       -25.5278
  15   2.0000      -0.831313       -22.6212
  16   2.0000      -0.814563       -22.1654
  17   2.0000      -0.731346       -19.9009
  18   2.0000      -0.704477       -19.1698
  19   2.0000      -0.682236       -18.5646
  20   2.0000      -0.639480       -17.4011
  21   2.0000      -0.628588       -17.1048
  22   2.0000      -0.578524       -15.7424
  23   2.0000      -0.569784       -15.5046
  24   2.0000      -0.548435       -14.9237
  25   2.0000      -0.548320       -14.9205
  26   2.0000      -0.520857       -14.1732
  27   2.0000      -0.498600       -13.5676
  28   2.0000      -0.493385       -13.4257
  29   2.0000      -0.474257       -12.9052
  30   2.0000      -0.450093       -12.2476
  31   2.0000      -0.444809       -12.1039
  32   2.0000      -0.384219       -10.4551
  33   0.0000       0.124547         3.3891
  34   0.0000       0.147531         4.0145
  35   0.0000       0.154952         4.2165
  36   0.0000       0.160004         4.3539
  37   0.0000       0.168548         4.5864

MULLIKEN ATOMIC CHARGES
-----------------------
   0 O :   -0.451100
   1 C :    0.078309
   2 C :   -0.209564
   3 C :   -0.040004
   4 C :    0.011308
   5 C :   -0.181875
   6 N :   -0.046212
   7 N :   -0.199683
   8 C :   -0.220952
   9 H :    0.316326
  10 H :    0.099092
  11 H :    0.135343
  12 H :    0.144319
  13 H :    0.132749
  14 H :    0.153131
  15 H :    0.139390
  16 H :    0.139423
Sum of atomic charges:    0.0000000

LOEWDIN ATOMIC CHARGES
----------------------
   0 O :   -0.002732
   1 C :   -0.335221
   2 C :   -0.211557
   3 C :   -0.204433
   4 C :   -0.224921
   5 C :   -0.183253
   6 N :    0.071101
   7 N :    0.140800
   8 C :   -0.253911
   9 H :    0.174977
  10 H :    0.133275
  11 H :    0.147358
  12 H :    0.156194
  13 H :    0.145502
  14 H :    0.170030
  15 H :    0.137812
  16 H :    0.138981

  Mayer bond orders larger than 0.1
B(  0-O ,  1-C ) :   0.9862 B(  0-O ,  9-H ) :   0.8407 B(  1-C ,  2-C ) :   0.8946
B(  1-C ,  8-C ) :   0.9189 B(  1-C , 10-H ) :   0.9319 B(  2-C ,  3-C ) :   0.9847
B(  2-C , 11-H ) :   0.9196 B(  2-C , 12-H ) :   0.9062 B(  3-C ,  4-C ) :   0.9007
B(  3-C ,  7-N ) :   0.8697 B(  3-C , 13-H ) :   0.9121 B(  4-C ,  5-C ) :   0.9599
B(  4-C ,  7-N ) :   0.9218 B(  4-C , 14-H ) :   0.9080 B(  5-C ,  6-N ) :   2.8351
B(  7-N ,  8-C ) :   0.9172 B(  8-C , 15-H ) :   0.9398 B(  8-C , 16-H ) :   0.9189

MP2 TOTAL ENERGY:     -417.290870149 Eh
FINAL SINGLE POINT ENERGY      -417.290870149043

DIPOLE MOMENT
-------------
                                X             Y             Z
Electronic contribution:     -1.53789       0.69107      -4.79968
Nuclear contribution   :      2.07876      -1.43415       5.94161
                        -----------------------------------------
Total Dipole Moment    :      0.54087      -0.74308       1.14193
                        -----------------------------------------
Magnitude (a.u.)       :      1.46585
Magnitude (Debye)      :      3.72589

                             ****ORCA TERMINATED NORMALLY****
TOTAL RUN TIME: 0 days 0 hours 18 minutes 49 seconds 256 msec
