                         Program Version 3.0.3 - RELEASE   -
|  1> ! RI-MP2 RIJK def2-TZVP def2-TZVP/C def2-TZVP/JK TIGHTSCF
|  2> % maxcore 2000
|  3> % mp2 density relaxed end
|  4> *xyz 0 1
|  5>  C       -0.0608111419     1.5757445736    -0.0749778382
|  6>  C        0.0322102769     0.0721149200     0.0671251620
|  7>  C        1.2744194890    -0.7323403643    -0.1784815880
|  8>  O        2.4391353189    -0.0255084047     0.2752296771
|  9>  C        1.9759385918    -0.0860246266     1.6453480565
| 10>  C        1.9933401265     1.1945589614     2.3556053169
| 11>  N        2.0005577308     2.1887004262     2.9452136193
| 12>  C        0.6376958187    -0.7112809511     1.2170603739
| 13>  N       -0.0664443578    -1.6083178813     2.0515604540
| 14>  H        0.9040850592     2.0535107883     0.1019448046
| 15>  H       -0.3790470892     1.8334224021    -1.0903492479
| 16>  H       -0.7856816192     2.0006726724     0.6256961377
| 17>  H       -0.8436381535    -0.4675805997    -0.2958623561
| 18>  H        1.4190577922    -1.5008586841    -0.9284374650
| 19>  H        2.5799914644    -0.8058901918     2.2120872081
| 20>  H       -1.0588357737    -1.6311176388     1.8622776866
| 21>  H        0.3014550070    -2.5521259217     2.0390336884
| 22> *
| 23>
| 24>                          ****END OF INPUT****

CARTESIAN COORDINATES (ANGSTROEM)
---------------------------------
  C     -0.060811    1.575745   -0.074978
  C      0.032210    0.072115    0.067125
  C      1.274419   -0.732340   -0.178482
  O      2.439135   -0.025508    0.275230
  C      1.975939   -0.086025    1.645348
  C      1.993340    1.194559    2.355605
  N      2.000558    2.188700    2.945214
  C      0.637696   -0.711281    1.217060
  N     -0.066444   -1.608318    2.051560
  H      0.904085    2.053511    0.101945
  H     -0.379047    1.833422   -1.090349
  H     -0.785682    2.000673    0.625696
  H     -0.843638   -0.467581   -0.295862
  H      1.419058   -1.500859   -0.928437
  H      2.579991   -0.805890    2.212087
  H     -1.058836   -1.631118    1.862278
  H      0.301455   -2.552126    2.039034

 Total Charge           Charge          ....    0
 Multiplicity           Mult            ....    1
 Number of Electrons    NEL             ....   66
 Basis Dimension        Dim             ....  327

ORBITAL ENERGIES
----------------

  NO   OCC          E(Eh)            E(eV)
   0   2.0000     -20.586083      -560.1758
   1   2.0000     -15.574984      -423.8169
   2   2.0000     -15.574523      -423.8043
   3   2.0000     -11.340492      -308.5905
   4   2.0000     -11.305418      -307.6361
   5   2.0000     -11.299984      -307.4882
   6   2.0000     -11.273145      -306.7579
   7   2.0000     -11.262102      -306.4574
   8   2.0000     -11.225539      -305.4624
   9   2.0000      -1.424457       -38.7615
  10   2.0000      -1.226224       -33.3672
  11   2.0000      -1.218934       -33.1689
  12   2.0000      -1.118314       -30.4309
  13   2.0000      -1.013966       -27.5914
  14   2.0000      -0.974757       -26.5245
  15   2.0000      -0.817920       -22.2567
  16   2.0000      -0.802477       -21.8365
  17   2.0000      -0.736763       -20.0484
  18   2.0000      -0.719925       -19.5901
  19   2.0000      -0.678554       -18.4644
  20   2.0000      -0.653331       -17.7780
  21   2.0000      -0.613818       -16.7028
  22   2.0000      -0.596325       -16.2268
  23   2.0000      -0.581772       -15.8308
  24   2.0000      -0.563462       -15.3326
  25   2.0000      -0.539918       -14.6919
  26   2.0000      -0.525178       -14.2908
  27   2.0000      -0.520992       -14.1769
  28   2.0000      -0.473720       -12.8906
  29   2.0000      -0.468463       -12.7475
  30   2.0000      -0.463466       -12.6116
  31   2.0000      -0.422705       -11.5024
  32   2.0000      -0.370357       -10.0779
  33   0.0000       0.114704         3.1213
  34   0.0000       0.136585         3.7167
  35   0.0000       0.149501         4.0681
  36   0.0000       0.161405         4.3920
  37   0.0000       0.163922         4.4605

MULLIKEN ATOMIC CHARGES
-----------------------
   0 C :   -0.388111
   1 C :   -0.119197
   2 C :    0.040556
   3 O :   -0.316311
   4 C :    0.235510
   5 C :   -0.209297
   6 N :   -0.046938
   7 C :    0.021850
   8 N :   -0.543373
   9 H :    0.163598
  10 H :    0.136196
  11 H :    0.139660
  12 H :    0.116644
  13 H :    0.145165
  14 H :    0.124319
  15 H :    0.249454
  16 H :    0.250274
Sum of atomic charges:    0.0000000

LOEWDIN ATOMIC CHARGES
----------------------
   0 C :   -0.282540
   1 C :   -0.200424
   2 C :   -0.207574
   3 O :    0.185623
   4 C :   -0.228448
   5 C :   -0.160993
   6 N :    0.076703
   7 C :   -0.273523
   8 N :   -0.097452
   9 H :    0.136807
  10 H :    0.129011
  11 H :    0.130706
  12 H :    0.163395
  13 H :    0.132487
  14 H :    0.166919
  15 H :    0.165254
  16 H :    0.164047

  Mayer bond orders larger than 0.1
B(  0-C ,  1-C ) :   0.9154 B(  0-C ,  9-H ) :   0.9278 B(  0-C , 10-H ) :   0.9315
B(  0-C , 11-H ) :   0.9339 B(  1-C ,  2-C ) :   0.8634 B(  1-C ,  7-C ) :   0.8755
B(  1-C , 12-H ) :   0.9216 B(  2-C ,  3-O ) :   0.9319 B(  2-C ,  7-C ) :   0.8979
B(  2-C , 13-H ) :   0.9171 B(  3-O ,  4-C ) :   0.9558 B(  4-C ,  5-C ) :   0.9426
B(  4-C ,  7-C ) :   0.9022 B(  4-C , 14-H ) :   0.8780 B(  5-C ,  6-N ) :   2.8357
B(  7-C ,  8-N ) :   1.0281 B(  8-N , 15-H ) :   0.8807 B(  8-N , 16-H ) :   0.8768

MP2 TOTAL ENERGY:     -417.257980279 Eh
FINAL SINGLE POINT ENERGY      -417.257980278923

DIPOLE MOMENT
-------------
                                X             Y             Z
Electronic contribution:      5.38375       0.62877       3.31384
Nuclear contribution   :     -6.35430      -2.36055      -4.17812
                        -----------------------------------------
Total Dipole Moment    :     -0.97055      -1.73178      -0.86428
                        -----------------------------------------
Magnitude (a.u.)       :      2.16518
Magnitude (Debye)      :      5.50346

                             ****ORCA TERMINATED NORMALLY****
TOTAL RUN TIME: 0 days 0 hours 17 minutes 11 seconds 80 msec
