                         Program Version 3.0.3 - RELEASE   -
|  1> ! RI-MP2 RIJK def2-TZVP def2-TZVP/C def2-TZVP/JK TIGHTSCF
|  2> % maxcore 2000
|  3> % mp2 density relaxed end
|  4> *xyz 0 1
|  5>  O        0.0203872534     1.3923438740     0.0063373254
|  6>  C       -0.0478435255     0.0227834114     0.0183780820
|  7>  C       -0.4746981139    -0.7603801975     1.1885391109
|  8>  O       -1.4576991240     0.0209406136     1.9105463678
|  9>  C       -2.3737817431    -0.1129124014     0.8523573830
| 10>  O       -3.5041506939     0.2322773029     0.8411349909
| 11>  C       -1.3916996904    -0.8137699904    -0.0506641684
| 12>  C       -1.6478348472    -1.7982920388    -1.0338487465
| 13>  C       -1.8574999387    -2.6289801891    -1.8780856992
| 14>  H       -0.4119670601     1.7216990078     0.8061079539
| 15>  H        0.7027815259    -0.4262865774    -0.6248578105
| 16>  H        0.0218673868    -1.5559223057     1.7276305118
| 17>  H       -2.0539705293    -3.3634670694    -2.6197531111
| 18> *
| 19>
| 20>                          ****END OF INPUT****

CARTESIAN COORDINATES (ANGSTROEM)
---------------------------------
  O      0.020387    1.392344    0.006337
  C     -0.047844    0.022783    0.018378
  C     -0.474698   -0.760380    1.188539
  O     -1.457699    0.020941    1.910546
  C     -2.373782   -0.112912    0.852357
  O     -3.504151    0.232277    0.841135
  C     -1.391700   -0.813770   -0.050664
  C     -1.647835   -1.798292   -1.033849
  C     -1.857500   -2.628980   -1.878086
  H     -0.411967    1.721699    0.806108
  H      0.702782   -0.426287   -0.624858
  H      0.021867   -1.555922    1.727631
  H     -2.053971   -3.363467   -2.619753

 Total Charge           Charge          ....    0
 Multiplicity           Mult            ....    1
 Number of Electrons    NEL             ....   64
 Basis Dimension        Dim             ....  303

ORBITAL ENERGIES
----------------

  NO   OCC          E(Eh)            E(eV)
   0   2.0000     -20.627774      -561.3103
   1   2.0000     -20.602653      -560.6267
   2   2.0000     -20.577142      -559.9325
   3   2.0000     -11.411297      -310.5172
   4   2.0000     -11.351494      -308.8898
   5   2.0000     -11.347436      -308.7794
   6   2.0000     -11.306869      -307.6755
   7   2.0000     -11.262454      -306.4669
   8   2.0000     -11.252398      -306.1933
   9   2.0000      -1.494299       -40.6619
  10   2.0000      -1.423581       -38.7376
  11   2.0000      -1.401141       -38.1270
  12   2.0000      -1.172502       -31.9054
  13   2.0000      -1.053059       -28.6552
  14   2.0000      -0.954742       -25.9799
  15   2.0000      -0.876324       -23.8460
  16   2.0000      -0.837706       -22.7951
  17   2.0000      -0.772643       -21.0247
  18   2.0000      -0.744603       -20.2617
  19   2.0000      -0.723393       -19.6845
  20   2.0000      -0.703914       -19.1545
  21   2.0000      -0.651402       -17.7256
  22   2.0000      -0.635586       -17.2952
  23   2.0000      -0.625340       -17.0164
  24   2.0000      -0.604348       -16.4452
  25   2.0000      -0.580767       -15.8035
  26   2.0000      -0.525809       -14.3080
  27   2.0000      -0.498635       -13.5685
  28   2.0000      -0.482459       -13.1284
  29   2.0000      -0.464477       -12.6390
  30   2.0000      -0.404506       -11.0072
  31   2.0000      -0.380429       -10.3520
  32   0.0000       0.123258         3.3540
  33   0.0000       0.136118         3.7040
  34   0.0000       0.146786         3.9943
  35   0.0000       0.150045         4.0829
  36   0.0000       0.153826         4.1858

MULLIKEN ATOMIC CHARGES
-----------------------
   0 O :   -0.424088
   1 C :    0.048182
   2 C :    0.109930
   3 O :   -0.280549
   4 C :    0.278944
   5 O :   -0.218927
   6 C :   -0.222739
   7 C :   -0.063679
   8 C :   -0.092179
   9 H :    0.345912
  10 H :    0.149751
  11 H :    0.166930
  12 H :    0.202513
Sum of atomic charges:    0.0000000

LOEWDIN ATOMIC CHARGES
----------------------
   0 O :    0.044908
   1 C :   -0.254212
   2 C :   -0.171949
   3 O :    0.227670
   4 C :   -0.393004
   5 O :    0.196443
   6 C :   -0.144963
   7 C :   -0.078443
   8 C :   -0.059124
   9 H :    0.194788
  10 H :    0.162790
  11 H :    0.143694
  12 H :    0.131401

  Mayer bond orders larger than 0.1
B(  0-O ,  1-C ) :   1.0351 B(  0-O ,  9-H ) :   0.8117 B(  1-C ,  2-C ) :   0.9319
B(  1-C ,  6-C ) :   0.7123 B(  1-C , 10-H ) :   0.9378 B(  2-C ,  3-O ) :   0.9049
B(  2-C ,  6-C ) :   0.7911 B(  2-C , 11-H ) :   0.8943 B(  3-O ,  4-C ) :   0.9898
B(  4-C ,  5-O ) :   2.0988 B(  4-C ,  6-C ) :   0.9035 B(  6-C ,  7-C ) :   1.2632
B(  6-C ,  8-C ) :  -0.1734 B(  7-C ,  8-C ) :   2.5889 B(  8-C , 12-H ) :   0.8720

MP2 TOTAL ENERGY:     -455.767872920 Eh
FINAL SINGLE POINT ENERGY      -455.767872920246

DIPOLE MOMENT
-------------
                                X             Y             Z
Electronic contribution:     -2.52457       1.01413       1.52538
Nuclear contribution   :      3.63020      -1.83066      -1.62238
                        -----------------------------------------
Total Dipole Moment    :      1.10563      -0.81653      -0.09701
                        -----------------------------------------
Magnitude (a.u.)       :      1.37787
Magnitude (Debye)      :      3.50228

                             ****ORCA TERMINATED NORMALLY****
TOTAL RUN TIME: 0 days 0 hours 14 minutes 23 seconds 426 msec
