                         Program Version 3.0.3 - RELEASE   -
|  1> ! RI-MP2 RIJK def2-TZVP def2-TZVP/C def2-TZVP/JK TIGHTSCF
|  2> % maxcore 2000
|  3> % mp2 density relaxed end
|  4> *xyz 0 1
|  5>  C        0.0324627177     1.4398327425    -0.0141305415
|  6>  N       -0.0599402327    -0.0074705351    -0.0524821539
|  7>  C       -1.2608421310    -0.6413210985    -0.0586081950
|  8>  N       -2.3653873969     0.0038157286    -0.0046062826
|  9>  C       -3.6244646425    -0.7133369685     0.0252170361
| 10>  C       -4.3682936779    -0.4054293711     1.2562399503
| 11>  N       -4.9576696430    -0.1725026673     2.2216883842
| 12>  C       -1.1553672789    -2.0953231573    -0.1325396040
| 13>  N       -1.1037478083    -3.2481535150    -0.2010974974
| 14>  H        1.0849588211     1.7188425155     0.0502619189
| 15>  H       -0.4100163913     1.8921703739    -0.9087039234
| 16>  H       -0.5011778034     1.8305187377     0.8567752953
| 17>  H        0.7697004558    -0.5571725974    -0.1908402037
| 18>  H       -4.2400864738    -0.3862422330    -0.8225496178
| 19>  H       -3.5291727549    -1.8072852250    -0.0495778956
| 20> *
| 21>
| 22>                          ****END OF INPUT****

CARTESIAN COORDINATES (ANGSTROEM)
---------------------------------
  C      0.032463    1.439833   -0.014131
  N     -0.059940   -0.007471   -0.052482
  C     -1.260842   -0.641321   -0.058608
  N     -2.365387    0.003816   -0.004606
  C     -3.624465   -0.713337    0.025217
  C     -4.368294   -0.405429    1.256240
  N     -4.957670   -0.172503    2.221688
  C     -1.155367   -2.095323   -0.132540
  N     -1.103748   -3.248154   -0.201097
  H      1.084959    1.718843    0.050262
  H     -0.410016    1.892170   -0.908704
  H     -0.501178    1.830519    0.856775
  H      0.769700   -0.557173   -0.190840
  H     -4.240086   -0.386242   -0.822550
  H     -3.529173   -1.807285   -0.049578

 Total Charge           Charge          ....    0
 Multiplicity           Mult            ....    1
 Number of Electrons    NEL             ....   64
 Basis Dimension        Dim             ....  315

ORBITAL ENERGIES
----------------

  NO   OCC          E(Eh)            E(eV)
   0   2.0000     -15.621928      -425.0943
   1   2.0000     -15.620212      -425.0476
   2   2.0000     -15.586837      -424.1394
   3   2.0000     -15.571842      -423.7314
   4   2.0000     -11.391308      -309.9733
   5   2.0000     -11.321930      -308.0854
   6   2.0000     -11.314542      -307.8843
   7   2.0000     -11.284303      -307.0615
   8   2.0000     -11.274405      -306.7922
   9   2.0000      -1.335843       -36.3501
  10   2.0000      -1.256962       -34.2037
  11   2.0000      -1.237960       -33.6866
  12   2.0000      -1.211285       -32.9607
  13   2.0000      -1.040687       -28.3185
  14   2.0000      -0.984474       -26.7889
  15   2.0000      -0.883747       -24.0480
  16   2.0000      -0.804873       -21.9017
  17   2.0000      -0.712996       -19.4016
  18   2.0000      -0.708469       -19.2784
  19   2.0000      -0.660089       -17.9619
  20   2.0000      -0.647271       -17.6131
  21   2.0000      -0.634551       -17.2670
  22   2.0000      -0.603920       -16.4335
  23   2.0000      -0.577971       -15.7274
  24   2.0000      -0.565816       -15.3966
  25   2.0000      -0.554321       -15.0838
  26   2.0000      -0.516690       -14.0598
  27   2.0000      -0.487363       -13.2618
  28   2.0000      -0.476481       -12.9657
  29   2.0000      -0.466260       -12.6876
  30   2.0000      -0.451158       -12.2766
  31   2.0000      -0.389459       -10.5977
  32   0.0000       0.076260         2.0751
  33   0.0000       0.109069         2.9679
  34   0.0000       0.130980         3.5641
  35   0.0000       0.142917         3.8890
  36   0.0000       0.164570         4.4782

MULLIKEN ATOMIC CHARGES
-----------------------
   0 C :   -0.261482
   1 N :   -0.335319
   2 C :    0.359506
   3 N :   -0.281927
   4 C :   -0.060031
   5 C :   -0.140203
   6 N :   -0.064433
   7 C :   -0.213819
   8 N :   -0.030216
   9 H :    0.143191
  10 H :    0.146887
  11 H :    0.160015
  12 H :    0.260369
  13 H :    0.164585
  14 H :    0.152878
Sum of atomic charges:    0.0000000

LOEWDIN ATOMIC CHARGES
----------------------
   0 C :   -0.303107
   1 N :    0.104958
   2 C :   -0.355676
   3 N :    0.120436
   4 C :   -0.275033
   5 C :   -0.183648
   6 N :    0.064298
   7 C :   -0.151629
   8 N :    0.096033
   9 H :    0.122439
  10 H :    0.121831
  11 H :    0.127704
  12 H :    0.194270
  13 H :    0.161337
  14 H :    0.155787

  Mayer bond orders larger than 0.1
B(  0-C ,  1-N ) :   0.8660 B(  0-C ,  9-H ) :   0.9256 B(  0-C , 10-H ) :   0.9352
B(  0-C , 11-H ) :   0.9320 B(  1-N ,  2-C ) :   1.1823 B(  1-N , 12-H ) :   0.8732
B(  2-C ,  3-N ) :   1.7242 B(  2-C ,  7-C ) :   0.8672 B(  3-N ,  4-C ) :   0.9342
B(  4-C ,  5-C ) :   0.9060 B(  4-C , 13-H ) :   0.9103 B(  4-C , 14-H ) :   0.9046
B(  5-C ,  6-N ) :   2.8517 B(  7-C ,  8-N ) :   2.8112

MP2 TOTAL ENERGY:     -412.293708172 Eh
FINAL SINGLE POINT ENERGY      -412.293708172311

DIPOLE MOMENT
-------------
                                X             Y             Z
Electronic contribution:     -3.50290      -5.25270       1.59350
Nuclear contribution   :      5.13502       5.94193      -2.80901
                        -----------------------------------------
Total Dipole Moment    :      1.63212       0.68923      -1.21552
                        -----------------------------------------
Magnitude (a.u.)       :      2.14856
Magnitude (Debye)      :      5.46121

                             ****ORCA TERMINATED NORMALLY****
TOTAL RUN TIME: 0 days 0 hours 14 minutes 0 seconds 826 msec
