                         Program Version 3.0.3 - RELEASE   -
|  1> ! RI-MP2 RIJK def2-TZVP def2-TZVP/C def2-TZVP/JK TIGHTSCF
|  2> % maxcore 2000
|  3> % mp2 density relaxed end
|  4> *xyz 0 1
|  5>  C        0.2950081405     1.4877797128     0.2423747225
|  6>  C       -0.2206022451     0.1277443281    -0.2414651111
|  7>  C        0.6171230117    -0.4482259903    -1.3649054141
|  8>  C        1.8833832435    -1.2171669571    -1.0660342669
|  9>  C        0.6643324315    -1.9418677708    -1.5622134658
| 10>  O       -0.0861983752    -2.8736001980    -0.7729186291
| 11>  C       -0.3740150987    -3.7114244537    -1.9193148078
| 12>  C        0.4427080360    -2.7494718849    -2.8023246226
| 13>  O        0.7552364550    -2.6749186142    -3.9532519719
| 14>  H        1.3197578585     1.4097831705     0.6199020179
| 15>  H        0.2959085363     2.2233491985    -0.5692589770
| 16>  H       -0.3325856283     1.8806051937     1.0481283760
| 17>  H       -0.2443846996    -0.5853881092     0.5895778323
| 18>  H       -1.2577822236     0.2256948426    -0.5849344986
| 19>  H        0.6188135116     0.1252368188    -2.2898718240
| 20>  H        2.7318234667    -1.1391667776    -1.7376984873
| 21>  H        2.1298775445    -1.3864950142    -0.0222068568
| 22>  H        0.0364006415    -4.7221286146    -1.8164684295
| 23>  H       -1.4446489770    -3.7625571106    -2.1478563359
| 24> *
| 25>
| 26>                          ****END OF INPUT****

CARTESIAN COORDINATES (ANGSTROEM)
---------------------------------
  C      0.295008    1.487780    0.242375
  C     -0.220602    0.127744   -0.241465
  C      0.617123   -0.448226   -1.364905
  C      1.883383   -1.217167   -1.066034
  C      0.664332   -1.941868   -1.562213
  O     -0.086198   -2.873600   -0.772919
  C     -0.374015   -3.711424   -1.919315
  C      0.442708   -2.749472   -2.802325
  O      0.755236   -2.674919   -3.953252
  H      1.319758    1.409783    0.619902
  H      0.295909    2.223349   -0.569259
  H     -0.332586    1.880605    1.048128
  H     -0.244385   -0.585388    0.589578
  H     -1.257782    0.225695   -0.584934
  H      0.618814    0.125237   -2.289872
  H      2.731823   -1.139167   -1.737698
  H      2.129878   -1.386495   -0.022207
  H      0.036401   -4.722129   -1.816468
  H     -1.444649   -3.762557   -2.147856

 Total Charge           Charge          ....    0
 Multiplicity           Mult            ....    1
 Number of Electrons    NEL             ....   68
 Basis Dimension        Dim             ....  339

ORBITAL ENERGIES
----------------

  NO   OCC          E(Eh)            E(eV)
   0   2.0000     -20.574341      -559.8563
   1   2.0000     -20.566734      -559.6493
   2   2.0000     -11.346349      -308.7499
   3   2.0000     -11.302066      -307.5449
   4   2.0000     -11.301093      -307.5184
   5   2.0000     -11.251185      -306.1603
   6   2.0000     -11.245261      -305.9991
   7   2.0000     -11.232763      -305.6590
   8   2.0000     -11.220067      -305.3135
   9   2.0000      -1.422308       -38.7030
  10   2.0000      -1.392825       -37.9007
  11   2.0000      -1.159702       -31.5571
  12   2.0000      -1.032511       -28.0960
  13   2.0000      -0.985038       -26.8042
  14   2.0000      -0.895458       -24.3666
  15   2.0000      -0.879462       -23.9314
  16   2.0000      -0.794933       -21.6312
  17   2.0000      -0.722730       -19.6665
  18   2.0000      -0.690342       -18.7852
  19   2.0000      -0.680619       -18.5206
  20   2.0000      -0.673076       -18.3153
  21   2.0000      -0.627052       -17.0629
  22   2.0000      -0.615435       -16.7469
  23   2.0000      -0.588360       -16.0101
  24   2.0000      -0.565475       -15.3874
  25   2.0000      -0.542551       -14.7636
  26   2.0000      -0.537592       -14.6286
  27   2.0000      -0.528281       -14.3753
  28   2.0000      -0.514561       -14.0019
  29   2.0000      -0.498841       -13.5742
  30   2.0000      -0.486820       -13.2470
  31   2.0000      -0.461899       -12.5689
  32   2.0000      -0.401190       -10.9169
  33   2.0000      -0.390022       -10.6130
  34   0.0000       0.123240         3.3535
  35   0.0000       0.135158         3.6778
  36   0.0000       0.149612         4.0711
  37   0.0000       0.166891         4.5413
  38   0.0000       0.175397         4.7728

MULLIKEN ATOMIC CHARGES
-----------------------
   0 C :   -0.384409
   1 C :   -0.225346
   2 C :   -0.113415
   3 C :   -0.293965
   4 C :    0.206197
   5 O :   -0.328052
   6 C :   -0.026940
   7 C :    0.091686
   8 O :   -0.252622
   9 H :    0.127503
  10 H :    0.123286
  11 H :    0.136865
  12 H :    0.131881
  13 H :    0.119096
  14 H :    0.137542
  15 H :    0.150961
  16 H :    0.142540
  17 H :    0.129305
  18 H :    0.127888
Sum of atomic charges:   -0.0000000

LOEWDIN ATOMIC CHARGES
----------------------
   0 C :   -0.312247
   1 C :   -0.266410
   2 C :   -0.178890
   3 C :   -0.170206
   4 C :   -0.255901
   5 O :    0.169713
   6 C :   -0.225363
   7 C :   -0.292785
   8 O :    0.169192
   9 H :    0.121948
  10 H :    0.121483
  11 H :    0.121836
  12 H :    0.145964
  13 H :    0.142205
  14 H :    0.157800
  15 H :    0.142140
  16 H :    0.147602
  17 H :    0.131130
  18 H :    0.130791

  Mayer bond orders larger than 0.1
B(  0-C ,  1-C ) :   0.9174 B(  0-C ,  9-H ) :   0.9399 B(  0-C , 10-H ) :   0.9355
B(  0-C , 11-H ) :   0.9418 B(  1-C ,  2-C ) :   0.8990 B(  1-C , 12-H ) :   0.9301
B(  1-C , 13-H ) :   0.9346 B(  2-C ,  3-C ) :   0.9311 B(  2-C ,  4-C ) :   0.8096
B(  2-C , 14-H ) :   0.9082 B(  3-C ,  4-C ) :   0.8260 B(  3-C , 15-H ) :   0.9154
B(  3-C , 16-H ) :   0.9113 B(  4-C ,  5-O ) :   0.9529 B(  4-C ,  6-C ) :  -0.1007
B(  4-C ,  7-C ) :   0.8797 B(  5-O ,  6-C ) :   0.9276 B(  6-C ,  7-C ) :   0.9526
B(  6-C , 17-H ) :   0.9014 B(  6-C , 18-H ) :   0.9028 B(  7-C ,  8-O ) :   2.0388

MP2 TOTAL ENERGY:     -422.292805586 Eh
FINAL SINGLE POINT ENERGY      -422.292805585557

DIPOLE MOMENT
-------------
                                X             Y             Z
Electronic contribution:      0.32057      -8.95738      -6.90937
Nuclear contribution   :     -0.42746       9.16846       7.41521
                        -----------------------------------------
Total Dipole Moment    :     -0.10689       0.21108       0.50584
                        -----------------------------------------
Magnitude (a.u.)       :      0.55844
Magnitude (Debye)      :      1.41944

                             ****ORCA TERMINATED NORMALLY****
TOTAL RUN TIME: 0 days 0 hours 26 minutes 37 seconds 63 msec
