                         Program Version 3.0.3 - RELEASE   -
|  1> ! RI-MP2 RIJK def2-TZVP def2-TZVP/C def2-TZVP/JK TIGHTSCF
|  2> % maxcore 2000
|  3> % mp2 density relaxed end
|  4> *xyz 0 1
|  5>  C       -0.2070397286     1.5158831592    -0.0096455136
|  6>  C        0.0106627581     0.0043102250     0.0264199096
|  7>  C        0.6931388841    -0.5136814472    -1.2416655419
|  8>  N        0.9082878391    -1.9515506902    -1.1403055851
|  9>  C        1.4480614110    -2.4208714166     0.0261664914
| 10>  C        1.4612456872    -1.7371632277     1.1997929249
| 11>  C        2.0814334482    -2.2936426707     2.4522380303
| 12>  C        0.7929713729    -0.4382905559     1.2795998355
| 13>  O        0.7800831449     0.2337572302     2.2991645531
| 14>  H        0.7379378405     2.0428614920    -0.1820994055
| 15>  H       -0.9044504362     1.7959876894    -0.8054002346
| 16>  H       -0.6015803097     1.8570986090     0.9484296814
| 17>  H       -0.9660698742    -0.4990721185     0.1049406327
| 18>  H        0.0806999772    -0.3061224276    -2.1241939110
| 19>  H        1.6565127525     0.0113302831    -1.3686739000
| 20>  H        1.2055511872    -2.4178774731    -1.9828346517
| 21>  H        1.8643795507    -3.4235293536    -0.0346546380
| 22>  H        2.4994205598    -3.2902399319     2.2806902263
| 23>  H        2.8838292276    -1.6436693209     2.8176164026
| 24>  H        1.3480436980    -2.3592945542     3.2632442637
| 25> *
| 26>
| 27>                          ****END OF INPUT****

CARTESIAN COORDINATES (ANGSTROEM)
---------------------------------
  C     -0.207040    1.515883   -0.009646
  C      0.010663    0.004310    0.026420
  C      0.693139   -0.513681   -1.241666
  N      0.908288   -1.951551   -1.140306
  C      1.448061   -2.420871    0.026166
  C      1.461246   -1.737163    1.199793
  C      2.081433   -2.293643    2.452238
  C      0.792971   -0.438291    1.279600
  O      0.780083    0.233757    2.299165
  H      0.737938    2.042861   -0.182099
  H     -0.904450    1.795988   -0.805400
  H     -0.601580    1.857099    0.948430
  H     -0.966070   -0.499072    0.104941
  H      0.080700   -0.306122   -2.124194
  H      1.656513    0.011330   -1.368674
  H      1.205551   -2.417877   -1.982835
  H      1.864380   -3.423529   -0.034655
  H      2.499421   -3.290240    2.280690
  H      2.883829   -1.643669    2.817616
  H      1.348044   -2.359295    3.263244

 Total Charge           Charge          ....    0
 Multiplicity           Mult            ....    1
 Number of Electrons    NEL             ....   68
 Basis Dimension        Dim             ....  345

ORBITAL ENERGIES
----------------

  NO   OCC          E(Eh)            E(eV)
   0   2.0000     -20.519732      -558.3703
   1   2.0000     -15.587114      -424.1469
   2   2.0000     -11.311384      -307.7984
   3   2.0000     -11.294154      -307.3295
   4   2.0000     -11.274231      -306.7874
   5   2.0000     -11.239597      -305.8450
   6   2.0000     -11.217865      -305.2536
   7   2.0000     -11.214019      -305.1490
   8   2.0000     -11.212382      -305.1044
   9   2.0000      -1.362182       -37.0668
  10   2.0000      -1.266545       -34.4644
  11   2.0000      -1.073193       -29.2031
  12   2.0000      -1.069197       -29.0943
  13   2.0000      -0.949163       -25.8280
  14   2.0000      -0.922295       -25.0969
  15   2.0000      -0.845962       -23.0198
  16   2.0000      -0.810491       -22.0546
  17   2.0000      -0.723381       -19.6842
  18   2.0000      -0.699593       -19.0369
  19   2.0000      -0.674819       -18.3628
  20   2.0000      -0.636877       -17.3303
  21   2.0000      -0.587756       -15.9936
  22   2.0000      -0.586774       -15.9669
  23   2.0000      -0.575842       -15.6695
  24   2.0000      -0.563644       -15.3375
  25   2.0000      -0.557310       -15.1652
  26   2.0000      -0.529409       -14.4059
  27   2.0000      -0.517158       -14.0726
  28   2.0000      -0.511163       -13.9094
  29   2.0000      -0.492864       -13.4115
  30   2.0000      -0.484350       -13.1798
  31   2.0000      -0.458225       -12.4689
  32   2.0000      -0.392127       -10.6703
  33   2.0000      -0.313786        -8.5385
  34   0.0000       0.108800         2.9606
  35   0.0000       0.121617         3.3094
  36   0.0000       0.143866         3.9148
  37   0.0000       0.158211         4.3051
  38   0.0000       0.175346         4.7714

MULLIKEN ATOMIC CHARGES
-----------------------
   0 C :   -0.407599
   1 C :    0.011169
   2 C :   -0.160580
   3 N :   -0.303795
   4 C :   -0.025271
   5 C :   -0.026910
   6 C :   -0.391049
   7 C :    0.094580
   8 O :   -0.324643
   9 H :    0.122926
  10 H :    0.130277
  11 H :    0.163174
  12 H :    0.102754
  13 H :    0.130069
  14 H :    0.117164
  15 H :    0.235913
  16 H :    0.130537
  17 H :    0.119326
  18 H :    0.141516
  19 H :    0.140442
Sum of atomic charges:    0.0000000

LOEWDIN ATOMIC CHARGES
----------------------
   0 C :   -0.286017
   1 C :   -0.242698
   2 C :   -0.254571
   3 N :    0.075184
   4 C :   -0.183375
   5 C :   -0.207526
   6 C :   -0.270186
   7 C :   -0.294575
   8 O :    0.127261
   9 H :    0.126286
  10 H :    0.121843
  11 H :    0.134723
  12 H :    0.167672
  13 H :    0.135896
  14 H :    0.133091
  15 H :    0.183754
  16 H :    0.144482
  17 H :    0.124298
  18 H :    0.132716
  19 H :    0.131742

  Mayer bond orders larger than 0.1
B(  0-C ,  1-C ) :   0.9268 B(  0-C ,  9-H ) :   0.9267 B(  0-C , 10-H ) :   0.9408
B(  0-C , 11-H ) :   0.9314 B(  1-C ,  2-C ) :   0.9088 B(  1-C ,  7-C ) :   0.9233
B(  1-C , 12-H ) :   0.8889 B(  2-C ,  3-N ) :   0.9162 B(  2-C , 13-H ) :   0.9211
B(  2-C , 14-H ) :   0.9336 B(  3-N ,  4-C ) :   1.1709 B(  3-N , 15-H ) :   0.8761
B(  4-C ,  5-C ) :   1.5807 B(  4-C , 16-H ) :   0.9041 B(  5-C ,  6-C ) :   0.9084
B(  5-C ,  7-C ) :   1.0212 B(  6-C , 17-H ) :   0.9452 B(  6-C , 18-H ) :   0.9293
B(  6-C , 19-H ) :   0.9266 B(  7-C ,  8-O ) :   1.9632

MP2 TOTAL ENERGY:     -402.497974355 Eh
FINAL SINGLE POINT ENERGY      -402.497974354898

DIPOLE MOMENT
-------------
                                X             Y             Z
Electronic contribution:      0.07832      -1.52901       1.28915
Nuclear contribution   :      0.08471       0.74152      -2.90157
                        -----------------------------------------
Total Dipole Moment    :      0.16303      -0.78749      -1.61241
                        -----------------------------------------
Magnitude (a.u.)       :      1.80183
Magnitude (Debye)      :      4.57989

                             ****ORCA TERMINATED NORMALLY****
TOTAL RUN TIME: 0 days 0 hours 19 minutes 1 seconds 267 msec
