                         Program Version 3.0.3 - RELEASE   -
|  1> ! RI-MP2 RIJK def2-TZVP def2-TZVP/C def2-TZVP/JK TIGHTSCF
|  2> % maxcore 2000
|  3> % mp2 density relaxed end
|  4> *xyz 0 1
|  5>  C        0.0298551604     1.3467874801    -0.1940055650
|  6>  O       -0.0115440151    -0.0356238071     0.0610485598
|  7>  C       -1.3114169762    -0.5724016211    -0.0441619422
|  8>  C       -1.2274568508    -2.0715806881     0.2442542552
|  9>  C       -2.5525757786    -2.7457178967     0.1032237172
| 10>  N       -3.1721834533    -3.3293289430     1.1200959439
| 11>  N       -4.3097312361    -3.7862557339     0.5416191143
| 12>  C       -4.3298967709    -3.4654909851    -0.7661747832
| 13>  N       -3.2353683850    -2.8054210571    -1.0835143180
| 14>  H        1.0693018204     1.6684991712    -0.0918378691
| 15>  H       -0.3179896593     1.5864297822    -1.2116500856
| 16>  H       -0.5890068475     1.9141779204     0.5197734918
| 17>  H       -1.9923518377    -0.0839834349     0.6738270164
| 18>  H       -1.7245464470    -0.4072256336    -1.0518817821
| 19>  H       -0.5115908408    -2.5141041028    -0.4568811037
| 20>  H       -0.8491365123    -2.2318098266     1.2565734120
| 21>  H       -4.9852730508    -4.2905947853     1.0915132693
| 22>  H       -5.1402860695    -3.7291161686    -1.4293676411
| 23> *
| 24>
| 25>                          ****END OF INPUT****

CARTESIAN COORDINATES (ANGSTROEM)
---------------------------------
  C      0.029855    1.346787   -0.194006
  O     -0.011544   -0.035624    0.061049
  C     -1.311417   -0.572402   -0.044162
  C     -1.227457   -2.071581    0.244254
  C     -2.552576   -2.745718    0.103224
  N     -3.172183   -3.329329    1.120096
  N     -4.309731   -3.786256    0.541619
  C     -4.329897   -3.465491   -0.766175
  N     -3.235368   -2.805421   -1.083514
  H      1.069302    1.668499   -0.091838
  H     -0.317990    1.586430   -1.211650
  H     -0.589007    1.914178    0.519773
  H     -1.992352   -0.083983    0.673827
  H     -1.724546   -0.407226   -1.051882
  H     -0.511591   -2.514104   -0.456881
  H     -0.849137   -2.231810    1.256573
  H     -4.985273   -4.290595    1.091513
  H     -5.140286   -3.729116   -1.429368

 Total Charge           Charge          ....    0
 Multiplicity           Mult            ....    1
 Number of Electrons    NEL             ....   68
 Basis Dimension        Dim             ....  333

ORBITAL ENERGIES
----------------

  NO   OCC          E(Eh)            E(eV)
   0   2.0000     -20.551483      -559.2343
   1   2.0000     -15.650242      -425.8647
   2   2.0000     -15.590909      -424.2502
   3   2.0000     -15.555869      -423.2967
   4   2.0000     -11.320557      -308.0480
   5   2.0000     -11.290713      -307.2359
   6   2.0000     -11.271872      -306.7232
   7   2.0000     -11.266883      -306.5875
   8   2.0000     -11.226350      -305.4845
   9   2.0000      -1.411531       -38.4097
  10   2.0000      -1.373064       -37.3630
  11   2.0000      -1.197924       -32.5972
  12   2.0000      -1.125424       -30.6243
  13   2.0000      -1.029615       -28.0172
  14   2.0000      -0.925347       -25.1800
  15   2.0000      -0.863939       -23.5090
  16   2.0000      -0.848398       -23.0861
  17   2.0000      -0.785124       -21.3643
  18   2.0000      -0.754345       -20.5268
  19   2.0000      -0.672206       -18.2916
  20   2.0000      -0.656689       -17.8694
  21   2.0000      -0.640551       -17.4303
  22   2.0000      -0.633876       -17.2486
  23   2.0000      -0.620635       -16.8883
  24   2.0000      -0.575532       -15.6610
  25   2.0000      -0.546491       -14.8708
  26   2.0000      -0.516199       -14.0465
  27   2.0000      -0.506730       -13.7888
  28   2.0000      -0.498571       -13.5668
  29   2.0000      -0.476292       -12.9606
  30   2.0000      -0.447838       -12.1863
  31   2.0000      -0.420633       -11.4460
  32   2.0000      -0.413140       -11.2421
  33   2.0000      -0.367035        -9.9875
  34   0.0000       0.128615         3.4998
  35   0.0000       0.145562         3.9609
  36   0.0000       0.151761         4.1296
  37   0.0000       0.172780         4.7016
  38   0.0000       0.175087         4.7644

MULLIKEN ATOMIC CHARGES
-----------------------
   0 C :   -0.210325
   1 O :   -0.301561
   2 C :   -0.077422
   3 C :   -0.154153
   4 C :    0.104376
   5 N :   -0.204435
   6 N :   -0.121429
   7 C :    0.044296
   8 N :   -0.322490
   9 H :    0.137361
  10 H :    0.111385
  11 H :    0.109367
  12 H :    0.093545
  13 H :    0.113208
  14 H :    0.125729
  15 H :    0.132487
  16 H :    0.263734
  17 H :    0.156328
Sum of atomic charges:   -0.0000000

LOEWDIN ATOMIC CHARGES
----------------------
   0 C :   -0.362785
   1 O :    0.133378
   2 C :   -0.321731
   3 C :   -0.226905
   4 C :   -0.354290
   5 N :    0.043170
   6 N :    0.123337
   7 C :   -0.322611
   8 N :    0.099446
   9 H :    0.112877
  10 H :    0.101299
  11 H :    0.100647
  12 H :    0.119587
  13 H :    0.124038
  14 H :    0.153391
  15 H :    0.152210
  16 H :    0.190479
  17 H :    0.134464

  Mayer bond orders larger than 0.1
B(  0-C ,  1-O ) :   0.9198 B(  0-C ,  9-H ) :   0.9398 B(  0-C , 10-H ) :   0.9368
B(  0-C , 11-H ) :   0.9369 B(  1-O ,  2-C ) :   0.9534 B(  2-C ,  3-C ) :   0.9399
B(  2-C , 12-H ) :   0.9225 B(  2-C , 13-H ) :   0.9254 B(  3-C ,  4-C ) :   0.8987
B(  3-C , 14-H ) :   0.9162 B(  3-C , 15-H ) :   0.9321 B(  4-C ,  5-N ) :   1.5957
B(  4-C ,  8-N ) :   1.2810 B(  5-N ,  6-N ) :   1.0621 B(  6-N ,  7-C ) :   1.2235
B(  6-N , 16-H ) :   0.8654 B(  7-C ,  8-N ) :   1.5009 B(  7-C , 17-H ) :   0.9246

MP2 TOTAL ENERGY:     -434.561912624 Eh
FINAL SINGLE POINT ENERGY      -434.561912624494

DIPOLE MOMENT
-------------
                                X             Y             Z
Electronic contribution:     -5.60983      -8.46107       0.78354
Nuclear contribution   :      4.37732       8.21215      -0.68460
                        -----------------------------------------
Total Dipole Moment    :     -1.23252      -0.24893       0.09895
                        -----------------------------------------
Magnitude (a.u.)       :      1.26129
Magnitude (Debye)      :      3.20595

                             ****ORCA TERMINATED NORMALLY****
TOTAL RUN TIME: 0 days 0 hours 16 minutes 9 seconds 382 msec
