                         Program Version 3.0.3 - RELEASE   -
|  1> ! RI-MP2 RIJK def2-TZVP def2-TZVP/C def2-TZVP/JK TIGHTSCF
|  2> % maxcore 2000
|  3> % mp2 density relaxed end
|  4> *xyz 0 1
|  5>  C       -0.0081018377     1.5301225028    -0.0015764410
|  6>  C        0.0747023318     0.0228507554    -0.0895118348
|  7>  C        0.6764882796    -0.7663886754    -1.2233978895
|  8>  N       -0.0743190726    -1.7880825632    -1.8434926546
|  9>  C        1.9672793109    -0.1057423929    -1.7375766424
| 10>  N        2.4971786076     0.0392720787    -0.3409609415
| 11>  C        1.3527124757    -0.7455844393     0.1799942464
| 12>  C        1.5015617358    -1.7576776071     1.1656233127
| 13>  N        1.6486284505    -2.5930254414     1.9552245074
| 14>  H        0.9518746864     1.9919387873    -0.2404650508
| 15>  H       -0.7696177916     1.9200808806    -0.6852338415
| 16>  H       -0.2811279101     1.8352754565     1.0132537794
| 17>  H       -0.7868489124    -0.5122848196     0.3037650658
| 18>  H       -0.8428566769    -1.4235259870    -2.3958701534
| 19>  H        0.4927328666    -2.3916385779    -2.4279501269
| 20>  H        2.5557125200    -0.8065603382    -2.3405090278
| 21>  H        1.8727600581     0.8415372964    -2.2800168321
| 22>  H        3.3639024484    -0.4758301756    -0.2262614653
| 23> *
| 24>
| 25>                          ****END OF INPUT****

CARTESIAN COORDINATES (ANGSTROEM)
---------------------------------
  C     -0.008102    1.530123   -0.001576
  C      0.074702    0.022851   -0.089512
  C      0.676488   -0.766389   -1.223398
  N     -0.074319   -1.788083   -1.843493
  C      1.967279   -0.105742   -1.737577
  N      2.497179    0.039272   -0.340961
  C      1.352712   -0.745584    0.179994
  C      1.501562   -1.757678    1.165623
  N      1.648628   -2.593025    1.955225
  H      0.951875    1.991939   -0.240465
  H     -0.769618    1.920081   -0.685234
  H     -0.281128    1.835275    1.013254
  H     -0.786849   -0.512285    0.303765
  H     -0.842857   -1.423526   -2.395870
  H      0.492733   -2.391639   -2.427950
  H      2.555713   -0.806560   -2.340509
  H      1.872760    0.841537   -2.280017
  H      3.363902   -0.475830   -0.226261

 Total Charge           Charge          ....    0
 Multiplicity           Mult            ....    1
 Number of Electrons    NEL             ....   66
 Basis Dimension        Dim             ....  333

ORBITAL ENERGIES
----------------

  NO   OCC          E(Eh)            E(eV)
   0   2.0000     -15.572850      -423.7588
   1   2.0000     -15.571030      -423.7093
   2   2.0000     -15.568103      -423.6296
   3   2.0000     -11.303485      -307.5835
   4   2.0000     -11.296861      -307.4032
   5   2.0000     -11.277891      -306.8870
   6   2.0000     -11.272288      -306.7346
   7   2.0000     -11.261567      -306.4428
   8   2.0000     -11.226971      -305.5014
   9   2.0000      -1.297464       -35.3058
  10   2.0000      -1.211610       -32.9696
  11   2.0000      -1.199385       -32.6369
  12   2.0000      -1.092380       -29.7252
  13   2.0000      -0.976677       -26.5767
  14   2.0000      -0.963588       -26.2206
  15   2.0000      -0.852493       -23.1975
  16   2.0000      -0.778451       -21.1827
  17   2.0000      -0.748683       -20.3727
  18   2.0000      -0.688555       -18.7365
  19   2.0000      -0.637981       -17.3603
  20   2.0000      -0.631028       -17.1711
  21   2.0000      -0.608607       -16.5610
  22   2.0000      -0.600625       -16.3438
  23   2.0000      -0.569277       -15.4908
  24   2.0000      -0.557890       -15.1810
  25   2.0000      -0.545239       -14.8367
  26   2.0000      -0.522056       -14.2059
  27   2.0000      -0.514713       -14.0061
  28   2.0000      -0.477054       -12.9813
  29   2.0000      -0.457047       -12.4369
  30   2.0000      -0.423735       -11.5304
  31   2.0000      -0.417206       -11.3528
  32   2.0000      -0.351791        -9.5727
  33   0.0000       0.113410         3.0860
  34   0.0000       0.132832         3.6145
  35   0.0000       0.144703         3.9376
  36   0.0000       0.157475         4.2851
  37   0.0000       0.168638         4.5889

MULLIKEN ATOMIC CHARGES
-----------------------
   0 C :   -0.400324
   1 C :   -0.143670
   2 C :    0.078418
   3 N :   -0.536991
   4 C :   -0.161298
   5 N :   -0.337814
   6 C :    0.239602
   7 C :   -0.233369
   8 N :   -0.048013
   9 H :    0.161711
  10 H :    0.131087
  11 H :    0.141073
  12 H :    0.149418
  13 H :    0.251751
  14 H :    0.241140
  15 H :    0.125368
  16 H :    0.123983
  17 H :    0.217927
Sum of atomic charges:    0.0000000

LOEWDIN ATOMIC CHARGES
----------------------
   0 C :   -0.283230
   1 C :   -0.159331
   2 C :   -0.270634
   3 N :   -0.095757
   4 C :   -0.221666
   5 N :    0.025898
   6 C :   -0.221773
   7 C :   -0.161570
   8 N :    0.070353
   9 H :    0.135902
  10 H :    0.126842
  11 H :    0.131386
  12 H :    0.170871
  13 H :    0.166714
  14 H :    0.162832
  15 H :    0.128616
  16 H :    0.124482
  17 H :    0.170064

  Mayer bond orders larger than 0.1
B(  0-C ,  1-C ) :   0.8939 B(  0-C ,  9-H ) :   0.9279 B(  0-C , 10-H ) :   0.9347
B(  0-C , 11-H ) :   0.9347 B(  1-C ,  2-C ) :   0.9050 B(  1-C ,  6-C ) :   0.8660
B(  1-C , 12-H ) :   0.9338 B(  2-C ,  3-N ) :   1.0362 B(  2-C ,  4-C ) :   0.9788
B(  2-C ,  6-C ) :   0.7003 B(  3-N , 13-H ) :   0.8715 B(  3-N , 14-H ) :   0.8818
B(  4-C ,  5-N ) :   0.9401 B(  4-C , 15-H ) :   0.9108 B(  4-C , 16-H ) :   0.9235
B(  5-N ,  6-C ) :   1.0277 B(  5-N , 17-H ) :   0.8693 B(  6-C ,  7-C ) :   0.8733
B(  7-C ,  8-N ) :   2.8686

MP2 TOTAL ENERGY:     -397.404343366 Eh
FINAL SINGLE POINT ENERGY      -397.404343365636

DIPOLE MOMENT
-------------
                                X             Y             Z
Electronic contribution:      2.52395      -5.76473       4.56860
Nuclear contribution   :     -2.78908       6.50800      -6.43586
                        -----------------------------------------
Total Dipole Moment    :     -0.26513       0.74327      -1.86727
                        -----------------------------------------
Magnitude (a.u.)       :      2.02717
Magnitude (Debye)      :      5.15266

                             ****ORCA TERMINATED NORMALLY****
TOTAL RUN TIME: 0 days 0 hours 18 minutes 11 seconds 205 msec
