                         Program Version 3.0.3 - RELEASE   -
|  1> ! RI-MP2 RIJK def2-TZVP def2-TZVP/C def2-TZVP/JK TIGHTSCF
|  2> % maxcore 2000
|  3> % mp2 density relaxed end
|  4> *xyz 0 1
|  5>  C       -0.0890312497     1.4462114930     0.1476185423
|  6>  C       -0.0323929990    -0.0072121529     0.1109259673
|  7>  C        0.0058736404    -1.2105482307     0.0922510855
|  8>  C        0.0448304205    -2.6589486572     0.0476922284
|  9>  N        0.3094241511    -3.3655424657     1.3503874018
| 10>  C       -0.8349141827    -4.2838757793     1.1314129483
| 11>  C       -2.1163454327    -3.7520247694     1.7962441909
| 12>  O       -2.4003201943    -2.9149259099     0.6418301929
| 13>  C       -1.2943227514    -3.4525585193    -0.0881181714
| 14>  H        0.5368675729     1.8930110766    -0.6328777734
| 15>  H       -1.1132432951     1.8064788208     0.0006981576
| 16>  H        0.2604962702     1.8293157075     1.1128086733
| 17>  H        0.7297980159    -2.9908130466    -0.7464364057
| 18>  H        1.2100794610    -3.8293808875     1.3666642468
| 19>  H       -0.6298840734    -5.3547685678     1.1414579704
| 20>  H       -2.9117275828    -4.4933198091     1.9462258057
| 21>  H       -1.9583760080    -3.1685851331     2.7083176997
| 22>  H       -1.5712605828    -3.8082241594    -1.0829393407
| 23> *
| 24>
| 25>                          ****END OF INPUT****

CARTESIAN COORDINATES (ANGSTROEM)
---------------------------------
  C     -0.089031    1.446211    0.147619
  C     -0.032393   -0.007212    0.110926
  C      0.005874   -1.210548    0.092251
  C      0.044830   -2.658949    0.047692
  N      0.309424   -3.365542    1.350387
  C     -0.834914   -4.283876    1.131413
  C     -2.116345   -3.752025    1.796244
  O     -2.400320   -2.914926    0.641830
  C     -1.294323   -3.452559   -0.088118
  H      0.536868    1.893011   -0.632878
  H     -1.113243    1.806479    0.000698
  H      0.260496    1.829316    1.112809
  H      0.729798   -2.990813   -0.746436
  H      1.210079   -3.829381    1.366664
  H     -0.629884   -5.354769    1.141458
  H     -2.911728   -4.493320    1.946226
  H     -1.958376   -3.168585    2.708318
  H     -1.571261   -3.808224   -1.082939

 Total Charge           Charge          ....    0
 Multiplicity           Mult            ....    1
 Number of Electrons    NEL             ....   66
 Basis Dimension        Dim             ....  333

ORBITAL ENERGIES
----------------

  NO   OCC          E(Eh)            E(eV)
   0   2.0000     -20.549543      -559.1815
   1   2.0000     -15.552855      -423.2147
   2   2.0000     -11.289468      -307.2020
   3   2.0000     -11.283521      -307.0402
   4   2.0000     -11.275541      -306.8231
   5   2.0000     -11.266831      -306.5861
   6   2.0000     -11.240799      -305.8777
   7   2.0000     -11.219041      -305.2856
   8   2.0000     -11.208841      -305.0081
   9   2.0000      -1.387081       -37.7444
  10   2.0000      -1.225938       -33.3595
  11   2.0000      -1.055258       -28.7150
  12   2.0000      -0.998535       -27.1715
  13   2.0000      -0.959742       -26.1159
  14   2.0000      -0.940526       -25.5930
  15   2.0000      -0.873288       -23.7634
  16   2.0000      -0.740929       -20.1617
  17   2.0000      -0.730603       -19.8807
  18   2.0000      -0.678369       -18.4594
  19   2.0000      -0.657994       -17.9049
  20   2.0000      -0.621758       -16.9189
  21   2.0000      -0.613261       -16.6877
  22   2.0000      -0.581335       -15.8189
  23   2.0000      -0.580334       -15.7917
  24   2.0000      -0.568652       -15.4738
  25   2.0000      -0.558563       -15.1993
  26   2.0000      -0.539522       -14.6812
  27   2.0000      -0.485665       -13.2156
  28   2.0000      -0.453932       -12.3521
  29   2.0000      -0.418009       -11.3746
  30   2.0000      -0.382917       -10.4197
  31   2.0000      -0.364600        -9.9213
  32   2.0000      -0.354995        -9.6599
  33   0.0000       0.130216         3.5434
  34   0.0000       0.146475         3.9858
  35   0.0000       0.156757         4.2656
  36   0.0000       0.166136         4.5208
  37   0.0000       0.190137         5.1739

MULLIKEN ATOMIC CHARGES
-----------------------
   0 C :   -0.485523
   1 C :    0.058241
   2 C :    0.017512
   3 C :   -0.171393
   4 N :   -0.342537
   5 C :   -0.090288
   6 C :   -0.001578
   7 O :   -0.330630
   8 C :    0.095660
   9 H :    0.159113
  10 H :    0.165538
  11 H :    0.163099
  12 H :    0.119884
  13 H :    0.207183
  14 H :    0.124387
  15 H :    0.092916
  16 H :    0.105502
  17 H :    0.112913
Sum of atomic charges:    0.0000000

LOEWDIN ATOMIC CHARGES
----------------------
   0 C :   -0.294066
   1 C :   -0.088879
   2 C :   -0.065171
   3 C :   -0.241784
   4 N :    0.019304
   5 C :   -0.242969
   6 C :   -0.241838
   7 O :    0.147152
   8 C :   -0.223472
   9 H :    0.139566
  10 H :    0.142123
  11 H :    0.142037
  12 H :    0.155174
  13 H :    0.159394
  14 H :    0.127576
  15 H :    0.116510
  16 H :    0.122450
  17 H :    0.126893

  Mayer bond orders larger than 0.1
B(  0-C ,  1-C ) :   0.8608 B(  0-C ,  9-H ) :   0.9509 B(  0-C , 10-H ) :   0.9454
B(  0-C , 11-H ) :   0.9434 B(  1-C ,  2-C ) :   2.6853 B(  1-C ,  3-C ) :  -0.1038
B(  2-C ,  3-C ) :   1.0490 B(  3-C ,  4-N ) :   0.9635 B(  3-C ,  8-C ) :   0.8775
B(  3-C , 12-H ) :   0.9335 B(  4-N ,  5-C ) :   1.0187 B(  4-N , 13-H ) :   0.8766
B(  5-C ,  6-C ) :   0.9565 B(  5-C ,  8-C ) :   0.9456 B(  5-C , 14-H ) :   0.9117
B(  6-C ,  7-O ) :   0.9253 B(  6-C , 15-H ) :   0.9180 B(  6-C , 16-H ) :   0.9010
B(  7-O ,  8-C ) :   0.9932 B(  8-C , 17-H ) :   0.9304

MP2 TOTAL ENERGY:     -401.161510465 Eh
FINAL SINGLE POINT ENERGY      -401.161510465326

DIPOLE MOMENT
-------------
                                X             Y             Z
Electronic contribution:     -0.61682      -2.72418      -0.60915
Nuclear contribution   :      1.13741       2.13153       0.39013
                        -----------------------------------------
Total Dipole Moment    :      0.52059      -0.59265      -0.21902
                        -----------------------------------------
Magnitude (a.u.)       :      0.81867
Magnitude (Debye)      :      2.08088

                             ****ORCA TERMINATED NORMALLY****
TOTAL RUN TIME: 0 days 0 hours 17 minutes 49 seconds 801 msec
