                         Program Version 3.0.3 - RELEASE   -
|  1> ! RI-MP2 RIJK def2-TZVP def2-TZVP/C def2-TZVP/JK TIGHTSCF
|  2> % maxcore 2000
|  3> % mp2 density relaxed end
|  4> *xyz 0 1
|  5>  C       -0.0178621762     1.5228484538     0.0595009619
|  6>  C        0.0023739380     0.0232276681    -0.0233131531
|  7>  C       -0.0269204736    -0.6863741648    -1.1847188487
|  8>  C       -0.0064738754    -2.1405239236    -1.2414315690
|  9>  O       -0.0323266867    -2.7937587611    -2.2782082072
| 10>  C        0.0495639760    -2.7761571040     0.0934463944
| 11>  O        0.0702037890    -4.1326567944     0.0854493471
| 12>  C        0.0771303133    -2.0258163763     1.2230883174
| 13>  N        0.0539295494    -0.6473962228     1.1659277132
| 14>  H        0.8789361502     1.9064562877     0.5605965228
| 15>  H       -0.0593008647     1.9577925077    -0.9395850902
| 16>  H       -0.8890877476     1.8792065213     0.6220620614
| 17>  H       -0.0678129718    -0.1635064067    -2.1326388823
| 18>  H        0.1066048832    -4.4618636791     0.9901792615
| 19>  H        0.1182268808    -2.4544423625     2.2184833193
| 20>  H        0.0755826261    -0.1265746533     2.0262414915
| 21> *
| 22>
| 23>                          ****END OF INPUT****

CARTESIAN COORDINATES (ANGSTROEM)
---------------------------------
  C     -0.017862    1.522848    0.059501
  C      0.002374    0.023228   -0.023313
  C     -0.026920   -0.686374   -1.184719
  C     -0.006474   -2.140524   -1.241432
  O     -0.032327   -2.793759   -2.278208
  C      0.049564   -2.776157    0.093446
  O      0.070204   -4.132657    0.085449
  C      0.077130   -2.025816    1.223088
  N      0.053930   -0.647396    1.165928
  H      0.878936    1.906456    0.560597
  H     -0.059301    1.957793   -0.939585
  H     -0.889088    1.879207    0.622062
  H     -0.067813   -0.163506   -2.132639
  H      0.106605   -4.461864    0.990179
  H      0.118227   -2.454442    2.218483
  H      0.075583   -0.126575    2.026241

 Total Charge           Charge          ....    0
 Multiplicity           Mult            ....    1
 Number of Electrons    NEL             ....   66
 Basis Dimension        Dim             ....  321

ORBITAL ENERGIES
----------------

  NO   OCC          E(Eh)            E(eV)
   0   2.0000     -20.585225      -560.1524
   1   2.0000     -20.496385      -557.7350
   2   2.0000     -15.627390      -425.2429
   3   2.0000     -11.311495      -307.8014
   4   2.0000     -11.308882      -307.7303
   5   2.0000     -11.298796      -307.4559
   6   2.0000     -11.292955      -307.2969
   7   2.0000     -11.256456      -306.3037
   8   2.0000     -11.220616      -305.3285
   9   2.0000      -1.407064       -38.2882
  10   2.0000      -1.337588       -36.3976
  11   2.0000      -1.307164       -35.5697
  12   2.0000      -1.084173       -29.5018
  13   2.0000      -1.053913       -28.6784
  14   2.0000      -0.971973       -26.4487
  15   2.0000      -0.877969       -23.8907
  16   2.0000      -0.835814       -22.7436
  17   2.0000      -0.764640       -20.8069
  18   2.0000      -0.741994       -20.1907
  19   2.0000      -0.670049       -18.2330
  20   2.0000      -0.658129       -17.9086
  21   2.0000      -0.631936       -17.1958
  22   2.0000      -0.608243       -16.5511
  23   2.0000      -0.594641       -16.1810
  24   2.0000      -0.593779       -16.1575
  25   2.0000      -0.568891       -15.4803
  26   2.0000      -0.557551       -15.1717
  27   2.0000      -0.545135       -14.8339
  28   2.0000      -0.539442       -14.6790
  29   2.0000      -0.500357       -13.6154
  30   2.0000      -0.396474       -10.7886
  31   2.0000      -0.361656        -9.8412
  32   2.0000      -0.308640        -8.3985
  33   0.0000       0.105303         2.8654
  34   0.0000       0.114677         3.1205
  35   0.0000       0.130123         3.5408
  36   0.0000       0.141109         3.8398
  37   0.0000       0.149617         4.0713

MULLIKEN ATOMIC CHARGES
-----------------------
   0 C :   -0.449883
   1 C :    0.238114
   2 C :   -0.270871
   3 C :    0.160791
   4 O :   -0.350225
   5 C :    0.117812
   6 O :   -0.384379
   7 C :   -0.089612
   8 N :   -0.260452
   9 H :    0.150186
  10 H :    0.158781
  11 H :    0.150175
  12 H :    0.131368
  13 H :    0.317161
  14 H :    0.133849
  15 H :    0.247186
Sum of atomic charges:    0.0000000

LOEWDIN ATOMIC CHARGES
----------------------
   0 C :   -0.265262
   1 C :   -0.241763
   2 C :   -0.119800
   3 C :   -0.357992
   4 O :    0.088940
   5 C :   -0.266599
   6 O :    0.096276
   7 C :   -0.211034
   8 N :    0.183633
   9 H :    0.133167
  10 H :    0.140196
  11 H :    0.133164
  12 H :    0.156318
  13 H :    0.189167
  14 H :    0.140098
  15 H :    0.201491

  Mayer bond orders larger than 0.1
B(  0-C ,  1-C ) :   0.8487 B(  0-C ,  9-H ) :   0.9315 B(  0-C , 10-H ) :   0.9475
B(  0-C , 11-H ) :   0.9315 B(  1-C ,  2-C ) :   1.4774 B(  1-C ,  8-N ) :   1.1374
B(  2-C ,  3-C ) :   1.1354 B(  2-C , 12-H ) :   0.9241 B(  3-C ,  4-O ) :   1.9445
B(  3-C ,  5-C ) :   0.9616 B(  5-C ,  6-O ) :   1.1646 B(  5-C ,  7-C ) :   1.5264
B(  6-O , 13-H ) :   0.8348 B(  7-C ,  8-N ) :   1.0683 B(  7-C , 14-H ) :   0.9043
B(  8-N , 15-H ) :   0.8752

MP2 TOTAL ENERGY:     -437.210670155 Eh
FINAL SINGLE POINT ENERGY      -437.210670154970

DIPOLE MOMENT
-------------
                                X             Y             Z
Electronic contribution:      0.04392      -7.23300      -1.95087
Nuclear contribution   :      0.02409       8.78001       4.60426
                        -----------------------------------------
Total Dipole Moment    :      0.06802       1.54701       2.65339
                        -----------------------------------------
Magnitude (a.u.)       :      3.07219
Magnitude (Debye)      :      7.80889

                             ****ORCA TERMINATED NORMALLY****
TOTAL RUN TIME: 0 days 0 hours 15 minutes 17 seconds 191 msec
