                         Program Version 3.0.3 - RELEASE   -
|  1> ! RI-MP2 RIJK def2-TZVP def2-TZVP/C def2-TZVP/JK TIGHTSCF
|  2> % maxcore 2000
|  3> % mp2 density relaxed end
|  4> *xyz 0 1
|  5>  C       -0.0468181966     1.5305928667     0.0842417495
|  6>  C       -0.0303540962     0.0245770443     0.0338049173
|  7>  C        0.0158348576    -0.6929945586    -1.3106986804
|  8>  C       -0.3793782416    -2.1292218078    -0.9088252728
|  9>  C        0.8163612422    -2.8687633458    -0.2996160349
| 10>  C        1.4278715165    -2.0196940827     0.8500863500
| 11>  C        0.5622635758    -0.8079146021     1.1704233737
| 12>  C       -0.9183927487    -0.8578439789     0.8753820626
| 13>  O       -1.3682584955    -1.9583996598     0.1205442201
| 14>  H        0.8995965185     1.9572424176    -0.2695474761
| 15>  H       -0.8490086608     1.9389722515    -0.5423677722
| 16>  H       -0.2061783544     1.8919517070     1.1056060429
| 17>  H       -0.7185222441    -0.2520906928    -1.9943833006
| 18>  H        0.9961463188    -0.6638363455    -1.7984904227
| 19>  H       -0.8426655811    -2.7037183744    -1.7140709589
| 20>  H        0.4619291727    -3.8322748319     0.0776737000
| 21>  H        1.5610338818    -3.0786621535    -1.0751178259
| 22>  H        1.5436663603    -2.6327488769     1.7500632160
| 23>  H        2.4356390842    -1.6800068858     0.5841074244
| 24>  H        0.8525443512    -0.2449038146     2.0537029882
| 25>  H       -1.6665970606    -0.4941954157     1.5700434899
| 26> *
| 27>
| 28>                          ****END OF INPUT****

CARTESIAN COORDINATES (ANGSTROEM)
---------------------------------
  C     -0.046818    1.530593    0.084242
  C     -0.030354    0.024577    0.033805
  C      0.015835   -0.692995   -1.310699
  C     -0.379378   -2.129222   -0.908825
  C      0.816361   -2.868763   -0.299616
  C      1.427872   -2.019694    0.850086
  C      0.562264   -0.807915    1.170423
  C     -0.918393   -0.857844    0.875382
  O     -1.368258   -1.958400    0.120544
  H      0.899597    1.957242   -0.269547
  H     -0.849009    1.938972   -0.542368
  H     -0.206178    1.891952    1.105606
  H     -0.718522   -0.252091   -1.994383
  H      0.996146   -0.663836   -1.798490
  H     -0.842666   -2.703718   -1.714071
  H      0.461929   -3.832275    0.077674
  H      1.561034   -3.078662   -1.075118
  H      1.543666   -2.632749    1.750063
  H      2.435639   -1.680007    0.584107
  H      0.852544   -0.244904    2.053703
  H     -1.666597   -0.494195    1.570043

 Total Charge           Charge          ....    0
 Multiplicity           Mult            ....    1
 Number of Electrons    NEL             ....   68
 Basis Dimension        Dim             ....  351

ORBITAL ENERGIES
----------------

  NO   OCC          E(Eh)            E(eV)
   0   2.0000     -20.548080      -559.1417
   1   2.0000     -11.274119      -306.7844
   2   2.0000     -11.269461      -306.6576
   3   2.0000     -11.229607      -305.5732
   4   2.0000     -11.224934      -305.4460
   5   2.0000     -11.223650      -305.4110
   6   2.0000     -11.222345      -305.3755
   7   2.0000     -11.219551      -305.2995
   8   2.0000     -11.217922      -305.2552
   9   2.0000      -1.381427       -37.5905
  10   2.0000      -1.146078       -31.1864
  11   2.0000      -1.054117       -28.6840
  12   2.0000      -1.011984       -27.5375
  13   2.0000      -0.947307       -25.7775
  14   2.0000      -0.873740       -23.7757
  15   2.0000      -0.833906       -22.6917
  16   2.0000      -0.751492       -20.4491
  17   2.0000      -0.716707       -19.5026
  18   2.0000      -0.693467       -18.8702
  19   2.0000      -0.638731       -17.3808
  20   2.0000      -0.617375       -16.7996
  21   2.0000      -0.596010       -16.2183
  22   2.0000      -0.573135       -15.5958
  23   2.0000      -0.568004       -15.4562
  24   2.0000      -0.554553       -15.0902
  25   2.0000      -0.540595       -14.7103
  26   2.0000      -0.536699       -14.6043
  27   2.0000      -0.517108       -14.0712
  28   2.0000      -0.494248       -13.4492
  29   2.0000      -0.483127       -13.1466
  30   2.0000      -0.455188       -12.3863
  31   2.0000      -0.439768       -11.9667
  32   2.0000      -0.380035       -10.3413
  33   2.0000      -0.355976        -9.6866
  34   0.0000       0.129744         3.5305
  35   0.0000       0.155463         4.2304
  36   0.0000       0.167997         4.5714
  37   0.0000       0.174256         4.7418
  38   0.0000       0.189463         5.1556

MULLIKEN ATOMIC CHARGES
-----------------------
   0 C :   -0.429398
   1 C :    0.083649
   2 C :   -0.279353
   3 C :    0.172009
   4 C :   -0.269116
   5 C :   -0.197578
   6 C :   -0.167836
   7 C :   -0.024833
   8 O :   -0.323591
   9 H :    0.132866
  10 H :    0.131685
  11 H :    0.128064
  12 H :    0.116153
  13 H :    0.115791
  14 H :    0.116698
  15 H :    0.115852
  16 H :    0.108442
  17 H :    0.117904
  18 H :    0.113252
  19 H :    0.114572
  20 H :    0.124769
Sum of atomic charges:   -0.0000000

LOEWDIN ATOMIC CHARGES
----------------------
   0 C :   -0.271014
   1 C :   -0.236303
   2 C :   -0.185591
   3 C :   -0.285713
   4 C :   -0.237241
   5 C :   -0.229127
   6 C :   -0.169991
   7 C :   -0.238085
   8 O :    0.199439
   9 H :    0.126670
  10 H :    0.127814
  11 H :    0.128506
  12 H :    0.143013
  13 H :    0.143151
  14 H :    0.140583
  15 H :    0.140002
  16 H :    0.136512
  17 H :    0.140203
  18 H :    0.138781
  19 H :    0.150313
  20 H :    0.138079

  Mayer bond orders larger than 0.1
B(  0-C ,  1-C ) :   0.8769 B(  0-C ,  9-H ) :   0.9436 B(  0-C , 10-H ) :   0.9413
B(  0-C , 11-H ) :   0.9368 B(  1-C ,  2-C ) :   0.9763 B(  1-C ,  6-C ) :   0.8321
B(  1-C ,  7-C ) :   0.8707 B(  2-C ,  3-C ) :   0.9442 B(  2-C , 12-H ) :   0.9153
B(  2-C , 13-H ) :   0.9206 B(  3-C ,  4-C ) :   0.9213 B(  3-C ,  8-O ) :   0.8901
B(  3-C , 14-H ) :   0.9229 B(  4-C ,  5-C ) :   0.9857 B(  4-C , 15-H ) :   0.9225
B(  4-C , 16-H ) :   0.9208 B(  5-C ,  6-C ) :   0.9246 B(  5-C , 17-H ) :   0.9230
B(  5-C , 18-H ) :   0.9258 B(  6-C ,  7-C ) :   0.8775 B(  6-C , 19-H ) :   0.9193
B(  7-C ,  8-O ) :   0.9934 B(  7-C , 20-H ) :   0.9343

MP2 TOTAL ENERGY:     -386.430171081 Eh
FINAL SINGLE POINT ENERGY      -386.430171081411

DIPOLE MOMENT
-------------
                                X             Y             Z
Electronic contribution:     -3.64501      -2.74532       0.80067
Nuclear contribution   :      4.17141       3.05039      -0.92680
                        -----------------------------------------
Total Dipole Moment    :      0.52639       0.30507      -0.12613
                        -----------------------------------------
Magnitude (a.u.)       :      0.62134
Magnitude (Debye)      :      1.57933

                             ****ORCA TERMINATED NORMALLY****
TOTAL RUN TIME: 0 days 0 hours 20 minutes 27 seconds 650 msec
