                         Program Version 3.0.3 - RELEASE   -
|  1> ! RI-MP2 RIJK def2-TZVP def2-TZVP/C def2-TZVP/JK TIGHTSCF
|  2> % maxcore 2000
|  3> % mp2 density relaxed end
|  4> *xyz 0 1
|  5>  C       -0.9022964447     1.3985628551    -0.3831951132
|  6>  O       -1.0203756892     0.0028134520    -0.5343527494
|  7>  C       -0.5565084944    -0.7138270893     0.6061721143
|  8>  C       -0.7911204489    -2.1738190508     0.4027901605
|  9>  C       -1.8582205130    -2.7433445606    -0.2363525450
| 10>  N       -2.9907535775    -2.2014261808    -0.8184547018
| 11>  O       -1.7658871340    -4.0924187755    -0.2275778195
| 12>  C       -0.6057194292    -4.4114016688     0.4423075494
| 13>  C        0.0187714576    -3.2794385177     0.8417348222
| 14>  H       -1.2865097005     1.8617412359    -1.2952364673
| 15>  H       -1.4817204146     1.7680798781     0.4774487894
| 16>  H        0.1469945712     1.7024657438    -0.2458147519
| 17>  H        0.5170005696    -0.5182779237     0.7630802156
| 18>  H       -1.0804984027    -0.3331403415     1.5018244872
| 19>  H       -2.8126491342    -1.2453513427    -1.1022840633
| 20>  H       -3.3456830757    -2.7612017577    -1.5833693479
| 21>  H       -0.3957339416    -5.4628776658     0.5300974685
| 22>  H        0.9514681419    -3.2204423700     1.3824824324
| 23> *
| 24>
| 25>                          ****END OF INPUT****

CARTESIAN COORDINATES (ANGSTROEM)
---------------------------------
  C     -0.902296    1.398563   -0.383195
  O     -1.020376    0.002813   -0.534353
  C     -0.556508   -0.713827    0.606172
  C     -0.791120   -2.173819    0.402790
  C     -1.858221   -2.743345   -0.236353
  N     -2.990754   -2.201426   -0.818455
  O     -1.765887   -4.092419   -0.227578
  C     -0.605719   -4.411402    0.442308
  C      0.018771   -3.279439    0.841735
  H     -1.286510    1.861741   -1.295236
  H     -1.481720    1.768080    0.477449
  H      0.146995    1.702466   -0.245815
  H      0.517001   -0.518278    0.763080
  H     -1.080498   -0.333140    1.501824
  H     -2.812649   -1.245351   -1.102284
  H     -3.345683   -2.761202   -1.583369
  H     -0.395734   -5.462878    0.530097
  H      0.951468   -3.220442    1.382482

 Total Charge           Charge          ....    0
 Multiplicity           Mult            ....    1
 Number of Electrons    NEL             ....   68
 Basis Dimension        Dim             ....  333

ORBITAL ENERGIES
----------------

  NO   OCC          E(Eh)            E(eV)
   0   2.0000     -20.611284      -560.8615
   1   2.0000     -20.564132      -559.5785
   2   2.0000     -15.563141      -423.4946
   3   2.0000     -11.319283      -308.0133
   4   2.0000     -11.285613      -307.0971
   5   2.0000     -11.276959      -306.8616
   6   2.0000     -11.268325      -306.6267
   7   2.0000     -11.224211      -305.4263
   8   2.0000     -11.207879      -304.9819
   9   2.0000      -1.453444       -39.5502
  10   2.0000      -1.381828       -37.6014
  11   2.0000      -1.207576       -32.8598
  12   2.0000      -1.087255       -29.5857
  13   2.0000      -0.993980       -27.0476
  14   2.0000      -0.947325       -25.7780
  15   2.0000      -0.885527       -24.0964
  16   2.0000      -0.805950       -21.9310
  17   2.0000      -0.754859       -20.5407
  18   2.0000      -0.716165       -19.4879
  19   2.0000      -0.676124       -18.3983
  20   2.0000      -0.661911       -18.0115
  21   2.0000      -0.656126       -17.8541
  22   2.0000      -0.634556       -17.2671
  23   2.0000      -0.629452       -17.1283
  24   2.0000      -0.606063       -16.4918
  25   2.0000      -0.567137       -15.4326
  26   2.0000      -0.559534       -15.2257
  27   2.0000      -0.530960       -14.4482
  28   2.0000      -0.519188       -14.1278
  29   2.0000      -0.492508       -13.4018
  30   2.0000      -0.472885       -12.8678
  31   2.0000      -0.435560       -11.8522
  32   2.0000      -0.383564       -10.4373
  33   2.0000      -0.275486        -7.4964
  34   0.0000       0.135252         3.6804
  35   0.0000       0.156804         4.2669
  36   0.0000       0.166933         4.5425
  37   0.0000       0.171604         4.6696
  38   0.0000       0.187878         5.1124

MULLIKEN ATOMIC CHARGES
-----------------------
   0 C :   -0.213976
   1 O :   -0.331108
   2 C :   -0.095138
   3 C :   -0.008230
   4 C :    0.277215
   5 N :   -0.508328
   6 O :   -0.235764
   7 C :   -0.022629
   8 C :   -0.250393
   9 H :    0.138669
  10 H :    0.116160
  11 H :    0.116007
  12 H :    0.108101
  13 H :    0.111911
  14 H :    0.270323
  15 H :    0.251932
  16 H :    0.145801
  17 H :    0.129449
Sum of atomic charges:   -0.0000000

LOEWDIN ATOMIC CHARGES
----------------------
   0 C :   -0.362327
   1 O :    0.124180
   2 C :   -0.280043
   3 C :   -0.193211
   4 C :   -0.327069
   5 N :   -0.073220
   6 O :    0.339651
   7 C :   -0.249910
   8 C :   -0.175244
   9 H :    0.113371
  10 H :    0.102319
  11 H :    0.104189
  12 H :    0.129231
  13 H :    0.126461
  14 H :    0.176117
  15 H :    0.172263
  16 H :    0.129704
  17 H :    0.143538

  Mayer bond orders larger than 0.1
B(  0-C ,  1-O ) :   0.9060 B(  0-C ,  9-H ) :   0.9389 B(  0-C , 10-H ) :   0.9371
B(  0-C , 11-H ) :   0.9353 B(  1-O ,  2-C ) :   0.9490 B(  2-C ,  3-C ) :   0.9089
B(  2-C , 12-H ) :   0.9258 B(  2-C , 13-H ) :   0.9355 B(  3-C ,  4-C ) :   1.4759
B(  3-C ,  8-C ) :   1.1409 B(  4-C ,  5-N ) :   1.0696 B(  4-C ,  6-O ) :   1.0847
B(  5-N , 14-H ) :   0.8590 B(  5-N , 15-H ) :   0.8703 B(  6-O ,  7-C ) :   0.9942
B(  7-C ,  8-C ) :   1.6086 B(  7-C , 16-H ) :   0.9366 B(  8-C , 17-H ) :   0.9266

MP2 TOTAL ENERGY:     -438.369723084 Eh
FINAL SINGLE POINT ENERGY      -438.369723084401

DIPOLE MOMENT
-------------
                                X             Y             Z
Electronic contribution:     -1.55560      -8.09234      -0.70591
Nuclear contribution   :      1.81583       8.74739       0.59422
                        -----------------------------------------
Total Dipole Moment    :      0.26023       0.65505      -0.11169
                        -----------------------------------------
Magnitude (a.u.)       :      0.71364
Magnitude (Debye)      :      1.81393

                             ****ORCA TERMINATED NORMALLY****
TOTAL RUN TIME: 0 days 0 hours 15 minutes 56 seconds 600 msec
