                         Program Version 3.0.3 - RELEASE   -
|  1> ! RI-MP2 RIJK def2-TZVP def2-TZVP/C def2-TZVP/JK TIGHTSCF
|  2> % maxcore 2000
|  3> % mp2 density relaxed end
|  4> *xyz 0 1
|  5>  O       -0.0264335840    -0.0010212083    -0.2260582810
|  6>  C       -0.0491629808     1.1669557136     0.0316141291
|  7>  C       -1.3021110055     1.9983550670     0.3472954083
|  8>  C       -0.7666404636     3.2813633759     0.9331925113
|  9>  O        0.0992350754     3.0527468339     2.0536927100
| 10>  C        0.6972948675     3.3413361905     0.7905210153
| 11>  C        1.2044247175     2.1034051790     0.0666949040
| 12>  C        2.3852039797     1.4850490075     0.6407925602
| 13>  C        3.3625958071     0.9815002494     1.1233748256
| 14>  H       -1.8612917313     2.1750850681    -0.5803763327
| 15>  H       -1.9557509898     1.4457010356     1.0274394742
| 16>  H       -1.3817017175     4.1750350844     0.9875559055
| 17>  H        1.2529099361     4.2724065207     0.7276073369
| 18>  H        1.4052044198     2.3731390051    -0.9828547548
| 19>  H        4.2222417593     0.5291160675     1.5522743081
| 20> *
| 21>
| 22>                          ****END OF INPUT****

CARTESIAN COORDINATES (ANGSTROEM)
---------------------------------
  O     -0.026434   -0.001021   -0.226058
  C     -0.049163    1.166956    0.031614
  C     -1.302111    1.998355    0.347295
  C     -0.766640    3.281363    0.933193
  O      0.099235    3.052747    2.053693
  C      0.697295    3.341336    0.790521
  C      1.204425    2.103405    0.066695
  C      2.385204    1.485049    0.640793
  C      3.362596    0.981500    1.123375
  H     -1.861292    2.175085   -0.580376
  H     -1.955751    1.445701    1.027439
  H     -1.381702    4.175035    0.987556
  H      1.252910    4.272407    0.727607
  H      1.405204    2.373139   -0.982855
  H      4.222242    0.529116    1.552274

 Total Charge           Charge          ....    0
 Multiplicity           Mult            ....    1
 Number of Electrons    NEL             ....   64
 Basis Dimension        Dim             ....  315

ORBITAL ENERGIES
----------------

  NO   OCC          E(Eh)            E(eV)
   0   2.0000     -20.589305      -560.2635
   1   2.0000     -20.563434      -559.5595
   2   2.0000     -11.351769      -308.8973
   3   2.0000     -11.312894      -307.8395
   4   2.0000     -11.310707      -307.7800
   5   2.0000     -11.286255      -307.1146
   6   2.0000     -11.259383      -306.3834
   7   2.0000     -11.241247      -305.8899
   8   2.0000     -11.230302      -305.5921
   9   2.0000      -1.440037       -39.1854
  10   2.0000      -1.409630       -38.3580
  11   2.0000      -1.118894       -30.4466
  12   2.0000      -1.057915       -28.7873
  13   2.0000      -0.995218       -27.0813
  14   2.0000      -0.912662       -24.8348
  15   2.0000      -0.833017       -22.6676
  16   2.0000      -0.788878       -21.4665
  17   2.0000      -0.729121       -19.8404
  18   2.0000      -0.722817       -19.6688
  19   2.0000      -0.670361       -18.2414
  20   2.0000      -0.649370       -17.6703
  21   2.0000      -0.645629       -17.5685
  22   2.0000      -0.621258       -16.9053
  23   2.0000      -0.614798       -16.7295
  24   2.0000      -0.569646       -15.5009
  25   2.0000      -0.542236       -14.7550
  26   2.0000      -0.519778       -14.1439
  27   2.0000      -0.473518       -12.8851
  28   2.0000      -0.455778       -12.4023
  29   2.0000      -0.436111       -11.8672
  30   2.0000      -0.394430       -10.7330
  31   2.0000      -0.383489       -10.4353
  32   0.0000       0.118457         3.2234
  33   0.0000       0.136567         3.7162
  34   0.0000       0.151817         4.1312
  35   0.0000       0.161826         4.4035
  36   0.0000       0.166480         4.5301

MULLIKEN ATOMIC CHARGES
-----------------------
   0 O :   -0.226592
   1 C :    0.074356
   2 C :   -0.135173
   3 C :   -0.030759
   4 O :   -0.312416
   5 C :    0.013055
   6 C :   -0.084003
   7 C :   -0.054445
   8 C :   -0.137252
   9 H :    0.138124
  10 H :    0.146726
  11 H :    0.136676
  12 H :    0.141259
  13 H :    0.135503
  14 H :    0.194941
Sum of atomic charges:   -0.0000000

LOEWDIN ATOMIC CHARGES
----------------------
   0 O :    0.188972
   1 C :   -0.261202
   2 C :   -0.205031
   3 C :   -0.250914
   4 O :    0.187907
   5 C :   -0.223446
   6 C :   -0.193768
   7 C :   -0.079714
   8 C :   -0.077384
   9 H :    0.159048
  10 H :    0.158805
  11 H :    0.137851
  12 H :    0.141114
  13 H :    0.189053
  14 H :    0.128708

  Mayer bond orders larger than 0.1
B(  0-O ,  1-C ) :   2.1062 B(  1-C ,  2-C ) :   0.9127 B(  1-C ,  6-C ) :   0.8242
B(  2-C ,  3-C ) :   0.9009 B(  2-C ,  6-C ) :  -0.1124 B(  2-C ,  9-H ) :   0.8911
B(  2-C , 10-H ) :   0.8902 B(  3-C ,  4-O ) :   0.9239 B(  3-C ,  5-C ) :   0.9301
B(  3-C , 11-H ) :   0.9203 B(  4-O ,  5-C ) :   0.9406 B(  5-C ,  6-C ) :   0.8659
B(  5-C , 12-H ) :   0.9180 B(  6-C ,  7-C ) :   1.1720 B(  6-C , 13-H ) :   0.8686
B(  7-C ,  8-C ) :   2.5914 B(  8-C , 14-H ) :   0.8892

MP2 TOTAL ENERGY:     -419.879303841 Eh
FINAL SINGLE POINT ENERGY      -419.879303841184

DIPOLE MOMENT
-------------
                                X             Y             Z
Electronic contribution:      1.30833      -2.01044       0.54733
Nuclear contribution   :     -1.63233       3.13783      -1.08178
                        -----------------------------------------
Total Dipole Moment    :     -0.32399       1.12739      -0.53445
                        -----------------------------------------
Magnitude (a.u.)       :      1.28903
Magnitude (Debye)      :      3.27646

                             ****ORCA TERMINATED NORMALLY****
TOTAL RUN TIME: 0 days 0 hours 15 minutes 23 seconds 776 msec
