                         Program Version 3.0.3 - RELEASE   -
|  1> ! RI-MP2 RIJK def2-TZVP def2-TZVP/C def2-TZVP/JK TIGHTSCF
|  2> % maxcore 2000
|  3> % mp2 density relaxed end
|  4> *xyz 0 1
|  5>  C        0.0313255756     1.4894726227    -0.0245542379
|  6>  C        0.0256958710    -0.0190053140    -0.0114574454
|  7>  C        0.1123961540    -0.7367391779    -1.2027223772
|  8>  O        0.2075706147    -0.1711678400    -2.4511058977
|  9>  C        0.1058197769    -2.1358142473    -1.1740785447
| 10>  O        0.1888111407    -2.8530619116    -2.3169892367
| 11>  C        0.0116914703    -2.7645119634     0.0609712909
| 12>  C       -0.0706730870    -1.9659633994     1.1965152398
| 13>  N       -0.0650610644    -0.6319056706     1.1774831377
| 14>  H        0.9553559117     1.8945255652    -0.4585251063
| 15>  H       -0.8122406914     1.9001329401    -0.5955483284
| 16>  H       -0.0470861921     1.8509201499     1.0012399026
| 17>  H        0.2037637409     0.7874556456    -2.3757124135
| 18>  H        0.2459174727    -2.2282222536    -3.0519459079
| 19>  H        0.0040087215    -3.8462380487     0.1193762123
| 20>  H       -0.1451797151    -2.4292065969     2.1769985524
| 21> *
| 22>
| 23>                          ****END OF INPUT****

CARTESIAN COORDINATES (ANGSTROEM)
---------------------------------
  C      0.031326    1.489473   -0.024554
  C      0.025696   -0.019005   -0.011457
  C      0.112396   -0.736739   -1.202722
  O      0.207571   -0.171168   -2.451106
  C      0.105820   -2.135814   -1.174079
  O      0.188811   -2.853062   -2.316989
  C      0.011691   -2.764512    0.060971
  C     -0.070673   -1.965963    1.196515
  N     -0.065061   -0.631906    1.177483
  H      0.955356    1.894526   -0.458525
  H     -0.812241    1.900133   -0.595548
  H     -0.047086    1.850920    1.001240
  H      0.203764    0.787456   -2.375712
  H      0.245917   -2.228222   -3.051946
  H      0.004009   -3.846238    0.119376
  H     -0.145180   -2.429207    2.176999

 Total Charge           Charge          ....    0
 Multiplicity           Mult            ....    1
 Number of Electrons    NEL             ....   66
 Basis Dimension        Dim             ....  321

ORBITAL ENERGIES
----------------

  NO   OCC          E(Eh)            E(eV)
   0   2.0000     -20.606586      -560.7337
   1   2.0000     -20.598397      -560.5109
   2   2.0000     -15.555925      -423.2982
   3   2.0000     -11.317747      -307.9716
   4   2.0000     -11.298511      -307.4481
   5   2.0000     -11.283505      -307.0398
   6   2.0000     -11.268519      -306.6320
   7   2.0000     -11.238786      -305.8229
   8   2.0000     -11.232084      -305.6405
   9   2.0000      -1.436262       -39.0827
  10   2.0000      -1.404830       -38.2274
  11   2.0000      -1.255170       -34.1549
  12   2.0000      -1.074325       -29.2339
  13   2.0000      -1.053992       -28.6806
  14   2.0000      -0.966138       -26.2899
  15   2.0000      -0.865891       -23.5621
  16   2.0000      -0.841628       -22.9019
  17   2.0000      -0.767819       -20.8934
  18   2.0000      -0.743191       -20.2233
  19   2.0000      -0.684361       -18.6224
  20   2.0000      -0.637286       -17.3414
  21   2.0000      -0.630147       -17.1472
  22   2.0000      -0.610259       -16.6060
  23   2.0000      -0.599381       -16.3100
  24   2.0000      -0.590124       -16.0581
  25   2.0000      -0.588244       -16.0069
  26   2.0000      -0.568623       -15.4730
  27   2.0000      -0.549554       -14.9541
  28   2.0000      -0.516698       -14.0601
  29   2.0000      -0.507824       -13.8186
  30   2.0000      -0.419220       -11.4076
  31   2.0000      -0.351563        -9.5665
  32   2.0000      -0.326819        -8.8932
  33   0.0000       0.116289         3.1644
  34   0.0000       0.124357         3.3839
  35   0.0000       0.134548         3.6612
  36   0.0000       0.166276         4.5246
  37   0.0000       0.175967         4.7883

MULLIKEN ATOMIC CHARGES
-----------------------
   0 C :   -0.526739
   1 C :    0.178961
   2 C :    0.183939
   3 O :   -0.476052
   4 C :    0.118148
   5 O :   -0.417248
   6 C :   -0.177414
   7 C :   -0.046597
   8 N :   -0.264399
   9 H :    0.148746
  10 H :    0.148300
  11 H :    0.167427
  12 H :    0.349275
  13 H :    0.349884
  14 H :    0.138699
  15 H :    0.125070
Sum of atomic charges:    0.0000000

LOEWDIN ATOMIC CHARGES
----------------------
   0 C :   -0.281798
   1 C :   -0.253108
   2 C :   -0.232744
   3 O :    0.056153
   4 C :   -0.257392
   5 O :    0.095109
   6 C :   -0.127082
   7 C :   -0.229445
   8 N :    0.142786
   9 H :    0.128420
  10 H :    0.128300
  11 H :    0.141747
  12 H :    0.194398
  13 H :    0.201037
  14 H :    0.155101
  15 H :    0.138518

  Mayer bond orders larger than 0.1
B(  0-C ,  1-C ) :   0.8212 B(  0-C ,  9-H ) :   0.9378 B(  0-C , 10-H ) :   0.9379
B(  0-C , 11-H ) :   0.9356 B(  1-C ,  2-C ) :   1.2522 B(  1-C ,  8-N ) :   1.3905
B(  2-C ,  3-O ) :   1.0160 B(  2-C ,  4-C ) :   1.2372 B(  3-O , 12-H ) :   0.8260
B(  4-C ,  5-O ) :   1.1556 B(  4-C ,  6-C ) :   1.3671 B(  5-O , 13-H ) :   0.8136
B(  6-C ,  7-C ) :   1.3188 B(  6-C , 14-H ) :   0.9151 B(  7-C ,  8-N ) :   1.4110
B(  7-C , 15-H ) :   0.9475

MP2 TOTAL ENERGY:     -437.228642207 Eh
FINAL SINGLE POINT ENERGY      -437.228642207023

DIPOLE MOMENT
-------------
                                X             Y             Z
Electronic contribution:      0.11605      -4.37870      -1.73311
Nuclear contribution   :     -0.06007       5.02592       1.00517
                        -----------------------------------------
Total Dipole Moment    :      0.05597       0.64722      -0.72795
                        -----------------------------------------
Magnitude (a.u.)       :      0.97567
Magnitude (Debye)      :      2.47996

                             ****ORCA TERMINATED NORMALLY****
TOTAL RUN TIME: 0 days 0 hours 15 minutes 24 seconds 897 msec
