                         Program Version 3.0.3 - RELEASE   -
|  1> ! RI-MP2 RIJK def2-TZVP def2-TZVP/C def2-TZVP/JK TIGHTSCF
|  2> % maxcore 2000
|  3> % mp2 density relaxed end
|  4> *xyz 0 1
|  5>  C        0.5516866519     2.1666432822    -1.7207497798
|  6>  C        0.3268032363     0.7127649085    -1.3739339426
|  7>  C        1.1044016556    -0.4291854545    -1.9062386275
|  8>  C        2.5766596961    -0.1424051999    -2.0401600124
|  9>  C        3.3040731334    -0.9594180634    -0.9941564692
| 10>  C        2.5531496434     0.2661502925    -0.5685853730
| 11>  C        3.1586978917     1.3618841275     0.2589321955
| 12>  O        3.2734222675     0.9735210940     1.6212554909
| 13>  N        1.1181687726    -0.0882763814    -0.4032737343
| 14>  H        1.5893396579     2.3847012897    -1.9761149960
| 15>  H       -0.0677724432     2.4300751498    -2.5850292096
| 16>  H        0.2537645360     2.8177699975    -0.8919077711
| 17>  H       -0.7265082357     0.4744427813    -1.2288005302
| 18>  H        0.6222743598    -1.3360490447    -2.2612622585
| 19>  H        3.0755560158     0.2948758252    -2.8978090616
| 20>  H        2.9336492108    -1.9427974562    -0.7183298724
| 21>  H        4.3854670539    -0.8602892612    -0.9903158040
| 22>  H        4.1746389052     1.5768093438    -0.0892295433
| 23>  H        2.5747186943     2.2888716356     0.1672266722
| 24>  H        2.4103239568     0.6380272135     1.8889092472
| 25> *
| 26>
| 27>                          ****END OF INPUT****

CARTESIAN COORDINATES (ANGSTROEM)
---------------------------------
  C      0.551687    2.166643   -1.720750
  C      0.326803    0.712765   -1.373934
  C      1.104402   -0.429185   -1.906239
  C      2.576660   -0.142405   -2.040160
  C      3.304073   -0.959418   -0.994156
  C      2.553150    0.266150   -0.568585
  C      3.158698    1.361884    0.258932
  O      3.273422    0.973521    1.621255
  N      1.118169   -0.088276   -0.403274
  H      1.589340    2.384701   -1.976115
  H     -0.067772    2.430075   -2.585029
  H      0.253765    2.817770   -0.891908
  H     -0.726508    0.474443   -1.228801
  H      0.622274   -1.336049   -2.261262
  H      3.075556    0.294876   -2.897809
  H      2.933649   -1.942797   -0.718330
  H      4.385467   -0.860289   -0.990316
  H      4.174639    1.576809   -0.089230
  H      2.574719    2.288872    0.167227
  H      2.410324    0.638027    1.888909

 Total Charge           Charge          ....    0
 Multiplicity           Mult            ....    1
 Number of Electrons    NEL             ....   68
 Basis Dimension        Dim             ....  345

ORBITAL ENERGIES
----------------

  NO   OCC          E(Eh)            E(eV)
   0   2.0000     -20.550460      -559.2064
   1   2.0000     -15.565756      -423.5657
   2   2.0000     -11.279096      -306.9198
   3   2.0000     -11.269042      -306.6462
   4   2.0000     -11.268735      -306.6379
   5   2.0000     -11.268281      -306.6255
   6   2.0000     -11.246030      -306.0200
   7   2.0000     -11.230774      -305.6049
   8   2.0000     -11.228413      -305.5406
   9   2.0000      -1.356536       -36.9132
  10   2.0000      -1.306790       -35.5596
  11   2.0000      -1.117252       -30.4020
  12   2.0000      -0.995645       -27.0929
  13   2.0000      -0.972379       -26.4598
  14   2.0000      -0.895142       -24.3581
  15   2.0000      -0.847177       -23.0529
  16   2.0000      -0.770913       -20.9776
  17   2.0000      -0.729157       -19.8414
  18   2.0000      -0.692859       -18.8536
  19   2.0000      -0.666963       -18.1490
  20   2.0000      -0.655751       -17.8439
  21   2.0000      -0.640141       -17.4191
  22   2.0000      -0.589876       -16.0513
  23   2.0000      -0.580616       -15.7994
  24   2.0000      -0.567462       -15.4414
  25   2.0000      -0.555311       -15.1108
  26   2.0000      -0.531661       -14.4672
  27   2.0000      -0.499269       -13.5858
  28   2.0000      -0.493358       -13.4250
  29   2.0000      -0.459530       -12.5044
  30   2.0000      -0.440392       -11.9837
  31   2.0000      -0.420139       -11.4326
  32   2.0000      -0.403891       -10.9904
  33   2.0000      -0.363147        -9.8817
  34   0.0000       0.136170         3.7054
  35   0.0000       0.154149         4.1946
  36   0.0000       0.158278         4.3070
  37   0.0000       0.167603         4.5607
  38   0.0000       0.189101         5.1457

MULLIKEN ATOMIC CHARGES
-----------------------
   0 C :   -0.404085
   1 C :   -0.000492
   2 C :   -0.090404
   3 C :   -0.156406
   4 C :   -0.249379
   5 C :    0.013988
   6 C :    0.010388
   7 O :   -0.467808
   8 N :   -0.273207
   9 H :    0.146529
  10 H :    0.140088
  11 H :    0.140592
  12 H :    0.111680
  13 H :    0.135072
  14 H :    0.138556
  15 H :    0.137134
  16 H :    0.129749
  17 H :    0.107376
  18 H :    0.105479
  19 H :    0.325149
Sum of atomic charges:    0.0000000

LOEWDIN ATOMIC CHARGES
----------------------
   0 C :   -0.294800
   1 C :   -0.257545
   2 C :   -0.171312
   3 C :   -0.167061
   4 C :   -0.170385
   5 C :   -0.271171
   6 C :   -0.310357
   7 O :   -0.042050
   8 N :    0.150703
   9 H :    0.128977
  10 H :    0.131913
  11 H :    0.127765
  12 H :    0.151424
  13 H :    0.135992
  14 H :    0.137654
  15 H :    0.137804
  16 H :    0.142891
  17 H :    0.136680
  18 H :    0.123547
  19 H :    0.179332

  Mayer bond orders larger than 0.1
B(  0-C ,  1-C ) :   0.8900 B(  0-C ,  9-H ) :   0.9401 B(  0-C , 10-H ) :   0.9239
B(  0-C , 11-H ) :   0.9361 B(  1-C ,  2-C ) :   0.9367 B(  1-C ,  8-N ) :   0.8887
B(  1-C , 12-H ) :   0.9294 B(  2-C ,  3-C ) :   0.9265 B(  2-C ,  8-N ) :   0.8649
B(  2-C , 13-H ) :   0.8995 B(  3-C ,  4-C ) :   0.9027 B(  3-C ,  5-C ) :   0.8309
B(  3-C , 14-H ) :   0.9112 B(  4-C ,  5-C ) :   0.8656 B(  4-C , 15-H ) :   0.9113
B(  4-C , 16-H ) :   0.9326 B(  5-C ,  6-C ) :   0.9767 B(  5-C ,  8-N ) :   0.8884
B(  6-C ,  7-O ) :   0.9341 B(  6-C , 17-H ) :   0.9138 B(  6-C , 18-H ) :   0.9239
B(  7-O , 19-H ) :   0.8382

MP2 TOTAL ENERGY:     -402.393149340 Eh
FINAL SINGLE POINT ENERGY      -402.393149339533

DIPOLE MOMENT
-------------
                                X             Y             Z
Electronic contribution:      0.56449      -3.10304       2.32996
Nuclear contribution   :     -0.88963       3.37062      -3.27653
                        -----------------------------------------
Total Dipole Moment    :     -0.32514       0.26758      -0.94657
                        -----------------------------------------
Magnitude (a.u.)       :      1.03600
Magnitude (Debye)      :      2.63331

                             ****ORCA TERMINATED NORMALLY****
TOTAL RUN TIME: 0 days 0 hours 19 minutes 49 seconds 86 msec
