                         Program Version 3.0.3 - RELEASE   -
|  1> ! RI-MP2 RIJK def2-TZVP def2-TZVP/C def2-TZVP/JK TIGHTSCF
|  2> % maxcore 2000
|  3> % mp2 density relaxed end
|  4> *xyz 0 1
|  5>  C       -0.0318607767     1.4786925150    -0.1482072770
|  6>  C        1.5162053680     1.5497003335     0.0923111978
|  7>  O        2.0259360669     2.4518709456     1.0508970956
|  8>  C        2.3090021695     1.8911739370     2.3534635138
|  9>  C        1.1877974712     0.9890489589     2.8084365834
| 10>  C        0.8308868323     0.0626062950     1.9234150764
| 11>  C       -0.4891395514    -0.4632508161     1.4015847642
| 12>  N       -0.0433477255    -0.0263109403     0.0180231228
| 13>  C        1.3927128343     0.0761207690     0.5189721861
| 14>  H       -0.6132239706     2.0220729760     0.6028371531
| 15>  H       -0.3657399590     1.7701650692    -1.1466458533
| 16>  H        2.0742639877     1.7081347629    -0.8357536433
| 17>  H        3.2683604305     1.3551456615     2.3094878122
| 18>  H        2.4384120836     2.7505183255     3.0145406923
| 19>  H        0.6005099406     1.2352093069     3.6874457149
| 20>  H       -0.6111085455    -1.5511584936     1.4055193357
| 21>  H       -1.4048809936     0.0064975935     1.7750739771
| 22>  H        2.1132378376    -0.6782803595     0.1959115881
| 23> *
| 24>
| 25>                          ****END OF INPUT****

CARTESIAN COORDINATES (ANGSTROEM)
---------------------------------
  C     -0.031861    1.478693   -0.148207
  C      1.516205    1.549700    0.092311
  O      2.025936    2.451871    1.050897
  C      2.309002    1.891174    2.353464
  C      1.187797    0.989049    2.808437
  C      0.830887    0.062606    1.923415
  C     -0.489140   -0.463251    1.401585
  N     -0.043348   -0.026311    0.018023
  C      1.392713    0.076121    0.518972
  H     -0.613224    2.022073    0.602837
  H     -0.365740    1.770165   -1.146646
  H      2.074264    1.708135   -0.835754
  H      3.268360    1.355146    2.309488
  H      2.438412    2.750518    3.014541
  H      0.600510    1.235209    3.687446
  H     -0.611109   -1.551158    1.405519
  H     -1.404881    0.006498    1.775074
  H      2.113238   -0.678280    0.195912

 Total Charge           Charge          ....    0
 Multiplicity           Mult            ....    1
 Number of Electrons    NEL             ....   66
 Basis Dimension        Dim             ....  333

ORBITAL ENERGIES
----------------

  NO   OCC          E(Eh)            E(eV)
   0   2.0000     -20.555349      -559.3395
   1   2.0000     -15.557349      -423.3370
   2   2.0000     -11.285217      -307.0864
   3   2.0000     -11.284903      -307.0778
   4   2.0000     -11.266842      -306.5864
   5   2.0000     -11.262347      -306.4640
   6   2.0000     -11.252426      -306.1941
   7   2.0000     -11.244347      -305.9742
   8   2.0000     -11.231570      -305.6266
   9   2.0000      -1.373339       -37.3705
  10   2.0000      -1.268385       -34.5145
  11   2.0000      -1.079562       -29.3764
  12   2.0000      -1.003937       -27.3185
  13   2.0000      -0.962171       -26.1820
  14   2.0000      -0.908140       -24.7117
  15   2.0000      -0.824828       -22.4447
  16   2.0000      -0.789097       -21.4724
  17   2.0000      -0.705307       -19.1924
  18   2.0000      -0.681250       -18.5378
  19   2.0000      -0.677132       -18.4257
  20   2.0000      -0.667702       -18.1691
  21   2.0000      -0.620811       -16.8931
  22   2.0000      -0.589191       -16.0327
  23   2.0000      -0.576689       -15.6925
  24   2.0000      -0.556586       -15.1455
  25   2.0000      -0.528003       -14.3677
  26   2.0000      -0.523881       -14.2555
  27   2.0000      -0.495438       -13.4815
  28   2.0000      -0.471848       -12.8396
  29   2.0000      -0.432696       -11.7743
  30   2.0000      -0.410140       -11.1605
  31   2.0000      -0.374158       -10.1813
  32   2.0000      -0.354435        -9.6447
  33   0.0000       0.124016         3.3746
  34   0.0000       0.146486         3.9861
  35   0.0000       0.159399         4.3375
  36   0.0000       0.168790         4.5930
  37   0.0000       0.177569         4.8319

MULLIKEN ATOMIC CHARGES
-----------------------
   0 C :   -0.174085
   1 C :    0.028578
   2 O :   -0.307293
   3 C :   -0.029441
   4 C :   -0.226932
   5 C :   -0.036916
   6 C :   -0.136111
   7 N :   -0.187554
   8 C :   -0.016172
   9 H :    0.114975
  10 H :    0.124704
  11 H :    0.102670
  12 H :    0.109724
  13 H :    0.127773
  14 H :    0.131452
  15 H :    0.126643
  16 H :    0.121172
  17 H :    0.126812
Sum of atomic charges:   -0.0000000

LOEWDIN ATOMIC CHARGES
----------------------
   0 C :   -0.216369
   1 C :   -0.275803
   2 O :    0.160221
   3 C :   -0.279325
   4 C :   -0.152832
   5 C :   -0.158281
   6 C :   -0.206921
   7 N :    0.105296
   8 C :   -0.165852
   9 H :    0.127887
  10 H :    0.124539
  11 H :    0.138337
  12 H :    0.129620
  13 H :    0.132912
  14 H :    0.140496
  15 H :    0.133812
  16 H :    0.126418
  17 H :    0.135848

  Mayer bond orders larger than 0.1
B(  0-C ,  1-C ) :   0.8882 B(  0-C ,  7-N ) :   0.8958 B(  0-C ,  9-H ) :   0.9162
B(  0-C , 10-H ) :   0.9205 B(  1-C ,  2-O ) :   0.9853 B(  1-C ,  8-C ) :   0.9202
B(  1-C , 11-H ) :   0.9359 B(  2-O ,  3-C ) :   0.9257 B(  3-C ,  4-C ) :   0.9428
B(  3-C , 12-H ) :   0.9209 B(  3-C , 13-H ) :   0.9316 B(  4-C ,  5-C ) :   1.7278
B(  4-C , 14-H ) :   0.9223 B(  5-C ,  6-C ) :   0.9604 B(  5-C ,  8-C ) :   0.9561
B(  6-C ,  7-N ) :   0.9169 B(  6-C , 15-H ) :   0.9093 B(  6-C , 16-H ) :   0.9229
B(  7-N ,  8-C ) :   0.9460 B(  8-C , 17-H ) :   0.8966

MP2 TOTAL ENERGY:     -401.181412287 Eh
FINAL SINGLE POINT ENERGY      -401.181412287166

DIPOLE MOMENT
-------------
                                X             Y             Z
Electronic contribution:      1.15371      -0.31110      -0.55374
Nuclear contribution   :     -1.18300       0.24452       1.02016
                        -----------------------------------------
Total Dipole Moment    :     -0.02930      -0.06658       0.46642
                        -----------------------------------------
Magnitude (a.u.)       :      0.47205
Magnitude (Debye)      :      1.19986

                             ****ORCA TERMINATED NORMALLY****
TOTAL RUN TIME: 0 days 0 hours 19 minutes 52 seconds 939 msec
