                         Program Version 3.0.3 - RELEASE   -
|  1> ! RI-MP2 RIJK def2-TZVP def2-TZVP/C def2-TZVP/JK TIGHTSCF
|  2> % maxcore 2000
|  3> % mp2 density relaxed end
|  4> *xyz 0 1
|  5>  C        0.0935969609     1.4693501743     0.0202821298
|  6>  N       -0.3341704089     0.1024273732    -0.2578322704
|  7>  C        0.4311535717    -0.6519947641    -1.1394692620
|  8>  C        0.6442438497    -1.9978694061    -1.1831914903
|  9>  C        0.2465268478    -3.1609083989    -0.3538136441
| 10>  O        1.4046622148    -2.2396226214    -2.3178894299
| 11>  C        1.6139848632    -1.0271727598    -2.8697197688
| 12>  C        2.4263422737    -0.9566346826    -4.1123385535
| 13>  N        1.0633704969    -0.0483760373    -2.2199887195
| 14>  H        1.0659754816     1.5346917160     0.5333335888
| 15>  H        0.1742664325     2.0145110653    -0.9210903765
| 16>  H       -0.6636727040     1.9547037055     0.6415185117
| 17>  H       -0.5714598195    -0.4110809441     0.5792302408
| 18>  H       -0.2155849243    -2.8165963936     0.5764058393
| 19>  H       -0.4794781747    -3.8115833995    -0.8583360039
| 20>  H        1.1100971791    -3.7805392036    -0.0846557058
| 21>  H        3.4375023325    -1.3441420670    -3.9475448376
| 22>  H        1.9745139217    -1.5506104435    -4.9137716949
| 23>  H        2.4923976154     0.0828603370    -4.4341953532
| 24> *
| 25>
| 26>                          ****END OF INPUT****

CARTESIAN COORDINATES (ANGSTROEM)
---------------------------------
  C      0.093597    1.469350    0.020282
  N     -0.334170    0.102427   -0.257832
  C      0.431154   -0.651995   -1.139469
  C      0.644244   -1.997869   -1.183191
  C      0.246527   -3.160908   -0.353814
  O      1.404662   -2.239623   -2.317889
  C      1.613985   -1.027173   -2.869720
  C      2.426342   -0.956635   -4.112339
  N      1.063370   -0.048376   -2.219989
  H      1.065975    1.534692    0.533334
  H      0.174266    2.014511   -0.921090
  H     -0.663673    1.954704    0.641519
  H     -0.571460   -0.411081    0.579230
  H     -0.215585   -2.816596    0.576406
  H     -0.479478   -3.811583   -0.858336
  H      1.110097   -3.780539   -0.084656
  H      3.437502   -1.344142   -3.947545
  H      1.974514   -1.550610   -4.913772
  H      2.492398    0.082860   -4.434195

 Total Charge           Charge          ....    0
 Multiplicity           Mult            ....    1
 Number of Electrons    NEL             ....   68
 Basis Dimension        Dim             ....  339

ORBITAL ENERGIES
----------------

  NO   OCC          E(Eh)            E(eV)
   0   2.0000     -20.614902      -560.9600
   1   2.0000     -15.558363      -423.3646
   2   2.0000     -15.546128      -423.0316
   3   2.0000     -11.330419      -308.3164
   4   2.0000     -11.281791      -306.9932
   5   2.0000     -11.263858      -306.5052
   6   2.0000     -11.244564      -305.9801
   7   2.0000     -11.238856      -305.8248
   8   2.0000     -11.233010      -305.6657
   9   2.0000      -1.466388       -39.9024
  10   2.0000      -1.251912       -34.0663
  11   2.0000      -1.186619       -32.2895
  12   2.0000      -1.062937       -28.9240
  13   2.0000      -0.999592       -27.2003
  14   2.0000      -0.938161       -25.5287
  15   2.0000      -0.880484       -23.9592
  16   2.0000      -0.794418       -21.6172
  17   2.0000      -0.793423       -21.5901
  18   2.0000      -0.687396       -18.7050
  19   2.0000      -0.663599       -18.0575
  20   2.0000      -0.640218       -17.4212
  21   2.0000      -0.610054       -16.6004
  22   2.0000      -0.590286       -16.0625
  23   2.0000      -0.579521       -15.7696
  24   2.0000      -0.574529       -15.6337
  25   2.0000      -0.569937       -15.5088
  26   2.0000      -0.550330       -14.9752
  27   2.0000      -0.545547       -14.8451
  28   2.0000      -0.536898       -14.6097
  29   2.0000      -0.527687       -14.3591
  30   2.0000      -0.469812       -12.7842
  31   2.0000      -0.445297       -12.1172
  32   2.0000      -0.396252       -10.7826
  33   2.0000      -0.283559        -7.7160
  34   0.0000       0.132713         3.6113
  35   0.0000       0.150069         4.0836
  36   0.0000       0.153389         4.1739
  37   0.0000       0.164631         4.4798
  38   0.0000       0.185702         5.0532

MULLIKEN ATOMIC CHARGES
-----------------------
   0 C :   -0.270736
   1 N :   -0.336999
   2 C :    0.134317
   3 C :    0.080150
   4 C :   -0.400938
   5 O :   -0.222212
   6 C :    0.263690
   7 C :   -0.425051
   8 N :   -0.317019
   9 H :    0.111334
  10 H :    0.157869
  11 H :    0.131728
  12 H :    0.211333
  13 H :    0.124994
  14 H :    0.151230
  15 H :    0.150619
  16 H :    0.146690
  17 H :    0.148005
  18 H :    0.160994
Sum of atomic charges:    0.0000000

LOEWDIN ATOMIC CHARGES
----------------------
   0 C :   -0.329022
   1 N :    0.028196
   2 C :   -0.319851
   3 C :   -0.270796
   4 C :   -0.283204
   5 O :    0.354493
   6 C :   -0.377255
   7 C :   -0.270974
   8 N :    0.134301
   9 H :    0.102861
  10 H :    0.124475
  11 H :    0.114260
  12 H :    0.177110
  13 H :    0.133447
  14 H :    0.133125
  15 H :    0.134802
  16 H :    0.135747
  17 H :    0.136243
  18 H :    0.142041

  Mayer bond orders larger than 0.1
B(  0-C ,  1-N ) :   0.9039 B(  0-C ,  9-H ) :   0.9286 B(  0-C , 10-H ) :   0.9362
B(  0-C , 11-H ) :   0.9369 B(  1-N ,  2-C ) :   1.1118 B(  1-N , 12-H ) :   0.8807
B(  2-C ,  3-C ) :   1.5244 B(  2-C ,  8-N ) :   1.1757 B(  3-C ,  4-C ) :   0.8712
B(  3-C ,  5-O ) :   0.9946 B(  4-C , 13-H ) :   0.9440 B(  4-C , 14-H ) :   0.9359
B(  4-C , 15-H ) :   0.9364 B(  5-O ,  6-C ) :   1.0991 B(  6-C ,  7-C ) :   0.8662
B(  6-C ,  8-N ) :   1.6569 B(  7-C , 16-H ) :   0.9324 B(  7-C , 17-H ) :   0.9304
B(  7-C , 18-H ) :   0.9517

MP2 TOTAL ENERGY:     -418.535003636 Eh
FINAL SINGLE POINT ENERGY      -418.535003636469

DIPOLE MOMENT
-------------
                                X             Y             Z
Electronic contribution:      0.22867      -1.63238      -2.37614
Nuclear contribution   :     -0.11501       1.23348       2.86629
                        -----------------------------------------
Total Dipole Moment    :      0.11367      -0.39890       0.49015
                        -----------------------------------------
Magnitude (a.u.)       :      0.64209
Magnitude (Debye)      :      1.63207

                             ****ORCA TERMINATED NORMALLY****
TOTAL RUN TIME: 0 days 0 hours 17 minutes 5 seconds 503 msec
