                         Program Version 3.0.3 - RELEASE   -
|  1> ! RI-MP2 RIJK def2-TZVP def2-TZVP/C def2-TZVP/JK TIGHTSCF
|  2> % maxcore 2000
|  3> % mp2 density relaxed end
|  4> *xyz 0 1
|  5>  C       -0.0552548399     1.5627028116    -0.0919060013
|  6>  C        0.1020861917     0.0579704064    -0.0024898900
|  7>  N        1.3477354085    -0.6056201240    -0.6693010414
|  8>  C        2.1319722706    -0.1450171193     0.5727735820
|  9>  C        0.8020329093    -0.6520651149     1.1715886429
| 10>  O        0.3430022933    -0.6672235415     2.4709690389
| 11>  C        1.0081564102    -1.8488743075     0.1507844384
| 12>  C       -0.1186308707    -2.7488255287    -0.2622434357
| 13>  O       -0.9137608186    -2.5533011184    -1.1475606653
| 14>  H       -0.1796407313     1.8550513524    -1.1393905735
| 15>  H       -0.9623869506     1.8575580393     0.4453690729
| 16>  H        0.7752437820     2.1355692968     0.3246117875
| 17>  H       -0.8081382592    -0.4194770218    -0.3612239934
| 18>  H        3.0364356842    -0.7318164393     0.7548332936
| 19>  H        2.3473694723     0.9215970821     0.5910135500
| 20>  H        1.0245445532    -1.0360639002     3.0443085727
| 21>  H        1.8885212086    -2.4700289247     0.3569106160
| 22>  H       -0.1671088236    -3.6774448381     0.3537889657
| 23> *
| 24>
| 25>                          ****END OF INPUT****

CARTESIAN COORDINATES (ANGSTROEM)
---------------------------------
  C     -0.055255    1.562703   -0.091906
  C      0.102086    0.057970   -0.002490
  N      1.347735   -0.605620   -0.669301
  C      2.131972   -0.145017    0.572774
  C      0.802033   -0.652065    1.171589
  O      0.343002   -0.667224    2.470969
  C      1.008156   -1.848874    0.150784
  C     -0.118631   -2.748826   -0.262243
  O     -0.913761   -2.553301   -1.147561
  H     -0.179641    1.855051   -1.139391
  H     -0.962387    1.857558    0.445369
  H      0.775244    2.135569    0.324612
  H     -0.808138   -0.419477   -0.361224
  H      3.036436   -0.731816    0.754833
  H      2.347369    0.921597    0.591014
  H      1.024545   -1.036064    3.044309
  H      1.888521   -2.470029    0.356911
  H     -0.167109   -3.677445    0.353789

 Total Charge           Charge          ....    0
 Multiplicity           Mult            ....    1
 Number of Electrons    NEL             ....   68
 Basis Dimension        Dim             ....  333

ORBITAL ENERGIES
----------------

  NO   OCC          E(Eh)            E(eV)
   0   2.0000     -20.588157      -560.2322
   1   2.0000     -20.562828      -559.5430
   2   2.0000     -15.584867      -424.0858
   3   2.0000     -11.337960      -308.5216
   4   2.0000     -11.326874      -308.2199
   5   2.0000     -11.282257      -307.0058
   6   2.0000     -11.271744      -306.7198
   7   2.0000     -11.269707      -306.6643
   8   2.0000     -11.222303      -305.3744
   9   2.0000      -1.405666       -38.2501
  10   2.0000      -1.399256       -38.0757
  11   2.0000      -1.302064       -35.4310
  12   2.0000      -1.023475       -27.8502
  13   2.0000      -0.981425       -26.7059
  14   2.0000      -0.925214       -25.1763
  15   2.0000      -0.897977       -24.4352
  16   2.0000      -0.808051       -21.9882
  17   2.0000      -0.751065       -20.4375
  18   2.0000      -0.726727       -19.7753
  19   2.0000      -0.682742       -18.5784
  20   2.0000      -0.665582       -18.1114
  21   2.0000      -0.635371       -17.2893
  22   2.0000      -0.631516       -17.1844
  23   2.0000      -0.592913       -16.1340
  24   2.0000      -0.569487       -15.4965
  25   2.0000      -0.559038       -15.2122
  26   2.0000      -0.540900       -14.7186
  27   2.0000      -0.536853       -14.6085
  28   2.0000      -0.490876       -13.3574
  29   2.0000      -0.478654       -13.0248
  30   2.0000      -0.469902       -12.7867
  31   2.0000      -0.441010       -12.0005
  32   2.0000      -0.411449       -11.1961
  33   2.0000      -0.399987       -10.8842
  34   0.0000       0.108598         2.9551
  35   0.0000       0.128351         3.4926
  36   0.0000       0.150316         4.0903
  37   0.0000       0.156742         4.2652
  38   0.0000       0.173956         4.7336

MULLIKEN ATOMIC CHARGES
-----------------------
   0 C :   -0.420850
   1 C :    0.002552
   2 N :   -0.204484
   3 C :   -0.176893
   4 C :    0.110075
   5 O :   -0.439204
   6 C :   -0.002469
   7 C :    0.070154
   8 O :   -0.259495
   9 H :    0.151364
  10 H :    0.143597
  11 H :    0.119339
  12 H :    0.136611
  13 H :    0.118461
  14 H :    0.129462
  15 H :    0.327461
  16 H :    0.116384
  17 H :    0.077934
Sum of atomic charges:    0.0000000

LOEWDIN ATOMIC CHARGES
----------------------
   0 C :   -0.289707
   1 C :   -0.211279
   2 N :    0.143761
   3 C :   -0.212017
   4 C :   -0.337647
   5 O :    0.030576
   6 C :   -0.225866
   7 C :   -0.283840
   8 O :    0.142640
   9 H :    0.135103
  10 H :    0.134486
  11 H :    0.121498
  12 H :    0.153672
  13 H :    0.124185
  14 H :    0.124262
  15 H :    0.183603
  16 H :    0.151088
  17 H :    0.115483

  Mayer bond orders larger than 0.1
B(  0-C ,  1-C ) :   0.9229 B(  0-C ,  9-H ) :   0.9352 B(  0-C , 10-H ) :   0.9335
B(  0-C , 11-H ) :   0.9314 B(  1-C ,  2-N ) :   0.8958 B(  1-C ,  4-C ) :   0.9454
B(  1-C , 12-H ) :   0.9105 B(  2-N ,  3-C ) :   0.9057 B(  2-N ,  6-C ) :   0.9302
B(  3-C ,  4-C ) :   0.9274 B(  3-C , 13-H ) :   0.9195 B(  3-C , 14-H ) :   0.9301
B(  4-C ,  5-O ) :   1.0426 B(  4-C ,  6-C ) :   0.8862 B(  5-O , 15-H ) :   0.8293
B(  6-C ,  7-C ) :   0.8530 B(  6-C , 16-H ) :   0.8985 B(  7-C ,  8-O ) :   1.9853
B(  7-C , 17-H ) :   0.9416

MP2 TOTAL ENERGY:     -438.295149519 Eh
FINAL SINGLE POINT ENERGY      -438.295149519290

DIPOLE MOMENT
-------------
                                X             Y             Z
Electronic contribution:     -1.37401      -5.58454      -0.54846
Nuclear contribution   :      2.30638       5.61058       1.80308
                        -----------------------------------------
Total Dipole Moment    :      0.93237       0.02604       1.25462
                        -----------------------------------------
Magnitude (a.u.)       :      1.56335
Magnitude (Debye)      :      3.97372

                             ****ORCA TERMINATED NORMALLY****
TOTAL RUN TIME: 0 days 0 hours 18 minutes 36 seconds 332 msec
