                         Program Version 3.0.3 - RELEASE   -
|  1> ! RI-MP2 RIJK def2-TZVP def2-TZVP/C def2-TZVP/JK TIGHTSCF
|  2> % maxcore 2000
|  3> % mp2 density relaxed end
|  4> *xyz 0 1
|  5>  O        0.1737587325     1.3371901132    -0.2344005488
|  6>  C        0.1008206252    -0.0210728213     0.0128802256
|  7>  C        0.1738118568    -0.4894258473     1.4890558425
|  8>  N       -1.2993814135    -0.6369826267     1.5025817348
|  9>  C       -1.3850384386    -0.6477013618     0.0277581082
| 10>  C       -2.4396803995     0.2096771629    -0.5179770222
| 11>  N       -3.2413864447     0.9327574577    -0.9278077292
| 12>  C       -1.4179935585    -1.9831709196    -0.5788032885
| 13>  N       -1.3945933679    -3.0582239416    -1.0031941953
| 14>  H       -0.3942232597     1.8127108772     0.3846626075
| 15>  H        0.7683876044    -0.5144757443    -0.6918015540
| 16>  H        0.7358907321    -1.4239870045     1.6035159382
| 17>  H        0.5525106579     0.2506738182     2.1999618218
| 18>  H       -1.6935107167    -1.4441888320     1.9725798994
| 19> *
| 20>
| 21>                          ****END OF INPUT****

CARTESIAN COORDINATES (ANGSTROEM)
---------------------------------
  O      0.173759    1.337190   -0.234401
  C      0.100821   -0.021073    0.012880
  C      0.173812   -0.489426    1.489056
  N     -1.299381   -0.636983    1.502582
  C     -1.385038   -0.647701    0.027758
  C     -2.439680    0.209677   -0.517977
  N     -3.241386    0.932757   -0.927808
  C     -1.417994   -1.983171   -0.578803
  N     -1.394593   -3.058224   -1.003194
  H     -0.394223    1.812711    0.384663
  H      0.768388   -0.514476   -0.691802
  H      0.735891   -1.423987    1.603516
  H      0.552511    0.250674    2.199962
  H     -1.693511   -1.444189    1.972580

 Total Charge           Charge          ....    0
 Multiplicity           Mult            ....    1
 Number of Electrons    NEL             ....   64
 Basis Dimension        Dim             ....  309

ORBITAL ENERGIES
----------------

  NO   OCC          E(Eh)            E(eV)
   0   2.0000     -20.606818      -560.7400
   1   2.0000     -15.611265      -424.8041
   2   2.0000     -15.608504      -424.7290
   3   2.0000     -15.600334      -424.5067
   4   2.0000     -11.379456      -309.6507
   5   2.0000     -11.351345      -308.8858
   6   2.0000     -11.306942      -307.6775
   7   2.0000     -11.302909      -307.5678
   8   2.0000     -11.298534      -307.4487
   9   2.0000      -1.425640       -38.7936
  10   2.0000      -1.307384       -35.5757
  11   2.0000      -1.246511       -33.9193
  12   2.0000      -1.240404       -33.7531
  13   2.0000      -1.053883       -28.6776
  14   2.0000      -1.012774       -27.5590
  15   2.0000      -0.868202       -23.6250
  16   2.0000      -0.820310       -22.3218
  17   2.0000      -0.790279       -21.5046
  18   2.0000      -0.691956       -18.8291
  19   2.0000      -0.666903       -18.1474
  20   2.0000      -0.661296       -17.9948
  21   2.0000      -0.624704       -16.9991
  22   2.0000      -0.603657       -16.4263
  23   2.0000      -0.593631       -16.1535
  24   2.0000      -0.579258       -15.7624
  25   2.0000      -0.540970       -14.7205
  26   2.0000      -0.519623       -14.1397
  27   2.0000      -0.507883       -13.8202
  28   2.0000      -0.491549       -13.3757
  29   2.0000      -0.488259       -13.2862
  30   2.0000      -0.458270       -12.4702
  31   2.0000      -0.441167       -12.0048
  32   0.0000       0.096153         2.6165
  33   0.0000       0.111191         3.0257
  34   0.0000       0.129173         3.5150
  35   0.0000       0.138552         3.7702
  36   0.0000       0.155063         4.2195

MULLIKEN ATOMIC CHARGES
-----------------------
   0 O :   -0.421883
   1 C :    0.044289
   2 C :   -0.164930
   3 N :   -0.336051
   4 C :    0.331362
   5 C :   -0.144655
   6 N :   -0.028145
   7 C :   -0.244777
   8 N :   -0.037208
   9 H :    0.339438
  10 H :    0.153211
  11 H :    0.139045
  12 H :    0.135381
  13 H :    0.234923
Sum of atomic charges:   -0.0000000

LOEWDIN ATOMIC CHARGES
----------------------
   0 O :    0.041946
   1 C :   -0.264000
   2 C :   -0.246743
   3 N :    0.058013
   4 C :   -0.280547
   5 C :   -0.136681
   6 N :    0.099575
   7 C :   -0.140990
   8 N :    0.094082
   9 H :    0.193967
  10 H :    0.149525
  11 H :    0.131319
  12 H :    0.128959
  13 H :    0.171576

  Mayer bond orders larger than 0.1
B(  0-O ,  1-C ) :   1.0224 B(  0-O ,  9-H ) :   0.8233 B(  1-C ,  2-C ) :   0.9439
B(  1-C ,  4-C ) :   0.8019 B(  1-C , 10-H ) :   0.9191 B(  2-C ,  3-N ) :   0.9392
B(  2-C , 11-H ) :   0.9196 B(  2-C , 12-H ) :   0.9162 B(  3-N ,  4-C ) :   1.0249
B(  3-N , 13-H ) :   0.8785 B(  4-C ,  5-C ) :   0.9073 B(  4-C ,  7-C ) :   0.9390
B(  5-C ,  6-N ) :   2.8280 B(  7-C ,  8-N ) :   2.8136

MP2 TOTAL ENERGY:     -432.132108417 Eh
FINAL SINGLE POINT ENERGY      -432.132108416977

DIPOLE MOMENT
-------------
                                X             Y             Z
Electronic contribution:     -4.20944      -0.85710      -3.62819
Nuclear contribution   :      5.31297       0.83203       5.08811
                        -----------------------------------------
Total Dipole Moment    :      1.10353      -0.02507       1.45993
                        -----------------------------------------
Magnitude (a.u.)       :      1.83024
Magnitude (Debye)      :      4.65210

                             ****ORCA TERMINATED NORMALLY****
TOTAL RUN TIME: 0 days 0 hours 13 minutes 54 seconds 611 msec
