                         Program Version 3.0.3 - RELEASE   -
|  1> ! RI-MP2 RIJK def2-TZVP def2-TZVP/C def2-TZVP/JK TIGHTSCF
|  2> % maxcore 2000
|  3> % mp2 density relaxed end
|  4> *xyz 0 1
|  5>  C        0.1504845169     1.6072998092    -0.0272840975
|  6>  C       -0.0303170176     0.0875984920    -0.0053930400
|  7>  C        0.7260299657    -0.5804723830     1.1414155507
|  8>  C        0.5561132249    -2.0929773425     1.2045874014
|  9>  O       -0.1574813068    -2.6890737982     0.4206133089
| 10>  C        1.3196226887    -2.7843210122     2.2828568795
| 11>  C        0.8443293413    -4.1469159578     2.7592434704
| 12>  C        2.1148597000    -4.0670866900     1.9828956154
| 13>  C        2.2395934378    -4.6407003657     0.5897422393
| 14>  H        1.2053316380     1.8833853819    -0.1386257761
| 15>  H       -0.3995903833     2.0588592668    -0.8585679140
| 16>  H       -0.2128196629     2.0666094416     0.8992440380
| 17>  H       -1.0925059418    -0.1667623911     0.0739245422
| 18>  H        0.3050814617    -0.3465910543    -0.9534939417
| 19>  H        1.8032072367    -0.3643592597     1.0848579286
| 20>  H        0.4095051699    -0.1696825113     2.1121178615
| 21>  H        1.7665469381    -2.1260992834     3.0207688939
| 22>  H        0.8782605023    -4.3457213697     3.8245629078
| 23>  H       -0.0292492596    -4.5274309848     2.2400691238
| 24>  H        3.0251227630    -4.1331868938     2.5741235916
| 25>  H        1.3173971674    -4.5046328238     0.0227303680
| 26>  H        3.0562325407    -4.1636685628     0.0366952004
| 27>  H        2.4581559688    -5.7129009572     0.6445068779
| 28> *
| 29>
| 30>                          ****END OF INPUT****

CARTESIAN COORDINATES (ANGSTROEM)
---------------------------------
  C      0.150485    1.607300   -0.027284
  C     -0.030317    0.087598   -0.005393
  C      0.726030   -0.580472    1.141416
  C      0.556113   -2.092977    1.204587
  O     -0.157481   -2.689074    0.420613
  C      1.319623   -2.784321    2.282857
  C      0.844329   -4.146916    2.759243
  C      2.114860   -4.067087    1.982896
  C      2.239593   -4.640700    0.589742
  H      1.205332    1.883385   -0.138626
  H     -0.399590    2.058859   -0.858568
  H     -0.212820    2.066609    0.899244
  H     -1.092506   -0.166762    0.073925
  H      0.305081   -0.346591   -0.953494
  H      1.803207   -0.364359    1.084858
  H      0.409505   -0.169683    2.112118
  H      1.766547   -2.126099    3.020769
  H      0.878261   -4.345721    3.824563
  H     -0.029249   -4.527431    2.240069
  H      3.025123   -4.133187    2.574124
  H      1.317397   -4.504633    0.022730
  H      3.056233   -4.163669    0.036695
  H      2.458156   -5.712901    0.644507

 Total Charge           Charge          ....    0
 Multiplicity           Mult            ....    1
 Number of Electrons    NEL             ....   70
 Basis Dimension        Dim             ....  363

ORBITAL ENERGIES
----------------

  NO   OCC          E(Eh)            E(eV)
   0   2.0000     -20.532425      -558.7157
   1   2.0000     -11.324075      -308.1437
   2   2.0000     -11.246821      -306.0416
   3   2.0000     -11.237570      -305.7898
   4   2.0000     -11.233496      -305.6790
   5   2.0000     -11.232282      -305.6459
   6   2.0000     -11.219092      -305.2870
   7   2.0000     -11.214527      -305.1628
   8   2.0000     -11.212144      -305.0979
   9   2.0000      -1.378005       -37.4974
  10   2.0000      -1.154234       -31.4083
  11   2.0000      -1.069972       -29.1154
  12   2.0000      -0.982487       -26.7348
  13   2.0000      -0.958014       -26.0689
  14   2.0000      -0.878415       -23.9029
  15   2.0000      -0.805928       -21.9304
  16   2.0000      -0.790188       -21.5021
  17   2.0000      -0.716826       -19.5058
  18   2.0000      -0.687253       -18.7011
  19   2.0000      -0.640386       -17.4258
  20   2.0000      -0.637890       -17.3579
  21   2.0000      -0.620866       -16.8946
  22   2.0000      -0.574018       -15.6198
  23   2.0000      -0.568725       -15.4758
  24   2.0000      -0.560169       -15.2430
  25   2.0000      -0.544284       -14.8107
  26   2.0000      -0.543703       -14.7949
  27   2.0000      -0.506655       -13.7868
  28   2.0000      -0.500491       -13.6191
  29   2.0000      -0.495637       -13.4870
  30   2.0000      -0.483499       -13.1567
  31   2.0000      -0.471541       -12.8313
  32   2.0000      -0.430892       -11.7252
  33   2.0000      -0.408075       -11.1043
  34   2.0000      -0.394855       -10.7445
  35   0.0000       0.128451         3.4953
  36   0.0000       0.143138         3.8950
  37   0.0000       0.148446         4.0394
  38   0.0000       0.164836         4.4854
  39   0.0000       0.174222         4.7408

MULLIKEN ATOMIC CHARGES
-----------------------
   0 C :   -0.382213
   1 C :   -0.171537
   2 C :   -0.289850
   3 C :    0.211598
   4 O :   -0.334560
   5 C :   -0.132320
   6 C :   -0.262625
   7 C :   -0.057348
   8 C :   -0.419667
   9 H :    0.119570
  10 H :    0.136937
  11 H :    0.119798
  12 H :    0.118061
  13 H :    0.114992
  14 H :    0.134432
  15 H :    0.133169
  16 H :    0.127636
  17 H :    0.139436
  18 H :    0.147950
  19 H :    0.121838
  20 H :    0.167048
  21 H :    0.124920
  22 H :    0.132735
Sum of atomic charges:   -0.0000000

LOEWDIN ATOMIC CHARGES
----------------------
   0 C :   -0.321665
   1 C :   -0.289197
   2 C :   -0.244131
   3 C :   -0.314048
   4 O :    0.139084
   5 C :   -0.182770
   6 C :   -0.190983
   7 C :   -0.216501
   8 C :   -0.293608
   9 H :    0.119204
  10 H :    0.121586
  11 H :    0.119314
  12 H :    0.140793
  13 H :    0.140100
  14 H :    0.152395
  15 H :    0.153007
  16 H :    0.152422
  17 H :    0.133096
  18 H :    0.145599
  19 H :    0.149494
  20 H :    0.134938
  21 H :    0.124754
  22 H :    0.127118

  Mayer bond orders larger than 0.1
B(  0-C ,  1-C ) :   0.9098 B(  0-C ,  9-H ) :   0.9379 B(  0-C , 10-H ) :   0.9459
B(  0-C , 11-H ) :   0.9379 B(  1-C ,  2-C ) :   0.9536 B(  1-C , 12-H ) :   0.9347
B(  1-C , 13-H ) :   0.9343 B(  2-C ,  3-C ) :   0.9309 B(  2-C , 14-H ) :   0.9068
B(  2-C , 15-H ) :   0.9023 B(  3-C ,  4-O ) :   1.8966 B(  3-C ,  5-C ) :   0.9544
B(  5-C ,  6-C ) :   0.8405 B(  5-C ,  7-C ) :   0.8132 B(  5-C , 16-H ) :   0.9281
B(  6-C ,  7-C ) :   0.9147 B(  6-C , 17-H ) :   0.9294 B(  6-C , 18-H ) :   0.9207
B(  7-C ,  8-C ) :   0.9187 B(  7-C , 19-H ) :   0.9316 B(  8-C , 20-H ) :   0.9269
B(  8-C , 21-H ) :   0.9389 B(  8-C , 22-H ) :   0.9348

MP2 TOTAL ENERGY:     -387.626177218 Eh
FINAL SINGLE POINT ENERGY      -387.626177217925

DIPOLE MOMENT
-------------
                                X             Y             Z
Electronic contribution:     -1.78334      -4.47821       1.60468
Nuclear contribution   :      2.42044       4.78393      -0.97001
                        -----------------------------------------
Total Dipole Moment    :      0.63710       0.30572       0.63467
                        -----------------------------------------
Magnitude (a.u.)       :      0.94983
Magnitude (Debye)      :      2.41427

                             ****ORCA TERMINATED NORMALLY****
TOTAL RUN TIME: 0 days 0 hours 19 minutes 17 seconds 857 msec
