                         Program Version 3.0.3 - RELEASE   -
|  1> ! RI-MP2 RIJK def2-TZVP def2-TZVP/C def2-TZVP/JK TIGHTSCF
|  2> % maxcore 2000
|  3> % mp2 density relaxed end
|  4> *xyz 0 1
|  5>  C        0.0156283545     1.4427405362    -0.3215467288
|  6>  C        0.1853919877    -0.0311568383    -0.0368780307
|  7>  N        1.5617077475    -0.5600717661     0.0793901197
|  8>  C        0.6669048340    -0.6115862603     1.2511464486
|  9>  C        1.0862993399     0.2857343700     2.4011216560
| 10>  C        0.1048213955    -1.9920633251     1.6589306760
| 11>  C        1.0939138705    -2.7558829045     2.5547609131
| 12>  C       -1.2624902627    -1.8493333424     2.3439938550
| 13>  O       -0.0586053873    -2.7244750319     0.4344434731
| 14>  H        0.7775073534     2.0479196613     0.1735466918
| 15>  H        0.0987558160     1.6289031843    -1.3980656644
| 16>  H       -0.9711993464     1.7939799224     0.0012187380
| 17>  H       -0.5095487115    -0.6670385561    -0.5799614467
| 18>  H        1.5855550795    -1.4827065401    -0.3492588143
| 19>  H        1.4844464098     1.2269189536     2.0214816751
| 20>  H        0.2492106755     0.5162226882     3.0685114459
| 21>  H        1.8779049465    -0.1781519697     2.9972355794
| 22>  H        1.2088337994    -2.2861770780     3.5348227486
| 23>  H        0.7325269453    -3.7772649124     2.7240289348
| 24>  H        2.0765717235    -2.8149557971     2.0784278393
| 25>  H       -1.9691144562    -1.3491628747     1.6767041243
| 26>  H       -1.6670289207    -2.8367674308     2.5971792328
| 27>  H       -1.1938975610    -1.2767702660     3.2729881712
| 28>  H       -0.3725482626    -3.6052586525     0.6600883520
| 29> *
| 30>
| 31>                          ****END OF INPUT****

CARTESIAN COORDINATES (ANGSTROEM)
---------------------------------
  C      0.015628    1.442741   -0.321547
  C      0.185392   -0.031157   -0.036878
  N      1.561708   -0.560072    0.079390
  C      0.666905   -0.611586    1.251146
  C      1.086299    0.285734    2.401122
  C      0.104821   -1.992063    1.658931
  C      1.093914   -2.755883    2.554761
  C     -1.262490   -1.849333    2.343994
  O     -0.058605   -2.724475    0.434443
  H      0.777507    2.047920    0.173547
  H      0.098756    1.628903   -1.398066
  H     -0.971199    1.793980    0.001219
  H     -0.509549   -0.667039   -0.579961
  H      1.585555   -1.482707   -0.349259
  H      1.484446    1.226919    2.021482
  H      0.249211    0.516223    3.068511
  H      1.877905   -0.178152    2.997236
  H      1.208834   -2.286177    3.534823
  H      0.732527   -3.777265    2.724029
  H      2.076572   -2.814956    2.078428
  H     -1.969114   -1.349163    1.676704
  H     -1.667029   -2.836767    2.597179
  H     -1.193898   -1.276770    3.272988
  H     -0.372548   -3.605259    0.660088

 Total Charge           Charge          ....    0
 Multiplicity           Mult            ....    1
 Number of Electrons    NEL             ....   72
 Basis Dimension        Dim             ....  369

ORBITAL ENERGIES
----------------

  NO   OCC          E(Eh)            E(eV)
   0   2.0000     -20.559882      -559.4628
   1   2.0000     -15.534741      -422.7218
   2   2.0000     -11.295515      -307.3666
   3   2.0000     -11.254933      -306.2623
   4   2.0000     -11.242460      -305.9229
   5   2.0000     -11.221562      -305.3542
   6   2.0000     -11.220884      -305.3358
   7   2.0000     -11.212098      -305.0967
   8   2.0000     -11.208073      -304.9872
   9   2.0000      -1.371705       -37.3260
  10   2.0000      -1.246021       -33.9060
  11   2.0000      -1.059190       -28.8220
  12   2.0000      -0.979280       -26.6476
  13   2.0000      -0.972136       -26.4532
  14   2.0000      -0.945606       -25.7313
  15   2.0000      -0.858958       -23.3734
  16   2.0000      -0.803277       -21.8583
  17   2.0000      -0.735812       -20.0225
  18   2.0000      -0.689612       -18.7653
  19   2.0000      -0.668496       -18.1907
  20   2.0000      -0.613301       -16.6888
  21   2.0000      -0.597325       -16.2540
  22   2.0000      -0.589154       -16.0317
  23   2.0000      -0.579763       -15.7762
  24   2.0000      -0.568063       -15.4578
  25   2.0000      -0.554927       -15.1003
  26   2.0000      -0.542710       -14.7679
  27   2.0000      -0.539735       -14.6869
  28   2.0000      -0.524852       -14.2820
  29   2.0000      -0.514713       -14.0061
  30   2.0000      -0.502678       -13.6786
  31   2.0000      -0.473002       -12.8710
  32   2.0000      -0.458915       -12.4877
  33   2.0000      -0.431410       -11.7393
  34   2.0000      -0.422908       -11.5079
  35   2.0000      -0.368025       -10.0145
  36   0.0000       0.121623         3.3095
  37   0.0000       0.152604         4.1526
  38   0.0000       0.166872         4.5408
  39   0.0000       0.177596         4.8326
  40   0.0000       0.188931         5.1411

MULLIKEN ATOMIC CHARGES
-----------------------
   0 C :   -0.396051
   1 C :   -0.056686
   2 N :   -0.414929
   3 C :    0.198496
   4 C :   -0.463332
   5 C :    0.220437
   6 C :   -0.449437
   7 C :   -0.439901
   8 O :   -0.485400
   9 H :    0.129357
  10 H :    0.132556
  11 H :    0.120909
  12 H :    0.135940
  13 H :    0.231240
  14 H :    0.141901
  15 H :    0.127179
  16 H :    0.140609
  17 H :    0.136369
  18 H :    0.121923
  19 H :    0.154713
  20 H :    0.147726
  21 H :    0.121206
  22 H :    0.130942
  23 H :    0.314232
Sum of atomic charges:    0.0000000

LOEWDIN ATOMIC CHARGES
----------------------
   0 C :   -0.297758
   1 C :   -0.265075
   2 N :    0.025565
   3 C :   -0.278681
   4 C :   -0.262095
   5 C :   -0.384362
   6 C :   -0.275723
   7 C :   -0.272608
   8 O :    0.002580
   9 H :    0.124328
  10 H :    0.126699
  11 H :    0.124256
  12 H :    0.143978
  13 H :    0.168359
  14 H :    0.131196
  15 H :    0.125135
  16 H :    0.128398
  17 H :    0.127711
  18 H :    0.121749
  19 H :    0.131879
  20 H :    0.130079
  21 H :    0.122201
  22 H :    0.127193
  23 H :    0.174996

  Mayer bond orders larger than 0.1
B(  0-C ,  1-C ) :   0.8772 B(  0-C ,  9-H ) :   0.9448 B(  0-C , 10-H ) :   0.9391
B(  0-C , 11-H ) :   0.9360 B(  1-C ,  2-N ) :   0.9179 B(  1-C ,  3-C ) :   0.9267
B(  1-C , 12-H ) :   0.9061 B(  2-N ,  3-C ) :   0.8964 B(  2-N , 13-H ) :   0.8669
B(  3-C ,  4-C ) :   0.8720 B(  3-C ,  5-C ) :   0.8818 B(  4-C , 14-H ) :   0.9394
B(  4-C , 15-H ) :   0.9389 B(  4-C , 16-H ) :   0.9422 B(  5-C ,  6-C ) :   0.9183
B(  5-C ,  7-C ) :   0.9243 B(  5-C ,  8-O ) :   0.8741 B(  6-C , 17-H ) :   0.9319
B(  6-C , 18-H ) :   0.9272 B(  6-C , 19-H ) :   0.9372 B(  7-C , 20-H ) :   0.9417
B(  7-C , 21-H ) :   0.9247 B(  7-C , 22-H ) :   0.9313 B(  8-O , 23-H ) :   0.8418

MP2 TOTAL ENERGY:     -404.856660796 Eh
FINAL SINGLE POINT ENERGY      -404.856660796080

DIPOLE MOMENT
-------------
                                X             Y             Z
Electronic contribution:      1.26068      -2.58882      -4.22064
Nuclear contribution   :     -1.93016       1.97064       4.83851
                        -----------------------------------------
Total Dipole Moment    :     -0.66948      -0.61818       0.61787
                        -----------------------------------------
Magnitude (a.u.)       :      1.10096
Magnitude (Debye)      :      2.79842

                             ****ORCA TERMINATED NORMALLY****
TOTAL RUN TIME: 0 days 0 hours 23 minutes 34 seconds 478 msec
