                         Program Version 3.0.3 - RELEASE   -
|  1> ! RI-MP2 RIJK def2-TZVP def2-TZVP/C def2-TZVP/JK TIGHTSCF
|  2> % maxcore 2000
|  3> % mp2 density relaxed end
|  4> *xyz 0 1
|  5>  C        0.0423113205     1.5336425035    -0.1484411599
|  6>  C       -0.0426303319     0.0086618227     0.0146964289
|  7>  C       -1.4529686702    -0.4845398640     0.0607878252
|  8>  N       -2.4027650528    -0.0679018743     0.8838786488
|  9>  C       -3.4706583145    -0.8241546722     0.5178474972
| 10>  O       -4.6365329570    -0.6747647589     1.1477208042
| 11>  C       -5.6925611987    -1.5158744956     0.6914718347
| 12>  N       -3.2651623042    -1.6823383644    -0.4710620021
| 13>  N       -1.9491403628    -1.4398877345    -0.7495962476
| 14>  H        1.0841692993     1.8649885528    -0.1210844046
| 15>  H       -0.3944914276     1.8525944121    -1.0995096761
| 16>  H       -0.5050346354     2.0292951863     0.6563638733
| 17>  H        0.4888992827    -0.4956683977    -0.8006471495
| 18>  H        0.4582830086    -0.2863119757     0.9444743546
| 19>  H       -6.5589729867    -1.2673644681     1.3053391819
| 20>  H       -5.9117839563    -1.3310714297    -0.3652681582
| 21>  H       -5.4323395974    -2.5723745905     0.8138915549
| 22>  H       -1.4905431356    -1.9580302719    -1.4800368457
| 23> *
| 24>
| 25>                          ****END OF INPUT****

CARTESIAN COORDINATES (ANGSTROEM)
---------------------------------
  C      0.042311    1.533643   -0.148441
  C     -0.042630    0.008662    0.014696
  C     -1.452969   -0.484540    0.060788
  N     -2.402765   -0.067902    0.883879
  C     -3.470658   -0.824155    0.517847
  O     -4.636533   -0.674765    1.147721
  C     -5.692561   -1.515874    0.691472
  N     -3.265162   -1.682338   -0.471062
  N     -1.949140   -1.439888   -0.749596
  H      1.084169    1.864989   -0.121084
  H     -0.394491    1.852594   -1.099510
  H     -0.505035    2.029295    0.656364
  H      0.488899   -0.495668   -0.800647
  H      0.458283   -0.286312    0.944474
  H     -6.558973   -1.267364    1.305339
  H     -5.911784   -1.331071   -0.365268
  H     -5.432340   -2.572375    0.813892
  H     -1.490543   -1.958030   -1.480037

 Total Charge           Charge          ....    0
 Multiplicity           Mult            ....    1
 Number of Electrons    NEL             ....   68
 Basis Dimension        Dim             ....  333

ORBITAL ENERGIES
----------------

  NO   OCC          E(Eh)            E(eV)
   0   2.0000     -20.586647      -560.1911
   1   2.0000     -15.637780      -425.5256
   2   2.0000     -15.572697      -423.7546
   3   2.0000     -15.542942      -422.9449
   4   2.0000     -11.340378      -308.5874
   5   2.0000     -11.321559      -308.0753
   6   2.0000     -11.275542      -306.8231
   7   2.0000     -11.255227      -306.2703
   8   2.0000     -11.228928      -305.5547
   9   2.0000      -1.439118       -39.1604
  10   2.0000      -1.382196       -37.6115
  11   2.0000      -1.192124       -32.4393
  12   2.0000      -1.118650       -30.4400
  13   2.0000      -1.040264       -28.3070
  14   2.0000      -0.958194       -26.0738
  15   2.0000      -0.895861       -24.3776
  16   2.0000      -0.820455       -22.3257
  17   2.0000      -0.796897       -21.6847
  18   2.0000      -0.738977       -20.1086
  19   2.0000      -0.672426       -18.2976
  20   2.0000      -0.667342       -18.1593
  21   2.0000      -0.640909       -17.4400
  22   2.0000      -0.623524       -16.9670
  23   2.0000      -0.605906       -16.4875
  24   2.0000      -0.579935       -15.7808
  25   2.0000      -0.549943       -14.9647
  26   2.0000      -0.525587       -14.3019
  27   2.0000      -0.516735       -14.0611
  28   2.0000      -0.513564       -13.9748
  29   2.0000      -0.495739       -13.4898
  30   2.0000      -0.488085       -13.2815
  31   2.0000      -0.439925       -11.9710
  32   2.0000      -0.400508       -10.8984
  33   2.0000      -0.346186        -9.4202
  34   0.0000       0.120942         3.2910
  35   0.0000       0.144287         3.9262
  36   0.0000       0.164068         4.4645
  37   0.0000       0.174065         4.7366
  38   0.0000       0.181181         4.9302

MULLIKEN ATOMIC CHARGES
-----------------------
   0 C :   -0.379089
   1 C :   -0.232672
   2 C :    0.200566
   3 N :   -0.305423
   4 C :    0.295565
   5 O :   -0.264048
   6 C :   -0.210438
   7 N :   -0.269618
   8 N :   -0.158200
   9 H :    0.131695
  10 H :    0.124222
  11 H :    0.155278
  12 H :    0.110140
  13 H :    0.136011
  14 H :    0.145258
  15 H :    0.131454
  16 H :    0.131413
  17 H :    0.257886
Sum of atomic charges:    0.0000000

LOEWDIN ATOMIC CHARGES
----------------------
   0 C :   -0.302330
   1 C :   -0.255951
   2 C :   -0.331132
   3 N :    0.122596
   4 C :   -0.492215
   5 O :    0.240492
   6 C :   -0.317247
   7 N :    0.004006
   8 N :    0.137224
   9 H :    0.121314
  10 H :    0.123035
  11 H :    0.131411
  12 H :    0.141101
  13 H :    0.152722
  14 H :    0.114451
  15 H :    0.110556
  16 H :    0.110585
  17 H :    0.189382

  Mayer bond orders larger than 0.1
B(  0-C ,  1-C ) :   0.9243 B(  0-C ,  9-H ) :   0.9357 B(  0-C , 10-H ) :   0.9341
B(  0-C , 11-H ) :   0.9330 B(  1-C ,  2-C ) :   0.9100 B(  1-C , 12-H ) :   0.9453
B(  1-C , 13-H ) :   0.9259 B(  2-C ,  3-N ) :   1.4639 B(  2-C ,  8-N ) :   1.2416
B(  3-N ,  4-C ) :   1.3369 B(  4-C ,  5-O ) :   1.1273 B(  4-C ,  7-N ) :   1.5031
B(  5-O ,  6-C ) :   0.8574 B(  6-C , 14-H ) :   0.9357 B(  6-C , 15-H ) :   0.9359
B(  6-C , 16-H ) :   0.9357 B(  7-N ,  8-N ) :   1.0020 B(  8-N , 17-H ) :   0.8626

MP2 TOTAL ENERGY:     -434.574048653 Eh
FINAL SINGLE POINT ENERGY      -434.574048653191

DIPOLE MOMENT
-------------
                                X             Y             Z
Electronic contribution:     -3.80326      -3.33445       1.04583
Nuclear contribution   :      4.53898       2.81221      -1.93172
                        -----------------------------------------
Total Dipole Moment    :      0.73572      -0.52224      -0.88589
                        -----------------------------------------
Magnitude (a.u.)       :      1.26445
Magnitude (Debye)      :      3.21397

                             ****ORCA TERMINATED NORMALLY****
TOTAL RUN TIME: 0 days 0 hours 16 minutes 21 seconds 539 msec
