                         Program Version 3.0.3 - RELEASE   -
|  1> ! RI-MP2 RIJK def2-TZVP def2-TZVP/C def2-TZVP/JK TIGHTSCF
|  2> % maxcore 2000
|  3> % mp2 density relaxed end
|  4> *xyz 0 1
|  5>  C       -0.0465614071     1.5070110996     0.0453351514
|  6>  C       -0.0021213603    -0.0067366252     0.0300952016
|  7>  C        1.3388751051    -0.7234092739    -0.1864900753
|  8>  C        0.6494024355    -0.7653212174     1.1268304418
|  9>  N        1.1681350236    -0.2136837961     2.4482513438
| 10>  C       -0.1798750658    -0.6873062921     3.0208773332
| 11>  C        0.2406150274    -1.8635613714     2.0954728567
| 12>  O       -0.4284974504    -3.0170853766     1.7344645244
| 13>  C        1.6565912441    -1.6511602065     2.7013404058
| 14>  H        0.8082608132     1.9125069162     0.5937043919
| 15>  H       -0.0269397339     1.9123916108    -0.9721682089
| 16>  H       -0.9564547086     1.8740716846     0.5328618008
| 17>  H       -0.8606913201    -0.4907812107    -0.4308310418
| 18>  H        1.3534556855    -1.6197061471    -0.7985029724
| 19>  H        2.2211820630    -0.0961846246    -0.2755354407
| 20>  H       -0.1533821947    -0.8443508456     4.1030839669
| 21>  H       -1.0258517109    -0.0693159321     2.7147062137
| 22>  H       -0.5682692392    -3.5565566707     2.5203806935
| 23>  H        2.5211292892    -1.9298820408     2.0962438295
| 24>  H        1.8049749344    -1.8709084906     3.7625871543
| 25> *
| 26>
| 27>                          ****END OF INPUT****

CARTESIAN COORDINATES (ANGSTROEM)
---------------------------------
  C     -0.046561    1.507011    0.045335
  C     -0.002121   -0.006737    0.030095
  C      1.338875   -0.723409   -0.186490
  C      0.649402   -0.765321    1.126830
  N      1.168135   -0.213684    2.448251
  C     -0.179875   -0.687306    3.020877
  C      0.240615   -1.863561    2.095473
  O     -0.428497   -3.017085    1.734465
  C      1.656591   -1.651160    2.701340
  H      0.808261    1.912507    0.593704
  H     -0.026940    1.912392   -0.972168
  H     -0.956455    1.874072    0.532862
  H     -0.860691   -0.490781   -0.430831
  H      1.353456   -1.619706   -0.798503
  H      2.221182   -0.096185   -0.275535
  H     -0.153382   -0.844351    4.103084
  H     -1.025852   -0.069316    2.714706
  H     -0.568269   -3.556557    2.520381
  H      2.521129   -1.929882    2.096244
  H      1.804975   -1.870908    3.762587

 Total Charge           Charge          ....    0
 Multiplicity           Mult            ....    1
 Number of Electrons    NEL             ....   68
 Basis Dimension        Dim             ....  345

ORBITAL ENERGIES
----------------

  NO   OCC          E(Eh)            E(eV)
   0   2.0000     -20.574701      -559.8661
   1   2.0000     -15.572953      -423.7616
   2   2.0000     -11.306936      -307.6774
   3   2.0000     -11.264336      -306.5182
   4   2.0000     -11.259911      -306.3978
   5   2.0000     -11.259645      -306.3905
   6   2.0000     -11.229025      -305.5573
   7   2.0000     -11.219263      -305.2917
   8   2.0000     -11.212942      -305.1197
   9   2.0000      -1.389087       -37.7990
  10   2.0000      -1.296836       -35.2887
  11   2.0000      -1.129530       -30.7361
  12   2.0000      -0.960053       -26.1244
  13   2.0000      -0.925129       -25.1740
  14   2.0000      -0.912562       -24.8321
  15   2.0000      -0.859005       -23.3747
  16   2.0000      -0.790463       -21.5096
  17   2.0000      -0.724145       -19.7050
  18   2.0000      -0.707856       -19.2617
  19   2.0000      -0.664970       -18.0948
  20   2.0000      -0.630796       -17.1648
  21   2.0000      -0.611747       -16.6465
  22   2.0000      -0.600428       -16.3385
  23   2.0000      -0.576163       -15.6782
  24   2.0000      -0.560098       -15.2411
  25   2.0000      -0.541436       -14.7332
  26   2.0000      -0.508626       -13.8404
  27   2.0000      -0.497526       -13.5384
  28   2.0000      -0.493808       -13.4372
  29   2.0000      -0.462174       -12.5764
  30   2.0000      -0.441410       -12.0114
  31   2.0000      -0.400800       -10.9063
  32   2.0000      -0.391878       -10.6635
  33   2.0000      -0.389713       -10.6046
  34   0.0000       0.130490         3.5508
  35   0.0000       0.148445         4.0394
  36   0.0000       0.167761         4.5650
  37   0.0000       0.170873         4.6497
  38   0.0000       0.188008         5.1160

MULLIKEN ATOMIC CHARGES
-----------------------
   0 C :   -0.423720
   1 C :   -0.097060
   2 C :   -0.315850
   3 C :    0.043311
   4 N :   -0.202554
   5 C :   -0.158258
   6 C :    0.162581
   7 O :   -0.450457
   8 C :   -0.160136
   9 H :    0.150437
  10 H :    0.133596
  11 H :    0.126698
  12 H :    0.125902
  13 H :    0.137507
  14 H :    0.132545
  15 H :    0.114971
  16 H :    0.119692
  17 H :    0.325232
  18 H :    0.121245
  19 H :    0.114317
Sum of atomic charges:   -0.0000000

LOEWDIN ATOMIC CHARGES
----------------------
   0 C :   -0.292185
   1 C :   -0.205477
   2 C :   -0.182568
   3 C :   -0.230139
   4 N :    0.137432
   5 C :   -0.201547
   6 C :   -0.342922
   7 O :    0.024020
   8 C :   -0.202549
   9 H :    0.132573
  10 H :    0.124560
  11 H :    0.124113
  12 H :    0.152785
  13 H :    0.138230
  14 H :    0.141289
  15 H :    0.121818
  16 H :    0.128016
  17 H :    0.182416
  18 H :    0.128320
  19 H :    0.121815

  Mayer bond orders larger than 0.1
B(  0-C ,  1-C ) :   0.8775 B(  0-C ,  9-H ) :   0.9350 B(  0-C , 10-H ) :   0.9382
B(  0-C , 11-H ) :   0.9385 B(  1-C ,  2-C ) :   0.9653 B(  1-C ,  3-C ) :   0.8721
B(  1-C , 12-H ) :   0.9102 B(  2-C ,  3-C ) :   0.8742 B(  2-C , 13-H ) :   0.9112
B(  2-C , 14-H ) :   0.9084 B(  3-C ,  4-N ) :   0.8983 B(  3-C ,  6-C ) :   0.8534
B(  4-N ,  5-C ) :   0.9070 B(  4-N ,  8-C ) :   0.9117 B(  5-C ,  6-C ) :   0.9329
B(  5-C , 15-H ) :   0.9156 B(  5-C , 16-H ) :   0.9246 B(  6-C ,  7-O ) :   1.0123
B(  6-C ,  8-C ) :   0.9299 B(  7-O , 17-H ) :   0.8338 B(  8-C , 18-H ) :   0.9225
B(  8-C , 19-H ) :   0.9162

MP2 TOTAL ENERGY:     -402.369960081 Eh
FINAL SINGLE POINT ENERGY      -402.369960080796

DIPOLE MOMENT
-------------
                                X             Y             Z
Electronic contribution:     -0.19316      -4.75176       2.40299
Nuclear contribution   :     -0.03878       4.26152      -2.01332
                        -----------------------------------------
Total Dipole Moment    :     -0.23193      -0.49024       0.38967
                        -----------------------------------------
Magnitude (a.u.)       :      0.66780
Magnitude (Debye)      :      1.69743

                             ****ORCA TERMINATED NORMALLY****
TOTAL RUN TIME: 0 days 0 hours 17 minutes 43 seconds 540 msec
