                         Program Version 3.0.3 - RELEASE   -
|  1> ! RI-MP2 RIJK def2-TZVP def2-TZVP/C def2-TZVP/JK TIGHTSCF
|  2> % maxcore 2000
|  3> % mp2 density relaxed end
|  4> *xyz 0 1
|  5>  C       -0.3200891433     1.5209315147     0.0231502441
|  6>  C        0.0612046301     0.0629841631     0.0110228980
|  7>  C       -0.6760227091    -0.9626852359     0.8943643403
|  8>  C        0.7712513934    -0.6896914529     1.1051363242
|  9>  O        1.6548451741    -1.6565725850     0.5463006494
| 10>  C        1.5670675054    -1.6468323455    -0.8184451158
| 11>  N        2.1760956384    -2.4185232941    -1.6062862248
| 12>  C        0.6209278264    -0.5247688146    -1.2454317024
| 13>  O        0.4380122110    -0.1531042369    -2.3733925966
| 14>  H        0.5305085278     2.1520893882    -0.2516014784
| 15>  H       -1.1186435200     1.7065598842    -0.7010101801
| 16>  H       -0.6723971994     1.8303801491     1.0111495281
| 17>  H       -1.3884810643    -0.5361193056     1.5920848053
| 18>  H       -0.9583788441    -1.9240450719     0.4780745171
| 19>  H        1.1706991747    -0.2312911004     2.0009008856
| 20>  H        2.7575623589    -3.0837970865    -1.0914323040
| 21> *
| 22>
| 23>                          ****END OF INPUT****

CARTESIAN COORDINATES (ANGSTROEM)
---------------------------------
  C     -0.320089    1.520932    0.023150
  C      0.061205    0.062984    0.011023
  C     -0.676023   -0.962685    0.894364
  C      0.771251   -0.689691    1.105136
  O      1.654845   -1.656573    0.546301
  C      1.567068   -1.646832   -0.818445
  N      2.176096   -2.418523   -1.606286
  C      0.620928   -0.524769   -1.245432
  O      0.438012   -0.153104   -2.373393
  H      0.530509    2.152089   -0.251601
  H     -1.118644    1.706560   -0.701010
  H     -0.672397    1.830380    1.011150
  H     -1.388481   -0.536119    1.592085
  H     -0.958379   -1.924045    0.478075
  H      1.170699   -0.231291    2.000901
  H      2.757562   -3.083797   -1.091432

 Total Charge           Charge          ....    0
 Multiplicity           Mult            ....    1
 Number of Electrons    NEL             ....   66
 Basis Dimension        Dim             ....  321

ORBITAL ENERGIES
----------------

  NO   OCC          E(Eh)            E(eV)
   0   2.0000     -20.618540      -561.0590
   1   2.0000     -20.570052      -559.7396
   2   2.0000     -15.561889      -423.4605
   3   2.0000     -11.353587      -308.9468
   4   2.0000     -11.352926      -308.9288
   5   2.0000     -11.325693      -308.1878
   6   2.0000     -11.275402      -306.8193
   7   2.0000     -11.268290      -306.6258
   8   2.0000     -11.245084      -305.9943
   9   2.0000      -1.460517       -39.7427
  10   2.0000      -1.408804       -38.3355
  11   2.0000      -1.221632       -33.2423
  12   2.0000      -1.179762       -32.1030
  13   2.0000      -1.003248       -27.2998
  14   2.0000      -0.966004       -26.2863
  15   2.0000      -0.878830       -23.9142
  16   2.0000      -0.812312       -22.1041
  17   2.0000      -0.768860       -20.9217
  18   2.0000      -0.716698       -19.5023
  19   2.0000      -0.688181       -18.7264
  20   2.0000      -0.668800       -18.1990
  21   2.0000      -0.649190       -17.6654
  22   2.0000      -0.613730       -16.7004
  23   2.0000      -0.597826       -16.2677
  24   2.0000      -0.589315       -16.0361
  25   2.0000      -0.576739       -15.6939
  26   2.0000      -0.568591       -15.4721
  27   2.0000      -0.546872       -14.8812
  28   2.0000      -0.481215       -13.0945
  29   2.0000      -0.468773       -12.7560
  30   2.0000      -0.435602       -11.8533
  31   2.0000      -0.425970       -11.5912
  32   2.0000      -0.402481       -10.9521
  33   0.0000       0.076205         2.0736
  34   0.0000       0.131080         3.5669
  35   0.0000       0.157588         4.2882
  36   0.0000       0.165620         4.5067
  37   0.0000       0.169356         4.6084

MULLIKEN ATOMIC CHARGES
-----------------------
   0 C :   -0.397773
   1 C :    0.037964
   2 C :   -0.296628
   3 C :    0.073902
   4 O :   -0.254287
   5 C :    0.077788
   6 N :   -0.317732
   7 C :    0.193824
   8 O :   -0.240237
   9 H :    0.145643
  10 H :    0.156790
  11 H :    0.133578
  12 H :    0.147369
  13 H :    0.159538
  14 H :    0.150172
  15 H :    0.230090
Sum of atomic charges:   -0.0000000

LOEWDIN ATOMIC CHARGES
----------------------
   0 C :   -0.253422
   1 C :   -0.214644
   2 C :   -0.158414
   3 C :   -0.221892
   4 O :    0.267285
   5 C :   -0.367468
   6 N :   -0.011131
   7 C :   -0.258880
   8 O :    0.200257
   9 H :    0.135386
  10 H :    0.139579
  11 H :    0.130851
  12 H :    0.145993
  13 H :    0.147266
  14 H :    0.145322
  15 H :    0.173912

  Mayer bond orders larger than 0.1
B(  0-C ,  1-C ) :   0.9112 B(  0-C ,  9-H ) :   0.9314 B(  0-C , 10-H ) :   0.9299
B(  0-C , 11-H ) :   0.9359 B(  1-C ,  2-C ) :   0.8338 B(  1-C ,  3-C ) :   0.8533
B(  1-C ,  7-C ) :   0.9347 B(  2-C ,  3-C ) :   0.8934 B(  2-C , 12-H ) :   0.9177
B(  2-C , 13-H ) :   0.8989 B(  3-C ,  4-O ) :   0.8906 B(  3-C , 14-H ) :   0.9216
B(  4-O ,  5-C ) :   1.0718 B(  5-C ,  6-N ) :   2.0715 B(  5-C ,  7-C ) :   0.8873
B(  6-N , 15-H ) :   0.8510 B(  7-C ,  8-O ) :   2.0265

MP2 TOTAL ENERGY:     -437.170283295 Eh
FINAL SINGLE POINT ENERGY      -437.170283294777

DIPOLE MOMENT
-------------
                                X             Y             Z
Electronic contribution:      3.83582      -4.20315      -3.63752
Nuclear contribution   :     -4.33111       4.61846       5.40160
                        -----------------------------------------
Total Dipole Moment    :     -0.49529       0.41531       1.76408
                        -----------------------------------------
Magnitude (a.u.)       :      1.87877
Magnitude (Debye)      :      4.77546

                             ****ORCA TERMINATED NORMALLY****
TOTAL RUN TIME: 0 days 0 hours 16 minutes 15 seconds 353 msec
