                         Program Version 3.0.3 - RELEASE   -
|  1> ! RI-MP2 RIJK def2-TZVP def2-TZVP/C def2-TZVP/JK TIGHTSCF
|  2> % maxcore 2000
|  3> % mp2 density relaxed end
|  4> *xyz 0 1
|  5>  C       -0.3222351931     1.3823392295     0.5370011460
|  6>  C       -0.0151313515    -0.0133803217     0.0351236666
|  7>  C        1.3312609607    -0.3377865885    -0.5626414592
|  8>  C        0.9462677222    -0.8913089363     0.7887959799
|  9>  N       -1.1498983627    -0.6773016109    -0.5575870430
| 10>  C       -1.4961627335    -0.7928747577    -1.8583078515
| 11>  N       -2.6644762698    -1.3952571298    -1.9800444099
| 12>  C       -3.0080209924    -1.6243594548    -0.6826010450
| 13>  N       -2.1325612455    -1.2075639164     0.2169569021
| 14>  H        0.5629413353     1.8239224571     1.0027677014
| 15>  H       -0.6401355539     2.0348010051    -0.2829973184
| 16>  H       -1.1238925403     1.3481416790     1.2803169481
| 17>  H        1.3707743770    -1.0310631522    -1.3944899086
| 18>  H        2.0574929099     0.4657749688    -0.6115141466
| 19>  H        1.4098939712    -0.4720911727     1.6742541374
| 20>  H        0.7088049682    -1.9457655793     0.8552463493
| 21>  H       -0.8717746572    -0.4341973402    -2.6621772307
| 22>  H       -3.9254695048    -2.1153242993    -0.3933055780
| 23> *
| 24>
| 25>                          ****END OF INPUT****

CARTESIAN COORDINATES (ANGSTROEM)
---------------------------------
  C     -0.322235    1.382339    0.537001
  C     -0.015131   -0.013380    0.035124
  C      1.331261   -0.337787   -0.562641
  C      0.946268   -0.891309    0.788796
  N     -1.149898   -0.677302   -0.557587
  C     -1.496163   -0.792875   -1.858308
  N     -2.664476   -1.395257   -1.980044
  C     -3.008021   -1.624359   -0.682601
  N     -2.132561   -1.207564    0.216957
  H      0.562941    1.823922    1.002768
  H     -0.640136    2.034801   -0.282997
  H     -1.123893    1.348142    1.280317
  H      1.370774   -1.031063   -1.394490
  H      2.057493    0.465775   -0.611514
  H      1.409894   -0.472091    1.674254
  H      0.708805   -1.945766    0.855246
  H     -0.871775   -0.434197   -2.662177
  H     -3.925470   -2.115324   -0.393306

 Total Charge           Charge          ....    0
 Multiplicity           Mult            ....    1
 Number of Electrons    NEL             ....   66
 Basis Dimension        Dim             ....  333

ORBITAL ENERGIES
----------------

  NO   OCC          E(Eh)            E(eV)
   0   2.0000     -15.647780      -425.7977
   1   2.0000     -15.587866      -424.1674
   2   2.0000     -15.552677      -423.2098
   3   2.0000     -11.311132      -307.7915
   4   2.0000     -11.295878      -307.3765
   5   2.0000     -11.281858      -306.9950
   6   2.0000     -11.247986      -306.0733
   7   2.0000     -11.242453      -305.9227
   8   2.0000     -11.232987      -305.6651
   9   2.0000      -1.411079       -38.3974
  10   2.0000      -1.221860       -33.2485
  11   2.0000      -1.160846       -31.5882
  12   2.0000      -1.095288       -29.8043
  13   2.0000      -0.986285       -26.8382
  14   2.0000      -0.877408       -23.8755
  15   2.0000      -0.854423       -23.2500
  16   2.0000      -0.820258       -22.3203
  17   2.0000      -0.781636       -21.2694
  18   2.0000      -0.718685       -19.5564
  19   2.0000      -0.675793       -18.3893
  20   2.0000      -0.650339       -17.6966
  21   2.0000      -0.613840       -16.7034
  22   2.0000      -0.590154       -16.0589
  23   2.0000      -0.584948       -15.9172
  24   2.0000      -0.560657       -15.2563
  25   2.0000      -0.555530       -15.1167
  26   2.0000      -0.534213       -14.5367
  27   2.0000      -0.501438       -13.6448
  28   2.0000      -0.458854       -12.4861
  29   2.0000      -0.444100       -12.0846
  30   2.0000      -0.428005       -11.6466
  31   2.0000      -0.396608       -10.7922
  32   2.0000      -0.365255        -9.9391
  33   0.0000       0.133594         3.6353
  34   0.0000       0.139067         3.7842
  35   0.0000       0.156209         4.2507
  36   0.0000       0.169799         4.6205
  37   0.0000       0.177171         4.8211

MULLIKEN ATOMIC CHARGES
-----------------------
   0 C :   -0.407221
   1 C :    0.075082
   2 C :   -0.283277
   3 C :   -0.255750
   4 N :    0.115301
   5 C :   -0.008689
   6 N :   -0.309890
   7 C :    0.031743
   8 N :   -0.268936
   9 H :    0.128268
  10 H :    0.137162
  11 H :    0.159159
  12 H :    0.152283
  13 H :    0.141645
  14 H :    0.140394
  15 H :    0.151057
  16 H :    0.159476
  17 H :    0.142193
Sum of atomic charges:   -0.0000000

LOEWDIN ATOMIC CHARGES
----------------------
   0 C :   -0.256527
   1 C :   -0.290564
   2 C :   -0.197810
   3 C :   -0.189527
   4 N :    0.230660
   5 C :   -0.300083
   6 N :    0.074397
   7 C :   -0.344294
   8 N :    0.049090
   9 H :    0.132495
  10 H :    0.129885
  11 H :    0.136163
  12 H :    0.139018
  13 H :    0.137831
  14 H :    0.138490
  15 H :    0.142797
  16 H :    0.137803
  17 H :    0.130175

  Mayer bond orders larger than 0.1
B(  0-C ,  1-C ) :   0.9383 B(  0-C ,  9-H ) :   0.9251 B(  0-C , 10-H ) :   0.9289
B(  0-C , 11-H ) :   0.9330 B(  1-C ,  2-C ) :   0.8710 B(  1-C ,  3-C ) :   0.8616
B(  1-C ,  4-N ) :   0.8946 B(  2-C ,  3-C ) :   0.8974 B(  2-C , 12-H ) :   0.9224
B(  2-C , 13-H ) :   0.9248 B(  3-C , 14-H ) :   0.9278 B(  3-C , 15-H ) :   0.9265
B(  4-N ,  5-C ) :   1.2210 B(  4-N ,  8-N ) :   1.0132 B(  5-C ,  6-N ) :   1.5012
B(  5-C , 16-H ) :   0.9204 B(  6-N ,  7-C ) :   1.2962 B(  7-C ,  8-N ) :   1.4769
B(  7-C , 17-H ) :   0.9334

MP2 TOTAL ENERGY:     -397.451451638 Eh
FINAL SINGLE POINT ENERGY      -397.451451637561

DIPOLE MOMENT
-------------
                                X             Y             Z
Electronic contribution:     -6.19865      -4.10117      -2.93032
Nuclear contribution   :      7.41254       4.73388       3.19572
                        -----------------------------------------
Total Dipole Moment    :      1.21389       0.63271       0.26540
                        -----------------------------------------
Magnitude (a.u.)       :      1.39437
Magnitude (Debye)      :      3.54422

                             ****ORCA TERMINATED NORMALLY****
TOTAL RUN TIME: 0 days 0 hours 17 minutes 49 seconds 814 msec
