                         Program Version 3.0.3 - RELEASE   -
|  1> ! RI-MP2 RIJK def2-TZVP def2-TZVP/C def2-TZVP/JK TIGHTSCF
|  2> % maxcore 2000
|  3> % mp2 density relaxed end
|  4> *xyz 0 1
|  5>  C       -0.0113629385     1.6242392903    -0.1289797655
|  6>  C       -0.0357584996     0.0936283367     0.0006040750
|  7>  C        0.9425042910    -0.6297180906    -0.9953582269
|  8>  C        1.9432256554    -0.9295084211     0.1600230888
|  9>  C        0.8992962783    -0.3798884850     1.1405016286
| 10>  O        0.8128198647    -0.3575640227     2.3363435123
| 11>  C       -1.4592585440    -0.4244746558     0.0355815945
| 12>  C       -1.8312646696    -1.7368772887     0.6814379303
| 13>  C       -2.2660068584    -0.4349457080     1.3100944346
| 14>  H        1.0116430701     2.0135497553    -0.1689207987
| 15>  H       -0.5229094171     1.9324309782    -1.0476682091
| 16>  H       -0.5201809348     2.0893248694     0.7200923514
| 17>  H        0.5076893973    -1.5327331931    -1.4277112209
| 18>  H        1.3300507591    -0.0020729678    -1.7999129117
| 19>  H        2.2211258253    -1.9739884748     0.3252640420
| 20>  H        2.8609398075    -0.3331156865     0.1436805513
| 21>  H       -2.0120436452    -0.1791188412    -0.8696996666
| 22>  H       -2.5769581003    -2.3523640196     0.1904543380
| 23>  H       -1.0595579613    -2.3008352084     1.1943522957
| 24>  H       -1.7588167036    -0.1388612595     2.2209650198
| 25>  H       -3.3130868263    -0.1577177873     1.2575850968
| 26> *
| 27>
| 28>                          ****END OF INPUT****

CARTESIAN COORDINATES (ANGSTROEM)
---------------------------------
  C     -0.011363    1.624239   -0.128980
  C     -0.035758    0.093628    0.000604
  C      0.942504   -0.629718   -0.995358
  C      1.943226   -0.929508    0.160023
  C      0.899296   -0.379888    1.140502
  O      0.812820   -0.357564    2.336344
  C     -1.459259   -0.424475    0.035582
  C     -1.831265   -1.736877    0.681438
  C     -2.266007   -0.434946    1.310094
  H      1.011643    2.013550   -0.168921
  H     -0.522909    1.932431   -1.047668
  H     -0.520181    2.089325    0.720092
  H      0.507689   -1.532733   -1.427711
  H      1.330051   -0.002073   -1.799913
  H      2.221126   -1.973988    0.325264
  H      2.860940   -0.333116    0.143681
  H     -2.012044   -0.179119   -0.869700
  H     -2.576958   -2.352364    0.190454
  H     -1.059558   -2.300835    1.194352
  H     -1.758817   -0.138861    2.220965
  H     -3.313087   -0.157718    1.257585

 Total Charge           Charge          ....    0
 Multiplicity           Mult            ....    1
 Number of Electrons    NEL             ....   68
 Basis Dimension        Dim             ....  351

ORBITAL ENERGIES
----------------

  NO   OCC          E(Eh)            E(eV)
   0   2.0000     -20.550831      -559.2165
   1   2.0000     -11.327086      -308.2257
   2   2.0000     -11.249410      -306.1120
   3   2.0000     -11.238622      -305.8184
   4   2.0000     -11.236417      -305.7585
   5   2.0000     -11.234084      -305.6950
   6   2.0000     -11.227473      -305.5151
   7   2.0000     -11.224708      -305.4398
   8   2.0000     -11.220912      -305.3365
   9   2.0000      -1.393177       -37.9103
  10   2.0000      -1.164328       -31.6830
  11   2.0000      -1.115297       -30.3488
  12   2.0000      -0.999478       -27.1972
  13   2.0000      -0.888218       -24.1696
  14   2.0000      -0.860370       -23.4119
  15   2.0000      -0.820933       -22.3387
  16   2.0000      -0.809308       -22.0224
  17   2.0000      -0.697865       -18.9899
  18   2.0000      -0.674243       -18.3471
  19   2.0000      -0.655357       -17.8332
  20   2.0000      -0.648187       -17.6381
  21   2.0000      -0.620475       -16.8840
  22   2.0000      -0.582097       -15.8397
  23   2.0000      -0.570682       -15.5291
  24   2.0000      -0.557215       -15.1626
  25   2.0000      -0.539667       -14.6851
  26   2.0000      -0.523141       -14.2354
  27   2.0000      -0.511664       -13.9231
  28   2.0000      -0.496489       -13.5102
  29   2.0000      -0.477780       -13.0011
  30   2.0000      -0.475482       -12.9385
  31   2.0000      -0.416524       -11.3342
  32   2.0000      -0.402965       -10.9652
  33   2.0000      -0.385622       -10.4933
  34   0.0000       0.131509         3.5785
  35   0.0000       0.134661         3.6643
  36   0.0000       0.149234         4.0609
  37   0.0000       0.157796         4.2938
  38   0.0000       0.170042         4.6271

MULLIKEN ATOMIC CHARGES
-----------------------
   0 C :   -0.437613
   1 C :    0.263826
   2 C :   -0.318173
   3 C :   -0.198879
   4 C :    0.020399
   5 O :   -0.259818
   6 C :   -0.143305
   7 C :   -0.282059
   8 C :   -0.260373
   9 H :    0.134971
  10 H :    0.136006
  11 H :    0.148952
  12 H :    0.131906
  13 H :    0.125519
  14 H :    0.135463
  15 H :    0.139351
  16 H :    0.115706
  17 H :    0.129107
  18 H :    0.135252
  19 H :    0.154087
  20 H :    0.129674
Sum of atomic charges:   -0.0000000

LOEWDIN ATOMIC CHARGES
----------------------
   0 C :   -0.253729
   1 C :   -0.235743
   2 C :   -0.186593
   3 C :   -0.208126
   4 C :   -0.277015
   5 O :    0.164405
   6 C :   -0.193781
   7 C :   -0.224265
   8 C :   -0.218440
   9 H :    0.127893
  10 H :    0.129151
  11 H :    0.133246
  12 H :    0.137020
  13 H :    0.130207
  14 H :    0.141453
  15 H :    0.146388
  16 H :    0.152740
  17 H :    0.129982
  18 H :    0.135324
  19 H :    0.140320
  20 H :    0.129562

  Mayer bond orders larger than 0.1
B(  0-C ,  1-C ) :   0.8766 B(  0-C ,  9-H ) :   0.9270 B(  0-C , 10-H ) :   0.9380
B(  0-C , 11-H ) :   0.9374 B(  1-C ,  2-C ) :   0.8736 B(  1-C ,  3-C ) :  -0.1387
B(  1-C ,  4-C ) :   0.7316 B(  1-C ,  6-C ) :   0.9049 B(  2-C ,  3-C ) :   0.9769
B(  2-C , 12-H ) :   0.9201 B(  2-C , 13-H ) :   0.9267 B(  3-C ,  4-C ) :   0.9396
B(  3-C , 14-H ) :   0.9012 B(  3-C , 15-H ) :   0.8998 B(  4-C ,  5-O ) :   2.0140
B(  6-C ,  7-C ) :   0.8727 B(  6-C ,  8-C ) :   0.8727 B(  6-C , 16-H ) :   0.9276
B(  7-C ,  8-C ) :   0.9078 B(  7-C , 17-H ) :   0.9304 B(  7-C , 18-H ) :   0.9285
B(  8-C , 19-H ) :   0.9220 B(  8-C , 20-H ) :   0.9296

MP2 TOTAL ENERGY:     -386.406428375 Eh
FINAL SINGLE POINT ENERGY      -386.406428375337

DIPOLE MOMENT
-------------
                                X             Y             Z
Electronic contribution:      2.41363      -1.06102       4.13229
Nuclear contribution   :     -2.43013       1.10062      -5.13630
                        -----------------------------------------
Total Dipole Moment    :     -0.01650       0.03960      -1.00401
                        -----------------------------------------
Magnitude (a.u.)       :      1.00492
Magnitude (Debye)      :      2.55431

                             ****ORCA TERMINATED NORMALLY****
TOTAL RUN TIME: 0 days 0 hours 21 minutes 37 seconds 431 msec
