                         Program Version 3.0.3 - RELEASE   -
|  1> ! RI-MP2 RIJK def2-TZVP def2-TZVP/C def2-TZVP/JK TIGHTSCF
|  2> % maxcore 2000
|  3> % mp2 density relaxed end
|  4> *xyz 0 1
|  5>  N        0.0105836781     1.3249532628     0.0072871714
|  6>  C       -0.0511377415    -0.0131986118     0.0010073433
|  7>  N       -1.1819950323    -0.6713506490     0.0047341753
|  8>  C       -1.0868966578    -2.0316205131    -0.0025543638
|  9>  N       -0.0092326236    -2.7596075901    -0.0128598819
| 10>  N        1.1484713421    -2.0406394290    -0.0164446523
| 11>  C        1.2763590094    -0.6818655811    -0.0104056730
| 12>  O        2.3415578733    -0.0804580408    -0.0143036023
| 13>  H        0.9242950332     1.7494282612     0.0036058237
| 14>  H       -0.8300043090     1.8757801391     0.0149653987
| 15>  H       -2.0217105306    -2.5813129283     0.0004763550
| 16>  H        1.9972533787    -2.5902503199    -0.0245253640
| 17> *
| 18>
| 19>                          ****END OF INPUT****

CARTESIAN COORDINATES (ANGSTROEM)
---------------------------------
  N      0.010584    1.324953    0.007287
  C     -0.051138   -0.013199    0.001007
  N     -1.181995   -0.671351    0.004734
  C     -1.086897   -2.031621   -0.002554
  N     -0.009233   -2.759608   -0.012860
  N      1.148471   -2.040639   -0.016445
  C      1.276359   -0.681866   -0.010406
  O      2.341558   -0.080458   -0.014304
  H      0.924295    1.749428    0.003606
  H     -0.830004    1.875780    0.014965
  H     -2.021711   -2.581313    0.000476
  H      1.997253   -2.590250   -0.024525

 Total Charge           Charge          ....    0
 Multiplicity           Mult            ....    1
 Number of Electrons    NEL             ....   58
 Basis Dimension        Dim             ....  272

ORBITAL ENERGIES
----------------

  NO   OCC          E(Eh)            E(eV)
   0   2.0000     -20.542639      -558.9936
   1   2.0000     -15.650997      -425.8853
   2   2.0000     -15.611691      -424.8157
   3   2.0000     -15.607482      -424.7012
   4   2.0000     -15.577631      -423.8889
   5   2.0000     -11.380082      -309.6678
   6   2.0000     -11.363435      -309.2148
   7   2.0000     -11.315108      -307.8998
   8   2.0000      -1.421673       -38.6857
   9   2.0000      -1.358253       -36.9599
  10   2.0000      -1.299809       -35.3696
  11   2.0000      -1.211890       -32.9772
  12   2.0000      -1.125824       -30.6352
  13   2.0000      -0.946932       -25.7673
  14   2.0000      -0.905416       -24.6376
  15   2.0000      -0.796549       -21.6752
  16   2.0000      -0.788966       -21.4688
  17   2.0000      -0.699868       -19.0444
  18   2.0000      -0.681797       -18.5526
  19   2.0000      -0.655288       -17.8313
  20   2.0000      -0.650907       -17.7121
  21   2.0000      -0.621665       -16.9164
  22   2.0000      -0.552330       -15.0297
  23   2.0000      -0.535447       -14.5702
  24   2.0000      -0.512675       -13.9506
  25   2.0000      -0.504218       -13.7205
  26   2.0000      -0.432568       -11.7708
  27   2.0000      -0.418219       -11.3803
  28   2.0000      -0.338365        -9.2074
  29   0.0000       0.079332         2.1587
  30   0.0000       0.134589         3.6623
  31   0.0000       0.141745         3.8571
  32   0.0000       0.148201         4.0327
  33   0.0000       0.183045         4.9809

MULLIKEN ATOMIC CHARGES
-----------------------
   0 N :   -0.441651
   1 C :    0.187016
   2 N :   -0.275756
   3 C :    0.031525
   4 N :   -0.182428
   5 N :   -0.112462
   6 C :    0.214690
   7 O :   -0.388491
   8 H :    0.292002
   9 H :    0.266910
  10 H :    0.144135
  11 H :    0.264510
Sum of atomic charges:    0.0000000

LOEWDIN ATOMIC CHARGES
----------------------
   0 N :    0.037948
   1 C :   -0.315424
   2 N :    0.113376
   3 C :   -0.337333
   4 N :    0.036157
   5 N :    0.140830
   6 C :   -0.445935
   7 O :    0.060906
   8 H :    0.190147
   9 H :    0.179882
  10 H :    0.139554
  11 H :    0.199894

  Mayer bond orders larger than 0.1
B(  0-N ,  1-C ) :   1.2475 B(  0-N ,  8-H ) :   0.8404 B(  0-N ,  9-H ) :   0.8562
B(  1-C ,  2-N ) :   1.5445 B(  1-C ,  6-C ) :   0.9679 B(  2-N ,  3-C ) :   1.2238
B(  3-C ,  4-N ) :   1.6272 B(  3-C , 10-H ) :   0.9332 B(  4-N ,  5-N ) :   0.9320
B(  5-N ,  6-C ) :   1.1964 B(  5-N , 11-H ) :   0.8588 B(  6-C ,  7-O ) :   1.8545

MP2 TOTAL ENERGY:     -410.220078997 Eh
FINAL SINGLE POINT ENERGY      -410.220078997199

DIPOLE MOMENT
-------------
                                X             Y             Z
Electronic contribution:      0.92441      -1.24090      -0.01160
Nuclear contribution   :     -1.20985       1.69223       0.01552
                        -----------------------------------------
Total Dipole Moment    :     -0.28544       0.45132       0.00392
                        -----------------------------------------
Magnitude (a.u.)       :      0.53402
Magnitude (Debye)      :      1.35737

                             ****ORCA TERMINATED NORMALLY****
TOTAL RUN TIME: 0 days 0 hours 10 minutes 16 seconds 274 msec
