                         Program Version 3.0.3 - RELEASE   -
|  1> ! RI-MP2 RIJK def2-TZVP def2-TZVP/C def2-TZVP/JK TIGHTSCF
|  2> % maxcore 2000
|  3> % mp2 density relaxed end
|  4> *xyz 0 1
|  5>  C        0.0273085790     1.5170985722    -0.0723970863
|  6>  C        1.5359205836     1.9241745524     0.0545604180
|  7>  C        2.0928337018     0.6761487627     0.6513576391
|  8>  C        1.2599550366    -0.3915563889     0.6502162111
|  9>  C       -0.0631337539    -0.0486789353     0.0295610437
| 10>  C        2.0583779652    -1.4162659498     1.2168434569
| 11>  N        3.2609534634    -0.9814571712     1.5315036446
| 12>  O        3.2873753280     0.3790687020     1.1591756136
| 13>  H       -0.5268831789     1.9592033508     0.7600702672
| 14>  H       -0.4207538949     1.8956323105    -0.9937017822
| 15>  H        1.9922956892     2.1359762440    -0.9204317367
| 16>  H        1.6785997532     2.8140442323     0.6746503851
| 17>  H       -0.9295980299    -0.3591267584     0.6215054624
| 18>  H       -0.1771712864    -0.5084611130    -0.9599606626
| 19>  H        1.8251739042    -2.4520351803     1.4222854460
| 20> *
| 21>
| 22>                          ****END OF INPUT****

CARTESIAN COORDINATES (ANGSTROEM)
---------------------------------
  C      0.027309    1.517099   -0.072397
  C      1.535921    1.924175    0.054560
  C      2.092834    0.676149    0.651358
  C      1.259955   -0.391556    0.650216
  C     -0.063134   -0.048679    0.029561
  C      2.058378   -1.416266    1.216843
  N      3.260953   -0.981457    1.531504
  O      3.287375    0.379069    1.159176
  H     -0.526883    1.959203    0.760070
  H     -0.420754    1.895632   -0.993702
  H      1.992296    2.135976   -0.920432
  H      1.678600    2.814044    0.674650
  H     -0.929598   -0.359127    0.621505
  H     -0.177171   -0.508461   -0.959961
  H      1.825174   -2.452035    1.422285

 Total Charge           Charge          ....    0
 Multiplicity           Mult            ....    1
 Number of Electrons    NEL             ....   58
 Basis Dimension        Dim             ....  290

ORBITAL ENERGIES
----------------

  NO   OCC          E(Eh)            E(eV)
   0   2.0000     -20.637653      -561.5791
   1   2.0000     -15.615925      -424.9309
   2   2.0000     -11.299808      -307.4834
   3   2.0000     -11.279660      -306.9351
   4   2.0000     -11.253743      -306.2299
   5   2.0000     -11.248013      -306.0740
   6   2.0000     -11.245832      -306.0146
   7   2.0000     -11.225012      -305.4481
   8   2.0000      -1.482389       -40.3379
   9   2.0000      -1.160338       -31.5744
  10   2.0000      -1.148425       -31.2502
  11   2.0000      -1.004040       -27.3213
  12   2.0000      -0.974940       -26.5295
  13   2.0000      -0.835843       -22.7444
  14   2.0000      -0.813940       -22.1484
  15   2.0000      -0.767832       -20.8938
  16   2.0000      -0.704887       -19.1810
  17   2.0000      -0.673211       -18.3190
  18   2.0000      -0.628803       -17.1106
  19   2.0000      -0.582691       -15.8558
  20   2.0000      -0.576361       -15.6836
  21   2.0000      -0.571566       -15.5531
  22   2.0000      -0.546824       -14.8798
  23   2.0000      -0.517159       -14.0726
  24   2.0000      -0.502621       -13.6770
  25   2.0000      -0.499707       -13.5977
  26   2.0000      -0.461056       -12.5460
  27   2.0000      -0.420489       -11.4421
  28   2.0000      -0.339426        -9.2362
  29   0.0000       0.123610         3.3636
  30   0.0000       0.128546         3.4979
  31   0.0000       0.158401         4.3103
  32   0.0000       0.166432         4.5289
  33   0.0000       0.180477         4.9110

MULLIKEN ATOMIC CHARGES
-----------------------
   0 C :   -0.231248
   1 C :   -0.207628
   2 C :    0.103924
   3 C :   -0.042853
   4 C :   -0.189691
   5 C :   -0.138858
   6 N :   -0.105236
   7 O :   -0.117337
   8 H :    0.123105
   9 H :    0.131714
  10 H :    0.129479
  11 H :    0.140884
  12 H :    0.132609
  13 H :    0.124442
  14 H :    0.146694
Sum of atomic charges:    0.0000000

LOEWDIN ATOMIC CHARGES
----------------------
   0 C :   -0.213728
   1 C :   -0.208250
   2 C :   -0.264505
   3 C :   -0.171229
   4 C :   -0.207929
   5 C :   -0.248270
   6 N :    0.038095
   7 O :    0.291946
   8 H :    0.138859
   9 H :    0.132152
  10 H :    0.146006
  11 H :    0.143939
  12 H :    0.139382
  13 H :    0.141377
  14 H :    0.142156

  Mayer bond orders larger than 0.1
B(  0-C ,  1-C ) :   0.9328 B(  0-C ,  4-C ) :   0.9414 B(  0-C ,  8-H ) :   0.9290
B(  0-C ,  9-H ) :   0.9400 B(  1-C ,  2-C ) :   0.9488 B(  1-C , 10-H ) :   0.9027
B(  1-C , 11-H ) :   0.9268 B(  2-C ,  3-C ) :   1.4384 B(  2-C ,  7-O ) :   1.1511
B(  3-C ,  4-C ) :   0.8910 B(  3-C ,  5-C ) :   1.2064 B(  4-C , 12-H ) :   0.9303
B(  4-C , 13-H ) :   0.9015 B(  5-C ,  6-N ) :   1.6004 B(  5-C , 14-H ) :   0.9280
B(  6-N ,  7-O ) :   0.8720

MP2 TOTAL ENERGY:     -362.036201901 Eh
FINAL SINGLE POINT ENERGY      -362.036201901330

DIPOLE MOMENT
-------------
                                X             Y             Z
Electronic contribution:      6.60092      -3.24814       3.11544
Nuclear contribution   :     -7.85708       3.63704      -3.69307
                        -----------------------------------------
Total Dipole Moment    :     -1.25616       0.38890      -0.57763
                        -----------------------------------------
Magnitude (a.u.)       :      1.43626
Magnitude (Debye)      :      3.65067

                             ****ORCA TERMINATED NORMALLY****
TOTAL RUN TIME: 0 days 0 hours 12 minutes 37 seconds 280 msec
