                         Program Version 3.0.3 - RELEASE   -
|  1> ! RI-MP2 RIJK def2-TZVP def2-TZVP/C def2-TZVP/JK TIGHTSCF
|  2> % maxcore 2000
|  3> % mp2 density relaxed end
|  4> *xyz 0 1
|  5>  N        0.0362075179     1.2533963736     0.0087434799
|  6>  C        0.0183407227    -0.0029765176    -0.0864498771
|  7>  O       -1.1134542258    -0.6751086132     0.2396299624
|  8>  C       -1.1137041809    -2.0724662798     0.0399637363
|  9>  C       -2.3525320846    -2.7387464216     0.6533774761
| 10>  N       -2.5922108230    -3.9541097502    -0.1444218659
| 11>  C       -2.2439602673    -3.6108960562    -1.5289445602
| 12>  C       -1.2273833268    -2.4680030263    -1.4521291795
| 13>  O       -0.6398650273    -1.9372555204    -2.3560126116
| 14>  H        0.9555412406     1.6069627495    -0.2477094210
| 15>  H        0.8411493093    -0.6538062933    -0.4015647927
| 16>  H       -0.1954166260    -2.5282970594     0.4433628441
| 17>  H       -2.2398416167    -2.9859503453     1.7097551930
| 18>  H       -3.2032142439    -2.0540473160     0.5538522913
| 19>  H       -1.9813220916    -4.6945630390     0.1833757663
| 20>  H       -1.8557356589    -4.4646571225    -2.0897304718
| 21>  H       -3.1265759277    -3.2433350122    -2.0717850897
| 22> *
| 23>
| 24>                          ****END OF INPUT****

CARTESIAN COORDINATES (ANGSTROEM)
---------------------------------
  N      0.036208    1.253396    0.008743
  C      0.018341   -0.002977   -0.086450
  O     -1.113454   -0.675109    0.239630
  C     -1.113704   -2.072466    0.039964
  C     -2.352532   -2.738746    0.653377
  N     -2.592211   -3.954110   -0.144422
  C     -2.243960   -3.610896   -1.528945
  C     -1.227383   -2.468003   -1.452129
  O     -0.639865   -1.937256   -2.356013
  H      0.955541    1.606963   -0.247709
  H      0.841149   -0.653806   -0.401565
  H     -0.195417   -2.528297    0.443363
  H     -2.239842   -2.985950    1.709755
  H     -3.203214   -2.054047    0.553852
  H     -1.981322   -4.694563    0.183376
  H     -1.855736   -4.464657   -2.089730
  H     -3.126576   -3.243335   -2.071785

 Total Charge           Charge          ....    0
 Multiplicity           Mult            ....    1
 Number of Electrons    NEL             ....   68
 Basis Dimension        Dim             ....  327

ORBITAL ENERGIES
----------------

  NO   OCC          E(Eh)            E(eV)
   0   2.0000     -20.604089      -560.6658
   1   2.0000     -20.571629      -559.7825
   2   2.0000     -15.576497      -423.8580
   3   2.0000     -15.540150      -422.8690
   4   2.0000     -11.348287      -308.8026
   5   2.0000     -11.339650      -308.5676
   6   2.0000     -11.318626      -307.9955
   7   2.0000     -11.282413      -307.0101
   8   2.0000     -11.279079      -306.9193
   9   2.0000      -1.443946       -39.2918
  10   2.0000      -1.410934       -38.3935
  11   2.0000      -1.253980       -34.1225
  12   2.0000      -1.200188       -32.6588
  13   2.0000      -1.033441       -28.1214
  14   2.0000      -0.994403       -27.0591
  15   2.0000      -0.863532       -23.4979
  16   2.0000      -0.845823       -23.0160
  17   2.0000      -0.780552       -21.2399
  18   2.0000      -0.730976       -19.8909
  19   2.0000      -0.713368       -19.4117
  20   2.0000      -0.673491       -18.3266
  21   2.0000      -0.666205       -18.1283
  22   2.0000      -0.653913       -17.7939
  23   2.0000      -0.618187       -16.8217
  24   2.0000      -0.587754       -15.9936
  25   2.0000      -0.570050       -15.5119
  26   2.0000      -0.567587       -15.4448
  27   2.0000      -0.549761       -14.9597
  28   2.0000      -0.542019       -14.7491
  29   2.0000      -0.505151       -13.7459
  30   2.0000      -0.457383       -12.4460
  31   2.0000      -0.438511       -11.9325
  32   2.0000      -0.414460       -11.2780
  33   2.0000      -0.380073       -10.3423
  34   0.0000       0.099181         2.6988
  35   0.0000       0.119355         3.2478
  36   0.0000       0.149527         4.0688
  37   0.0000       0.158063         4.3011
  38   0.0000       0.166769         4.5380

MULLIKEN ATOMIC CHARGES
-----------------------
   0 N :   -0.335256
   1 C :    0.072791
   2 O :   -0.215544
   3 C :    0.020753
   4 C :   -0.149983
   5 N :   -0.327086
   6 C :   -0.161483
   7 C :    0.140564
   8 O :   -0.263951
   9 H :    0.227616
  10 H :    0.088963
  11 H :    0.108774
  12 H :    0.144701
  13 H :    0.138064
  14 H :    0.213639
  15 H :    0.156739
  16 H :    0.140699
Sum of atomic charges:    0.0000000

LOEWDIN ATOMIC CHARGES
----------------------
   0 N :   -0.076319
   1 C :   -0.387028
   2 O :    0.268437
   3 C :   -0.299218
   4 C :   -0.264449
   5 N :   -0.019600
   6 C :   -0.266667
   7 C :   -0.302446
   8 O :    0.172785
   9 H :    0.169716
  10 H :    0.111792
  11 H :    0.149057
  12 H :    0.134611
  13 H :    0.143872
  14 H :    0.170233
  15 H :    0.143976
  16 H :    0.151248

  Mayer bond orders larger than 0.1
B(  0-N ,  1-C ) :   1.9612 B(  0-N ,  9-H ) :   0.8500 B(  1-C ,  2-O ) :   1.0203
B(  1-C , 10-H ) :   0.9278 B(  2-O ,  3-C ) :   0.9127 B(  3-C ,  4-C ) :   0.9235
B(  3-C ,  7-C ) :   0.8444 B(  3-C , 11-H ) :   0.9085 B(  4-C ,  5-N ) :   0.9417
B(  4-C , 12-H ) :   0.9342 B(  4-C , 13-H ) :   0.9197 B(  5-N ,  6-C ) :   0.9724
B(  5-N , 14-H ) :   0.8821 B(  6-C ,  7-C ) :   0.9116 B(  6-C , 15-H ) :   0.9194
B(  6-C , 16-H ) :   0.8997 B(  7-C ,  8-O ) :   2.0030

MP2 TOTAL ENERGY:     -454.406476645 Eh
FINAL SINGLE POINT ENERGY      -454.406476645027

DIPOLE MOMENT
-------------
                                X             Y             Z
Electronic contribution:      1.51755       2.84934      -1.72480
Nuclear contribution   :     -0.88103      -4.37184       2.06569
                        -----------------------------------------
Total Dipole Moment    :      0.63652      -1.52250       0.34089
                        -----------------------------------------
Magnitude (a.u.)       :      1.68504
Magnitude (Debye)      :      4.28304

                             ****ORCA TERMINATED NORMALLY****
TOTAL RUN TIME: 0 days 0 hours 15 minutes 17 seconds 708 msec
