                         Program Version 3.0.3 - RELEASE   -
|  1> ! RI-MP2 RIJK def2-TZVP def2-TZVP/C def2-TZVP/JK TIGHTSCF
|  2> % maxcore 2000
|  3> % mp2 density relaxed end
|  4> *xyz 0 1
|  5>  C        0.1905480710     1.2278185239     0.4626899331
|  6>  C       -0.0565702973    -0.2247009126     0.0509906857
|  7>  C       -1.5419792520    -0.5494170379    -0.0436878088
|  8>  O       -2.4263296840     0.2028575313     0.2749615453
|  9>  C        0.6116721047    -0.6022660654    -1.2643986253
| 10>  O        0.0886004064     0.0464765670    -2.3938821622
| 11>  C        2.0849672818    -0.9734824775    -1.2902918499
| 12>  C        1.0112059374    -2.0188192638    -1.5262826190
| 13>  O        0.7197219890    -2.9577256029    -0.5331785405
| 14>  H        1.2603310298     1.4230114385     0.5809351577
| 15>  H       -0.2133560166     1.9212004826    -0.2818795338
| 16>  H       -0.3145049197     1.4515817355     1.4044777475
| 17>  H        0.3394979439    -0.9091297555     0.8134030009
| 18>  H       -1.7580007273    -1.5710269438    -0.4249079398
| 19>  H        0.3667143625     0.9686909941    -2.3664154144
| 20>  H        2.6700766890    -0.6516613934    -2.1446787552
| 21>  H        2.6127236647    -1.0047864040    -0.3427967921
| 22>  H        0.8736123220    -2.3587965531    -2.5515646795
| 23>  H        1.4349506146    -3.6020655332    -0.5092072795
| 24> *
| 25>
| 26>                          ****END OF INPUT****

CARTESIAN COORDINATES (ANGSTROEM)
---------------------------------
  C      0.190548    1.227819    0.462690
  C     -0.056570   -0.224701    0.050991
  C     -1.541979   -0.549417   -0.043688
  O     -2.426330    0.202858    0.274962
  C      0.611672   -0.602266   -1.264399
  O      0.088600    0.046477   -2.393882
  C      2.084967   -0.973482   -1.290292
  C      1.011206   -2.018819   -1.526283
  O      0.719722   -2.957726   -0.533179
  H      1.260331    1.423011    0.580935
  H     -0.213356    1.921200   -0.281880
  H     -0.314505    1.451582    1.404478
  H      0.339498   -0.909130    0.813403
  H     -1.758001   -1.571027   -0.424908
  H      0.366714    0.968691   -2.366415
  H      2.670077   -0.651661   -2.144679
  H      2.612724   -1.004786   -0.342797
  H      0.873612   -2.358797   -2.551565
  H      1.434951   -3.602066   -0.509207

 Total Charge           Charge          ....    0
 Multiplicity           Mult            ....    1
 Number of Electrons    NEL             ....   70
 Basis Dimension        Dim             ....  339

ORBITAL ENERGIES
----------------

  NO   OCC          E(Eh)            E(eV)
   0   2.0000     -20.581161      -560.0418
   1   2.0000     -20.575959      -559.9003
   2   2.0000     -20.547441      -559.1243
   3   2.0000     -11.321155      -308.0643
   4   2.0000     -11.304043      -307.5986
   5   2.0000     -11.296920      -307.4048
   6   2.0000     -11.246981      -306.0459
   7   2.0000     -11.241256      -305.8901
   8   2.0000     -11.223254      -305.4003
   9   2.0000      -1.398468       -38.0543
  10   2.0000      -1.387125       -37.7456
  11   2.0000      -1.380487       -37.5650
  12   2.0000      -1.141058       -31.0498
  13   2.0000      -1.057344       -28.7718
  14   2.0000      -0.917431       -24.9646
  15   2.0000      -0.849670       -23.1207
  16   2.0000      -0.815676       -22.1957
  17   2.0000      -0.768005       -20.8985
  18   2.0000      -0.723784       -19.6952
  19   2.0000      -0.691885       -18.8271
  20   2.0000      -0.672576       -18.3017
  21   2.0000      -0.662594       -18.0301
  22   2.0000      -0.641532       -17.4570
  23   2.0000      -0.629508       -17.1298
  24   2.0000      -0.591960       -16.1081
  25   2.0000      -0.563053       -15.3215
  26   2.0000      -0.545273       -14.8376
  27   2.0000      -0.540085       -14.6965
  28   2.0000      -0.530510       -14.4359
  29   2.0000      -0.525038       -14.2870
  30   2.0000      -0.507691       -13.8150
  31   2.0000      -0.477184       -12.9848
  32   2.0000      -0.430327       -11.7098
  33   2.0000      -0.417206       -11.3527
  34   2.0000      -0.393781       -10.7153
  35   0.0000       0.126153         3.4328
  36   0.0000       0.129816         3.5325
  37   0.0000       0.151034         4.1099
  38   0.0000       0.160759         4.3745
  39   0.0000       0.173684         4.7262

MULLIKEN ATOMIC CHARGES
-----------------------
   0 C :   -0.421758
   1 C :   -0.001485
   2 C :    0.076239
   3 O :   -0.268927
   4 C :    0.189300
   5 O :   -0.465764
   6 C :   -0.339579
   7 C :    0.015398
   8 O :   -0.466344
   9 H :    0.137907
  10 H :    0.118640
  11 H :    0.153666
  12 H :    0.115787
  13 H :    0.103949
  14 H :    0.327734
  15 H :    0.142411
  16 H :    0.134839
  17 H :    0.120396
  18 H :    0.327591
Sum of atomic charges:    0.0000000

LOEWDIN ATOMIC CHARGES
----------------------
   0 C :   -0.285941
   1 C :   -0.251714
   2 C :   -0.258788
   3 O :    0.136274
   4 C :   -0.338193
   5 O :    0.036913
   6 C :   -0.202683
   7 C :   -0.300053
   8 O :   -0.000416
   9 H :    0.124518
  10 H :    0.124709
  11 H :    0.133077
  12 H :    0.176992
  13 H :    0.121800
  14 H :    0.183412
  15 H :    0.137676
  16 H :    0.138991
  17 H :    0.139889
  18 H :    0.183537

  Mayer bond orders larger than 0.1
B(  0-C ,  1-C ) :   0.9000 B(  0-C ,  9-H ) :   0.9406 B(  0-C , 10-H ) :   0.9317
B(  0-C , 11-H ) :   0.9337 B(  1-C ,  2-C ) :   0.8513 B(  1-C ,  4-C ) :   0.9099
B(  1-C , 12-H ) :   0.8910 B(  2-C ,  3-O ) :   1.9989 B(  2-C , 13-H ) :   0.9470
B(  4-C ,  5-O ) :   0.9441 B(  4-C ,  6-C ) :   0.8695 B(  4-C ,  7-C ) :   0.8504
B(  5-O , 14-H ) :   0.8367 B(  6-C ,  7-C ) :   0.9178 B(  6-C , 15-H ) :   0.9168
B(  6-C , 16-H ) :   0.9103 B(  7-C ,  8-O ) :   1.0401 B(  7-C , 17-H ) :   0.9527
B(  8-O , 18-H ) :   0.8377

MP2 TOTAL ENERGY:     -459.418027496 Eh
FINAL SINGLE POINT ENERGY      -459.418027496007

DIPOLE MOMENT
-------------
                                X             Y             Z
Electronic contribution:     -4.41446      -2.41533      -1.26127
Nuclear contribution   :      6.14181       2.08203       1.13781
                        -----------------------------------------
Total Dipole Moment    :      1.72735      -0.33330      -0.12346
                        -----------------------------------------
Magnitude (a.u.)       :      1.76353
Magnitude (Debye)      :      4.48255

                             ****ORCA TERMINATED NORMALLY****
TOTAL RUN TIME: 0 days 0 hours 18 minutes 56 seconds 805 msec
