                         Program Version 3.0.3 - RELEASE   -
|  1> ! RI-MP2 RIJK def2-TZVP def2-TZVP/C def2-TZVP/JK TIGHTSCF
|  2> % maxcore 2000
|  3> % mp2 density relaxed end
|  4> *xyz 0 1
|  5>  C        0.0081908914     1.5135779093    -0.1766091848
|  6>  N       -0.0339762009     0.0625054321    -0.0621272150
|  7>  C        0.5885034984    -0.6418494006    -0.8806654955
|  8>  O        1.3624611403    -0.2760514534    -2.0022125075
|  9>  C        1.4765215192    -1.6577004162    -2.3862909805
| 10>  C        2.2075994541    -2.4331455895    -1.3764732874
| 11>  C        0.7230627379    -2.1086582501    -1.1154168041
| 12>  C       -0.2975803626    -3.1593250010    -0.9612840419
| 13>  O       -0.1264994521    -4.3133636605    -1.2796850203
| 14>  H        0.5569419458     1.8765619651    -1.0527776864
| 15>  H       -1.0171265418     1.8954964238    -0.2147796950
| 16>  H        0.4704809664     1.9268261924     0.7262051715
| 17>  H        1.2810514262    -1.9143790983    -3.4184493326
| 18>  H        2.3515588286    -3.4869380089    -1.5942603306
| 19>  H        2.9645088263    -1.9497757582    -0.7679232186
| 20>  H       -1.2587693272    -2.8041099558    -0.5371166812
| 21> *
| 22>
| 23>                          ****END OF INPUT****

CARTESIAN COORDINATES (ANGSTROEM)
---------------------------------
  C      0.008191    1.513578   -0.176609
  N     -0.033976    0.062505   -0.062127
  C      0.588503   -0.641849   -0.880665
  O      1.362461   -0.276051   -2.002213
  C      1.476522   -1.657700   -2.386291
  C      2.207599   -2.433146   -1.376473
  C      0.723063   -2.108658   -1.115417
  C     -0.297580   -3.159325   -0.961284
  O     -0.126499   -4.313364   -1.279685
  H      0.556942    1.876562   -1.052778
  H     -1.017127    1.895496   -0.214780
  H      0.470481    1.926826    0.726205
  H      1.281051   -1.914379   -3.418449
  H      2.351559   -3.486938   -1.594260
  H      2.964509   -1.949776   -0.767923
  H     -1.258769   -2.804110   -0.537117

 Total Charge           Charge          ....    0
 Multiplicity           Mult            ....    1
 Number of Electrons    NEL             ....   66
 Basis Dimension        Dim             ....  321

ORBITAL ENERGIES
----------------

  NO   OCC          E(Eh)            E(eV)
   0   2.0000     -20.608076      -560.7743
   1   2.0000     -20.564332      -559.5839
   2   2.0000     -15.560323      -423.4179
   3   2.0000     -11.354778      -308.9792
   4   2.0000     -11.348971      -308.8212
   5   2.0000     -11.338149      -308.5267
   6   2.0000     -11.277519      -306.8769
   7   2.0000     -11.276510      -306.8494
   8   2.0000     -11.253605      -306.2262
   9   2.0000      -1.456112       -39.6228
  10   2.0000      -1.403294       -38.1856
  11   2.0000      -1.235153       -33.6102
  12   2.0000      -1.165507       -31.7151
  13   2.0000      -0.986334       -26.8395
  14   2.0000      -0.932070       -25.3629
  15   2.0000      -0.859111       -23.3776
  16   2.0000      -0.852301       -23.1923
  17   2.0000      -0.743146       -20.2220
  18   2.0000      -0.715444       -19.4682
  19   2.0000      -0.696568       -18.9546
  20   2.0000      -0.663211       -18.0469
  21   2.0000      -0.651270       -17.7220
  22   2.0000      -0.614944       -16.7335
  23   2.0000      -0.600220       -16.3328
  24   2.0000      -0.581633       -15.8270
  25   2.0000      -0.577175       -15.7057
  26   2.0000      -0.559162       -15.2156
  27   2.0000      -0.541712       -14.7407
  28   2.0000      -0.498137       -13.5550
  29   2.0000      -0.448055       -12.1922
  30   2.0000      -0.425550       -11.5798
  31   2.0000      -0.415751       -11.3132
  32   2.0000      -0.393824       -10.7165
  33   0.0000       0.101439         2.7603
  34   0.0000       0.150533         4.0962
  35   0.0000       0.156535         4.2595
  36   0.0000       0.165522         4.5041
  37   0.0000       0.174163         4.7392

MULLIKEN ATOMIC CHARGES
-----------------------
   0 C :   -0.271797
   1 N :   -0.238284
   2 C :    0.152909
   3 O :   -0.293261
   4 C :    0.063264
   5 C :   -0.230091
   6 C :    0.019691
   7 C :    0.060977
   8 O :   -0.287040
   9 H :    0.135016
  10 H :    0.141133
  11 H :    0.142876
  12 H :    0.164237
  13 H :    0.164577
  14 H :    0.160743
  15 H :    0.115049
Sum of atomic charges:    0.0000000

LOEWDIN ATOMIC CHARGES
----------------------
   0 C :   -0.318854
   1 N :    0.095109
   2 C :   -0.314676
   3 O :    0.223378
   4 C :   -0.178171
   5 C :   -0.143511
   6 C :   -0.163277
   7 C :   -0.260215
   8 O :    0.128213
   9 H :    0.112885
  10 H :    0.120801
  11 H :    0.122074
  12 H :    0.144184
  13 H :    0.158457
  14 H :    0.146456
  15 H :    0.127147

  Mayer bond orders larger than 0.1
B(  0-C ,  1-N ) :   0.8426 B(  0-C ,  9-H ) :   0.9296 B(  0-C , 10-H ) :   0.9339
B(  0-C , 11-H ) :   0.9330 B(  1-N ,  2-C ) :   2.0022 B(  2-C ,  3-O ) :   1.0065
B(  2-C ,  6-C ) :   0.8810 B(  3-O ,  4-C ) :   0.9242 B(  4-C ,  5-C ) :   0.9454
B(  4-C ,  6-C ) :   0.8095 B(  4-C , 12-H ) :   0.9059 B(  5-C ,  6-C ) :   0.8140
B(  5-C , 13-H ) :   0.9074 B(  5-C , 14-H ) :   0.9040 B(  6-C ,  7-C ) :   0.8906
B(  7-C ,  8-O ) :   1.9512 B(  7-C , 15-H ) :   0.9534

MP2 TOTAL ENERGY:     -437.123876826 Eh
FINAL SINGLE POINT ENERGY      -437.123876826439

DIPOLE MOMENT
-------------
                                X             Y             Z
Electronic contribution:     -0.32106      -4.64393      -1.38664
Nuclear contribution   :      0.75065       5.19559       1.06822
                        -----------------------------------------
Total Dipole Moment    :      0.42960       0.55166      -0.31843
                        -----------------------------------------
Magnitude (a.u.)       :      0.76829
Magnitude (Debye)      :      1.95284

                             ****ORCA TERMINATED NORMALLY****
TOTAL RUN TIME: 0 days 0 hours 14 minutes 45 seconds 996 msec
