                         Program Version 3.0.3 - RELEASE   -
|  1> ! RI-MP2 RIJK def2-TZVP def2-TZVP/C def2-TZVP/JK TIGHTSCF
|  2> % maxcore 2000
|  3> % mp2 density relaxed end
|  4> *xyz 0 1
|  5>  N       -0.0731695202     1.3698476950     0.3464439794
|  6>  C        0.9356767786     2.3343184735     0.0430345459
|  7>  C        0.8150644201     3.2032436976    -0.9839612455
|  8>  C       -0.2908527735     2.9379342651    -1.9281124376
|  9>  C       -0.3929708208     1.6637145652    -2.3535268592
| 10>  C       -1.6070233709     0.8537876030    -2.4373765340
| 11>  N       -1.7262472734    -0.2113666322    -1.7222132121
| 12>  C       -0.6980506924    -0.6677895065    -0.8665506531
| 13>  C        0.0646642932     0.0014201846     0.0258882584
| 14>  H       -0.9540470244     1.6985259982    -0.0243710421
| 15>  H        1.7617705509     2.3827574796     0.7481685539
| 16>  H        1.4736029576     4.0642710165    -1.0598038322
| 17>  H       -1.1130667196     3.6468642988    -2.0291728962
| 18>  H        0.4932161855     1.0504228870    -2.2037781389
| 19>  H       -2.4677788494     1.1579085794    -3.0354097855
| 20>  H       -0.6065028062    -1.7516270596    -0.8725982402
| 21>  H        0.8044859848    -0.5455762552     0.6042341193
| 22> *
| 23>
| 24>                          ****END OF INPUT****

CARTESIAN COORDINATES (ANGSTROEM)
---------------------------------
  N     -0.073170    1.369848    0.346444
  C      0.935677    2.334318    0.043035
  C      0.815064    3.203244   -0.983961
  C     -0.290853    2.937934   -1.928112
  C     -0.392971    1.663715   -2.353527
  C     -1.607023    0.853788   -2.437377
  N     -1.726247   -0.211367   -1.722213
  C     -0.698051   -0.667790   -0.866551
  C      0.064664    0.001420    0.025888
  H     -0.954047    1.698526   -0.024371
  H      1.761771    2.382757    0.748169
  H      1.473603    4.064271   -1.059804
  H     -1.113067    3.646864   -2.029173
  H      0.493216    1.050423   -2.203778
  H     -2.467779    1.157909   -3.035410
  H     -0.606503   -1.751627   -0.872598
  H      0.804486   -0.545576    0.604234

 Total Charge           Charge          ....    0
 Multiplicity           Mult            ....    1
 Number of Electrons    NEL             ....   64
 Basis Dimension        Dim             ....  327

ORBITAL ENERGIES
----------------

  NO   OCC          E(Eh)            E(eV)
   0   2.0000     -15.570896      -423.7056
   1   2.0000     -15.568329      -423.6358
   2   2.0000     -11.296311      -307.3883
   3   2.0000     -11.284377      -307.0635
   4   2.0000     -11.268887      -306.6420
   5   2.0000     -11.257346      -306.3280
   6   2.0000     -11.256353      -306.3009
   7   2.0000     -11.244087      -305.9672
   8   2.0000     -11.242699      -305.9294
   9   2.0000      -1.262380       -34.3511
  10   2.0000      -1.226489       -33.3745
  11   2.0000      -1.109206       -30.1830
  12   2.0000      -1.013518       -27.5792
  13   2.0000      -0.999664       -27.2022
  14   2.0000      -0.872020       -23.7289
  15   2.0000      -0.837448       -22.7881
  16   2.0000      -0.768589       -20.9144
  17   2.0000      -0.748759       -20.3748
  18   2.0000      -0.694450       -18.8969
  19   2.0000      -0.670454       -18.2440
  20   2.0000      -0.652435       -17.7537
  21   2.0000      -0.626287       -17.0421
  22   2.0000      -0.615426       -16.7466
  23   2.0000      -0.568616       -15.4728
  24   2.0000      -0.552168       -15.0252
  25   2.0000      -0.537555       -14.6276
  26   2.0000      -0.481868       -13.1123
  27   2.0000      -0.473920       -12.8960
  28   2.0000      -0.430481       -11.7140
  29   2.0000      -0.400006       -10.8847
  30   2.0000      -0.327868        -8.9217
  31   2.0000      -0.312661        -8.5079
  32   0.0000       0.076223         2.0741
  33   0.0000       0.127741         3.4760
  34   0.0000       0.155145         4.2217
  35   0.0000       0.161607         4.3975
  36   0.0000       0.167185         4.5493

MULLIKEN ATOMIC CHARGES
-----------------------
   0 N :   -0.216943
   1 C :   -0.116923
   2 C :   -0.102529
   3 C :   -0.174307
   4 C :   -0.113647
   5 C :   -0.077766
   6 N :   -0.211394
   7 C :   -0.071764
   8 C :   -0.103623
   9 H :    0.228527
  10 H :    0.131994
  11 H :    0.137549
  12 H :    0.139854
  13 H :    0.158690
  14 H :    0.135550
  15 H :    0.127574
  16 H :    0.129160
Sum of atomic charges:    0.0000000

LOEWDIN ATOMIC CHARGES
----------------------
   0 N :    0.077307
   1 C :   -0.200856
   2 C :   -0.179868
   3 C :   -0.152452
   4 C :   -0.153938
   5 C :   -0.219630
   6 N :    0.123608
   7 C :   -0.260132
   8 C :   -0.247527
   9 H :    0.193682
  10 H :    0.138513
  11 H :    0.142949
  12 H :    0.144494
  13 H :    0.167831
  14 H :    0.138504
  15 H :    0.145186
  16 H :    0.142329

  Mayer bond orders larger than 0.1
B(  0-N ,  1-C ) :   1.0061 B(  0-N ,  8-C ) :   1.0217 B(  0-N ,  9-H ) :   0.8823
B(  1-C ,  2-C ) :   1.7021 B(  1-C , 10-H ) :   0.9333 B(  2-C ,  3-C ) :   0.9354
B(  2-C , 11-H ) :   0.9161 B(  3-C ,  4-C ) :   1.6566 B(  3-C , 12-H ) :   0.9272
B(  4-C ,  5-C ) :   0.9909 B(  4-C , 13-H ) :   0.9136 B(  5-C ,  6-N ) :   1.7407
B(  5-C , 14-H ) :   0.9357 B(  6-N ,  7-C ) :   1.0258 B(  7-C ,  8-C ) :   1.6596
B(  7-C , 15-H ) :   0.9351 B(  8-C , 16-H ) :   0.9219

MP2 TOTAL ENERGY:     -380.127809858 Eh
FINAL SINGLE POINT ENERGY      -380.127809858268

DIPOLE MOMENT
-------------
                                X             Y             Z
Electronic contribution:     -1.42661      -0.87409      -0.73653
Nuclear contribution   :      1.91614       1.47427       0.69534
                        -----------------------------------------
Total Dipole Moment    :      0.48953       0.60018      -0.04119
                        -----------------------------------------
Magnitude (a.u.)       :      0.77560
Magnitude (Debye)      :      1.97142

                             ****ORCA TERMINATED NORMALLY****
TOTAL RUN TIME: 0 days 0 hours 17 minutes 59 seconds 329 msec
