                         Program Version 3.0.3 - RELEASE   -
|  1> ! RI-MP2 RIJK def2-TZVP def2-TZVP/C def2-TZVP/JK TIGHTSCF
|  2> % maxcore 2000
|  3> % mp2 density relaxed end
|  4> *xyz 0 1
|  5>  C        0.0232111030     1.5868573920     0.0318757486
|  6>  C        0.0332890379     0.0569941338     0.0121651802
|  7>  C        0.7115151609    -0.4957499410    -1.2547717612
|  8>  C        1.0332088480    -1.9651648844    -1.1637189640
|  9>  C        0.9742310991    -2.6876152756    -0.0399422251
| 10>  C        1.2821567717    -4.1600061894    -0.0092112013
| 11>  C        0.5813899441    -2.0560426174     1.2807321475
| 12>  C        0.7202814587    -0.5291037696     1.2601720223
| 13>  O        2.0911419705    -0.1380306576     1.3377452594
| 14>  H        1.0435829102     1.9689062206     0.1308957779
| 15>  H       -0.4113872600     1.9946693270    -0.8869756166
| 16>  H       -0.5609313439     1.9682028175     0.8763676478
| 17>  H       -1.0040595050    -0.3060555824     0.0242237939
| 18>  H        0.0706488099    -0.3111427205    -2.1265496645
| 19>  H        1.6321586090     0.0737450827    -1.4565383246
| 20>  H        1.3339873909    -2.4537140189    -2.0891456976
| 21>  H        1.5314445008    -4.5440424132    -1.0021391540
| 22>  H        2.1216635473    -4.3768312182     0.6639714251
| 23>  H        0.4267931501    -4.7332121208     0.3721911219
| 24>  H       -0.4510117502    -2.3375286884     1.5342629383
| 25>  H        1.2083246083    -2.4548659757     2.0884062482
| 26>  H        0.2600949591    -0.1071548343     2.1609304848
| 27>  H        2.5705250496    -0.6547594061     0.6800535630
| 28> *
| 29>
| 30>                          ****END OF INPUT****

CARTESIAN COORDINATES (ANGSTROEM)
---------------------------------
  C      0.023211    1.586857    0.031876
  C      0.033289    0.056994    0.012165
  C      0.711515   -0.495750   -1.254772
  C      1.033209   -1.965165   -1.163719
  C      0.974231   -2.687615   -0.039942
  C      1.282157   -4.160006   -0.009211
  C      0.581390   -2.056043    1.280732
  C      0.720281   -0.529104    1.260172
  O      2.091142   -0.138031    1.337745
  H      1.043583    1.968906    0.130896
  H     -0.411387    1.994669   -0.886976
  H     -0.560931    1.968203    0.876368
  H     -1.004060   -0.306056    0.024224
  H      0.070649   -0.311143   -2.126550
  H      1.632159    0.073745   -1.456538
  H      1.333987   -2.453714   -2.089146
  H      1.531445   -4.544042   -1.002139
  H      2.121664   -4.376831    0.663971
  H      0.426793   -4.733212    0.372191
  H     -0.451012   -2.337529    1.534263
  H      1.208325   -2.454866    2.088406
  H      0.260095   -0.107155    2.160930
  H      2.570525   -0.654759    0.680054

 Total Charge           Charge          ....    0
 Multiplicity           Mult            ....    1
 Number of Electrons    NEL             ....   70
 Basis Dimension        Dim             ....  363

ORBITAL ENERGIES
----------------

  NO   OCC          E(Eh)            E(eV)
   0   2.0000     -20.545924      -559.0830
   1   2.0000     -11.273041      -306.7550
   2   2.0000     -11.235546      -305.7348
   3   2.0000     -11.225148      -305.4518
   4   2.0000     -11.224534      -305.4351
   5   2.0000     -11.223806      -305.4153
   6   2.0000     -11.222757      -305.3868
   7   2.0000     -11.221460      -305.3514
   8   2.0000     -11.206786      -304.9521
   9   2.0000      -1.353719       -36.8366
  10   2.0000      -1.124913       -30.6104
  11   2.0000      -1.055023       -28.7086
  12   2.0000      -0.999758       -27.2048
  13   2.0000      -0.961299       -26.1583
  14   2.0000      -0.887655       -24.1543
  15   2.0000      -0.850299       -23.1378
  16   2.0000      -0.788713       -21.4620
  17   2.0000      -0.700815       -19.0702
  18   2.0000      -0.672745       -18.3063
  19   2.0000      -0.630408       -17.1543
  20   2.0000      -0.619860       -16.8673
  21   2.0000      -0.610745       -16.6192
  22   2.0000      -0.599686       -16.3183
  23   2.0000      -0.575455       -15.6589
  24   2.0000      -0.550757       -14.9869
  25   2.0000      -0.547422       -14.8961
  26   2.0000      -0.538036       -14.6407
  27   2.0000      -0.519342       -14.1320
  28   2.0000      -0.513676       -13.9778
  29   2.0000      -0.501643       -13.6504
  30   2.0000      -0.487229       -13.2582
  31   2.0000      -0.468372       -12.7450
  32   2.0000      -0.433591       -11.7986
  33   2.0000      -0.417707       -11.3664
  34   2.0000      -0.341498        -9.2926
  35   0.0000       0.128305         3.4914
  36   0.0000       0.148182         4.0322
  37   0.0000       0.152090         4.1386
  38   0.0000       0.167898         4.5687
  39   0.0000       0.174467         4.7475

MULLIKEN ATOMIC CHARGES
-----------------------
   0 C :   -0.423617
   1 C :    0.002646
   2 C :   -0.277728
   3 C :   -0.197749
   4 C :   -0.019694
   5 C :   -0.418618
   6 C :   -0.210010
   7 C :    0.078380
   8 O :   -0.480433
   9 H :    0.145237
  10 H :    0.129150
  11 H :    0.127028
  12 H :    0.086086
  13 H :    0.127243
  14 H :    0.131804
  15 H :    0.114129
  16 H :    0.132034
  17 H :    0.136198
  18 H :    0.134749
  19 H :    0.120574
  20 H :    0.137011
  21 H :    0.104529
  22 H :    0.321052
Sum of atomic charges:   -0.0000000

LOEWDIN ATOMIC CHARGES
----------------------
   0 C :   -0.294411
   1 C :   -0.261110
   2 C :   -0.239177
   3 C :   -0.158804
   4 C :   -0.205315
   5 C :   -0.273644
   6 C :   -0.213689
   7 C :   -0.312228
   8 O :   -0.015376
   9 H :    0.128428
  10 H :    0.122283
  11 H :    0.122603
  12 H :    0.157296
  13 H :    0.146109
  14 H :    0.146735
  15 H :    0.142653
  16 H :    0.127685
  17 H :    0.128943
  18 H :    0.130067
  19 H :    0.149479
  20 H :    0.149214
  21 H :    0.145467
  22 H :    0.176792

  Mayer bond orders larger than 0.1
B(  0-C ,  1-C ) :   0.8861 B(  0-C ,  9-H ) :   0.9350 B(  0-C , 10-H ) :   0.9420
B(  0-C , 11-H ) :   0.9409 B(  1-C ,  2-C ) :   0.9160 B(  1-C ,  7-C ) :   0.8838
B(  1-C , 12-H ) :   0.9207 B(  2-C ,  3-C ) :   0.9424 B(  2-C , 13-H ) :   0.9224
B(  2-C , 14-H ) :   0.9152 B(  3-C ,  4-C ) :   1.7466 B(  3-C , 15-H ) :   0.9290
B(  4-C ,  5-C ) :   0.9069 B(  4-C ,  6-C ) :   0.9313 B(  5-C , 16-H ) :   0.9464
B(  5-C , 17-H ) :   0.9315 B(  5-C , 18-H ) :   0.9296 B(  6-C ,  7-C ) :   0.9394
B(  6-C , 19-H ) :   0.8985 B(  6-C , 20-H ) :   0.9264 B(  7-C ,  8-O ) :   0.9255
B(  7-C , 21-H ) :   0.9355 B(  8-O , 22-H ) :   0.8385

MP2 TOTAL ENERGY:     -387.645228781 Eh
FINAL SINGLE POINT ENERGY      -387.645228781017

DIPOLE MOMENT
-------------
                                X             Y             Z
Electronic contribution:      1.70268       0.02241       1.19376
Nuclear contribution   :     -2.02069      -0.50294      -1.54893
                        -----------------------------------------
Total Dipole Moment    :     -0.31801      -0.48053      -0.35517
                        -----------------------------------------
Magnitude (a.u.)       :      0.67690
Magnitude (Debye)      :      1.72054

                             ****ORCA TERMINATED NORMALLY****
TOTAL RUN TIME: 0 days 0 hours 22 minutes 40 seconds 34 msec
