                         Program Version 3.0.3 - RELEASE   -
|  1> ! RI-MP2 RIJK def2-TZVP def2-TZVP/C def2-TZVP/JK TIGHTSCF
|  2> % maxcore 2000
|  3> % mp2 density relaxed end
|  4> *xyz 0 1
|  5>  C       -0.0839198110     1.4682954176     0.0098059023
|  6>  O        1.1467671915     0.7351660723    -0.0038565229
|  7>  C       -0.0803772590     0.0030707828     0.0031097690
|  8>  C       -0.3400060023    -0.8582157212     1.2203578633
|  9>  O       -1.6842415998    -1.3253822191     1.3464838787
| 10>  C       -0.7245254165    -2.2055298591     0.7614042719
| 11>  C       -0.7373202567    -2.1985919040    -0.7643331891
| 12>  O       -1.7066480189    -1.3132361377    -1.3252089511
| 13>  C       -0.3604516484    -0.8471288091    -1.2173943923
| 14>  H       -0.3021938078     1.9987345194     0.9349046941
| 15>  H       -0.3176465521     2.0071185322    -0.9066316248
| 16>  H        0.1923472339    -0.6403135497     2.1430208238
| 17>  H       -0.5059019358    -3.1180814472     1.3072962466
| 18>  H       -0.5279432645    -3.1061246676    -1.3220877696
| 19>  H        0.1563696174    -0.6208040895    -2.1468356299
| 20> *
| 21>
| 22>                          ****END OF INPUT****

CARTESIAN COORDINATES (ANGSTROEM)
---------------------------------
  C     -0.083920    1.468295    0.009806
  O      1.146767    0.735166   -0.003857
  C     -0.080377    0.003071    0.003110
  C     -0.340006   -0.858216    1.220358
  O     -1.684242   -1.325382    1.346484
  C     -0.724525   -2.205530    0.761404
  C     -0.737320   -2.198592   -0.764333
  O     -1.706648   -1.313236   -1.325209
  C     -0.360452   -0.847129   -1.217394
  H     -0.302194    1.998735    0.934905
  H     -0.317647    2.007119   -0.906632
  H      0.192347   -0.640314    2.143021
  H     -0.505902   -3.118081    1.307296
  H     -0.527943   -3.106125   -1.322088
  H      0.156370   -0.620804   -2.146836

 Total Charge           Charge          ....    0
 Multiplicity           Mult            ....    1
 Number of Electrons    NEL             ....   66
 Basis Dimension        Dim             ....  315

ORBITAL ENERGIES
----------------

  NO   OCC          E(Eh)            E(eV)
   0   2.0000     -20.588071      -560.2299
   1   2.0000     -20.584289      -560.1270
   2   2.0000     -20.584282      -560.1268
   3   2.0000     -11.311846      -307.8110
   4   2.0000     -11.305298      -307.6328
   5   2.0000     -11.304709      -307.6168
   6   2.0000     -11.302611      -307.5597
   7   2.0000     -11.302590      -307.5591
   8   2.0000     -11.299608      -307.4780
   9   2.0000      -1.453145       -39.5421
  10   2.0000      -1.427035       -38.8316
  11   2.0000      -1.412250       -38.4293
  12   2.0000      -1.047721       -28.5099
  13   2.0000      -0.973006       -26.4768
  14   2.0000      -0.917291       -24.9608
  15   2.0000      -0.914716       -24.8907
  16   2.0000      -0.820959       -22.3394
  17   2.0000      -0.798560       -21.7299
  18   2.0000      -0.752676       -20.4814
  19   2.0000      -0.690970       -18.8022
  20   2.0000      -0.673546       -18.3281
  21   2.0000      -0.664508       -18.0822
  22   2.0000      -0.614688       -16.7265
  23   2.0000      -0.593411       -16.1475
  24   2.0000      -0.574700       -15.6384
  25   2.0000      -0.546816       -14.8796
  26   2.0000      -0.545905       -14.8548
  27   2.0000      -0.540886       -14.7183
  28   2.0000      -0.485440       -13.2095
  29   2.0000      -0.465491       -12.6667
  30   2.0000      -0.438358       -11.9283
  31   2.0000      -0.429470       -11.6865
  32   2.0000      -0.423241       -11.5170
  33   0.0000       0.147392         4.0107
  34   0.0000       0.155207         4.2234
  35   0.0000       0.165763         4.5106
  36   0.0000       0.173126         4.7110
  37   0.0000       0.189491         5.1563

MULLIKEN ATOMIC CHARGES
-----------------------
   0 C :   -0.084926
   1 O :   -0.330323
   2 C :    0.111479
   3 C :    0.041164
   4 O :   -0.299340
   5 C :    0.001082
   6 C :    0.001081
   7 O :   -0.299340
   8 C :    0.041165
   9 H :    0.128500
  10 H :    0.128500
  11 H :    0.141227
  12 H :    0.139252
  13 H :    0.139251
  14 H :    0.141227
Sum of atomic charges:   -0.0000000

LOEWDIN ATOMIC CHARGES
----------------------
   0 C :   -0.222399
   1 O :    0.176434
   2 C :   -0.283566
   3 C :   -0.209156
   4 O :    0.197441
   5 C :   -0.232268
   6 C :   -0.232268
   7 O :    0.197441
   8 C :   -0.209156
   9 H :    0.126971
  10 H :    0.126970
  11 H :    0.143332
  12 H :    0.138446
  13 H :    0.138446
  14 H :    0.143332

  Mayer bond orders larger than 0.1
B(  0-C ,  1-O ) :   0.8716 B(  0-C ,  2-C ) :   0.9722 B(  0-C ,  9-H ) :   0.9122
B(  0-C , 10-H ) :   0.9122 B(  1-O ,  2-C ) :   0.8824 B(  2-C ,  3-C ) :   0.8884
B(  2-C ,  8-C ) :   0.8884 B(  3-C ,  4-O ) :   0.9515 B(  3-C ,  5-C ) :   0.9507
B(  3-C , 11-H ) :   0.9254 B(  4-O ,  5-C ) :   0.9028 B(  5-C ,  6-C ) :   0.9349
B(  5-C , 12-H ) :   0.9137 B(  6-C ,  7-O ) :   0.9028 B(  6-C ,  8-C ) :   0.9507
B(  6-C , 13-H ) :   0.9137 B(  7-O ,  8-C ) :   0.9515 B(  8-C , 14-H ) :   0.9254

MP2 TOTAL ENERGY:     -456.951634349 Eh
FINAL SINGLE POINT ENERGY      -456.951634349211

DIPOLE MOMENT
-------------
                                X             Y             Z
Electronic contribution:     -1.10200      -0.91984       0.00504
Nuclear contribution   :      1.67409       0.74148      -0.01065
                        -----------------------------------------
Total Dipole Moment    :      0.57209      -0.17837      -0.00560
                        -----------------------------------------
Magnitude (a.u.)       :      0.59927
Magnitude (Debye)      :      1.52324

                             ****ORCA TERMINATED NORMALLY****
TOTAL RUN TIME: 0 days 0 hours 21 minutes 13 seconds 510 msec
