                         Program Version 3.0.3 - RELEASE   -
|  1> ! RI-MP2 RIJK def2-TZVP def2-TZVP/C def2-TZVP/JK TIGHTSCF
|  2> % maxcore 2000
|  3> % mp2 density relaxed end
|  4> *xyz 0 1
|  5>  O       -0.5616916749     1.1774595838     0.9808380155
|  6>  C       -0.0870238576     0.1127494490     0.1902700560
|  7>  C        0.8721514172    -0.8452104143     0.9615426484
|  8>  C        0.0319931969    -2.0453580251     1.4244065913
|  9>  C       -0.8198187695    -1.9812699035     2.7088023048
| 10>  N       -1.6456834402    -0.7498549016     2.6596911083
| 11>  C       -2.0835336169    -1.9584796694     1.9191856029
| 12>  C       -1.3042599126    -2.0211889963     0.5894669146
| 13>  C       -1.2252139892    -0.8072392219    -0.3489075055
| 14>  H       -1.0335149829     0.7525606312     1.7237348698
| 15>  H        0.4415775680     0.5886935428    -0.6419676401
| 16>  H        1.6578810680    -1.2033095636     0.2863483009
| 17>  H        1.3607441327    -0.3033946709     1.7758034187
| 18>  H        0.5666837673    -2.9955005702     1.3673094599
| 19>  H       -0.6018057416    -2.4386595019     3.6664036434
| 20>  H       -2.1838547455    -0.7022008339     3.5223525027
| 21>  H       -3.0513670055    -2.3944877113     2.1358200473
| 22>  H       -1.5118917416    -2.9578904553     0.0685038333
| 23>  H       -2.1568204485    -0.2397198080    -0.4219787380
| 24>  H       -0.9720868436    -1.1556729696    -1.3568826143
| 25> *
| 26>
| 27>                          ****END OF INPUT****

CARTESIAN COORDINATES (ANGSTROEM)
---------------------------------
  O     -0.561692    1.177460    0.980838
  C     -0.087024    0.112749    0.190270
  C      0.872151   -0.845210    0.961543
  C      0.031993   -2.045358    1.424407
  C     -0.819819   -1.981270    2.708802
  N     -1.645683   -0.749855    2.659691
  C     -2.083534   -1.958480    1.919186
  C     -1.304260   -2.021189    0.589467
  C     -1.225214   -0.807239   -0.348908
  H     -1.033515    0.752561    1.723735
  H      0.441578    0.588694   -0.641968
  H      1.657881   -1.203310    0.286348
  H      1.360744   -0.303395    1.775803
  H      0.566684   -2.995501    1.367309
  H     -0.601806   -2.438660    3.666404
  H     -2.183855   -0.702201    3.522353
  H     -3.051367   -2.394488    2.135820
  H     -1.511892   -2.957890    0.068504
  H     -2.156820   -0.239720   -0.421979
  H     -0.972087   -1.155673   -1.356883

 Total Charge           Charge          ....    0
 Multiplicity           Mult            ....    1
 Number of Electrons    NEL             ....   68
 Basis Dimension        Dim             ....  345

ORBITAL ENERGIES
----------------

  NO   OCC          E(Eh)            E(eV)
   0   2.0000     -20.510132      -558.1091
   1   2.0000     -15.575019      -423.8178
   2   2.0000     -11.270352      -306.6819
   3   2.0000     -11.269630      -306.6622
   4   2.0000     -11.259735      -306.3930
   5   2.0000     -11.234069      -305.6946
   6   2.0000     -11.233553      -305.6805
   7   2.0000     -11.210986      -305.0664
   8   2.0000     -11.210968      -305.0660
   9   2.0000      -1.327895       -36.1339
  10   2.0000      -1.289184       -35.0805
  11   2.0000      -1.103028       -30.0149
  12   2.0000      -0.984515       -26.7900
  13   2.0000      -0.973357       -26.4864
  14   2.0000      -0.854933       -23.2639
  15   2.0000      -0.854069       -23.2404
  16   2.0000      -0.761822       -20.7302
  17   2.0000      -0.736944       -20.0533
  18   2.0000      -0.724377       -19.7113
  19   2.0000      -0.657472       -17.8907
  20   2.0000      -0.630001       -17.1432
  21   2.0000      -0.609993       -16.5988
  22   2.0000      -0.580148       -15.7866
  23   2.0000      -0.570462       -15.5231
  24   2.0000      -0.558543       -15.1987
  25   2.0000      -0.536882       -14.6093
  26   2.0000      -0.501267       -13.6402
  27   2.0000      -0.491664       -13.3789
  28   2.0000      -0.467749       -12.7281
  29   2.0000      -0.449894       -12.2422
  30   2.0000      -0.442018       -12.0279
  31   2.0000      -0.432230       -11.7616
  32   2.0000      -0.395144       -10.7524
  33   2.0000      -0.370307       -10.0766
  34   0.0000       0.128723         3.5027
  35   0.0000       0.149169         4.0591
  36   0.0000       0.161685         4.3997
  37   0.0000       0.167656         4.5621
  38   0.0000       0.189234         5.1493

MULLIKEN ATOMIC CHARGES
-----------------------
   0 O :   -0.488099
   1 C :    0.116058
   2 C :   -0.282570
   3 C :   -0.049684
   4 C :   -0.074578
   5 N :   -0.458931
   6 C :   -0.074571
   7 C :   -0.049697
   8 C :   -0.282553
   9 H :    0.340083
  10 H :    0.094036
  11 H :    0.113993
  12 H :    0.122793
  13 H :    0.113215
  14 H :    0.144941
  15 H :    0.220622
  16 H :    0.144943
  17 H :    0.113213
  18 H :    0.122791
  19 H :    0.113993
Sum of atomic charges:    0.0000000

LOEWDIN ATOMIC CHARGES
----------------------
   0 O :   -0.035851
   1 C :   -0.341345
   2 C :   -0.221826
   3 C :   -0.179147
   4 C :   -0.209080
   5 N :    0.011489
   6 C :   -0.209082
   7 C :   -0.179146
   8 C :   -0.221823
   9 H :    0.155025
  10 H :    0.136372
  11 H :    0.140091
  12 H :    0.142775
  13 H :    0.147890
  14 H :    0.129421
  15 H :    0.174060
  16 H :    0.129422
  17 H :    0.147888
  18 H :    0.142776
  19 H :    0.140091

  Mayer bond orders larger than 0.1
B(  0-O ,  1-C ) :   0.9589 B(  0-O ,  9-H ) :   0.7882 B(  1-C ,  2-C ) :   0.9126
B(  1-C ,  8-C ) :   0.9126 B(  1-C , 10-H ) :   0.9384 B(  2-C ,  3-C ) :   0.9569
B(  2-C , 11-H ) :   0.9208 B(  2-C , 12-H ) :   0.9243 B(  3-C ,  4-C ) :   0.9214
B(  3-C ,  7-C ) :   0.9674 B(  3-C , 13-H ) :   0.9223 B(  4-C ,  5-N ) :   0.8663
B(  4-C ,  6-C ) :   0.8726 B(  4-C , 14-H ) :   0.9156 B(  5-N ,  6-C ) :   0.8663
B(  5-N , 15-H ) :   0.8675 B(  6-C ,  7-C ) :   0.9214 B(  6-C , 16-H ) :   0.9156
B(  7-C ,  8-C ) :   0.9569 B(  7-C , 17-H ) :   0.9223 B(  8-C , 18-H ) :   0.9243
B(  8-C , 19-H ) :   0.9208

MP2 TOTAL ENERGY:     -402.432413371 Eh
FINAL SINGLE POINT ENERGY      -402.432413371335

DIPOLE MOMENT
-------------
                                X             Y             Z
Electronic contribution:     -1.15161       0.95939       1.87083
Nuclear contribution   :      0.81048      -2.35975      -1.36540
                        -----------------------------------------
Total Dipole Moment    :     -0.34113      -1.40036       0.50543
                        -----------------------------------------
Magnitude (a.u.)       :      1.52736
Magnitude (Debye)      :      3.88225

                             ****ORCA TERMINATED NORMALLY****
TOTAL RUN TIME: 0 days 0 hours 21 minutes 7 seconds 814 msec
