                         Program Version 3.0.3 - RELEASE   -
|  1> ! RI-MP2 RIJK def2-TZVP def2-TZVP/C def2-TZVP/JK TIGHTSCF
|  2> % maxcore 2000
|  3> % mp2 density relaxed end
|  4> *xyz 0 1
|  5>  C       -0.0172677480     1.4976766861     0.0058329414
|  6>  C        0.0027002385     0.0430128223    -0.0536113536
|  7>  C        0.0346231073    -1.1595166997    -0.1063835708
|  8>  C        0.0327222557    -2.6157520929    -0.1606963115
|  9>  C       -1.3692588009    -3.2104491048     0.1507319671
| 10>  C       -1.3833976989    -4.6628510876     0.0994130956
| 11>  C       -1.3693287618    -5.8722789145     0.0505125275
| 12>  C       -1.3580582155    -7.2319318897    -0.0033816893
| 13>  C       -1.3477040777    -8.4386002080    -0.0512981367
| 14>  H        0.6949038245     1.8760110839     0.7474366391
| 15>  H        0.2451787996     1.9398319003    -0.9615948766
| 16>  H       -1.0100826188     1.8704633784     0.2810371102
| 17>  H        0.3502726744    -2.9617622924    -1.1512106337
| 18>  H        0.7561597975    -3.0258860976     0.5535222796
| 19>  H       -1.6889870736    -2.8681263619     1.1421883277
| 20>  H       -2.0951289014    -2.8038970436    -0.5635678160
| 21>  H       -1.3391169310    -9.4992674283    -0.0932944200
| 22> *
| 23>
| 24>                          ****END OF INPUT****

CARTESIAN COORDINATES (ANGSTROEM)
---------------------------------
  C     -0.017268    1.497677    0.005833
  C      0.002700    0.043013   -0.053611
  C      0.034623   -1.159517   -0.106384
  C      0.032722   -2.615752   -0.160696
  C     -1.369259   -3.210449    0.150732
  C     -1.383398   -4.662851    0.099413
  C     -1.369329   -5.872279    0.050513
  C     -1.358058   -7.231932   -0.003382
  C     -1.347704   -8.438600   -0.051298
  H      0.694904    1.876011    0.747437
  H      0.245179    1.939832   -0.961595
  H     -1.010083    1.870463    0.281037
  H      0.350273   -2.961762   -1.151211
  H      0.756160   -3.025886    0.553522
  H     -1.688987   -2.868126    1.142188
  H     -2.095129   -2.803897   -0.563568
  H     -1.339117   -9.499267   -0.093294

 Total Charge           Charge          ....    0
 Multiplicity           Mult            ....    1
 Number of Electrons    NEL             ....   62
 Basis Dimension        Dim             ....  327

ORBITAL ENERGIES
----------------

  NO   OCC          E(Eh)            E(eV)
   0   2.0000     -11.266846      -306.5865
   1   2.0000     -11.262530      -306.4690
   2   2.0000     -11.257308      -306.3269
   3   2.0000     -11.255513      -306.2781
   4   2.0000     -11.249320      -306.1096
   5   2.0000     -11.247547      -306.0613
   6   2.0000     -11.246303      -306.0274
   7   2.0000     -11.228096      -305.5320
   8   2.0000     -11.222137      -305.3699
   9   2.0000      -1.113866       -30.3098
  10   2.0000      -1.078613       -29.3506
  11   2.0000      -1.049787       -28.5662
  12   2.0000      -1.008484       -27.4422
  13   2.0000      -0.957463       -26.0539
  14   2.0000      -0.895894       -24.3785
  15   2.0000      -0.823023       -22.3956
  16   2.0000      -0.710784       -19.3414
  17   2.0000      -0.686256       -18.6740
  18   2.0000      -0.649802       -17.6820
  19   2.0000      -0.640698       -17.4343
  20   2.0000      -0.598699       -16.2914
  21   2.0000      -0.588929       -16.0256
  22   2.0000      -0.588715       -16.0197
  23   2.0000      -0.558759       -15.2046
  24   2.0000      -0.543157       -14.7800
  25   2.0000      -0.478146       -13.0110
  26   2.0000      -0.476409       -12.9638
  27   2.0000      -0.377704       -10.2779
  28   2.0000      -0.372459       -10.1351
  29   2.0000      -0.351882        -9.5752
  30   2.0000      -0.350530        -9.5384
  31   0.0000       0.112664         3.0657
  32   0.0000       0.116993         3.1836
  33   0.0000       0.131076         3.5668
  34   0.0000       0.143889         3.9154
  35   0.0000       0.159802         4.3484

MULLIKEN ATOMIC CHARGES
-----------------------
   0 C :   -0.475357
   1 C :    0.065630
   2 C :   -0.026924
   3 C :   -0.337906
   4 C :   -0.320009
   5 C :   -0.099768
   6 C :    0.061225
   7 C :   -0.010059
   8 C :   -0.149690
   9 H :    0.162335
  10 H :    0.162287
  11 H :    0.161181
  12 H :    0.151837
  13 H :    0.151840
  14 H :    0.155261
  15 H :    0.155272
  16 H :    0.192844
Sum of atomic charges:   -0.0000000

LOEWDIN ATOMIC CHARGES
----------------------
   0 C :   -0.294914
   1 C :   -0.105522
   2 C :   -0.092085
   3 C :   -0.232519
   4 C :   -0.230250
   5 C :   -0.023609
   6 C :   -0.063844
   7 C :   -0.099775
   8 C :   -0.050935
   9 H :    0.141021
  10 H :    0.140985
  11 H :    0.140740
  12 H :    0.158430
  13 H :    0.158429
  14 H :    0.162083
  15 H :    0.162085
  16 H :    0.129681

  Mayer bond orders larger than 0.1
B(  0-C ,  1-C ) :   0.8543 B(  0-C ,  9-H ) :   0.9474 B(  0-C , 10-H ) :   0.9473
B(  0-C , 11-H ) :   0.9451 B(  1-C ,  2-C ) :   2.6884 B(  1-C ,  3-C ) :  -0.1002
B(  2-C ,  3-C ) :   1.0418 B(  3-C ,  4-C ) :   0.9627 B(  3-C , 12-H ) :   0.9297
B(  3-C , 13-H ) :   0.9297 B(  4-C ,  5-C ) :   1.0070 B(  4-C ,  6-C ) :  -0.1222
B(  4-C , 14-H ) :   0.9229 B(  4-C , 15-H ) :   0.9230 B(  5-C ,  6-C ) :   2.5684
B(  5-C ,  8-C ) :   0.1215 B(  6-C ,  7-C ) :   1.2858 B(  7-C ,  8-C ) :   2.5423
B(  8-C , 16-H ) :   0.8894

MP2 TOTAL ENERGY:     -346.799713708 Eh
FINAL SINGLE POINT ENERGY      -346.799713707976

DIPOLE MOMENT
-------------
                                X             Y             Z
Electronic contribution:     -1.65566     -10.54344      -0.00260
Nuclear contribution   :      1.68969      11.05394       0.01375
                        -----------------------------------------
Total Dipole Moment    :      0.03404       0.51050       0.01115
                        -----------------------------------------
Magnitude (a.u.)       :      0.51175
Magnitude (Debye)      :      1.30077

                             ****ORCA TERMINATED NORMALLY****
TOTAL RUN TIME: 0 days 0 hours 12 minutes 20 seconds 772 msec
