                         Program Version 3.0.3 - RELEASE   -
|  1> ! RI-MP2 RIJK def2-TZVP def2-TZVP/C def2-TZVP/JK TIGHTSCF
|  2> % maxcore 2000
|  3> % mp2 density relaxed end
|  4> *xyz 0 1
|  5>  C        0.0729372294     1.5208566103    -0.1672860624
|  6>  C        0.1661716365    -0.0042555251    -0.0696438643
|  7>  C        0.6838504628    -0.4929265990     1.2883569798
|  8>  C        0.7717303300    -2.0207193012     1.3836354841
|  9>  C        1.3842708419    -2.5656726988     2.6888231994
| 10>  C        0.5371027490    -2.2284769042     3.9252694615
| 11>  C        1.6021684622    -4.0662591630     2.5867445085
| 12>  C        2.8199424588    -4.6244475423     1.8960627005
| 13>  C        2.6756380493    -4.7488163179     3.3947707823
| 14>  H        1.0524279909     1.9880462395    -0.0149229038
| 15>  H       -0.2977663742     1.8383490477    -1.1471013593
| 16>  H       -0.6056317025     1.9255679406     0.5920995879
| 17>  H       -0.8219143126    -0.4445957098    -0.2591243477
| 18>  H        0.8222131833    -0.3836596937    -0.8643908874
| 19>  H        1.6772634471    -0.0592916531     1.4730374533
| 20>  H        0.0310772466    -0.1003743385     2.0784247580
| 21>  H       -0.2323243935    -2.4512365352     1.2553349216
| 22>  H        1.3689570757    -2.3938510765     0.5413052748
| 23>  H        2.3728744309    -2.0982026064     2.8155827066
| 24>  H        0.9862540727    -2.6496228128     4.8300874081
| 25>  H        0.4369302973    -1.1493093140     4.0726154338
| 26>  H       -0.4725144438    -2.6465808591     3.8302929880
| 27>  H        0.6830715592    -4.6342781283     2.4525871499
| 28>  H        2.7144466853    -5.5180046639     1.2906117944
| 29>  H        3.5537285548    -3.9189570238     1.5187576811
| 30>  H        3.3146124310    -4.1274838329     4.0147794765
| 31>  H        2.4705897420    -5.7276957186     3.8142373648
| 32> *
| 33>
| 34>                          ****END OF INPUT****

CARTESIAN COORDINATES (ANGSTROEM)
---------------------------------
  C      0.072937    1.520857   -0.167286
  C      0.166172   -0.004256   -0.069644
  C      0.683850   -0.492927    1.288357
  C      0.771730   -2.020719    1.383635
  C      1.384271   -2.565673    2.688823
  C      0.537103   -2.228477    3.925269
  C      1.602168   -4.066259    2.586745
  C      2.819942   -4.624448    1.896063
  C      2.675638   -4.748816    3.394771
  H      1.052428    1.988046   -0.014923
  H     -0.297766    1.838349   -1.147101
  H     -0.605632    1.925568    0.592100
  H     -0.821914   -0.444596   -0.259124
  H      0.822213   -0.383660   -0.864391
  H      1.677263   -0.059292    1.473037
  H      0.031077   -0.100374    2.078425
  H     -0.232324   -2.451237    1.255335
  H      1.368957   -2.393851    0.541305
  H      2.372874   -2.098203    2.815583
  H      0.986254   -2.649623    4.830087
  H      0.436930   -1.149309    4.072615
  H     -0.472514   -2.646581    3.830293
  H      0.683072   -4.634278    2.452587
  H      2.714447   -5.518005    1.290612
  H      3.553729   -3.918957    1.518758
  H      3.314612   -4.127484    4.014779
  H      2.470590   -5.727696    3.814237

 Total Charge           Charge          ....    0
 Multiplicity           Mult            ....    1
 Number of Electrons    NEL             ....   72
 Basis Dimension        Dim             ....  387

ORBITAL ENERGIES
----------------

  NO   OCC          E(Eh)            E(eV)
   0   2.0000     -11.223889      -305.4176
   1   2.0000     -11.222670      -305.3844
   2   2.0000     -11.218653      -305.2751
   3   2.0000     -11.218048      -305.2586
   4   2.0000     -11.215039      -305.1767
   5   2.0000     -11.212599      -305.1103
   6   2.0000     -11.211192      -305.0720
   7   2.0000     -11.209378      -305.0227
   8   2.0000     -11.206881      -304.9547
   9   2.0000      -1.143216       -31.1085
  10   2.0000      -1.077779       -29.3279
  11   2.0000      -1.031809       -28.0770
  12   2.0000      -0.957308       -26.0497
  13   2.0000      -0.884890       -24.0791
  14   2.0000      -0.827344       -22.5132
  15   2.0000      -0.815570       -22.1928
  16   2.0000      -0.782732       -21.2992
  17   2.0000      -0.756413       -20.5831
  18   2.0000      -0.655216       -17.8293
  19   2.0000      -0.639218       -17.3940
  20   2.0000      -0.628899       -17.1132
  21   2.0000      -0.592038       -16.1102
  22   2.0000      -0.576431       -15.6855
  23   2.0000      -0.569588       -15.4993
  24   2.0000      -0.548803       -14.9337
  25   2.0000      -0.531372       -14.4594
  26   2.0000      -0.515523       -14.0281
  27   2.0000      -0.506411       -13.7801
  28   2.0000      -0.494692       -13.4613
  29   2.0000      -0.480364       -13.0714
  30   2.0000      -0.470189       -12.7945
  31   2.0000      -0.456508       -12.4222
  32   2.0000      -0.456091       -12.4109
  33   2.0000      -0.448340       -12.1999
  34   2.0000      -0.406140       -11.0516
  35   2.0000      -0.395685       -10.7671
  36   0.0000       0.137434         3.7398
  37   0.0000       0.152627         4.1532
  38   0.0000       0.153108         4.1663
  39   0.0000       0.158284         4.3071
  40   0.0000       0.172129         4.6839

MULLIKEN ATOMIC CHARGES
-----------------------
   0 C :   -0.383413
   1 C :   -0.178680
   2 C :   -0.247052
   3 C :   -0.233863
   4 C :   -0.032196
   5 C :   -0.419097
   6 C :   -0.084487
   7 C :   -0.263365
   8 C :   -0.257430
   9 H :    0.120563
  10 H :    0.132109
  11 H :    0.120721
  12 H :    0.103852
  13 H :    0.104417
  14 H :    0.104274
  15 H :    0.108414
  16 H :    0.105267
  17 H :    0.117867
  18 H :    0.078393
  19 H :    0.136116
  20 H :    0.135633
  21 H :    0.118793
  22 H :    0.110681
  23 H :    0.126683
  24 H :    0.123891
  25 H :    0.124809
  26 H :    0.127100
Sum of atomic charges:   -0.0000000

LOEWDIN ATOMIC CHARGES
----------------------
   0 C :   -0.323104
   1 C :   -0.297829
   2 C :   -0.272133
   3 C :   -0.243701
   4 C :   -0.269573
   5 C :   -0.288866
   6 C :   -0.214010
   7 C :   -0.232160
   8 C :   -0.231659
   9 H :    0.119561
  10 H :    0.119660
  11 H :    0.119498
  12 H :    0.134076
  13 H :    0.133645
  14 H :    0.136170
  15 H :    0.135224
  16 H :    0.138815
  17 H :    0.142351
  18 H :    0.154459
  19 H :    0.124723
  20 H :    0.120203
  21 H :    0.123681
  22 H :    0.148822
  23 H :    0.129178
  24 H :    0.131795
  25 H :    0.131936
  26 H :    0.129239

  Mayer bond orders larger than 0.1
B(  0-C ,  1-C ) :   0.9217 B(  0-C ,  9-H ) :   0.9396 B(  0-C , 10-H ) :   0.9437
B(  0-C , 11-H ) :   0.9400 B(  1-C ,  2-C ) :   0.9387 B(  1-C , 12-H ) :   0.9330
B(  1-C , 13-H ) :   0.9352 B(  2-C ,  3-C ) :   0.9301 B(  2-C , 14-H ) :   0.9283
B(  2-C , 15-H ) :   0.9318 B(  3-C ,  4-C ) :   0.9309 B(  3-C , 16-H ) :   0.9222
B(  3-C , 17-H ) :   0.9355 B(  4-C ,  5-C ) :   0.9083 B(  4-C ,  6-C ) :   0.9226
B(  4-C , 18-H ) :   0.9207 B(  5-C , 19-H ) :   0.9402 B(  5-C , 20-H ) :   0.9421
B(  5-C , 21-H ) :   0.9322 B(  6-C ,  7-C ) :   0.8936 B(  6-C ,  8-C ) :   0.8896
B(  6-C , 22-H ) :   0.9214 B(  7-C ,  8-C ) :   0.9117 B(  7-C , 23-H ) :   0.9305
B(  7-C , 24-H ) :   0.9255 B(  8-C , 25-H ) :   0.9261 B(  8-C , 26-H ) :   0.9316

MP2 TOTAL ENERGY:     -352.905568910 Eh
FINAL SINGLE POINT ENERGY      -352.905568910288

DIPOLE MOMENT
-------------
                                X             Y             Z
Electronic contribution:      1.88602      -4.74572       1.22875
Nuclear contribution   :     -1.90659       4.74794      -1.25261
                        -----------------------------------------
Total Dipole Moment    :     -0.02056       0.00222      -0.02386
                        -----------------------------------------
Magnitude (a.u.)       :      0.03158
Magnitude (Debye)      :      0.08026

                             ****ORCA TERMINATED NORMALLY****
TOTAL RUN TIME: 0 days 0 hours 19 minutes 58 seconds 694 msec
