                         Program Version 3.0.3 - RELEASE   -
|  1> ! RI-MP2 RIJK def2-TZVP def2-TZVP/C def2-TZVP/JK TIGHTSCF
|  2> % maxcore 2000
|  3> % mp2 density relaxed end
|  4> *xyz 0 1
|  5>  O        0.1509603296     1.5165534668    -0.0287425859
|  6>  C        0.1745370433     0.0975987461    -0.0692534919
|  7>  C       -1.2742419580    -0.3883695557     0.0204839679
|  8>  C       -1.4746579184    -1.8753427988    -0.2514964037
|  9>  C       -0.7679192961    -2.6304851480    -1.3133062135
| 10>  N       -0.4849976511    -2.9100743941     0.1087922656
| 11>  C       -1.8623270609    -0.0433748339     1.3777113274
| 12>  C       -2.5648631720     1.2158470079     1.6288307881
| 13>  O       -3.2890181293    -0.0066812992     1.4535766708
| 14>  H        1.0584806121     1.8338235186    -0.0474982662
| 15>  H        0.6391692703    -0.2588976613    -1.0003332915
| 16>  H        0.7629831595    -0.3066765783     0.7712571339
| 17>  H       -1.8491700522     0.1671988364    -0.7316707887
| 18>  H       -2.4933213146    -2.1857143385    -0.0279719617
| 19>  H       -1.2855151867    -3.4266733377    -1.8412846538
| 20>  H       -0.0111784976    -2.1241816368    -1.9059096473
| 21>  H        0.3995979586    -2.4798919112     0.3666009271
| 22>  H       -1.3883157396    -0.5464303226     2.2238825265
| 23>  H       -2.5900262647     1.6325219347     2.6345431704
| 24>  H       -2.6593844122     1.9390519354     0.8215894066
| 25> *
| 26>
| 27>                          ****END OF INPUT****

CARTESIAN COORDINATES (ANGSTROEM)
---------------------------------
  O      0.150960    1.516553   -0.028743
  C      0.174537    0.097599   -0.069253
  C     -1.274242   -0.388370    0.020484
  C     -1.474658   -1.875343   -0.251496
  C     -0.767919   -2.630485   -1.313306
  N     -0.484998   -2.910074    0.108792
  C     -1.862327   -0.043375    1.377711
  C     -2.564863    1.215847    1.628831
  O     -3.289018   -0.006681    1.453577
  H      1.058481    1.833824   -0.047498
  H      0.639169   -0.258898   -1.000333
  H      0.762983   -0.306677    0.771257
  H     -1.849170    0.167199   -0.731671
  H     -2.493321   -2.185714   -0.027972
  H     -1.285515   -3.426673   -1.841285
  H     -0.011178   -2.124182   -1.905910
  H      0.399598   -2.479892    0.366601
  H     -1.388316   -0.546430    2.223883
  H     -2.590026    1.632522    2.634543
  H     -2.659384    1.939052    0.821589

 Total Charge           Charge          ....    0
 Multiplicity           Mult            ....    1
 Number of Electrons    NEL             ....   70
 Basis Dimension        Dim             ....  345

ORBITAL ENERGIES
----------------

  NO   OCC          E(Eh)            E(eV)
   0   2.0000     -20.571478      -559.7784
   1   2.0000     -20.562796      -559.5421
   2   2.0000     -15.559399      -423.3928
   3   2.0000     -11.294963      -307.3516
   4   2.0000     -11.283377      -307.0363
   5   2.0000     -11.276344      -306.8449
   6   2.0000     -11.262586      -306.4706
   7   2.0000     -11.255903      -306.2887
   8   2.0000     -11.244979      -305.9914
   9   2.0000      -1.406464       -38.2718
  10   2.0000      -1.376451       -37.4551
  11   2.0000      -1.261220       -34.3195
  12   2.0000      -1.065459       -28.9926
  13   2.0000      -0.922504       -25.1026
  14   2.0000      -0.912834       -24.8395
  15   2.0000      -0.884667       -24.0730
  16   2.0000      -0.830752       -22.6059
  17   2.0000      -0.781848       -21.2752
  18   2.0000      -0.729078       -19.8392
  19   2.0000      -0.689670       -18.7669
  20   2.0000      -0.676643       -18.4124
  21   2.0000      -0.649594       -17.6764
  22   2.0000      -0.639976       -17.4146
  23   2.0000      -0.619681       -16.8624
  24   2.0000      -0.584902       -15.9160
  25   2.0000      -0.552784       -15.0420
  26   2.0000      -0.529115       -14.3980
  27   2.0000      -0.521721       -14.1968
  28   2.0000      -0.498127       -13.5547
  29   2.0000      -0.487410       -13.2631
  30   2.0000      -0.467545       -12.7226
  31   2.0000      -0.463093       -12.6014
  32   2.0000      -0.440086       -11.9753
  33   2.0000      -0.427647       -11.6369
  34   2.0000      -0.388123       -10.5614
  35   0.0000       0.121919         3.3176
  36   0.0000       0.145033         3.9465
  37   0.0000       0.159143         4.3305
  38   0.0000       0.172156         4.6846
  39   0.0000       0.187286         5.0963

MULLIKEN ATOMIC CHARGES
-----------------------
   0 O :   -0.464082
   1 C :   -0.151748
   2 C :    0.001903
   3 C :   -0.079366
   4 C :   -0.169863
   5 N :   -0.362161
   6 C :    0.041574
   7 C :   -0.065711
   8 O :   -0.338796
   9 H :    0.317049
  10 H :    0.112116
  11 H :    0.103130
  12 H :    0.105182
  13 H :    0.138938
  14 H :    0.125868
  15 H :    0.119293
  16 H :    0.210503
  17 H :    0.123911
  18 H :    0.111998
  19 H :    0.120265
Sum of atomic charges:    0.0000000

LOEWDIN ATOMIC CHARGES
----------------------
   0 O :   -0.035590
   1 C :   -0.325164
   2 C :   -0.240935
   3 C :   -0.248016
   4 C :   -0.267584
   5 N :   -0.018533
   6 C :   -0.269632
   7 C :   -0.258934
   8 O :    0.143150
   9 H :    0.174131
  10 H :    0.119563
  11 H :    0.117750
  12 H :    0.172577
  13 H :    0.153774
  14 H :    0.125134
  15 H :    0.117091
  16 H :    0.158756
  17 H :    0.140727
  18 H :    0.118850
  19 H :    0.122886

  Mayer bond orders larger than 0.1
B(  0-O ,  1-C ) :   1.0185 B(  0-O ,  9-H ) :   0.8467 B(  1-C ,  2-C ) :   0.8808
B(  1-C , 10-H ) :   0.9393 B(  1-C , 11-H ) :   0.9172 B(  2-C ,  3-C ) :   0.9088
B(  2-C ,  6-C ) :   0.9289 B(  2-C , 12-H ) :   0.9009 B(  3-C ,  4-C ) :   0.9306
B(  3-C ,  5-N ) :   0.8978 B(  3-C , 13-H ) :   0.9289 B(  4-C ,  5-N ) :   0.9267
B(  4-C , 14-H ) :   0.9228 B(  4-C , 15-H ) :   0.9196 B(  5-N , 16-H ) :   0.8825
B(  6-C ,  7-C ) :   0.9950 B(  6-C ,  8-O ) :   0.8756 B(  6-C , 17-H ) :   0.9007
B(  7-C ,  8-O ) :   0.9139 B(  7-C , 18-H ) :   0.9224 B(  7-C , 19-H ) :   0.9030

MP2 TOTAL ENERGY:     -439.501183157 Eh
FINAL SINGLE POINT ENERGY      -439.501183156906

DIPOLE MOMENT
-------------
                                X             Y             Z
Electronic contribution:     -2.62815       0.81244       1.81587
Nuclear contribution   :      3.92884      -0.10743      -2.18645
                        -----------------------------------------
Total Dipole Moment    :      1.30068       0.70502      -0.37058
                        -----------------------------------------
Magnitude (a.u.)       :      1.52517
Magnitude (Debye)      :      3.87668

                             ****ORCA TERMINATED NORMALLY****
TOTAL RUN TIME: 0 days 0 hours 16 minutes 1 seconds 873 msec
