                         Program Version 3.0.3 - RELEASE   -
|  1> ! RI-MP2 RIJK def2-TZVP def2-TZVP/C def2-TZVP/JK TIGHTSCF
|  2> % maxcore 2000
|  3> % mp2 density relaxed end
|  4> *xyz 0 1
|  5>  N       -0.0298443077     1.4834586530     0.0224560490
|  6>  C        1.2862153778     0.8034490538    -0.0044674628
|  7>  C        0.0370114677     0.0034824477     0.0035295664
|  8>  C        0.0520391565    -0.6529341335    -1.4048672768
|  9>  O        1.4606272031    -0.8602153635    -1.6017052865
| 10>  C        1.8633360153     0.5070218388    -1.4164697310
| 11>  C        0.9820494591     1.2329436866    -2.4486098150
| 12>  O        0.6311608724     0.4153678148    -3.5668693408
| 13>  C       -0.2480463519     0.4451799200    -2.4407411829
| 14>  H       -0.2212111438     1.7918425634     0.9744109182
| 15>  H        1.9464911302     0.8689888113     0.8522458053
| 16>  H       -0.2909375695    -0.5638167870     0.8665695260
| 17>  H       -0.4780540627    -1.5996015774    -1.4939221393
| 18>  H        2.9440871864     0.5919428764    -1.5158380422
| 19>  H        1.0147675089     2.3058727681    -2.5942704553
| 20>  H       -1.2375683018     0.8634557974    -2.5798646624
| 21> *
| 22>
| 23>                          ****END OF INPUT****

CARTESIAN COORDINATES (ANGSTROEM)
---------------------------------
  N     -0.029844    1.483459    0.022456
  C      1.286215    0.803449   -0.004467
  C      0.037011    0.003482    0.003530
  C      0.052039   -0.652934   -1.404867
  O      1.460627   -0.860215   -1.601705
  C      1.863336    0.507022   -1.416470
  C      0.982049    1.232944   -2.448610
  O      0.631161    0.415368   -3.566869
  C     -0.248046    0.445180   -2.440741
  H     -0.221211    1.791843    0.974411
  H      1.946491    0.868989    0.852246
  H     -0.290938   -0.563817    0.866570
  H     -0.478054   -1.599602   -1.493922
  H      2.944087    0.591943   -1.515838
  H      1.014768    2.305873   -2.594270
  H     -1.237568    0.863456   -2.579865

 Total Charge           Charge          ....    0
 Multiplicity           Mult            ....    1
 Number of Electrons    NEL             ....   66
 Basis Dimension        Dim             ....  321

ORBITAL ENERGIES
----------------

  NO   OCC          E(Eh)            E(eV)
   0   2.0000     -20.563277      -559.5552
   1   2.0000     -20.557678      -559.4029
   2   2.0000     -15.579150      -423.9302
   3   2.0000     -11.296679      -307.3983
   4   2.0000     -11.296660      -307.3977
   5   2.0000     -11.280941      -306.9700
   6   2.0000     -11.280093      -306.9469
   7   2.0000     -11.274494      -306.7946
   8   2.0000     -11.273723      -306.7736
   9   2.0000      -1.435127       -39.0518
  10   2.0000      -1.370877       -37.3035
  11   2.0000      -1.272426       -34.6245
  12   2.0000      -1.010686       -27.5022
  13   2.0000      -1.003299       -27.3012
  14   2.0000      -0.923474       -25.1290
  15   2.0000      -0.832639       -22.6572
  16   2.0000      -0.792857       -21.5747
  17   2.0000      -0.778707       -21.1897
  18   2.0000      -0.747948       -20.3527
  19   2.0000      -0.712765       -19.3953
  20   2.0000      -0.669066       -18.2062
  21   2.0000      -0.622956       -16.9515
  22   2.0000      -0.599793       -16.3212
  23   2.0000      -0.558571       -15.1995
  24   2.0000      -0.552673       -15.0390
  25   2.0000      -0.536895       -14.6097
  26   2.0000      -0.505840       -13.7646
  27   2.0000      -0.501215       -13.6388
  28   2.0000      -0.481424       -13.1002
  29   2.0000      -0.460428       -12.5289
  30   2.0000      -0.442457       -12.0399
  31   2.0000      -0.410912       -11.1815
  32   2.0000      -0.382134       -10.3984
  33   0.0000       0.128540         3.4978
  34   0.0000       0.166045         4.5183
  35   0.0000       0.166792         4.5386
  36   0.0000       0.169807         4.6207
  37   0.0000       0.190389         5.1808

MULLIKEN ATOMIC CHARGES
-----------------------
   0 N :   -0.346481
   1 C :   -0.152221
   2 C :   -0.152222
   3 C :    0.118783
   4 O :   -0.293338
   5 C :    0.118774
   6 C :   -0.007614
   7 O :   -0.312748
   8 C :   -0.007622
   9 H :    0.216162
  10 H :    0.139136
  11 H :    0.139135
  12 H :    0.145270
  13 H :    0.145270
  14 H :    0.124858
  15 H :    0.124858
Sum of atomic charges:   -0.0000000

LOEWDIN ATOMIC CHARGES
----------------------
   0 N :    0.013559
   1 C :   -0.215171
   2 C :   -0.215168
   3 C :   -0.249603
   4 O :    0.206659
   5 C :   -0.249603
   6 C :   -0.241025
   7 O :    0.186975
   8 C :   -0.241024
   9 H :    0.169628
  10 H :    0.135850
  11 H :    0.135850
  12 H :    0.143190
  13 H :    0.143190
  14 H :    0.138347
  15 H :    0.138347

  Mayer bond orders larger than 0.1
B(  0-N ,  1-C ) :   0.9776 B(  0-N ,  2-C ) :   0.9776 B(  0-N ,  9-H ) :   0.8665
B(  1-C ,  2-C ) :   0.9375 B(  1-C ,  5-C ) :   0.9163 B(  1-C , 10-H ) :   0.9091
B(  2-C ,  3-C ) :   0.9163 B(  2-C , 11-H ) :   0.9091 B(  3-C ,  4-O ) :   0.9632
B(  3-C ,  5-C ) :   0.1151 B(  3-C ,  8-C ) :   0.8943 B(  3-C , 12-H ) :   0.9026
B(  4-O ,  5-C ) :   0.9632 B(  5-C ,  6-C ) :   0.8943 B(  5-C , 13-H ) :   0.9026
B(  6-C ,  7-O ) :   0.9521 B(  6-C ,  8-C ) :   0.9896 B(  6-C , 14-H ) :   0.9033
B(  7-O ,  8-C ) :   0.9521 B(  8-C , 15-H ) :   0.9033

MP2 TOTAL ENERGY:     -437.102117328 Eh
FINAL SINGLE POINT ENERGY      -437.102117328467

DIPOLE MOMENT
-------------
                                X             Y             Z
Electronic contribution:      0.71113      -1.13927      -2.88334
Nuclear contribution   :     -0.97609       1.56717       4.29846
                        -----------------------------------------
Total Dipole Moment    :     -0.26497       0.42790       1.41512
                        -----------------------------------------
Magnitude (a.u.)       :      1.50195
Magnitude (Debye)      :      3.81766

                             ****ORCA TERMINATED NORMALLY****
TOTAL RUN TIME: 0 days 0 hours 17 minutes 15 seconds 703 msec
