                         Program Version 3.0.3 - RELEASE   -
|  1> ! RI-MP2 RIJK def2-TZVP def2-TZVP/C def2-TZVP/JK TIGHTSCF
|  2> % maxcore 2000
|  3> % mp2 density relaxed end
|  4> *xyz 0 1
|  5>  C       -0.1321717294     1.5858122535    -0.0345219142
|  6>  C        0.0074955017     0.0686993314    -0.0262015083
|  7>  C        1.1472579126    -0.5943851927    -0.8450337903
|  8>  C        2.1126227566    -0.2584460735     0.3117752099
|  9>  C        0.8301119729    -0.5876246506     1.1520850296
| 10>  C        0.6722091556    -0.1987642390     2.6025471184
| 11>  C        0.6958014735    -2.0823678380     0.7744071380
| 12>  C       -0.6043701814    -2.7953061863     1.1100782961
| 13>  O        0.8910130737    -1.9973684005    -0.6628713625
| 14>  H        0.8083839857     2.1126669320     0.1467952467
| 15>  H       -0.5201158881     1.9288697060    -0.9999756552
| 16>  H       -0.8423421450     1.9103346035     0.7341698103
| 17>  H       -0.9701617544    -0.3833414478    -0.2187368831
| 18>  H        1.3470866499    -0.3890703369    -1.8963872818
| 19>  H        2.9826232814    -0.9095027711     0.4324523220
| 20>  H        2.4125761824     0.7877380040     0.3641093338
| 21>  H        0.8011465444     0.8793554438     2.7416931000
| 22>  H       -0.3193376304    -0.4667970109     2.9843946648
| 23>  H        1.4163833107    -0.7043951083     3.2293416783
| 24>  H        1.5305725513    -2.6530983402     1.2083139632
| 25>  H       -1.4828623126    -2.2266873618     0.7932090467
| 26>  H       -0.6320063322    -3.7653135339     0.6048814632
| 27>  H       -0.6756123689    -2.9746541828     2.1882791845
| 28> *
| 29>
| 30>                          ****END OF INPUT****

CARTESIAN COORDINATES (ANGSTROEM)
---------------------------------
  C     -0.132172    1.585812   -0.034522
  C      0.007496    0.068699   -0.026202
  C      1.147258   -0.594385   -0.845034
  C      2.112623   -0.258446    0.311775
  C      0.830112   -0.587625    1.152085
  C      0.672209   -0.198764    2.602547
  C      0.695801   -2.082368    0.774407
  C     -0.604370   -2.795306    1.110078
  O      0.891013   -1.997368   -0.662871
  H      0.808384    2.112667    0.146795
  H     -0.520116    1.928870   -0.999976
  H     -0.842342    1.910335    0.734170
  H     -0.970162   -0.383341   -0.218737
  H      1.347087   -0.389070   -1.896387
  H      2.982623   -0.909503    0.432452
  H      2.412576    0.787738    0.364109
  H      0.801147    0.879355    2.741693
  H     -0.319338   -0.466797    2.984395
  H      1.416383   -0.704395    3.229342
  H      1.530573   -2.653098    1.208314
  H     -1.482862   -2.226687    0.793209
  H     -0.632006   -3.765314    0.604881
  H     -0.675612   -2.974654    2.188279

 Total Charge           Charge          ....    0
 Multiplicity           Mult            ....    1
 Number of Electrons    NEL             ....   70
 Basis Dimension        Dim             ....  363

ORBITAL ENERGIES
----------------

  NO   OCC          E(Eh)            E(eV)
   0   2.0000     -20.540155      -558.9260
   1   2.0000     -11.275488      -306.8216
   2   2.0000     -11.272271      -306.7341
   3   2.0000     -11.240435      -305.8678
   4   2.0000     -11.226669      -305.4932
   5   2.0000     -11.219963      -305.3107
   6   2.0000     -11.219026      -305.2852
   7   2.0000     -11.218770      -305.2782
   8   2.0000     -11.211207      -305.0725
   9   2.0000      -1.372469       -37.3468
  10   2.0000      -1.128946       -30.7202
  11   2.0000      -1.033426       -28.1209
  12   2.0000      -0.984739       -26.7961
  13   2.0000      -0.960641       -26.1404
  14   2.0000      -0.876262       -23.8443
  15   2.0000      -0.867007       -23.5925
  16   2.0000      -0.760859       -20.7040
  17   2.0000      -0.718552       -19.5528
  18   2.0000      -0.669730       -18.2243
  19   2.0000      -0.653753       -17.7895
  20   2.0000      -0.628986       -17.1156
  21   2.0000      -0.591990       -16.1089
  22   2.0000      -0.578672       -15.7465
  23   2.0000      -0.568207       -15.4617
  24   2.0000      -0.547918       -14.9096
  25   2.0000      -0.543706       -14.7950
  26   2.0000      -0.537387       -14.6230
  27   2.0000      -0.514507       -14.0005
  28   2.0000      -0.507079       -13.7983
  29   2.0000      -0.499783       -13.5998
  30   2.0000      -0.485738       -13.2176
  31   2.0000      -0.461753       -12.5649
  32   2.0000      -0.425061       -11.5665
  33   2.0000      -0.413493       -11.2517
  34   2.0000      -0.384302       -10.4574
  35   0.0000       0.129563         3.5256
  36   0.0000       0.153653         4.1811
  37   0.0000       0.166648         4.5347
  38   0.0000       0.174643         4.7523
  39   0.0000       0.188986         5.1426

MULLIKEN ATOMIC CHARGES
-----------------------
   0 C :   -0.437074
   1 C :   -0.115902
   2 C :    0.087254
   3 C :   -0.281808
   4 C :    0.089363
   5 C :   -0.416800
   6 C :    0.069789
   7 C :   -0.424347
   8 O :   -0.338002
   9 H :    0.125670
  10 H :    0.140850
  11 H :    0.135741
  12 H :    0.100723
  13 H :    0.123362
  14 H :    0.115046
  15 H :    0.121565
  16 H :    0.138534
  17 H :    0.140936
  18 H :    0.136886
  19 H :    0.088089
  20 H :    0.126522
  21 H :    0.147642
  22 H :    0.125963
Sum of atomic charges:   -0.0000000

LOEWDIN ATOMIC CHARGES
----------------------
   0 C :   -0.292707
   1 C :   -0.192935
   2 C :   -0.252845
   3 C :   -0.181417
   4 C :   -0.234268
   5 C :   -0.272122
   6 C :   -0.275549
   7 C :   -0.293362
   8 O :    0.170160
   9 H :    0.122485
  10 H :    0.127374
  11 H :    0.126579
  12 H :    0.146072
  13 H :    0.129070
  14 H :    0.131020
  15 H :    0.134317
  16 H :    0.128804
  17 H :    0.129751
  18 H :    0.131029
  19 H :    0.140187
  20 H :    0.122173
  21 H :    0.130693
  22 H :    0.125491

  Mayer bond orders larger than 0.1
B(  0-C ,  1-C ) :   0.8950 B(  0-C ,  9-H ) :   0.9334 B(  0-C , 10-H ) :   0.9416
B(  0-C , 11-H ) :   0.9342 B(  1-C ,  2-C ) :   0.9081 B(  1-C ,  4-C ) :   0.8625
B(  1-C , 12-H ) :   0.9202 B(  2-C ,  3-C ) :   0.9291 B(  2-C ,  8-O ) :   0.9262
B(  2-C , 13-H ) :   0.9171 B(  3-C ,  4-C ) :   0.9065 B(  3-C , 14-H ) :   0.9141
B(  3-C , 15-H ) :   0.9233 B(  4-C ,  5-C ) :   0.8458 B(  4-C ,  6-C ) :   0.9145
B(  5-C , 16-H ) :   0.9388 B(  5-C , 17-H ) :   0.9418 B(  5-C , 18-H ) :   0.9385
B(  6-C ,  7-C ) :   0.9098 B(  6-C ,  8-O ) :   0.9046 B(  6-C , 19-H ) :   0.9150
B(  7-C , 20-H ) :   0.9386 B(  7-C , 21-H ) :   0.9383 B(  7-C , 22-H ) :   0.9349

MP2 TOTAL ENERGY:     -387.611063893 Eh
FINAL SINGLE POINT ENERGY      -387.611063892759

DIPOLE MOMENT
-------------
                                X             Y             Z
Electronic contribution:      2.45315      -3.15682      -4.53932
Nuclear contribution   :     -2.51116       3.67497       5.03949
                        -----------------------------------------
Total Dipole Moment    :     -0.05801       0.51815       0.50016
                        -----------------------------------------
Magnitude (a.u.)       :      0.72250
Magnitude (Debye)      :      1.83644

                             ****ORCA TERMINATED NORMALLY****
TOTAL RUN TIME: 0 days 0 hours 21 minutes 54 seconds 311 msec
