                         Program Version 3.0.3 - RELEASE   -
|  1> ! RI-MP2 RIJK def2-TZVP def2-TZVP/C def2-TZVP/JK TIGHTSCF
|  2> % maxcore 2000
|  3> % mp2 density relaxed end
|  4> *xyz 0 1
|  5>  C       -0.2648371189     1.5531994960    -0.0257483733
|  6>  C        0.0125832008     0.0504590635    -0.0048487023
|  7>  C        0.7603840073    -0.4958477243    -1.2696767520
|  8>  C        1.9321001216    -1.3108679543    -0.6744747260
|  9>  C        1.2930482918    -1.8667924796     0.6178173203
| 10>  C        0.8998355859    -0.4747724231     1.1558696055
| 11>  C        2.2739690965     0.2326242934     1.1662648871
| 12>  C        2.9836875380    -0.3116358043    -0.1194307658
| 13>  C        4.3483484238    -0.9439943304     0.1639298320
| 14>  H        0.6486029299     2.1369997908    -0.1793247194
| 15>  H       -0.9520470893     1.8085289832    -0.8397822122
| 16>  H       -0.7233150405     1.8891321602     0.9113189008
| 17>  H       -0.9541082613    -0.4615445524     0.0770632408
| 18>  H        0.1034331964    -1.1271646064    -1.8761750878
| 19>  H        1.1170960774     0.3133039101    -1.9165855507
| 20>  H        2.3537750516    -2.0469177181    -1.3634110290
| 21>  H        0.4332011174    -2.5176058408     0.4285505269
| 22>  H        1.9971640587    -2.3995666383     1.2639300223
| 23>  H        0.3928368483    -0.4562746638     2.1240559467
| 24>  H        2.2000984282     1.3229382678     1.1813386822
| 25>  H        2.8339286002    -0.0571876957     2.0628008725
| 26>  H        3.1311360204     0.4985792665    -0.8430606461
| 27>  H        4.2623513960    -1.7970997736     0.8461977126
| 28>  H        4.8212650141    -1.3008343434    -0.7577052887
| 29>  H        5.0265916460    -0.2199673430     0.6290275938
| 30> *
| 31>
| 32>                          ****END OF INPUT****

CARTESIAN COORDINATES (ANGSTROEM)
---------------------------------
  C     -0.264837    1.553199   -0.025748
  C      0.012583    0.050459   -0.004849
  C      0.760384   -0.495848   -1.269677
  C      1.932100   -1.310868   -0.674475
  C      1.293048   -1.866792    0.617817
  C      0.899836   -0.474772    1.155870
  C      2.273969    0.232624    1.166265
  C      2.983688   -0.311636   -0.119431
  C      4.348348   -0.943994    0.163930
  H      0.648603    2.137000   -0.179325
  H     -0.952047    1.808529   -0.839782
  H     -0.723315    1.889132    0.911319
  H     -0.954108   -0.461545    0.077063
  H      0.103433   -1.127165   -1.876175
  H      1.117096    0.313304   -1.916586
  H      2.353775   -2.046918   -1.363411
  H      0.433201   -2.517606    0.428551
  H      1.997164   -2.399567    1.263930
  H      0.392837   -0.456275    2.124056
  H      2.200098    1.322938    1.181339
  H      2.833929   -0.057188    2.062801
  H      3.131136    0.498579   -0.843061
  H      4.262351   -1.797100    0.846198
  H      4.821265   -1.300834   -0.757705
  H      5.026592   -0.219967    0.629028

 Total Charge           Charge          ....    0
 Multiplicity           Mult            ....    1
 Number of Electrons    NEL             ....   70
 Basis Dimension        Dim             ....  375

ORBITAL ENERGIES
----------------

  NO   OCC          E(Eh)            E(eV)
   0   2.0000     -11.218645      -305.2748
   1   2.0000     -11.218101      -305.2601
   2   2.0000     -11.216010      -305.2031
   3   2.0000     -11.215723      -305.1953
   4   2.0000     -11.209568      -305.0279
   5   2.0000     -11.209259      -305.0194
   6   2.0000     -11.209192      -305.0176
   7   2.0000     -11.207801      -304.9798
   8   2.0000     -11.207672      -304.9763
   9   2.0000      -1.160907       -31.5899
  10   2.0000      -1.038797       -28.2671
  11   2.0000      -0.984337       -26.7852
  12   2.0000      -0.978721       -26.6324
  13   2.0000      -0.905351       -24.6359
  14   2.0000      -0.879127       -23.9223
  15   2.0000      -0.790402       -21.5079
  16   2.0000      -0.745685       -20.2911
  17   2.0000      -0.713130       -19.4052
  18   2.0000      -0.669699       -18.2234
  19   2.0000      -0.642541       -17.4844
  20   2.0000      -0.615492       -16.7484
  21   2.0000      -0.565821       -15.3968
  22   2.0000      -0.557369       -15.1668
  23   2.0000      -0.553895       -15.0722
  24   2.0000      -0.542078       -14.7507
  25   2.0000      -0.529837       -14.4176
  26   2.0000      -0.505671       -13.7600
  27   2.0000      -0.484567       -13.1857
  28   2.0000      -0.481607       -13.1052
  29   2.0000      -0.473875       -12.8948
  30   2.0000      -0.452719       -12.3191
  31   2.0000      -0.440502       -11.9867
  32   2.0000      -0.428220       -11.6525
  33   2.0000      -0.422849       -11.5063
  34   2.0000      -0.409020       -11.1300
  35   0.0000       0.132672         3.6102
  36   0.0000       0.152461         4.1487
  37   0.0000       0.158689         4.3181
  38   0.0000       0.167913         4.5691
  39   0.0000       0.189566         5.1583

MULLIKEN ATOMIC CHARGES
-----------------------
   0 C :   -0.429003
   1 C :   -0.088351
   2 C :   -0.275092
   3 C :    0.006035
   4 C :   -0.305241
   5 C :    0.048711
   6 C :   -0.334311
   7 C :   -0.068252
   8 C :   -0.428733
   9 H :    0.123698
  10 H :    0.134583
  11 H :    0.129483
  12 H :    0.090929
  13 H :    0.120756
  14 H :    0.107496
  15 H :    0.109741
  16 H :    0.115412
  17 H :    0.117735
  18 H :    0.111631
  19 H :    0.123444
  20 H :    0.118752
  21 H :    0.086332
  22 H :    0.122358
  23 H :    0.128004
  24 H :    0.133883
Sum of atomic charges:   -0.0000000

LOEWDIN ATOMIC CHARGES
----------------------
   0 C :   -0.299821
   1 C :   -0.242574
   2 C :   -0.202975
   3 C :   -0.212630
   4 C :   -0.206986
   5 C :   -0.215142
   6 C :   -0.204028
   7 C :   -0.239355
   8 C :   -0.298919
   9 H :    0.120386
  10 H :    0.123757
  11 H :    0.123212
  12 H :    0.150225
  13 H :    0.133122
  14 H :    0.134674
  15 H :    0.141511
  16 H :    0.136876
  17 H :    0.134404
  18 H :    0.141508
  19 H :    0.131877
  20 H :    0.138856
  21 H :    0.146187
  22 H :    0.121259
  23 H :    0.121435
  24 H :    0.123141

  Mayer bond orders larger than 0.1
B(  0-C ,  1-C ) :   0.8923 B(  0-C ,  9-H ) :   0.9372 B(  0-C , 10-H ) :   0.9415
B(  0-C , 11-H ) :   0.9422 B(  1-C ,  2-C ) :   0.9495 B(  1-C ,  5-C ) :   0.9073
B(  1-C , 12-H ) :   0.9244 B(  2-C ,  3-C ) :   0.9116 B(  2-C , 13-H ) :   0.9233
B(  2-C , 14-H ) :   0.9294 B(  3-C ,  4-C ) :   0.9266 B(  3-C ,  7-C ) :   0.8901
B(  3-C , 15-H ) :   0.9246 B(  4-C ,  5-C ) :   0.9115 B(  4-C , 16-H ) :   0.9243
B(  4-C , 17-H ) :   0.9230 B(  5-C ,  6-C ) :   0.8932 B(  5-C , 18-H ) :   0.9203
B(  6-C ,  7-C ) :   0.9526 B(  6-C , 19-H ) :   0.9354 B(  6-C , 20-H ) :   0.9194
B(  7-C ,  8-C ) :   0.8858 B(  7-C , 21-H ) :   0.9266 B(  8-C , 22-H ) :   0.9362
B(  8-C , 23-H ) :   0.9417 B(  8-C , 24-H ) :   0.9440

MP2 TOTAL ENERGY:     -351.751603460 Eh
FINAL SINGLE POINT ENERGY      -351.751603460171

DIPOLE MOMENT
-------------
                                X             Y             Z
Electronic contribution:     -1.16436      -1.58679       0.03629
Nuclear contribution   :      1.12498       1.57378      -0.03820
                        -----------------------------------------
Total Dipole Moment    :     -0.03938      -0.01301      -0.00190
                        -----------------------------------------
Magnitude (a.u.)       :      0.04151
Magnitude (Debye)      :      0.10552

                             ****ORCA TERMINATED NORMALLY****
TOTAL RUN TIME: 0 days 0 hours 24 minutes 41 seconds 696 msec
