                         Program Version 3.0.3 - RELEASE   -
|  1> ! RI-MP2 RIJK def2-TZVP def2-TZVP/C def2-TZVP/JK TIGHTSCF
|  2> % maxcore 2000
|  3> % mp2 density relaxed end
|  4> *xyz 0 1
|  5>  C        0.3328700797     0.1931723972     0.9541305758
|  6>  C       -0.1884448228     0.3583696431    -0.4593848508
|  7>  O        0.2294943163     1.2069145792    -1.2115457837
|  8>  C       -1.3189571659    -0.5786703008    -0.8995199373
|  9>  N       -1.2278603323    -1.9097632871    -0.3449447462
| 10>  C       -0.2692131344    -2.8741378157    -0.9338698955
| 11>  C       -1.3002889541    -3.9998840303    -0.6579602746
| 12>  O       -1.0989724683    -4.7248655130     0.5300517216
| 13>  C       -2.3445321590    -2.8551703984    -0.5697030632
| 14>  H        0.9902652787     1.0281674995     1.1994338796
| 15>  H       -0.4931015409     0.1288018117     1.6693566908
| 16>  H        0.8878072090    -0.7470396060     1.0395234364
| 17>  H       -2.2513527676    -0.1216763194    -0.5360878717
| 18>  H       -1.3577325746    -0.5592716449    -2.0029480662
| 19>  H       -0.0979663812    -2.7135506045    -2.0105141835
| 20>  H        0.6968907476    -2.9526566262    -0.4230465531
| 21>  H       -1.4452798879    -4.7374691168    -1.4473169479
| 22>  H       -0.9739042117    -4.0874244303     1.2424951562
| 23>  H       -3.0797535081    -2.9123723658     0.2405018180
| 24>  H       -2.8678056826    -2.6941694614    -1.5258144647
| 25> *
| 26>
| 27>                          ****END OF INPUT****

CARTESIAN COORDINATES (ANGSTROEM)
---------------------------------
  C      0.332870    0.193172    0.954131
  C     -0.188445    0.358370   -0.459385
  O      0.229494    1.206915   -1.211546
  C     -1.318957   -0.578670   -0.899520
  N     -1.227860   -1.909763   -0.344945
  C     -0.269213   -2.874138   -0.933870
  C     -1.300289   -3.999884   -0.657960
  O     -1.098972   -4.724866    0.530052
  C     -2.344532   -2.855170   -0.569703
  H      0.990265    1.028167    1.199434
  H     -0.493102    0.128802    1.669357
  H      0.887807   -0.747040    1.039523
  H     -2.251353   -0.121676   -0.536088
  H     -1.357733   -0.559272   -2.002948
  H     -0.097966   -2.713551   -2.010514
  H      0.696891   -2.952657   -0.423047
  H     -1.445280   -4.737469   -1.447317
  H     -0.973904   -4.087424    1.242495
  H     -3.079754   -2.912372    0.240502
  H     -2.867806   -2.694169   -1.525814

 Total Charge           Charge          ....    0
 Multiplicity           Mult            ....    1
 Number of Electrons    NEL             ....   70
 Basis Dimension        Dim             ....  345

ORBITAL ENERGIES
----------------

  NO   OCC          E(Eh)            E(eV)
   0   2.0000     -20.566715      -559.6488
   1   2.0000     -20.546493      -559.0985
   2   2.0000     -15.568107      -423.6297
   3   2.0000     -11.332013      -308.3598
   4   2.0000     -11.295295      -307.3606
   5   2.0000     -11.269160      -306.6494
   6   2.0000     -11.266469      -306.5762
   7   2.0000     -11.265411      -306.5474
   8   2.0000     -11.232971      -305.6647
   9   2.0000      -1.390969       -37.8502
  10   2.0000      -1.378713       -37.5167
  11   2.0000      -1.262268       -34.3481
  12   2.0000      -1.058175       -28.7944
  13   2.0000      -0.994621       -27.0650
  14   2.0000      -0.937889       -25.5213
  15   2.0000      -0.906698       -24.6725
  16   2.0000      -0.793311       -21.5871
  17   2.0000      -0.746542       -20.3144
  18   2.0000      -0.706200       -19.2167
  19   2.0000      -0.683441       -18.5974
  20   2.0000      -0.656990       -17.8776
  21   2.0000      -0.647222       -17.6118
  22   2.0000      -0.620073       -16.8731
  23   2.0000      -0.605139       -16.4667
  24   2.0000      -0.596084       -16.2203
  25   2.0000      -0.578482       -15.7413
  26   2.0000      -0.568181       -15.4610
  27   2.0000      -0.555398       -15.1131
  28   2.0000      -0.540202       -14.6996
  29   2.0000      -0.511839       -13.9278
  30   2.0000      -0.497244       -13.5307
  31   2.0000      -0.474708       -12.9175
  32   2.0000      -0.432545       -11.7702
  33   2.0000      -0.414475       -11.2785
  34   2.0000      -0.380817       -10.3626
  35   0.0000       0.120692         3.2842
  36   0.0000       0.133490         3.6324
  37   0.0000       0.147618         4.0169
  38   0.0000       0.161195         4.3863
  39   0.0000       0.168128         4.5750

MULLIKEN ATOMIC CHARGES
-----------------------
   0 C :   -0.382536
   1 C :    0.195647
   2 O :   -0.278948
   3 C :   -0.199169
   4 N :   -0.167901
   5 C :   -0.212192
   6 C :    0.101338
   7 O :   -0.463379
   8 C :   -0.188617
   9 H :    0.150442
  10 H :    0.140899
  11 H :    0.137757
  12 H :    0.140078
  13 H :    0.119377
  14 H :    0.109108
  15 H :    0.125673
  16 H :    0.123595
  17 H :    0.321513
  18 H :    0.125332
  19 H :    0.101984
Sum of atomic charges:   -0.0000000

LOEWDIN ATOMIC CHARGES
----------------------
   0 C :   -0.282200
   1 C :   -0.348898
   2 O :    0.149411
   3 C :   -0.276814
   4 N :    0.079114
   5 C :   -0.243600
   6 C :   -0.325127
   7 O :   -0.011227
   8 C :   -0.243857
   9 H :    0.131947
  10 H :    0.136794
  11 H :    0.138057
  12 H :    0.152357
  13 H :    0.133212
  14 H :    0.126150
  15 H :    0.121686
  16 H :    0.134135
  17 H :    0.181163
  18 H :    0.122817
  19 H :    0.124879

  Mayer bond orders larger than 0.1
B(  0-C ,  1-C ) :   0.9215 B(  0-C ,  9-H ) :   0.9316 B(  0-C , 10-H ) :   0.9120
B(  0-C , 11-H ) :   0.9047 B(  1-C ,  2-O ) :   2.0340 B(  1-C ,  3-C ) :   0.9051
B(  3-C ,  4-N ) :   0.9330 B(  3-C , 12-H ) :   0.9039 B(  3-C , 13-H ) :   0.9142
B(  4-N ,  5-C ) :   0.8993 B(  4-N ,  8-C ) :   0.8986 B(  5-C ,  6-C ) :   0.9231
B(  5-C , 14-H ) :   0.9092 B(  5-C , 15-H ) :   0.9252 B(  6-C ,  7-O ) :   0.9560
B(  6-C ,  8-C ) :   0.9247 B(  6-C , 16-H ) :   0.9340 B(  7-O , 17-H ) :   0.8373
B(  8-C , 18-H ) :   0.9230 B(  8-C , 19-H ) :   0.9099

MP2 TOTAL ENERGY:     -439.547027597 Eh
FINAL SINGLE POINT ENERGY      -439.547027597405

DIPOLE MOMENT
-------------
                                X             Y             Z
Electronic contribution:      0.71638       1.17392      -1.21154
Nuclear contribution   :     -1.19214      -1.47394       1.53070
                        -----------------------------------------
Total Dipole Moment    :     -0.47576      -0.30001       0.31916
                        -----------------------------------------
Magnitude (a.u.)       :      0.64670
Magnitude (Debye)      :      1.64379

                             ****ORCA TERMINATED NORMALLY****
TOTAL RUN TIME: 0 days 0 hours 16 minutes 43 seconds 58 msec
