                         Program Version 3.0.3 - RELEASE   -
|  1> ! RI-MP2 RIJK def2-TZVP def2-TZVP/C def2-TZVP/JK TIGHTSCF
|  2> % maxcore 2000
|  3> % mp2 density relaxed end
|  4> *xyz 0 1
|  5>  O       -0.0885885803     1.4348233624    -0.0348719780
|  6>  C       -0.0171660559     0.0150580970    -0.0025489011
|  7>  C       -1.4321354048    -0.5033605322     0.0099663087
|  8>  C       -2.2673442408    -0.3359422908     1.2977277398
|  9>  C       -2.7227241179    -1.7952554272     1.1037028510
| 10>  C       -3.8250154997    -1.9902271772     0.0450925298
| 11>  C       -2.7237344988    -1.8438528909    -1.0223695998
| 12>  C       -2.2685708243    -0.3949395965    -1.2833039501
| 13>  N       -1.6301457560    -2.0270274400     0.0448904619
| 14>  H        0.8081028610     1.7815103121    -0.0439637586
| 15>  H        0.5101863503    -0.3877575197    -0.8820098266
| 16>  H        0.5110552897    -0.3472730162     0.8938455943
| 17>  H       -1.6263670355    -0.2223287392     2.1763500103
| 18>  H       -3.0318433642     0.4451869098     1.3172096787
| 19>  H       -2.7394626191    -2.4449285758     1.9811923870
| 20>  H       -4.2258632651    -3.0070456555     0.0685247660
| 21>  H       -4.6593823374    -1.2820362880     0.0293011205
| 22>  H       -2.7412942272    -2.5329429922    -1.8692400127
| 23>  H       -3.0331042069     0.3844999414    -1.3377415977
| 24>  H       -1.6284247368    -0.3216133713    -2.1668060137
| 25> *
| 26>
| 27>                          ****END OF INPUT****

CARTESIAN COORDINATES (ANGSTROEM)
---------------------------------
  O     -0.088589    1.434823   -0.034872
  C     -0.017166    0.015058   -0.002549
  C     -1.432135   -0.503361    0.009966
  C     -2.267344   -0.335942    1.297728
  C     -2.722724   -1.795255    1.103703
  C     -3.825015   -1.990227    0.045093
  C     -2.723734   -1.843853   -1.022370
  C     -2.268571   -0.394940   -1.283304
  N     -1.630146   -2.027027    0.044890
  H      0.808103    1.781510   -0.043964
  H      0.510186   -0.387758   -0.882010
  H      0.511055   -0.347273    0.893846
  H     -1.626367   -0.222329    2.176350
  H     -3.031843    0.445187    1.317210
  H     -2.739463   -2.444929    1.981192
  H     -4.225863   -3.007046    0.068525
  H     -4.659382   -1.282036    0.029301
  H     -2.741294   -2.532943   -1.869240
  H     -3.033104    0.384500   -1.337742
  H     -1.628425   -0.321613   -2.166806

 Total Charge           Charge          ....    0
 Multiplicity           Mult            ....    1
 Number of Electrons    NEL             ....   68
 Basis Dimension        Dim             ....  345

ORBITAL ENERGIES
----------------

  NO   OCC          E(Eh)            E(eV)
   0   2.0000     -20.557934      -559.4098
   1   2.0000     -15.538533      -422.8250
   2   2.0000     -11.272010      -306.7270
   3   2.0000     -11.256685      -306.3100
   4   2.0000     -11.253859      -306.2331
   5   2.0000     -11.253854      -306.2329
   6   2.0000     -11.223082      -305.3956
   7   2.0000     -11.220600      -305.3280
   8   2.0000     -11.220584      -305.3276
   9   2.0000      -1.361460       -37.0472
  10   2.0000      -1.275760       -34.7152
  11   2.0000      -1.032434       -28.0940
  12   2.0000      -1.010763       -27.5043
  13   2.0000      -0.955425       -25.9984
  14   2.0000      -0.922745       -25.1092
  15   2.0000      -0.807189       -21.9647
  16   2.0000      -0.776035       -21.1170
  17   2.0000      -0.703053       -19.1310
  18   2.0000      -0.680738       -18.5238
  19   2.0000      -0.663449       -18.0534
  20   2.0000      -0.647750       -17.6262
  21   2.0000      -0.614755       -16.7283
  22   2.0000      -0.604731       -16.4556
  23   2.0000      -0.571689       -15.5565
  24   2.0000      -0.559508       -15.2250
  25   2.0000      -0.558918       -15.2089
  26   2.0000      -0.521872       -14.2008
  27   2.0000      -0.471443       -12.8286
  28   2.0000      -0.468909       -12.7597
  29   2.0000      -0.465437       -12.6652
  30   2.0000      -0.440799       -11.9948
  31   2.0000      -0.405709       -11.0399
  32   2.0000      -0.403310       -10.9746
  33   2.0000      -0.364170        -9.9096
  34   0.0000       0.131933         3.5901
  35   0.0000       0.150431         4.0934
  36   0.0000       0.168895         4.5959
  37   0.0000       0.169065         4.6005
  38   0.0000       0.173710         4.7269

MULLIKEN ATOMIC CHARGES
-----------------------
   0 O :   -0.470452
   1 C :   -0.088657
   2 C :    0.180747
   3 C :   -0.291635
   4 C :    0.024322
   5 C :   -0.298374
   6 C :    0.024315
   7 C :   -0.291627
   8 N :   -0.236027
   9 H :    0.316632
  10 H :    0.098162
  11 H :    0.098148
  12 H :    0.117890
  13 H :    0.118731
  14 H :    0.112740
  15 H :    0.122752
  16 H :    0.112988
  17 H :    0.112738
  18 H :    0.118731
  19 H :    0.117878
Sum of atomic charges:   -0.0000000

LOEWDIN ATOMIC CHARGES
----------------------
   0 O :   -0.042599
   1 C :   -0.316372
   2 C :   -0.263297
   3 C :   -0.185508
   4 C :   -0.210513
   5 C :   -0.216436
   6 C :   -0.210513
   7 C :   -0.185514
   8 N :    0.145049
   9 H :    0.173218
  10 H :    0.121371
  11 H :    0.121371
  12 H :    0.142106
  13 H :    0.132230
  14 H :    0.126448
  15 H :    0.139497
  16 H :    0.128683
  17 H :    0.126447
  18 H :    0.132229
  19 H :    0.142102

  Mayer bond orders larger than 0.1
B(  0-O ,  1-C ) :   1.0374 B(  0-O ,  2-C ) :  -0.1133 B(  0-O ,  9-H ) :   0.8471
B(  1-C ,  2-C ) :   0.8860 B(  1-C , 10-H ) :   0.9247 B(  1-C , 11-H ) :   0.9247
B(  2-C ,  3-C ) :   0.9514 B(  2-C ,  7-C ) :   0.9513 B(  2-C ,  8-N ) :   0.9354
B(  3-C ,  4-C ) :   0.9489 B(  3-C , 12-H ) :   0.9089 B(  3-C , 13-H ) :   0.9111
B(  4-C ,  5-C ) :   0.9502 B(  4-C ,  8-N ) :   0.9321 B(  4-C , 14-H ) :   0.9053
B(  5-C ,  6-C ) :   0.9502 B(  5-C , 15-H ) :   0.9174 B(  5-C , 16-H ) :   0.9136
B(  6-C ,  7-C ) :   0.9490 B(  6-C ,  8-N ) :   0.9321 B(  6-C , 17-H ) :   0.9053
B(  7-C , 18-H ) :   0.9111 B(  7-C , 19-H ) :   0.9089

MP2 TOTAL ENERGY:     -402.404904602 Eh
FINAL SINGLE POINT ENERGY      -402.404904602187

DIPOLE MOMENT
-------------
                                X             Y             Z
Electronic contribution:      1.57108      -0.22472       0.00464
Nuclear contribution   :     -1.55421       0.47094      -0.01075
                        -----------------------------------------
Total Dipole Moment    :      0.01686       0.24623      -0.00612
                        -----------------------------------------
Magnitude (a.u.)       :      0.24688
Magnitude (Debye)      :      0.62751

                             ****ORCA TERMINATED NORMALLY****
TOTAL RUN TIME: 0 days 0 hours 19 minutes 18 seconds 819 msec
