                         Program Version 3.0.3 - RELEASE   -
|  1> ! RI-MP2 RIJK def2-TZVP def2-TZVP/C def2-TZVP/JK TIGHTSCF
|  2> % maxcore 2000
|  3> % mp2 density relaxed end
|  4> *xyz 0 1
|  5>  C        0.0279599839     1.5775238693    -0.0687241658
|  6>  C        0.0326629764     0.0414539446    -0.0404629592
|  7>  C        0.8006894362    -0.5179777353    -1.2486183260
|  8>  C        0.5486163371    -1.9983587281    -1.5557558118
|  9>  C        1.2052151309    -2.9987604920    -0.5962006787
| 10>  C        0.7692025847    -2.9607274981     0.8494201588
| 11>  C        0.4799677028    -1.9164445254     1.6303383373
| 12>  C        0.5655584493    -0.4368786780     1.3272896409
| 13>  O        1.9074018243     0.0316478985     1.5542988698
| 14>  H        1.0451117846     1.9653618977     0.0384241800
| 15>  H       -0.3876236223     1.9520252467    -1.0095737484
| 16>  H       -0.5722488604     1.9885240007     0.7502680522
| 17>  H       -1.0079108470    -0.3077524828    -0.1066366030
| 18>  H        0.5150382997     0.0670184083    -2.1310224442
| 19>  H        1.8756558170    -0.3378284344    -1.1088338276
| 20>  H       -0.5334709983    -2.1824235071    -1.5798206845
| 21>  H        0.9190465791    -2.2170408814    -2.5647115054
| 22>  H        1.0262008009    -4.0110240041    -0.9768453350
| 23>  H        2.2986917431    -2.8705922559    -0.6410372931
| 24>  H        0.7219702152    -3.9400078581     1.3241665950
| 25>  H        0.2302599866    -2.1373750620     2.6662238318
| 26>  H       -0.0328395980     0.0829538927     2.0860088668
| 27>  H        2.5031402343    -0.6780626560     1.2964948501
| 28> *
| 29>
| 30>                          ****END OF INPUT****

CARTESIAN COORDINATES (ANGSTROEM)
---------------------------------
  C      0.027960    1.577524   -0.068724
  C      0.032663    0.041454   -0.040463
  C      0.800689   -0.517978   -1.248618
  C      0.548616   -1.998359   -1.555756
  C      1.205215   -2.998760   -0.596201
  C      0.769203   -2.960727    0.849420
  C      0.479968   -1.916445    1.630338
  C      0.565558   -0.436879    1.327290
  O      1.907402    0.031648    1.554299
  H      1.045112    1.965362    0.038424
  H     -0.387624    1.952025   -1.009574
  H     -0.572249    1.988524    0.750268
  H     -1.007911   -0.307752   -0.106637
  H      0.515038    0.067018   -2.131022
  H      1.875656   -0.337828   -1.108834
  H     -0.533471   -2.182424   -1.579821
  H      0.919047   -2.217041   -2.564712
  H      1.026201   -4.011024   -0.976845
  H      2.298692   -2.870592   -0.641037
  H      0.721970   -3.940008    1.324167
  H      0.230260   -2.137375    2.666224
  H     -0.032840    0.082954    2.086009
  H      2.503140   -0.678063    1.296495

 Total Charge           Charge          ....    0
 Multiplicity           Mult            ....    1
 Number of Electrons    NEL             ....   70
 Basis Dimension        Dim             ....  363

ORBITAL ENERGIES
----------------

  NO   OCC          E(Eh)            E(eV)
   0   2.0000     -20.548014      -559.1399
   1   2.0000     -11.278160      -306.8943
   2   2.0000     -11.236453      -305.7594
   3   2.0000     -11.231997      -305.6382
   4   2.0000     -11.226366      -305.4850
   5   2.0000     -11.223277      -305.4009
   6   2.0000     -11.223006      -305.3935
   7   2.0000     -11.216931      -305.2282
   8   2.0000     -11.204246      -304.8830
   9   2.0000      -1.352170       -36.7944
  10   2.0000      -1.111019       -30.2324
  11   2.0000      -1.054663       -28.6988
  12   2.0000      -1.027924       -27.9712
  13   2.0000      -0.936049       -25.4712
  14   2.0000      -0.895930       -24.3795
  15   2.0000      -0.841866       -22.9083
  16   2.0000      -0.763559       -20.7775
  17   2.0000      -0.731623       -19.9085
  18   2.0000      -0.674569       -18.3560
  19   2.0000      -0.647583       -17.6216
  20   2.0000      -0.627549       -17.0765
  21   2.0000      -0.617085       -16.7917
  22   2.0000      -0.594719       -16.1831
  23   2.0000      -0.573519       -15.6063
  24   2.0000      -0.547850       -14.9078
  25   2.0000      -0.546483       -14.8706
  26   2.0000      -0.533650       -14.5214
  27   2.0000      -0.511639       -13.9224
  28   2.0000      -0.504014       -13.7149
  29   2.0000      -0.484659       -13.1882
  30   2.0000      -0.461539       -12.5591
  31   2.0000      -0.458084       -12.4651
  32   2.0000      -0.438968       -11.9449
  33   2.0000      -0.421177       -11.4608
  34   2.0000      -0.359562        -9.7842
  35   0.0000       0.121152         3.2967
  36   0.0000       0.145494         3.9591
  37   0.0000       0.154206         4.1962
  38   0.0000       0.163311         4.4439
  39   0.0000       0.171937         4.6786

MULLIKEN ATOMIC CHARGES
-----------------------
   0 C :   -0.411057
   1 C :    0.031230
   2 C :   -0.310921
   3 C :   -0.181936
   4 C :   -0.197910
   5 C :   -0.176573
   6 C :   -0.238098
   7 C :    0.107064
   8 O :   -0.476064
   9 H :    0.145838
  10 H :    0.126672
  11 H :    0.123998
  12 H :    0.083190
  13 H :    0.121624
  14 H :    0.116156
  15 H :    0.107786
  16 H :    0.122519
  17 H :    0.131965
  18 H :    0.118771
  19 H :    0.122514
  20 H :    0.122082
  21 H :    0.093091
  22 H :    0.318059
Sum of atomic charges:   -0.0000000

LOEWDIN ATOMIC CHARGES
----------------------
   0 C :   -0.293241
   1 C :   -0.264795
   2 C :   -0.247408
   3 C :   -0.263151
   4 C :   -0.262035
   5 C :   -0.169133
   6 C :   -0.168950
   7 C :   -0.307066
   8 O :   -0.021514
   9 H :    0.128827
  10 H :    0.120335
  11 H :    0.121903
  12 H :    0.155931
  13 H :    0.142735
  14 H :    0.139224
  15 H :    0.140056
  16 H :    0.139217
  17 H :    0.145240
  18 H :    0.146200
  19 H :    0.146793
  20 H :    0.147912
  21 H :    0.150956
  22 H :    0.171964

  Mayer bond orders larger than 0.1
B(  0-C ,  1-C ) :   0.8916 B(  0-C ,  9-H ) :   0.9348 B(  0-C , 10-H ) :   0.9414
B(  0-C , 11-H ) :   0.9401 B(  1-C ,  2-C ) :   0.8861 B(  1-C ,  7-C ) :   0.8771
B(  1-C , 12-H ) :   0.9210 B(  2-C ,  3-C ) :   0.9167 B(  2-C , 13-H ) :   0.9295
B(  2-C , 14-H ) :   0.9377 B(  3-C ,  4-C ) :   0.9186 B(  3-C , 15-H ) :   0.9270
B(  3-C , 16-H ) :   0.9354 B(  4-C ,  5-C ) :   0.9270 B(  4-C , 17-H ) :   0.9344
B(  4-C , 18-H ) :   0.9194 B(  5-C ,  6-C ) :   1.8057 B(  5-C , 19-H ) :   0.9273
B(  6-C ,  7-C ) :   0.9482 B(  6-C , 20-H ) :   0.9338 B(  7-C ,  8-O ) :   0.9480
B(  7-C , 21-H ) :   0.9410 B(  8-O , 22-H ) :   0.8420

MP2 TOTAL ENERGY:     -387.626017521 Eh
FINAL SINGLE POINT ENERGY      -387.626017520958

DIPOLE MOMENT
-------------
                                X             Y             Z
Electronic contribution:      1.41087      -1.58299       4.17932
Nuclear contribution   :     -1.52943       0.95455      -4.57048
                        -----------------------------------------
Total Dipole Moment    :     -0.11855      -0.62844      -0.39116
                        -----------------------------------------
Magnitude (a.u.)       :      0.74966
Magnitude (Debye)      :      1.90550

                             ****ORCA TERMINATED NORMALLY****
TOTAL RUN TIME: 0 days 0 hours 22 minutes 11 seconds 921 msec
