                         Program Version 3.0.3 - RELEASE   -
|  1> ! RI-MP2 RIJK def2-TZVP def2-TZVP/C def2-TZVP/JK TIGHTSCF
|  2> % maxcore 2000
|  3> % mp2 density relaxed end
|  4> *xyz 0 1
|  5>  C       -0.2428517951     1.5366180835    -0.0358134565
|  6>  C        0.0441439359     0.0481984943     0.0541590488
|  7>  N        0.9245288761    -0.5474921261    -1.0250076785
|  8>  C        2.2800724349     0.0003366901    -0.8340231457
|  9>  C        1.8361664984    -1.0725861744     0.0723680652
| 10>  C        0.9347137754    -0.5571618030     1.2000194424
| 11>  C        1.5568754371     0.3690610987     2.2433594201
| 12>  C        0.2106068232    -1.7157301483     1.8813886071
| 13>  O       -0.8722516482    -1.1785421564     2.6291474100
| 14>  H        0.6552818504     2.1569777567     0.0268995969
| 15>  H       -0.7397975136     1.7611835639    -0.9855664374
| 16>  H       -0.9116225888     1.8370756422     0.7770734404
| 17>  H       -0.9090115120    -0.4850027963     0.0124989668
| 18>  H        2.9534333893    -0.2766759636    -1.6398419726
| 19>  H        2.4166644697     1.0147944663    -0.4720967858
| 20>  H        2.2521806348    -2.0760353758     0.0271321280
| 21>  H        2.0466122037     1.2356342314     1.7929043525
| 22>  H        0.7924273291     0.7293024799     2.9369795893
| 23>  H        2.3123806482    -0.1700161852     2.8272883224
| 24>  H       -0.1466125894    -2.4235459788     1.1172788835
| 25>  H        0.9136666969    -2.2587484151     2.5351646340
| 26>  H       -1.3479136360    -1.9059642842     3.0398381593
| 27> *
| 28>
| 29>                          ****END OF INPUT****

CARTESIAN COORDINATES (ANGSTROEM)
---------------------------------
  C     -0.242852    1.536618   -0.035813
  C      0.044144    0.048198    0.054159
  N      0.924529   -0.547492   -1.025008
  C      2.280072    0.000337   -0.834023
  C      1.836166   -1.072586    0.072368
  C      0.934714   -0.557162    1.200019
  C      1.556875    0.369061    2.243359
  C      0.210607   -1.715730    1.881389
  O     -0.872252   -1.178542    2.629147
  H      0.655282    2.156978    0.026900
  H     -0.739798    1.761184   -0.985566
  H     -0.911623    1.837076    0.777073
  H     -0.909012   -0.485003    0.012499
  H      2.953433   -0.276676   -1.639842
  H      2.416664    1.014794   -0.472097
  H      2.252181   -2.076035    0.027132
  H      2.046612    1.235634    1.792904
  H      0.792427    0.729302    2.936980
  H      2.312381   -0.170016    2.827288
  H     -0.146613   -2.423546    1.117279
  H      0.913667   -2.258748    2.535165
  H     -1.347914   -1.905964    3.039838

 Total Charge           Charge          ....    0
 Multiplicity           Mult            ....    1
 Number of Electrons    NEL             ....   70
 Basis Dimension        Dim             ....  357

ORBITAL ENERGIES
----------------

  NO   OCC          E(Eh)            E(eV)
   0   2.0000     -20.560342      -559.4754
   1   2.0000     -15.552234      -423.1978
   2   2.0000     -11.278397      -306.9008
   3   2.0000     -11.255512      -306.2781
   4   2.0000     -11.251936      -306.1808
   5   2.0000     -11.250148      -306.1321
   6   2.0000     -11.238632      -305.8187
   7   2.0000     -11.211190      -305.0720
   8   2.0000     -11.210898      -305.0641
   9   2.0000      -1.365087       -37.1459
  10   2.0000      -1.282485       -34.8982
  11   2.0000      -1.064530       -28.9673
  12   2.0000      -1.007340       -27.4111
  13   2.0000      -0.934693       -25.4343
  14   2.0000      -0.896225       -24.3875
  15   2.0000      -0.855004       -23.2658
  16   2.0000      -0.796082       -21.6625
  17   2.0000      -0.715939       -19.4817
  18   2.0000      -0.709686       -19.3115
  19   2.0000      -0.660086       -17.9618
  20   2.0000      -0.641723       -17.4622
  21   2.0000      -0.624644       -16.9974
  22   2.0000      -0.587652       -15.9908
  23   2.0000      -0.572614       -15.5816
  24   2.0000      -0.563414       -15.3313
  25   2.0000      -0.543816       -14.7980
  26   2.0000      -0.536366       -14.5953
  27   2.0000      -0.534381       -14.5413
  28   2.0000      -0.508776       -13.8445
  29   2.0000      -0.488232       -13.2855
  30   2.0000      -0.452318       -12.3082
  31   2.0000      -0.440655       -11.9908
  32   2.0000      -0.431740       -11.7483
  33   2.0000      -0.414666       -11.2836
  34   2.0000      -0.361225        -9.8294
  35   0.0000       0.129308         3.5186
  36   0.0000       0.152871         4.1598
  37   0.0000       0.161156         4.3853
  38   0.0000       0.173661         4.7256
  39   0.0000       0.184138         5.0107

MULLIKEN ATOMIC CHARGES
-----------------------
   0 C :   -0.404970
   1 C :   -0.048661
   2 N :   -0.227179
   3 C :   -0.166593
   4 C :   -0.147812
   5 C :    0.195106
   6 C :   -0.413043
   7 C :   -0.137522
   8 O :   -0.471822
   9 H :    0.110044
  10 H :    0.144214
  11 H :    0.142261
  12 H :    0.107170
  13 H :    0.128065
  14 H :    0.120196
  15 H :    0.123677
  16 H :    0.121220
  17 H :    0.155592
  18 H :    0.126341
  19 H :    0.123796
  20 H :    0.102072
  21 H :    0.317848
Sum of atomic charges:   -0.0000000

LOEWDIN ATOMIC CHARGES
----------------------
   0 C :   -0.294240
   1 C :   -0.230209
   2 N :    0.114305
   3 C :   -0.250420
   4 C :   -0.184070
   5 C :   -0.264295
   6 C :   -0.266511
   7 C :   -0.308691
   8 O :   -0.040472
   9 H :    0.118549
  10 H :    0.130622
  11 H :    0.132313
  12 H :    0.151968
  13 H :    0.132651
  14 H :    0.122770
  15 H :    0.133541
  16 H :    0.121754
  17 H :    0.133008
  18 H :    0.127811
  19 H :    0.125877
  20 H :    0.120174
  21 H :    0.173566

  Mayer bond orders larger than 0.1
B(  0-C ,  1-C ) :   0.9401 B(  0-C ,  9-H ) :   0.9249 B(  0-C , 10-H ) :   0.9369
B(  0-C , 11-H ) :   0.9377 B(  1-C ,  2-N ) :   0.9138 B(  1-C ,  5-C ) :   0.9287
B(  1-C , 12-H ) :   0.9121 B(  2-N ,  3-C ) :   0.8876 B(  2-N ,  4-C ) :   0.9019
B(  3-C ,  4-C ) :   0.9409 B(  3-C , 13-H ) :   0.9331 B(  3-C , 14-H ) :   0.9066
B(  4-C ,  5-C ) :   0.9269 B(  4-C , 15-H ) :   0.8929 B(  5-C ,  6-C ) :   0.9179
B(  5-C ,  7-C ) :   0.8844 B(  6-C , 16-H ) :   0.9328 B(  6-C , 17-H ) :   0.9338
B(  6-C , 18-H ) :   0.9300 B(  7-C ,  8-O ) :   1.0293 B(  7-C , 19-H ) :   0.9296
B(  7-C , 20-H ) :   0.9268 B(  8-O , 21-H ) :   0.8467

MP2 TOTAL ENERGY:     -403.617264694 Eh
FINAL SINGLE POINT ENERGY      -403.617264694091

DIPOLE MOMENT
-------------
                                X             Y             Z
Electronic contribution:     -0.92825      -3.74410      -1.55254
Nuclear contribution   :      1.10729       3.40792       2.17895
                        -----------------------------------------
Total Dipole Moment    :      0.17904      -0.33618       0.62641
                        -----------------------------------------
Magnitude (a.u.)       :      0.73312
Magnitude (Debye)      :      1.86344

                             ****ORCA TERMINATED NORMALLY****
TOTAL RUN TIME: 0 days 0 hours 21 minutes 41 seconds 803 msec
