                         Program Version 3.0.3 - RELEASE   -
|  1> ! RI-MP2 RIJK def2-TZVP def2-TZVP/C def2-TZVP/JK TIGHTSCF
|  2> % maxcore 2000
|  3> % mp2 density relaxed end
|  4> *xyz 0 1
|  5>  N        0.1540010520    -3.6770837182    -0.1115186129
|  6>  C        0.0847853507    -2.5180289522    -0.0726302733
|  7>  C        0.0120608744    -1.1564767659    -0.0276448681
|  8>  C       -0.0561841475     0.0495858544     0.0107446972
|  9>  C       -0.0968082664     1.4747889854     0.0448662045
| 10>  N       -1.1787935588     2.1490400289    -0.1021022268
| 11>  C       -0.7856060069     3.5632708573     0.0289207390
| 12>  C        0.7651952341     3.5854776364    -0.0408996666
| 13>  N        1.0749155503     2.1866641288     0.2928729423
| 14>  H       -1.2607768566     4.1647666216    -0.7499557671
| 15>  H       -1.1482573681     3.9349125262     0.9959551098
| 16>  H        1.1229283970     3.8449414846    -1.0464477614
| 17>  H        1.2180931326     4.2733946397     0.6767316443
| 18>  H        1.9439548431     1.7912152330    -0.0362084708
| 19> *
| 20>
| 21>                          ****END OF INPUT****

CARTESIAN COORDINATES (ANGSTROEM)
---------------------------------
  N      0.154001   -3.677084   -0.111519
  C      0.084785   -2.518029   -0.072630
  C      0.012061   -1.156477   -0.027645
  C     -0.056184    0.049586    0.010745
  C     -0.096808    1.474789    0.044866
  N     -1.178794    2.149040   -0.102102
  C     -0.785606    3.563271    0.028921
  C      0.765195    3.585478   -0.040900
  N      1.074916    2.186664    0.292873
  H     -1.260777    4.164767   -0.749956
  H     -1.148257    3.934913    0.995955
  H      1.122928    3.844941   -1.046448
  H      1.218093    4.273395    0.676732
  H      1.943955    1.791215   -0.036208

 Total Charge           Charge          ....    0
 Multiplicity           Mult            ....    1
 Number of Electrons    NEL             ....   62
 Basis Dimension        Dim             ....  309

ORBITAL ENERGIES
----------------

  NO   OCC          E(Eh)            E(eV)
   0   2.0000     -15.607678      -424.7065
   1   2.0000     -15.599684      -424.4890
   2   2.0000     -15.572092      -423.7382
   3   2.0000     -11.354505      -308.9718
   4   2.0000     -11.312102      -307.8179
   5   2.0000     -11.307171      -307.6838
   6   2.0000     -11.301407      -307.5269
   7   2.0000     -11.285476      -307.0934
   8   2.0000     -11.273997      -306.7811
   9   2.0000      -1.332489       -36.2589
  10   2.0000      -1.245824       -33.9006
  11   2.0000      -1.178066       -32.0568
  12   2.0000      -1.112267       -30.2663
  13   2.0000      -1.035739       -28.1839
  14   2.0000      -0.921528       -25.0760
  15   2.0000      -0.865397       -23.5486
  16   2.0000      -0.835479       -22.7345
  17   2.0000      -0.768224       -20.9044
  18   2.0000      -0.683810       -18.6074
  19   2.0000      -0.616373       -16.7724
  20   2.0000      -0.613190       -16.6857
  21   2.0000      -0.590041       -16.0558
  22   2.0000      -0.568499       -15.4696
  23   2.0000      -0.563027       -15.3208
  24   2.0000      -0.549975       -14.9656
  25   2.0000      -0.544849       -14.8261
  26   2.0000      -0.520619       -14.1668
  27   2.0000      -0.453853       -12.3500
  28   2.0000      -0.424766       -11.5585
  29   2.0000      -0.423331       -11.5194
  30   2.0000      -0.365363        -9.9420
  31   0.0000       0.049517         1.3474
  32   0.0000       0.084033         2.2866
  33   0.0000       0.116830         3.1791
  34   0.0000       0.146034         3.9738
  35   0.0000       0.157399         4.2831

MULLIKEN ATOMIC CHARGES
-----------------------
   0 N :   -0.036399
   1 C :   -0.210888
   2 C :    0.325253
   3 C :    0.042625
   4 C :   -0.000446
   5 N :   -0.248921
   6 C :   -0.118186
   7 C :   -0.156327
   8 N :   -0.351323
   9 H :    0.135683
  10 H :    0.120993
  11 H :    0.120049
  12 H :    0.135162
  13 H :    0.242726
Sum of atomic charges:    0.0000000

LOEWDIN ATOMIC CHARGES
----------------------
   0 N :    0.111033
   1 C :   -0.167734
   2 C :   -0.024412
   3 C :    0.057140
   4 C :   -0.345973
   5 N :    0.114234
   6 C :   -0.266596
   7 C :   -0.265650
   8 N :    0.079685
   9 H :    0.133183
  10 H :    0.136229
  11 H :    0.125076
  12 H :    0.130298
  13 H :    0.183489

  Mayer bond orders larger than 0.1
B(  0-N ,  1-C ) :   2.7408 B(  0-N ,  3-C ) :   0.1112 B(  1-C ,  2-C ) :   0.9641
B(  2-C ,  3-C ) :   2.5896 B(  2-C ,  4-C ) :  -0.1758 B(  3-C ,  4-C ) :   1.0420
B(  4-C ,  5-N ) :   1.8614 B(  4-C ,  8-N ) :   1.1164 B(  5-N ,  6-C ) :   0.9158
B(  6-C ,  7-C ) :   0.9490 B(  6-C ,  9-H ) :   0.9292 B(  6-C , 10-H ) :   0.9138
B(  7-C ,  8-N ) :   0.9274 B(  7-C , 11-H ) :   0.9321 B(  7-C , 12-H ) :   0.9217
B(  8-N , 13-H ) :   0.8641

MP2 TOTAL ENERGY:     -395.016742644 Eh
FINAL SINGLE POINT ENERGY      -395.016742644221

DIPOLE MOMENT
-------------
                                X             Y             Z
Electronic contribution:     -0.72952     -11.47118       0.02190
Nuclear contribution   :      1.69411      13.44511      -0.16021
                        -----------------------------------------
Total Dipole Moment    :      0.96459       1.97392      -0.13831
                        -----------------------------------------
Magnitude (a.u.)       :      2.20135
Magnitude (Debye)      :      5.59538

                             ****ORCA TERMINATED NORMALLY****
TOTAL RUN TIME: 0 days 0 hours 13 minutes 20 seconds 220 msec
