                         Program Version 3.0.3 - RELEASE   -
|  1> ! RI-MP2 RIJK def2-TZVP def2-TZVP/C def2-TZVP/JK TIGHTSCF
|  2> % maxcore 2000
|  3> % mp2 density relaxed end
|  4> *xyz 0 1
|  5>  C        0.0743148498     1.2246732658    -0.2645338781
|  6>  O       -0.0008100956    -0.0899023145     0.2407254230
|  7>  C       -1.2902119559    -0.6179691744     0.2086015282
|  8>  C       -1.8716222704    -1.1014240098    -1.1645188168
|  9>  C       -2.2249621365    -2.4583096304    -0.5112930600
| 10>  O       -1.5037365791    -3.5836549572    -1.0565101846
| 11>  C       -0.3749866076    -3.6629150734    -0.3018295521
| 12>  N       -0.2102977781    -2.8921130633     0.6913869289
| 13>  C       -1.4191791547    -2.0624781938     0.7661408334
| 14>  H        1.1129784300     1.5487237306    -0.1688247751
| 15>  H       -0.2161356194     1.2777162649    -1.3247572046
| 16>  H       -0.5692779407     1.9149310434     0.3037467307
| 17>  H       -1.9972119154     0.0572309295     0.7181926364
| 18>  H       -2.7041832339    -0.5284978657    -1.5777759476
| 19>  H       -1.0968357169    -1.2173801741    -1.9261140847
| 20>  H       -3.2789206547    -2.7252838885    -0.4435784131
| 21>  H        0.3223902960    -4.4283939562    -0.6236374538
| 22>  H       -1.8716362270    -2.1475292230     1.7571934099
| 23> *
| 24>
| 25>                          ****END OF INPUT****

CARTESIAN COORDINATES (ANGSTROEM)
---------------------------------
  C      0.074315    1.224673   -0.264534
  O     -0.000810   -0.089902    0.240725
  C     -1.290212   -0.617969    0.208602
  C     -1.871622   -1.101424   -1.164519
  C     -2.224962   -2.458310   -0.511293
  O     -1.503737   -3.583655   -1.056510
  C     -0.374987   -3.662915   -0.301830
  N     -0.210298   -2.892113    0.691387
  C     -1.419179   -2.062478    0.766141
  H      1.112978    1.548724   -0.168825
  H     -0.216136    1.277716   -1.324757
  H     -0.569278    1.914931    0.303747
  H     -1.997212    0.057231    0.718193
  H     -2.704183   -0.528498   -1.577776
  H     -1.096836   -1.217380   -1.926114
  H     -3.278921   -2.725284   -0.443578
  H      0.322390   -4.428394   -0.623637
  H     -1.871636   -2.147529    1.757193

 Total Charge           Charge          ....    0
 Multiplicity           Mult            ....    1
 Number of Electrons    NEL             ....   68
 Basis Dimension        Dim             ....  333

ORBITAL ENERGIES
----------------

  NO   OCC          E(Eh)            E(eV)
   0   2.0000     -20.594187      -560.3963
   1   2.0000     -20.558700      -559.4307
   2   2.0000     -15.547043      -423.0565
   3   2.0000     -11.329381      -308.2881
   4   2.0000     -11.294710      -307.3447
   5   2.0000     -11.288774      -307.1832
   6   2.0000     -11.273872      -306.7777
   7   2.0000     -11.263265      -306.4890
   8   2.0000     -11.231792      -305.6326
   9   2.0000      -1.436918       -39.1005
  10   2.0000      -1.383715       -37.6528
  11   2.0000      -1.214383       -33.0451
  12   2.0000      -1.115385       -30.3512
  13   2.0000      -0.952259       -25.9123
  14   2.0000      -0.925800       -25.1923
  15   2.0000      -0.879544       -23.9336
  16   2.0000      -0.791226       -21.5304
  17   2.0000      -0.775724       -21.1085
  18   2.0000      -0.721983       -19.6462
  19   2.0000      -0.685373       -18.6499
  20   2.0000      -0.663380       -18.0515
  21   2.0000      -0.641616       -17.4593
  22   2.0000      -0.623427       -16.9643
  23   2.0000      -0.607069       -16.5192
  24   2.0000      -0.584910       -15.9162
  25   2.0000      -0.553955       -15.0739
  26   2.0000      -0.536982       -14.6120
  27   2.0000      -0.509780       -13.8718
  28   2.0000      -0.501471       -13.6457
  29   2.0000      -0.489672       -13.3246
  30   2.0000      -0.468218       -12.7409
  31   2.0000      -0.427365       -11.6292
  32   2.0000      -0.407950       -11.1009
  33   2.0000      -0.376433       -10.2433
  34   0.0000       0.132775         3.6130
  35   0.0000       0.152346         4.1456
  36   0.0000       0.162338         4.4174
  37   0.0000       0.177116         4.8196
  38   0.0000       0.184270         5.0142

MULLIKEN ATOMIC CHARGES
-----------------------
   0 C :   -0.221440
   1 O :   -0.269857
   2 C :   -0.016514
   3 C :   -0.254068
   4 C :    0.020001
   5 O :   -0.275590
   6 C :    0.088903
   7 N :   -0.285481
   8 C :    0.116046
   9 H :    0.146978
  10 H :    0.113838
  11 H :    0.111197
  12 H :    0.070197
  13 H :    0.130213
  14 H :    0.127597
  15 H :    0.122983
  16 H :    0.146582
  17 H :    0.128414
Sum of atomic charges:   -0.0000000

LOEWDIN ATOMIC CHARGES
----------------------
   0 C :   -0.351151
   1 O :    0.174098
   2 C :   -0.299054
   3 C :   -0.205698
   4 C :   -0.229145
   5 O :    0.226942
   6 C :   -0.338448
   7 N :    0.096898
   8 C :   -0.212618
   9 H :    0.115644
  10 H :    0.102401
  11 H :    0.102158
  12 H :    0.132746
  13 H :    0.129781
  14 H :    0.147589
  15 H :    0.134966
  16 H :    0.134115
  17 H :    0.138776

  Mayer bond orders larger than 0.1
B(  0-C ,  1-O ) :   0.9053 B(  0-C ,  9-H ) :   0.9409 B(  0-C , 10-H ) :   0.9321
B(  0-C , 11-H ) :   0.9343 B(  1-O ,  2-C ) :   1.0949 B(  2-C ,  3-C ) :   0.9350
B(  2-C ,  8-C ) :   0.8739 B(  2-C , 12-H ) :   0.9384 B(  3-C ,  4-C ) :   0.9252
B(  3-C , 13-H ) :   0.9157 B(  3-C , 14-H ) :   0.8876 B(  4-C ,  5-O ) :   0.8822
B(  4-C ,  8-C ) :   0.8896 B(  4-C , 15-H ) :   0.9222 B(  5-O ,  6-C ) :   1.0573
B(  6-C ,  7-N ) :   1.8134 B(  6-C , 16-H ) :   0.9213 B(  7-N ,  8-C ) :   0.8879
B(  8-C , 17-H ) :   0.9329

MP2 TOTAL ENERGY:     -438.344779644 Eh
FINAL SINGLE POINT ENERGY      -438.344779643609

DIPOLE MOMENT
-------------
                                X             Y             Z
Electronic contribution:      0.70438      -7.45134       1.21401
Nuclear contribution   :     -1.49941       8.05952      -1.63010
                        -----------------------------------------
Total Dipole Moment    :     -0.79502       0.60818      -0.41609
                        -----------------------------------------
Magnitude (a.u.)       :      1.08401
Magnitude (Debye)      :      2.75533

                             ****ORCA TERMINATED NORMALLY****
TOTAL RUN TIME: 0 days 0 hours 27 minutes 42 seconds 422 msec
