                         Program Version 3.0.3 - RELEASE   -
|  1> ! RI-MP2 RIJK def2-TZVP def2-TZVP/C def2-TZVP/JK TIGHTSCF
|  2> % maxcore 2000
|  3> % mp2 density relaxed end
|  4> *xyz 0 1
|  5>  C        0.1622463667     1.4895233449     0.0406714285
|  6>  C        0.0773721734    -0.0148985274     0.0572213145
|  7>  N        0.0151593282    -0.7183722782     1.1257031875
|  8>  O       -0.0054710952     0.0904767837     2.2740856839
|  9>  C        0.0228800291    -0.7473524804    -1.2211293096
| 10>  C       -1.2052653673    -1.5262899616    -1.7017700637
| 11>  C        0.1045429081    -2.2212647685    -1.5491999769
| 12>  O        0.9319126311    -1.9977708078    -2.6936659138
| 13>  C        0.9677743329    -0.5733286913    -2.4118518403
| 14>  H        0.9166352633     1.8370669190     0.7512611174
| 15>  H        0.3985693519     1.8644811029    -0.9572496025
| 16>  H       -0.7919979177     1.9265574882     0.3558748548
| 17>  H       -0.0092316418    -0.5635067574     2.9807582021
| 18>  H       -1.9287604719    -1.7106085638    -0.9146836028
| 19>  H       -1.6102804585    -1.3586675011    -2.6965593130
| 20>  H        0.3033738096    -3.0863823360    -0.9290327549
| 21>  H        0.6221014855     0.0295424320    -3.2601592980
| 22>  H        1.9793270026    -0.2653340372    -2.1227379933
| 23> *
| 24>
| 25>                          ****END OF INPUT****

CARTESIAN COORDINATES (ANGSTROEM)
---------------------------------
  C      0.162246    1.489523    0.040671
  C      0.077372   -0.014899    0.057221
  N      0.015159   -0.718372    1.125703
  O     -0.005471    0.090477    2.274086
  C      0.022880   -0.747352   -1.221129
  C     -1.205265   -1.526290   -1.701770
  C      0.104543   -2.221265   -1.549200
  O      0.931913   -1.997771   -2.693666
  C      0.967774   -0.573329   -2.411852
  H      0.916635    1.837067    0.751261
  H      0.398569    1.864481   -0.957250
  H     -0.791998    1.926557    0.355875
  H     -0.009232   -0.563507    2.980758
  H     -1.928760   -1.710609   -0.914684
  H     -1.610280   -1.358668   -2.696559
  H      0.303374   -3.086382   -0.929033
  H      0.622101    0.029542   -3.260159
  H      1.979327   -0.265334   -2.122738

 Total Charge           Charge          ....    0
 Multiplicity           Mult            ....    1
 Number of Electrons    NEL             ....   68
 Basis Dimension        Dim             ....  333

ORBITAL ENERGIES
----------------

  NO   OCC          E(Eh)            E(eV)
   0   2.0000     -20.592192      -560.3420
   1   2.0000     -20.559314      -559.4474
   2   2.0000     -15.614144      -424.8825
   3   2.0000     -11.293664      -307.3162
   4   2.0000     -11.292207      -307.2766
   5   2.0000     -11.288310      -307.1705
   6   2.0000     -11.253112      -306.2127
   7   2.0000     -11.242491      -305.9237
   8   2.0000     -11.236491      -305.7605
   9   2.0000      -1.419761       -38.6337
  10   2.0000      -1.397972       -38.0407
  11   2.0000      -1.180944       -32.1351
  12   2.0000      -1.109446       -30.1896
  13   2.0000      -0.994976       -27.0747
  14   2.0000      -0.954944       -25.9853
  15   2.0000      -0.847610       -23.0646
  16   2.0000      -0.812066       -22.0974
  17   2.0000      -0.737510       -20.0687
  18   2.0000      -0.699787       -19.0422
  19   2.0000      -0.673819       -18.3356
  20   2.0000      -0.664784       -18.0897
  21   2.0000      -0.646288       -17.5864
  22   2.0000      -0.611412       -16.6374
  23   2.0000      -0.602961       -16.4074
  24   2.0000      -0.569634       -15.5005
  25   2.0000      -0.562613       -15.3095
  26   2.0000      -0.554378       -15.0854
  27   2.0000      -0.547965       -14.9109
  28   2.0000      -0.514607       -14.0032
  29   2.0000      -0.488359       -13.2889
  30   2.0000      -0.440128       -11.9765
  31   2.0000      -0.433564       -11.7979
  32   2.0000      -0.390012       -10.6128
  33   2.0000      -0.363203        -9.8833
  34   0.0000       0.130581         3.5533
  35   0.0000       0.143094         3.8938
  36   0.0000       0.157902         4.2967
  37   0.0000       0.171376         4.6634
  38   0.0000       0.181670         4.9435

MULLIKEN ATOMIC CHARGES
-----------------------
   0 C :   -0.419550
   1 C :    0.018579
   2 N :   -0.098156
   3 O :   -0.373723
   4 C :   -0.008657
   5 C :   -0.252130
   6 C :    0.052120
   7 O :   -0.329587
   8 C :   -0.008965
   9 H :    0.159878
  10 H :    0.136621
  11 H :    0.154132
  12 H :    0.335915
  13 H :    0.140649
  14 H :    0.135325
  15 H :    0.138482
  16 H :    0.108510
  17 H :    0.110556
Sum of atomic charges:    0.0000000

LOEWDIN ATOMIC CHARGES
----------------------
   0 C :   -0.273644
   1 C :   -0.278438
   2 N :    0.028099
   3 O :   -0.071705
   4 C :   -0.195098
   5 C :   -0.171566
   6 C :   -0.220510
   7 O :    0.147072
   8 C :   -0.214712
   9 H :    0.139212
  10 H :    0.131284
  11 H :    0.141516
  12 H :    0.169890
  13 H :    0.147708
  14 H :    0.136450
  15 H :    0.136105
  16 H :    0.120101
  17 H :    0.128239

  Mayer bond orders larger than 0.1
B(  0-C ,  1-C ) :   0.9283 B(  0-C ,  9-H ) :   0.9240 B(  0-C , 10-H ) :   0.9338
B(  0-C , 11-H ) :   0.9174 B(  1-C ,  2-N ) :   1.8340 B(  1-C ,  4-C ) :   0.9503
B(  2-N ,  3-O ) :   0.8157 B(  3-O , 12-H ) :   0.8455 B(  4-C ,  5-C ) :   0.8378
B(  4-C ,  6-C ) :   0.8976 B(  4-C ,  8-C ) :   0.9588 B(  5-C ,  6-C ) :   0.9071
B(  5-C , 13-H ) :   0.9192 B(  5-C , 14-H ) :   0.9056 B(  6-C ,  7-O ) :   0.9571
B(  6-C , 15-H ) :   0.9055 B(  7-O ,  8-C ) :   0.9411 B(  8-C , 16-H ) :   0.9066
B(  8-C , 17-H ) :   0.9152

MP2 TOTAL ENERGY:     -438.269401566 Eh
FINAL SINGLE POINT ENERGY      -438.269401565924

DIPOLE MOMENT
-------------
                                X             Y             Z
Electronic contribution:      0.94735      -3.88353       1.45051
Nuclear contribution   :     -1.19732       4.39650      -1.08443
                        -----------------------------------------
Total Dipole Moment    :     -0.24997       0.51297       0.36608
                        -----------------------------------------
Magnitude (a.u.)       :      0.67796
Magnitude (Debye)      :      1.72324

                             ****ORCA TERMINATED NORMALLY****
TOTAL RUN TIME: 0 days 0 hours 17 minutes 33 seconds 975 msec
