                         Program Version 3.0.3 - RELEASE   -
|  1> ! RI-MP2 RIJK def2-TZVP def2-TZVP/C def2-TZVP/JK TIGHTSCF
|  2> % maxcore 2000
|  3> % mp2 density relaxed end
|  4> *xyz 0 1
|  5>  C        0.1612350714     1.5880798068    -1.1763151936
|  6>  C       -0.1173105241     0.2364698487    -0.5095764561
|  7>  C       -1.5838916198    -0.0145250599    -0.1267002640
|  8>  C       -2.0953282992     1.0158673332     0.8822858721
|  9>  C       -2.5412690754    -0.2256514461    -1.3465843114
| 10>  C       -2.8697505525    -1.6768482642    -0.8663613821
| 11>  C       -4.3183344942    -1.8604288614    -0.4115903455
| 12>  C       -2.4799107116    -2.7698105607    -1.8610834933
| 13>  C       -1.8590354509    -1.4899584816     0.3120766624
| 14>  H        1.2051343237     1.6542275442    -1.4986143282
| 15>  H       -0.4673860902     1.7328355673    -2.0620307037
| 16>  H       -0.0252247027     2.4255517631    -0.4973141323
| 17>  H        0.2063941752    -0.5657274031    -1.1855755225
| 18>  H        0.5032260308     0.1378522321     0.3922391017
| 19>  H       -2.0988977384     2.0280700748     0.4642263529
| 20>  H       -3.1205639103     0.7882465045     1.1920561025
| 21>  H       -1.4720491963     1.0262074499     1.7849007142
| 22>  H       -3.4007564689     0.4507855719    -1.3822611891
| 23>  H       -2.0392892266    -0.1856346142    -2.3182842926
| 24>  H       -5.0075276544    -1.8119833554    -1.2632291996
| 25>  H       -4.4573592669    -2.8328704500     0.0758200987
| 26>  H       -4.6187228348    -1.0859937788     0.3020031048
| 27>  H       -1.4439498119    -2.6547373010    -2.1973836421
| 28>  H       -2.5748290900    -3.7652478829    -1.4107693955
| 29>  H       -3.1227501743    -2.7428856097    -2.7492202574
| 30>  H       -0.9817591615    -2.1418565413     0.2530035228
| 31>  H       -2.2939017359    -1.5977101761     1.3105687269
| 32> *
| 33>
| 34>                          ****END OF INPUT****

CARTESIAN COORDINATES (ANGSTROEM)
---------------------------------
  C      0.161235    1.588080   -1.176315
  C     -0.117311    0.236470   -0.509576
  C     -1.583892   -0.014525   -0.126700
  C     -2.095328    1.015867    0.882286
  C     -2.541269   -0.225651   -1.346584
  C     -2.869751   -1.676848   -0.866361
  C     -4.318334   -1.860429   -0.411590
  C     -2.479911   -2.769811   -1.861083
  C     -1.859035   -1.489958    0.312077
  H      1.205134    1.654228   -1.498614
  H     -0.467386    1.732836   -2.062031
  H     -0.025225    2.425552   -0.497314
  H      0.206394   -0.565727   -1.185576
  H      0.503226    0.137852    0.392239
  H     -2.098898    2.028070    0.464226
  H     -3.120564    0.788247    1.192056
  H     -1.472049    1.026207    1.784901
  H     -3.400756    0.450786   -1.382261
  H     -2.039289   -0.185635   -2.318284
  H     -5.007528   -1.811983   -1.263229
  H     -4.457359   -2.832870    0.075820
  H     -4.618723   -1.085994    0.302003
  H     -1.443950   -2.654737   -2.197384
  H     -2.574829   -3.765248   -1.410769
  H     -3.122750   -2.742886   -2.749220
  H     -0.981759   -2.141857    0.253004
  H     -2.293902   -1.597710    1.310569

 Total Charge           Charge          ....    0
 Multiplicity           Mult            ....    1
 Number of Electrons    NEL             ....   72
 Basis Dimension        Dim             ....  387

ORBITAL ENERGIES
----------------

  NO   OCC          E(Eh)            E(eV)
   0   2.0000     -11.226882      -305.4990
   1   2.0000     -11.225559      -305.4630
   2   2.0000     -11.214368      -305.1585
   3   2.0000     -11.208863      -305.0087
   4   2.0000     -11.208380      -304.9955
   5   2.0000     -11.208095      -304.9878
   6   2.0000     -11.207876      -304.9818
   7   2.0000     -11.207169      -304.9626
   8   2.0000     -11.206665      -304.9489
   9   2.0000      -1.142676       -31.0938
  10   2.0000      -1.049995       -28.5718
  11   2.0000      -0.985220       -26.8092
  12   2.0000      -0.932253       -25.3679
  13   2.0000      -0.925079       -25.1727
  14   2.0000      -0.897792       -24.4302
  15   2.0000      -0.852937       -23.2096
  16   2.0000      -0.741881       -20.1876
  17   2.0000      -0.699333       -19.0298
  18   2.0000      -0.631767       -17.1912
  19   2.0000      -0.627177       -17.0664
  20   2.0000      -0.606936       -16.5156
  21   2.0000      -0.592649       -16.1268
  22   2.0000      -0.571907       -15.5624
  23   2.0000      -0.566169       -15.4062
  24   2.0000      -0.547006       -14.8848
  25   2.0000      -0.540657       -14.7120
  26   2.0000      -0.529172       -14.3995
  27   2.0000      -0.520498       -14.1635
  28   2.0000      -0.508127       -13.8268
  29   2.0000      -0.498982       -13.5780
  30   2.0000      -0.485980       -13.2242
  31   2.0000      -0.460788       -12.5387
  32   2.0000      -0.435885       -11.8610
  33   2.0000      -0.430161       -11.7053
  34   2.0000      -0.410433       -11.1684
  35   2.0000      -0.395352       -10.7581
  36   0.0000       0.127944         3.4815
  37   0.0000       0.151813         4.1310
  38   0.0000       0.164207         4.4683
  39   0.0000       0.174081         4.7370
  40   0.0000       0.191517         5.2115

MULLIKEN ATOMIC CHARGES
-----------------------
   0 C :   -0.417788
   1 C :   -0.251652
   2 C :    0.213714
   3 C :   -0.468183
   4 C :   -0.311224
   5 C :    0.186791
   6 C :   -0.438855
   7 C :   -0.439247
   8 C :   -0.286633
   9 H :    0.135183
  10 H :    0.127730
  11 H :    0.129855
  12 H :    0.109121
  13 H :    0.111211
  14 H :    0.134480
  15 H :    0.129849
  16 H :    0.127831
  17 H :    0.112440
  18 H :    0.111345
  19 H :    0.126323
  20 H :    0.126828
  21 H :    0.126732
  22 H :    0.127098
  23 H :    0.127011
  24 H :    0.126762
  25 H :    0.109828
  26 H :    0.113451
Sum of atomic charges:   -0.0000000

LOEWDIN ATOMIC CHARGES
----------------------
   0 C :   -0.316528
   1 C :   -0.259416
   2 C :   -0.272131
   3 C :   -0.274734
   4 C :   -0.158514
   5 C :   -0.295106
   6 C :   -0.276752
   7 C :   -0.278467
   8 C :   -0.156846
   9 H :    0.121185
  10 H :    0.121457
  11 H :    0.119706
  12 H :    0.138565
  13 H :    0.138875
  14 H :    0.123984
  15 H :    0.123847
  16 H :    0.125754
  17 H :    0.132302
  18 H :    0.133747
  19 H :    0.124581
  20 H :    0.124615
  21 H :    0.122660
  22 H :    0.122730
  23 H :    0.124574
  24 H :    0.124522
  25 H :    0.133413
  26 H :    0.131979

  Mayer bond orders larger than 0.1
B(  0-C ,  1-C ) :   0.9184 B(  0-C ,  9-H ) :   0.9406 B(  0-C , 10-H ) :   0.9377
B(  0-C , 11-H ) :   0.9409 B(  1-C ,  2-C ) :   0.8859 B(  1-C , 12-H ) :   0.9330
B(  1-C , 13-H ) :   0.9352 B(  2-C ,  3-C ) :   0.8813 B(  2-C ,  4-C ) :   0.9181
B(  2-C ,  8-C ) :   0.9117 B(  3-C , 14-H ) :   0.9433 B(  3-C , 15-H ) :   0.9365
B(  3-C , 16-H ) :   0.9393 B(  4-C ,  5-C ) :   0.9230 B(  4-C , 17-H ) :   0.9137
B(  4-C , 18-H ) :   0.9041 B(  5-C ,  6-C ) :   0.8963 B(  5-C ,  7-C ) :   0.8827
B(  5-C ,  8-C ) :   0.9162 B(  6-C , 19-H ) :   0.9401 B(  6-C , 20-H ) :   0.9406
B(  6-C , 21-H ) :   0.9365 B(  7-C , 22-H ) :   0.9371 B(  7-C , 23-H ) :   0.9405
B(  7-C , 24-H ) :   0.9406 B(  8-C , 25-H ) :   0.9027 B(  8-C , 26-H ) :   0.9157

MP2 TOTAL ENERGY:     -352.918720998 Eh
FINAL SINGLE POINT ENERGY      -352.918720997508

DIPOLE MOMENT
-------------
                                X             Y             Z
Electronic contribution:     -0.13758      -1.00579       0.46628
Nuclear contribution   :      0.15824       1.00638      -0.46768
                        -----------------------------------------
Total Dipole Moment    :      0.02066       0.00058      -0.00140
                        -----------------------------------------
Magnitude (a.u.)       :      0.02072
Magnitude (Debye)      :      0.05266

                             ****ORCA TERMINATED NORMALLY****
TOTAL RUN TIME: 0 days 0 hours 24 minutes 48 seconds 704 msec
