                         Program Version 3.0.3 - RELEASE   -
|  1> ! RI-MP2 RIJK def2-TZVP def2-TZVP/C def2-TZVP/JK TIGHTSCF
|  2> % maxcore 2000
|  3> % mp2 density relaxed end
|  4> *xyz 0 1
|  5>  C       -0.0585071641     1.5930526791    -0.0708536867
|  6>  C       -0.0143089732     0.0653467152    -0.0179362144
|  7>  N        0.6880547548    -0.4393349923     1.1557420495
|  8>  C        2.0254376959    -0.6966690785     1.3160262875
|  9>  O        2.8628187596    -0.5091183690     0.2838301695
| 10>  N        2.3168445267    -1.1138390715     2.5079859874
| 11>  N        1.1036576574    -1.1411597774     3.2224528076
| 12>  C        0.1888896136    -0.7381377215     2.3975578617
| 13>  O       -1.1254109950    -0.5995402500     2.6325200994
| 14>  H        0.9523311609     2.0087305332    -0.1022137442
| 15>  H       -0.5936103843     1.9210182812    -0.9670364528
| 16>  H       -0.5743566630     1.9962467624     0.8049169929
| 17>  H       -1.0243060346    -0.3514370791     0.0069101576
| 18>  H        0.4934758013    -0.3384483878    -0.8975811699
| 19>  H        3.7408859115    -0.7658102926     0.5949180658
| 20>  H       -1.2703444576    -0.8810025415     3.5454286091
| 21> *
| 22>
| 23>                          ****END OF INPUT****

CARTESIAN COORDINATES (ANGSTROEM)
---------------------------------
  C     -0.058507    1.593053   -0.070854
  C     -0.014309    0.065347   -0.017936
  N      0.688055   -0.439335    1.155742
  C      2.025438   -0.696669    1.316026
  O      2.862819   -0.509118    0.283830
  N      2.316845   -1.113839    2.507986
  N      1.103658   -1.141160    3.222453
  C      0.188890   -0.738138    2.397558
  O     -1.125411   -0.599540    2.632520
  H      0.952331    2.008731   -0.102214
  H     -0.593610    1.921018   -0.967036
  H     -0.574357    1.996247    0.804917
  H     -1.024306   -0.351437    0.006910
  H      0.493476   -0.338448   -0.897581
  H      3.740886   -0.765810    0.594918
  H     -1.270344   -0.881003    3.545429

 Total Charge           Charge          ....    0
 Multiplicity           Mult            ....    1
 Number of Electrons    NEL             ....   68
 Basis Dimension        Dim             ....  321

ORBITAL ENERGIES
----------------

  NO   OCC          E(Eh)            E(eV)
   0   2.0000     -20.620933      -561.1241
   1   2.0000     -20.620908      -561.1234
   2   2.0000     -15.628853      -425.2827
   3   2.0000     -15.565002      -423.5452
   4   2.0000     -15.564447      -423.5301
   5   2.0000     -11.364107      -309.2331
   6   2.0000     -11.364064      -309.2319
   7   2.0000     -11.292993      -307.2980
   8   2.0000     -11.235805      -305.7418
   9   2.0000      -1.468171       -39.9510
  10   2.0000      -1.446469       -39.3604
  11   2.0000      -1.361813       -37.0568
  12   2.0000      -1.234380       -33.5892
  13   2.0000      -1.076133       -29.2831
  14   2.0000      -1.044664       -28.4267
  15   2.0000      -0.898608       -24.4524
  16   2.0000      -0.891395       -24.2561
  17   2.0000      -0.812583       -22.1115
  18   2.0000      -0.758805       -20.6481
  19   2.0000      -0.707236       -19.2449
  20   2.0000      -0.697426       -18.9779
  21   2.0000      -0.681763       -18.5517
  22   2.0000      -0.640583       -17.4312
  23   2.0000      -0.621599       -16.9146
  24   2.0000      -0.615626       -16.7520
  25   2.0000      -0.606696       -16.5090
  26   2.0000      -0.578599       -15.7445
  27   2.0000      -0.547034       -14.8856
  28   2.0000      -0.522703       -14.2235
  29   2.0000      -0.521831       -14.1997
  30   2.0000      -0.476985       -12.9794
  31   2.0000      -0.432331       -11.7643
  32   2.0000      -0.413501       -11.2519
  33   2.0000      -0.335672        -9.1341
  34   0.0000       0.125777         3.4226
  35   0.0000       0.140684         3.8282
  36   0.0000       0.153607         4.1799
  37   0.0000       0.172038         4.6814
  38   0.0000       0.195608         5.3228

MULLIKEN ATOMIC CHARGES
-----------------------
   0 C :   -0.405632
   1 C :   -0.148720
   2 N :   -0.102246
   3 C :    0.255958
   4 O :   -0.439695
   5 N :   -0.207191
   6 N :   -0.207409
   7 C :    0.255983
   8 O :   -0.439837
   9 H :    0.145536
  10 H :    0.136326
  11 H :    0.144925
  12 H :    0.150506
  13 H :    0.149646
  14 H :    0.355867
  15 H :    0.355982
Sum of atomic charges:   -0.0000000

LOEWDIN ATOMIC CHARGES
----------------------
   0 C :   -0.306992
   1 C :   -0.258448
   2 N :    0.258297
   3 C :   -0.484867
   4 O :    0.083294
   5 N :    0.007396
   6 N :    0.007334
   7 C :   -0.484885
   8 O :    0.083168
   9 H :    0.127474
  10 H :    0.127658
  11 H :    0.127402
  12 H :    0.144955
  13 H :    0.144794
  14 H :    0.211708
  15 H :    0.211713

  Mayer bond orders larger than 0.1
B(  0-C ,  1-C ) :   0.9249 B(  0-C ,  9-H ) :   0.9340 B(  0-C , 10-H ) :   0.9333
B(  0-C , 11-H ) :   0.9338 B(  1-C ,  2-N ) :   0.8555 B(  1-C , 12-H ) :   0.9235
B(  1-C , 13-H ) :   0.9239 B(  2-N ,  3-C ) :   1.1256 B(  2-N ,  7-C ) :   1.1260
B(  3-C ,  4-O ) :   1.0956 B(  3-C ,  5-N ) :   1.7049 B(  4-O , 14-H ) :   0.8100
B(  5-N ,  6-N ) :   0.9855 B(  6-N ,  7-C ) :   1.7044 B(  7-C ,  8-O ) :   1.0957
B(  8-O , 15-H ) :   0.8100

MP2 TOTAL ENERGY:     -470.485603283 Eh
FINAL SINGLE POINT ENERGY      -470.485603282540

DIPOLE MOMENT
-------------
                                X             Y             Z
Electronic contribution:      3.41878      -5.32834       5.67350
Nuclear contribution   :     -4.11194       5.85477      -6.83235
                        -----------------------------------------
Total Dipole Moment    :     -0.69316       0.52643      -1.15886
                        -----------------------------------------
Magnitude (a.u.)       :      1.44932
Magnitude (Debye)      :      3.68389

                             ****ORCA TERMINATED NORMALLY****
TOTAL RUN TIME: 0 days 0 hours 16 minutes 21 seconds 366 msec
