                         Program Version 3.0.3 - RELEASE   -
|  1> ! RI-MP2 RIJK def2-TZVP def2-TZVP/C def2-TZVP/JK TIGHTSCF
|  2> % maxcore 2000
|  3> % mp2 density relaxed end
|  4> *xyz 0 1
|  5>  C       -0.0371232832     1.5399164783     0.1430555787
|  6>  C       -0.0716751527     0.0034170113     0.0076637794
|  7>  C       -1.5436755868    -0.4464429937     0.0760233400
|  8>  C        0.5503772122    -0.3491253574    -1.3656510860
|  9>  C        0.6004735337    -1.8304427655    -1.7836703517
| 10>  C        1.5802156175    -2.6962759599    -1.0275994526
| 11>  C        1.6780149992    -2.8151260614     0.2962036671
| 12>  C        0.8303819452    -2.1098358089     1.3283315445
| 13>  C        0.7392704838    -0.5786774312     1.1912018341
| 14>  H        0.9904111762     1.9183407146     0.1011310876
| 15>  H       -0.6027354047     2.0205618027    -0.6628837817
| 16>  H       -0.4728822753     1.8627334910     1.0950946794
| 17>  H       -2.1261086090     0.0143635789    -0.7297901642
| 18>  H       -1.6636769948    -1.5292193942    -0.0123179510
| 19>  H       -1.9963318610    -0.1433426846     1.0268855696
| 20>  H       -0.0178712364     0.1939392119    -2.1326013389
| 21>  H        1.5709683036     0.0536471560    -1.3984862170
| 22>  H       -0.4061422959    -2.2665790660    -1.7176437940
| 23>  H        0.8568241303    -1.8650162856    -2.8481587715
| 24>  H        2.2565468791    -3.2895304715    -1.6397042262
| 25>  H        2.4285322080    -3.4985355935     0.6882781116
| 26>  H       -0.1807259500    -2.5405137995     1.3335501773
| 27>  H        1.2387068418    -2.3290915641     2.3209262743
| 28>  H        1.7589275650    -0.1747682809     1.1457345397
| 29>  H        0.2960565343    -0.1875657365     2.1167453515
| 30> *
| 31>
| 32>                          ****END OF INPUT****

CARTESIAN COORDINATES (ANGSTROEM)
---------------------------------
  C     -0.037123    1.539916    0.143056
  C     -0.071675    0.003417    0.007664
  C     -1.543676   -0.446443    0.076023
  C      0.550377   -0.349125   -1.365651
  C      0.600474   -1.830443   -1.783670
  C      1.580216   -2.696276   -1.027599
  C      1.678015   -2.815126    0.296204
  C      0.830382   -2.109836    1.328332
  C      0.739270   -0.578677    1.191202
  H      0.990411    1.918341    0.101131
  H     -0.602735    2.020562   -0.662884
  H     -0.472882    1.862733    1.095095
  H     -2.126109    0.014364   -0.729790
  H     -1.663677   -1.529219   -0.012318
  H     -1.996332   -0.143343    1.026886
  H     -0.017871    0.193939   -2.132601
  H      1.570968    0.053647   -1.398486
  H     -0.406142   -2.266579   -1.717644
  H      0.856824   -1.865016   -2.848159
  H      2.256547   -3.289530   -1.639704
  H      2.428532   -3.498536    0.688278
  H     -0.180726   -2.540514    1.333550
  H      1.238707   -2.329092    2.320926
  H      1.758928   -0.174768    1.145735
  H      0.296057   -0.187566    2.116745

 Total Charge           Charge          ....    0
 Multiplicity           Mult            ....    1
 Number of Electrons    NEL             ....   70
 Basis Dimension        Dim             ....  375

ORBITAL ENERGIES
----------------

  NO   OCC          E(Eh)            E(eV)
   0   2.0000     -11.230792      -305.6054
   1   2.0000     -11.219709      -305.3038
   2   2.0000     -11.219694      -305.3034
   3   2.0000     -11.217596      -305.2463
   4   2.0000     -11.215893      -305.2000
   5   2.0000     -11.215160      -305.1800
   6   2.0000     -11.215140      -305.1795
   7   2.0000     -11.208152      -304.9893
   8   2.0000     -11.207466      -304.9706
   9   2.0000      -1.121567       -30.5194
  10   2.0000      -1.061349       -28.8808
  11   2.0000      -1.024263       -27.8716
  12   2.0000      -0.946370       -25.7520
  13   2.0000      -0.927107       -25.2279
  14   2.0000      -0.870849       -23.6970
  15   2.0000      -0.845893       -23.0179
  16   2.0000      -0.719581       -19.5808
  17   2.0000      -0.703084       -19.1319
  18   2.0000      -0.657286       -17.8857
  19   2.0000      -0.621677       -16.9167
  20   2.0000      -0.621456       -16.9107
  21   2.0000      -0.598778       -16.2936
  22   2.0000      -0.568442       -15.4681
  23   2.0000      -0.560382       -15.2488
  24   2.0000      -0.536824       -14.6077
  25   2.0000      -0.527632       -14.3576
  26   2.0000      -0.517030       -14.0691
  27   2.0000      -0.514600       -14.0030
  28   2.0000      -0.498638       -13.5686
  29   2.0000      -0.488506       -13.2929
  30   2.0000      -0.448390       -12.2013
  31   2.0000      -0.447043       -12.1646
  32   2.0000      -0.437994       -11.9184
  33   2.0000      -0.432780       -11.7766
  34   2.0000      -0.339045        -9.2259
  35   0.0000       0.131936         3.5902
  36   0.0000       0.151241         4.1155
  37   0.0000       0.158054         4.3009
  38   0.0000       0.167285         4.5521
  39   0.0000       0.171623         4.6701

MULLIKEN ATOMIC CHARGES
-----------------------
   0 C :   -0.392909
   1 C :    0.091748
   2 C :   -0.454149
   3 C :   -0.221336
   4 C :   -0.205218
   5 C :   -0.186883
   6 C :   -0.186882
   7 C :   -0.205219
   8 C :   -0.221337
   9 H :    0.130013
  10 H :    0.128844
  11 H :    0.128844
  12 H :    0.132069
  13 H :    0.134621
  14 H :    0.132069
  15 H :    0.114149
  16 H :    0.111186
  17 H :    0.126623
  18 H :    0.130192
  19 H :    0.115713
  20 H :    0.115713
  21 H :    0.126623
  22 H :    0.130192
  23 H :    0.111186
  24 H :    0.114149
Sum of atomic charges:    0.0000000

LOEWDIN ATOMIC CHARGES
----------------------
   0 C :   -0.273440
   1 C :   -0.325814
   2 C :   -0.273023
   3 C :   -0.220007
   4 C :   -0.253042
   5 C :   -0.181262
   6 C :   -0.181262
   7 C :   -0.253043
   8 C :   -0.220007
   9 H :    0.124474
  10 H :    0.123744
  11 H :    0.123744
  12 H :    0.126627
  13 H :    0.119628
  14 H :    0.126627
  15 H :    0.142391
  16 H :    0.144135
  17 H :    0.146185
  18 H :    0.143332
  19 H :    0.141985
  20 H :    0.141985
  21 H :    0.146185
  22 H :    0.143332
  23 H :    0.144135
  24 H :    0.142391

  Mayer bond orders larger than 0.1
B(  0-C ,  1-C ) :   0.9103 B(  0-C ,  9-H ) :   0.9365 B(  0-C , 10-H ) :   0.9353
B(  0-C , 11-H ) :   0.9353 B(  1-C ,  2-C ) :   0.9045 B(  1-C ,  3-C ) :   0.9158
B(  1-C ,  8-C ) :   0.9158 B(  2-C , 12-H ) :   0.9347 B(  2-C , 13-H ) :   0.9361
B(  2-C , 14-H ) :   0.9347 B(  3-C ,  4-C ) :   0.9048 B(  3-C , 15-H ) :   0.9299
B(  3-C , 16-H ) :   0.9242 B(  4-C ,  5-C ) :   0.9258 B(  4-C , 17-H ) :   0.9300
B(  4-C , 18-H ) :   0.9355 B(  5-C ,  6-C ) :   1.8149 B(  5-C , 19-H ) :   0.9297
B(  6-C ,  7-C ) :   0.9258 B(  6-C , 20-H ) :   0.9297 B(  7-C ,  8-C ) :   0.9048
B(  7-C , 21-H ) :   0.9300 B(  7-C , 22-H ) :   0.9355 B(  8-C , 23-H ) :   0.9242
B(  8-C , 24-H ) :   0.9299

MP2 TOTAL ENERGY:     -351.727991037 Eh
FINAL SINGLE POINT ENERGY      -351.727991036783

DIPOLE MOMENT
-------------
                                X             Y             Z
Electronic contribution:      2.98728      -3.80905      -0.56267
Nuclear contribution   :     -3.07009       3.87110       0.57436
                        -----------------------------------------
Total Dipole Moment    :     -0.08281       0.06205       0.01169
                        -----------------------------------------
Magnitude (a.u.)       :      0.10413
Magnitude (Debye)      :      0.26468

                             ****ORCA TERMINATED NORMALLY****
TOTAL RUN TIME: 0 days 0 hours 23 minutes 50 seconds 107 msec
