                         Program Version 3.0.3 - RELEASE   -
|  1> ! RI-MP2 RIJK def2-TZVP def2-TZVP/C def2-TZVP/JK TIGHTSCF
|  2> % maxcore 2000
|  3> % mp2 density relaxed end
|  4> *xyz 0 1
|  5>  C       -0.3561114950     1.5225342091     0.4004710795
|  6>  C        0.0191054021     0.0488227724     0.3060152342
|  7>  C        0.5172089797    -0.6193364370    -0.9653130223
|  8>  C        2.0173693392    -0.6544952494    -0.9810790500
|  9>  C        2.5670535612    -0.0066564904     0.2807855194
| 10>  C        3.0246509264     1.4476096419     0.3605520842
| 11>  O        4.3831397533     1.5919797526    -0.0385695071
| 12>  C        1.2860212173    -0.5823991961     0.9339044456
| 13>  N        1.2516186326    -1.6773847211    -0.1905332669
| 14>  H        0.3849979961     2.1824361572    -0.0537009471
| 15>  H       -1.3099871046     1.7018925340    -0.1074468778
| 16>  H       -0.4819359820     1.8255255530     1.4458529716
| 17>  H       -0.8244853866    -0.5535772633     0.6650751315
| 18>  H       -0.0587996221    -0.8795902431    -1.8474442598
| 19>  H        2.5611875528    -0.9476071759    -1.8736732210
| 20>  H        3.4055726351    -0.6206161402     0.6309724256
| 21>  H        2.3782040434     2.1108079965    -0.2282242906
| 22>  H        2.9862214630     1.7915624035     1.4003232466
| 23>  H        4.4407809572     1.3668137590    -0.9724915673
| 24>  H        1.2934958011    -0.8878549728     1.9791750118
| 25> *
| 26>
| 27>                          ****END OF INPUT****

CARTESIAN COORDINATES (ANGSTROEM)
---------------------------------
  C     -0.356111    1.522534    0.400471
  C      0.019105    0.048823    0.306015
  C      0.517209   -0.619336   -0.965313
  C      2.017369   -0.654495   -0.981079
  C      2.567054   -0.006656    0.280786
  C      3.024651    1.447610    0.360552
  O      4.383140    1.591980   -0.038570
  C      1.286021   -0.582399    0.933904
  N      1.251619   -1.677385   -0.190533
  H      0.384998    2.182436   -0.053701
  H     -1.309987    1.701893   -0.107447
  H     -0.481936    1.825526    1.445853
  H     -0.824485   -0.553577    0.665075
  H     -0.058800   -0.879590   -1.847444
  H      2.561188   -0.947607   -1.873673
  H      3.405573   -0.620616    0.630972
  H      2.378204    2.110808   -0.228224
  H      2.986221    1.791562    1.400323
  H      4.440781    1.366814   -0.972492
  H      1.293496   -0.887855    1.979175

 Total Charge           Charge          ....    0
 Multiplicity           Mult            ....    1
 Number of Electrons    NEL             ....   68
 Basis Dimension        Dim             ....  345

ORBITAL ENERGIES
----------------

  NO   OCC          E(Eh)            E(eV)
   0   2.0000     -20.558978      -559.4382
   1   2.0000     -15.564000      -423.5180
   2   2.0000     -11.278794      -306.9116
   3   2.0000     -11.270917      -306.6972
   4   2.0000     -11.266102      -306.5662
   5   2.0000     -11.264798      -306.5307
   6   2.0000     -11.243938      -305.9631
   7   2.0000     -11.240207      -305.8616
   8   2.0000     -11.223686      -305.4120
   9   2.0000      -1.362605       -37.0784
  10   2.0000      -1.318784       -35.8859
  11   2.0000      -1.044490       -28.4220
  12   2.0000      -1.031509       -28.0688
  13   2.0000      -0.938426       -25.5359
  14   2.0000      -0.903938       -24.5974
  15   2.0000      -0.870415       -23.6852
  16   2.0000      -0.746599       -20.3160
  17   2.0000      -0.732369       -19.9288
  18   2.0000      -0.719158       -19.5693
  19   2.0000      -0.692270       -18.8376
  20   2.0000      -0.626848       -17.0574
  21   2.0000      -0.614917       -16.7327
  22   2.0000      -0.593471       -16.1492
  23   2.0000      -0.579395       -15.7661
  24   2.0000      -0.570324       -15.5193
  25   2.0000      -0.542075       -14.7506
  26   2.0000      -0.526272       -14.3206
  27   2.0000      -0.504519       -13.7287
  28   2.0000      -0.489723       -13.3260
  29   2.0000      -0.458543       -12.4776
  30   2.0000      -0.446682       -12.1548
  31   2.0000      -0.432877       -11.7792
  32   2.0000      -0.407844       -11.0980
  33   2.0000      -0.377594       -10.2749
  34   0.0000       0.124980         3.4009
  35   0.0000       0.136341         3.7100
  36   0.0000       0.159836         4.3494
  37   0.0000       0.170941         4.6515
  38   0.0000       0.186043         5.0625

MULLIKEN ATOMIC CHARGES
-----------------------
   0 C :   -0.401395
   1 C :   -0.036981
   2 C :   -0.127805
   3 C :   -0.126291
   4 C :   -0.137375
   5 C :   -0.033327
   6 O :   -0.468784
   7 C :   -0.005145
   8 N :   -0.211355
   9 H :    0.115729
  10 H :    0.137054
  11 H :    0.134598
  12 H :    0.102424
  13 H :    0.131590
  14 H :    0.135425
  15 H :    0.111898
  16 H :    0.106449
  17 H :    0.119675
  18 H :    0.313709
  19 H :    0.139908
Sum of atomic charges:   -0.0000000

LOEWDIN ATOMIC CHARGES
----------------------
   0 C :   -0.294870
   1 C :   -0.237742
   2 C :   -0.196765
   3 C :   -0.202632
   4 C :   -0.227266
   5 C :   -0.325693
   6 O :   -0.049598
   7 C :   -0.143329
   8 N :    0.147869
   9 H :    0.118308
  10 H :    0.127407
  11 H :    0.127588
  12 H :    0.164304
  13 H :    0.135750
  14 H :    0.134447
  15 H :    0.168656
  16 H :    0.115724
  17 H :    0.133237
  18 H :    0.173166
  19 H :    0.131440

  Mayer bond orders larger than 0.1
B(  0-C ,  1-C ) :   0.9062 B(  0-C ,  9-H ) :   0.9346 B(  0-C , 10-H ) :   0.9353
B(  0-C , 11-H ) :   0.9341 B(  1-C ,  2-C ) :   0.9482 B(  1-C ,  7-C ) :   0.9282
B(  1-C , 12-H ) :   0.9125 B(  2-C ,  3-C ) :   0.9064 B(  2-C ,  8-N ) :   0.8921
B(  2-C , 13-H ) :   0.9151 B(  3-C ,  4-C ) :   0.9414 B(  3-C ,  8-N ) :   0.9029
B(  3-C , 14-H ) :   0.9078 B(  4-C ,  5-C ) :   0.9120 B(  4-C ,  7-C ) :   0.9040
B(  4-C , 15-H ) :   0.9209 B(  5-C ,  6-O ) :   0.9097 B(  5-C , 16-H ) :   0.9313
B(  5-C , 17-H ) :   0.9231 B(  6-O , 18-H ) :   0.8487 B(  7-C ,  8-N ) :   0.9454
B(  7-C , 19-H ) :   0.9039

MP2 TOTAL ENERGY:     -402.394477764 Eh
FINAL SINGLE POINT ENERGY      -402.394477763826

DIPOLE MOMENT
-------------
                                X             Y             Z
Electronic contribution:      3.00679      -4.26891      -1.15282
Nuclear contribution   :     -3.54274       4.76519       0.82485
                        -----------------------------------------
Total Dipole Moment    :     -0.53596       0.49628      -0.32797
                        -----------------------------------------
Magnitude (a.u.)       :      0.80069
Magnitude (Debye)      :      2.03520

                             ****ORCA TERMINATED NORMALLY****
TOTAL RUN TIME: 0 days 0 hours 19 minutes 12 seconds 805 msec
