                         Program Version 3.0.3 - RELEASE   -
|  1> ! RI-MP2 RIJK def2-TZVP def2-TZVP/C def2-TZVP/JK TIGHTSCF
|  2> % maxcore 2000
|  3> % mp2 density relaxed end
|  4> *xyz 0 1
|  5>  C       -0.2173851120     1.5481011959     0.0370726847
|  6>  C       -0.0187165056     0.0277017976     0.0020561413
|  7>  C        0.5650058361    -0.5326198529    -1.3307940958
|  8>  C        1.8117220589    -1.3997723775    -0.9841727507
|  9>  C        3.1209620298    -0.6064058096    -1.1816467849
| 10>  C        3.1630414349     0.3598338132     0.0271230010
| 11>  C        2.3886068677    -0.3796906448     1.1228059340
| 12>  C        0.8735288049    -0.5470951639     1.0980795099
| 13>  C        1.7579874684    -1.6286060946     0.5432097567
| 14>  H        0.7201093229     2.0884311920    -0.1243342529
| 15>  H       -0.9232602052     1.8680383954    -0.7373033974
| 16>  H       -0.6202782796     1.8679949155     1.0041422853
| 17>  H       -1.0082650449    -0.4235254321     0.1524369978
| 18>  H       -0.1888128788    -1.1378925867    -1.8430455061
| 19>  H        0.8311884264     0.2755715295    -2.0209573953
| 20>  H        1.8159581914    -2.3337754667    -1.5509767440
| 21>  H        3.9739358319    -1.2925763056    -1.1251420860
| 22>  H        3.1726634358    -0.0978034017    -2.1503286956
| 23>  H        4.1892937008     0.5599187382     0.3496167623
| 24>  H        2.7221641885     1.3308255054    -0.2184291517
| 25>  H        2.8303077626    -0.4135906769     2.1133510059
| 26>  H        0.4184104460    -0.6766584708     2.0764374151
| 27>  H        1.8605494891    -2.6161108189     0.9769141264
| 28> *
| 29>
| 30>                          ****END OF INPUT****

CARTESIAN COORDINATES (ANGSTROEM)
---------------------------------
  C     -0.217385    1.548101    0.037073
  C     -0.018717    0.027702    0.002056
  C      0.565006   -0.532620   -1.330794
  C      1.811722   -1.399772   -0.984173
  C      3.120962   -0.606406   -1.181647
  C      3.163041    0.359834    0.027123
  C      2.388607   -0.379691    1.122806
  C      0.873529   -0.547095    1.098080
  C      1.757987   -1.628606    0.543210
  H      0.720109    2.088431   -0.124334
  H     -0.923260    1.868038   -0.737303
  H     -0.620278    1.867995    1.004142
  H     -1.008265   -0.423525    0.152437
  H     -0.188813   -1.137893   -1.843046
  H      0.831188    0.275572   -2.020957
  H      1.815958   -2.333775   -1.550977
  H      3.973936   -1.292576   -1.125142
  H      3.172663   -0.097803   -2.150329
  H      4.189294    0.559919    0.349617
  H      2.722164    1.330826   -0.218429
  H      2.830308   -0.413591    2.113351
  H      0.418410   -0.676658    2.076437
  H      1.860549   -2.616111    0.976914

 Total Charge           Charge          ....    0
 Multiplicity           Mult            ....    1
 Number of Electrons    NEL             ....   68
 Basis Dimension        Dim             ....  363

ORBITAL ENERGIES
----------------

  NO   OCC          E(Eh)            E(eV)
   0   2.0000     -11.221804      -305.3608
   1   2.0000     -11.220497      -305.3252
   2   2.0000     -11.219945      -305.3102
   3   2.0000     -11.219567      -305.2999
   4   2.0000     -11.214405      -305.1595
   5   2.0000     -11.213601      -305.1376
   6   2.0000     -11.211208      -305.0725
   7   2.0000     -11.210533      -305.0541
   8   2.0000     -11.206935      -304.9562
   9   2.0000      -1.182528       -32.1782
  10   2.0000      -1.045652       -28.4536
  11   2.0000      -1.028325       -27.9821
  12   2.0000      -0.971097       -26.4249
  13   2.0000      -0.889310       -24.1993
  14   2.0000      -0.847222       -23.0541
  15   2.0000      -0.776077       -21.1181
  16   2.0000      -0.735436       -20.0122
  17   2.0000      -0.721959       -19.6455
  18   2.0000      -0.694260       -18.8918
  19   2.0000      -0.611686       -16.6448
  20   2.0000      -0.593737       -16.1564
  21   2.0000      -0.590718       -16.0743
  22   2.0000      -0.567334       -15.4380
  23   2.0000      -0.559097       -15.2138
  24   2.0000      -0.542042       -14.7497
  25   2.0000      -0.503551       -13.7023
  26   2.0000      -0.489648       -13.3240
  27   2.0000      -0.488408       -13.2902
  28   2.0000      -0.459866       -12.5136
  29   2.0000      -0.446197       -12.1416
  30   2.0000      -0.438478       -11.9316
  31   2.0000      -0.435677       -11.8554
  32   2.0000      -0.383845       -10.4450
  33   2.0000      -0.378879       -10.3098
  34   0.0000       0.135096         3.6761
  35   0.0000       0.156187         4.2501
  36   0.0000       0.162539         4.4229
  37   0.0000       0.170129         4.6294
  38   0.0000       0.190645         5.1877

MULLIKEN ATOMIC CHARGES
-----------------------
   0 C :   -0.416965
   1 C :   -0.003440
   2 C :   -0.295268
   3 C :    0.052675
   4 C :   -0.280821
   5 C :   -0.222433
   6 C :   -0.136122
   7 C :   -0.155158
   8 C :   -0.155271
   9 H :    0.114498
  10 H :    0.130473
  11 H :    0.127553
  12 H :    0.084264
  13 H :    0.122652
  14 H :    0.110906
  15 H :    0.106816
  16 H :    0.113005
  17 H :    0.112565
  18 H :    0.119243
  19 H :    0.107776
  20 H :    0.119171
  21 H :    0.114507
  22 H :    0.129372
Sum of atomic charges:   -0.0000000

LOEWDIN ATOMIC CHARGES
----------------------
   0 C :   -0.295634
   1 C :   -0.247254
   2 C :   -0.195403
   3 C :   -0.205923
   4 C :   -0.231663
   5 C :   -0.233347
   6 C :   -0.171427
   7 C :   -0.162728
   8 C :   -0.152724
   9 H :    0.118325
  10 H :    0.121867
  11 H :    0.123018
  12 H :    0.154061
  13 H :    0.134976
  14 H :    0.137957
  15 H :    0.145588
  16 H :    0.136751
  17 H :    0.129508
  18 H :    0.136211
  19 H :    0.131493
  20 H :    0.143939
  21 H :    0.146450
  22 H :    0.135959

  Mayer bond orders larger than 0.1
B(  0-C ,  1-C ) :   0.8892 B(  0-C ,  9-H ) :   0.9366 B(  0-C , 10-H ) :   0.9411
B(  0-C , 11-H ) :   0.9407 B(  1-C ,  2-C ) :   0.9481 B(  1-C ,  7-C ) :   0.9196
B(  1-C , 12-H ) :   0.9265 B(  2-C ,  3-C ) :   0.9338 B(  2-C , 13-H ) :   0.9240
B(  2-C , 14-H ) :   0.9305 B(  3-C ,  4-C ) :   0.8969 B(  3-C ,  8-C ) :   0.8843
B(  3-C , 15-H ) :   0.9262 B(  4-C ,  5-C ) :   0.9640 B(  4-C , 16-H ) :   0.9277
B(  4-C , 17-H ) :   0.9305 B(  5-C ,  6-C ) :   0.9209 B(  5-C , 18-H ) :   0.9312
B(  5-C , 19-H ) :   0.9289 B(  6-C ,  7-C ) :   0.8906 B(  6-C ,  8-C ) :   0.8706
B(  6-C , 20-H ) :   0.9284 B(  7-C ,  8-C ) :   0.8947 B(  7-C , 21-H ) :   0.9281
B(  8-C , 22-H ) :   0.9147

MP2 TOTAL ENERGY:     -350.526498427 Eh
FINAL SINGLE POINT ENERGY      -350.526498427205

DIPOLE MOMENT
-------------
                                X             Y             Z
Electronic contribution:      0.91190      -3.33514       1.71635
Nuclear contribution   :     -0.92950       3.24647      -1.71048
                        -----------------------------------------
Total Dipole Moment    :     -0.01760      -0.08867       0.00587
                        -----------------------------------------
Magnitude (a.u.)       :      0.09059
Magnitude (Debye)      :      0.23027

                             ****ORCA TERMINATED NORMALLY****
TOTAL RUN TIME: 0 days 0 hours 22 minutes 59 seconds 26 msec
