                         Program Version 3.0.3 - RELEASE   -
|  1> ! RI-MP2 RIJK def2-TZVP def2-TZVP/C def2-TZVP/JK TIGHTSCF
|  2> % maxcore 2000
|  3> % mp2 density relaxed end
|  4> *xyz 0 1
|  5>  C        0.1690723669     1.5579660732    -0.0576368469
|  6>  C        0.0134903834     0.0775021516    -0.0957487047
|  7>  C        0.7586769936    -0.9960710714    -0.8109263005
|  8>  C       -0.4117303607    -1.9917233559    -0.6532535443
|  9>  C       -0.2851073270    -1.8255158704     0.8119841698
| 10>  N        0.8929374859    -0.8694329180     0.6884851272
| 11>  C       -1.2133068283    -0.8600482425     0.0707594074
| 12>  C       -2.6623156965    -0.7594499829     0.1696164671
| 13>  O       -3.3939450887    -1.7157132547     0.3221019654
| 14>  H        1.2303690033     1.8203175936    -0.1036425718
| 15>  H       -0.3411278040     2.0320224339    -0.9030887961
| 16>  H       -0.2426668066     1.9727380526     0.8689083064
| 17>  H        1.6132056964    -0.9616521910    -1.4757949944
| 18>  H       -0.8420614150    -2.7757579517    -1.2590590590
| 19>  H       -0.5105150452    -2.4602360455     1.6588550216
| 20>  H       -3.0704511175     0.2738567191     0.1018897228
| 21> *
| 22>
| 23>                          ****END OF INPUT****

CARTESIAN COORDINATES (ANGSTROEM)
---------------------------------
  C      0.169072    1.557966   -0.057637
  C      0.013490    0.077502   -0.095749
  C      0.758677   -0.996071   -0.810926
  C     -0.411730   -1.991723   -0.653254
  C     -0.285107   -1.825516    0.811984
  N      0.892937   -0.869433    0.688485
  C     -1.213307   -0.860048    0.070759
  C     -2.662316   -0.759450    0.169616
  O     -3.393945   -1.715713    0.322102
  H      1.230369    1.820318   -0.103643
  H     -0.341128    2.032022   -0.903089
  H     -0.242667    1.972738    0.868908
  H      1.613206   -0.961652   -1.475795
  H     -0.842061   -2.775758   -1.259059
  H     -0.510515   -2.460236    1.658855
  H     -3.070451    0.273857    0.101890

 Total Charge           Charge          ....    0
 Multiplicity           Mult            ....    1
 Number of Electrons    NEL             ....   64
 Basis Dimension        Dim             ....  321

ORBITAL ENERGIES
----------------

  NO   OCC          E(Eh)            E(eV)
   0   2.0000     -20.550124      -559.1973
   1   2.0000     -15.575637      -423.8346
   2   2.0000     -11.339615      -308.5666
   3   2.0000     -11.293957      -307.3242
   4   2.0000     -11.292384      -307.2814
   5   2.0000     -11.283148      -307.0301
   6   2.0000     -11.272191      -306.7319
   7   2.0000     -11.260438      -306.4121
   8   2.0000     -11.240760      -305.8766
   9   2.0000      -1.389811       -37.8187
  10   2.0000      -1.360488       -37.0208
  11   2.0000      -1.088976       -29.6325
  12   2.0000      -1.023775       -27.8583
  13   2.0000      -0.940512       -25.5926
  14   2.0000      -0.927488       -25.2382
  15   2.0000      -0.838340       -22.8124
  16   2.0000      -0.749311       -20.3898
  17   2.0000      -0.724909       -19.7258
  18   2.0000      -0.709339       -19.3021
  19   2.0000      -0.660315       -17.9681
  20   2.0000      -0.626334       -17.0434
  21   2.0000      -0.617390       -16.8000
  22   2.0000      -0.588970       -16.0267
  23   2.0000      -0.580781       -15.8039
  24   2.0000      -0.565738       -15.3945
  25   2.0000      -0.551043       -14.9946
  26   2.0000      -0.498862       -13.5747
  27   2.0000      -0.469054       -12.7636
  28   2.0000      -0.446911       -12.1611
  29   2.0000      -0.428663       -11.6645
  30   2.0000      -0.388267       -10.5653
  31   2.0000      -0.344883        -9.3848
  32   0.0000       0.107898         2.9361
  33   0.0000       0.131280         3.5723
  34   0.0000       0.164684         4.4813
  35   0.0000       0.169628         4.6158
  36   0.0000       0.172935         4.7058

MULLIKEN ATOMIC CHARGES
-----------------------
   0 C :   -0.430255
   1 C :    0.120503
   2 C :   -0.128974
   3 C :   -0.074822
   4 C :   -0.061293
   5 N :   -0.178976
   6 C :   -0.009321
   7 C :    0.058498
   8 O :   -0.296963
   9 H :    0.150519
  10 H :    0.144007
  11 H :    0.144261
  12 H :    0.151036
  13 H :    0.167503
  14 H :    0.159788
  15 H :    0.084489
Sum of atomic charges:   -0.0000000

LOEWDIN ATOMIC CHARGES
----------------------
   0 C :   -0.268434
   1 C :   -0.199214
   2 C :   -0.136460
   3 C :   -0.086094
   4 C :   -0.114236
   5 N :    0.158003
   6 C :   -0.130352
   7 C :   -0.285600
   8 O :    0.113946
   9 H :    0.140825
  10 H :    0.133604
  11 H :    0.134914
  12 H :    0.134747
  13 H :    0.145723
  14 H :    0.141581
  15 H :    0.117047

  Mayer bond orders larger than 0.1
B(  0-C ,  1-C ) :   0.8164 B(  0-C ,  9-H ) :   0.9390 B(  0-C , 10-H ) :   0.9476
B(  0-C , 11-H ) :   0.9435 B(  1-C ,  2-C ) :   0.9782 B(  1-C ,  5-N ) :   0.8647
B(  1-C ,  6-C ) :   0.8829 B(  2-C ,  3-C ) :   0.8908 B(  2-C ,  5-N ) :   0.9767
B(  2-C , 12-H ) :   0.9024 B(  3-C ,  4-C ) :   0.9564 B(  3-C ,  6-C ) :   0.7271
B(  3-C , 13-H ) :   0.9009 B(  4-C ,  5-N ) :   0.9800 B(  4-C ,  6-C ) :   0.8374
B(  4-C , 14-H ) :   0.9016 B(  6-C ,  7-C ) :   0.8330 B(  6-C ,  8-O ) :  -0.1034
B(  6-C , 15-H ) :  -0.1015 B(  7-C ,  8-O ) :   1.9720 B(  7-C , 15-H ) :   0.9796

MP2 TOTAL ENERGY:     -399.938662821 Eh
FINAL SINGLE POINT ENERGY      -399.938662820601

DIPOLE MOMENT
-------------
                                X             Y             Z
Electronic contribution:     -2.16729      -4.56354       0.79035
Nuclear contribution   :      2.68822       5.17102      -1.40917
                        -----------------------------------------
Total Dipole Moment    :      0.52093       0.60748      -0.61882
                        -----------------------------------------
Magnitude (a.u.)       :      1.01160
Magnitude (Debye)      :      2.57128

                             ****ORCA TERMINATED NORMALLY****
TOTAL RUN TIME: 0 days 0 hours 17 minutes 49 seconds 993 msec
