                         Program Version 3.0.3 - RELEASE   -
|  1> ! RI-MP2 RIJK def2-TZVP def2-TZVP/C def2-TZVP/JK TIGHTSCF
|  2> % maxcore 2000
|  3> % mp2 density relaxed end
|  4> *xyz 0 1
|  5>  O       -0.0203335859     0.0125645211    -0.3524517555
|  6>  C        0.0236421004     1.1791085545    -0.1023601044
|  7>  O       -1.1037023193     1.9289167462     0.1348152399
|  8>  C       -0.7071342936     3.2853089950     0.4337119213
|  9>  C        0.6024948785     3.4472603954    -0.3454079628
| 10>  C        1.2336003077     2.1062016560     0.0490754861
| 11>  C        1.6102078254     2.1915343212     1.5485627795
| 12>  C        0.3607667587     2.4922795695     2.3972439419
| 13>  O       -0.5102597694     3.4657094643     1.8067567037
| 14>  H       -1.5296074580     3.9385052805     0.1439346045
| 15>  H        0.4101135277     3.5149385918    -1.4197540272
| 16>  H        1.1638045169     4.3239312188    -0.0183278896
| 17>  H        2.0658857756     1.7655332989    -0.5654773543
| 18>  H        2.0569024796     1.2545891592     1.8957195733
| 19>  H        2.3580935843     2.9824840190     1.6686579264
| 20>  H       -0.2040480379     1.5658567440     2.5628719940
| 21>  H        0.6339844694     2.8953165946     3.3747485131
| 22> *
| 23>
| 24>                          ****END OF INPUT****

CARTESIAN COORDINATES (ANGSTROEM)
---------------------------------
  O     -0.020334    0.012565   -0.352452
  C      0.023642    1.179109   -0.102360
  O     -1.103702    1.928917    0.134815
  C     -0.707134    3.285309    0.433712
  C      0.602495    3.447260   -0.345408
  C      1.233600    2.106202    0.049075
  C      1.610208    2.191534    1.548563
  C      0.360767    2.492280    2.397244
  O     -0.510260    3.465709    1.806757
  H     -1.529607    3.938505    0.143935
  H      0.410114    3.514939   -1.419754
  H      1.163805    4.323931   -0.018328
  H      2.065886    1.765533   -0.565477
  H      2.056902    1.254589    1.895720
  H      2.358094    2.982484    1.668658
  H     -0.204048    1.565857    2.562872
  H      0.633984    2.895317    3.374749

 Total Charge           Charge          ....    0
 Multiplicity           Mult            ....    1
 Number of Electrons    NEL             ....   68
 Basis Dimension        Dim             ....  327

ORBITAL ENERGIES
----------------

  NO   OCC          E(Eh)            E(eV)
   0   2.0000     -20.603839      -560.6589
   1   2.0000     -20.578327      -559.9647
   2   2.0000     -20.549954      -559.1927
   3   2.0000     -11.382148      -309.7240
   4   2.0000     -11.358145      -309.0708
   5   2.0000     -11.295150      -307.3567
   6   2.0000     -11.268255      -306.6248
   7   2.0000     -11.255379      -306.2744
   8   2.0000     -11.252814      -306.2046
   9   2.0000      -1.473935       -40.1078
  10   2.0000      -1.405783       -38.2533
  11   2.0000      -1.358112       -36.9561
  12   2.0000      -1.124166       -30.5901
  13   2.0000      -1.049486       -28.5580
  14   2.0000      -0.936044       -25.4711
  15   2.0000      -0.899998       -24.4902
  16   2.0000      -0.819284       -22.2938
  17   2.0000      -0.782829       -21.3019
  18   2.0000      -0.733398       -19.9568
  19   2.0000      -0.700517       -19.0620
  20   2.0000      -0.661409       -17.9979
  21   2.0000      -0.659499       -17.9459
  22   2.0000      -0.617881       -16.8134
  23   2.0000      -0.613282       -16.6883
  24   2.0000      -0.604531       -16.4501
  25   2.0000      -0.583371       -15.8743
  26   2.0000      -0.576920       -15.6988
  27   2.0000      -0.560545       -15.2532
  28   2.0000      -0.524664       -14.2768
  29   2.0000      -0.497446       -13.5362
  30   2.0000      -0.486996       -13.2518
  31   2.0000      -0.470611       -12.8060
  32   2.0000      -0.438528       -11.9329
  33   2.0000      -0.435395       -11.8477
  34   0.0000       0.123935         3.3724
  35   0.0000       0.148309         4.0357
  36   0.0000       0.163119         4.4387
  37   0.0000       0.168133         4.5751
  38   0.0000       0.173413         4.7188

MULLIKEN ATOMIC CHARGES
-----------------------
   0 O :   -0.264279
   1 C :    0.193046
   2 O :   -0.234954
   3 C :    0.203679
   4 C :   -0.303525
   5 C :    0.012615
   6 C :   -0.283468
   7 C :   -0.110546
   8 O :   -0.301277
   9 H :    0.135363
  10 H :    0.139222
  11 H :    0.133095
  12 H :    0.139680
  13 H :    0.144560
  14 H :    0.123993
  15 H :    0.136071
  16 H :    0.136726
Sum of atomic charges:   -0.0000000

LOEWDIN ATOMIC CHARGES
----------------------
   0 O :    0.152897
   1 C :   -0.438344
   2 O :    0.261404
   3 C :   -0.357327
   4 C :   -0.210836
   5 C :   -0.214789
   6 C :   -0.230714
   7 C :   -0.290698
   8 O :    0.180512
   9 H :    0.140841
  10 H :    0.146842
  11 H :    0.144477
  12 H :    0.158555
  13 H :    0.149022
  14 H :    0.143205
  15 H :    0.131946
  16 H :    0.133006

  Mayer bond orders larger than 0.1
B(  0-O ,  1-C ) :   2.0580 B(  1-C ,  2-O ) :   1.0737 B(  1-C ,  5-C ) :   0.8954
B(  2-O ,  3-C ) :   0.8740 B(  3-C ,  4-C ) :   0.9498 B(  3-C ,  8-O ) :   1.0038
B(  3-C ,  9-H ) :   0.9324 B(  4-C ,  5-C ) :   0.9071 B(  4-C , 10-H ) :   0.9154
B(  4-C , 11-H ) :   0.9253 B(  5-C ,  6-C ) :   0.8883 B(  5-C , 12-H ) :   0.9155
B(  6-C ,  7-C ) :   0.9537 B(  6-C , 13-H ) :   0.9201 B(  6-C , 14-H ) :   0.9198
B(  7-C ,  8-O ) :   0.9004 B(  7-C , 15-H ) :   0.9377 B(  7-C , 16-H ) :   0.9234

MP2 TOTAL ENERGY:     -458.289178108 Eh
FINAL SINGLE POINT ENERGY      -458.289178108358

DIPOLE MOMENT
-------------
                                X             Y             Z
Electronic contribution:     -4.43028      -3.02442      -2.25846
Nuclear contribution   :      5.41788       4.12261       2.42398
                        -----------------------------------------
Total Dipole Moment    :      0.98760       1.09819       0.16552
                        -----------------------------------------
Magnitude (a.u.)       :      1.48620
Magnitude (Debye)      :      3.77761

                             ****ORCA TERMINATED NORMALLY****
TOTAL RUN TIME: 0 days 0 hours 17 minutes 19 seconds 411 msec
