                         Program Version 3.0.3 - RELEASE   -
|  1> ! RI-MP2 RIJK def2-TZVP def2-TZVP/C def2-TZVP/JK TIGHTSCF
|  2> % maxcore 2000
|  3> % mp2 density relaxed end
|  4> *xyz 0 1
|  5>  O       -0.1235856856     1.4928274889    -0.4958721888
|  6>  C       -0.1119413812     0.1052427959    -0.1869495370
|  7>  C       -1.5079886088    -0.4065061293     0.1623328046
|  8>  N       -2.4379752881    -0.0755550618    -0.8964988108
|  9>  C       -3.4046043434    -0.9074428718    -1.3328577816
| 10>  O       -3.6576732425    -2.0208239451    -0.9042504074
| 11>  C       -4.2241842073    -0.3222649742    -2.4871362129
| 12>  O       -4.0391916977     0.7728146596    -2.9516199652
| 13>  H       -0.2738540519     1.9815809067     0.3202679622
| 14>  H        0.2515260284    -0.3951463616    -1.0897997334
| 15>  H        0.5833548200    -0.1262528010     0.6321859511
| 16>  H       -1.5125798581    -1.4925748357     0.2909268905
| 17>  H       -1.8368178245     0.0358798376     1.1153339895
| 18>  H       -2.3381560898     0.8171468401    -1.3614551544
| 19>  H       -5.0088576895    -1.0172429483    -2.8464701465
| 20> *
| 21>
| 22>                          ****END OF INPUT****

CARTESIAN COORDINATES (ANGSTROEM)
---------------------------------
  O     -0.123586    1.492827   -0.495872
  C     -0.111941    0.105243   -0.186950
  C     -1.507989   -0.406506    0.162333
  N     -2.437975   -0.075555   -0.896499
  C     -3.404604   -0.907443   -1.332858
  O     -3.657673   -2.020824   -0.904250
  C     -4.224184   -0.322265   -2.487136
  O     -4.039192    0.772815   -2.951620
  H     -0.273854    1.981581    0.320268
  H      0.251526   -0.395146   -1.089800
  H      0.583355   -0.126253    0.632186
  H     -1.512580   -1.492575    0.290927
  H     -1.836818    0.035880    1.115334
  H     -2.338156    0.817147   -1.361455
  H     -5.008858   -1.017243   -2.846470

 Total Charge           Charge          ....    0
 Multiplicity           Mult            ....    1
 Number of Electrons    NEL             ....   62
 Basis Dimension        Dim             ....  290

ORBITAL ENERGIES
----------------

  NO   OCC          E(Eh)            E(eV)
   0   2.0000     -20.594420      -560.4027
   1   2.0000     -20.577913      -559.9535
   2   2.0000     -20.542869      -558.9999
   3   2.0000     -15.598287      -424.4510
   4   2.0000     -11.367626      -309.3288
   5   2.0000     -11.357355      -309.0494
   6   2.0000     -11.296959      -307.4059
   7   2.0000     -11.280269      -306.9517
   8   2.0000      -1.433703       -39.0131
   9   2.0000      -1.398215       -38.0474
  10   2.0000      -1.382391       -37.6168
  11   2.0000      -1.250777       -34.0354
  12   2.0000      -1.033793       -28.1309
  13   2.0000      -0.934927       -25.4406
  14   2.0000      -0.865692       -23.5567
  15   2.0000      -0.803785       -21.8721
  16   2.0000      -0.742856       -20.2141
  17   2.0000      -0.707276       -19.2459
  18   2.0000      -0.688380       -18.7318
  19   2.0000      -0.663792       -18.0627
  20   2.0000      -0.649003       -17.6603
  21   2.0000      -0.625450       -17.0194
  22   2.0000      -0.609390       -16.5823
  23   2.0000      -0.598225       -16.2785
  24   2.0000      -0.557684       -15.1753
  25   2.0000      -0.530049       -14.4234
  26   2.0000      -0.512259       -13.9393
  27   2.0000      -0.508763       -13.8442
  28   2.0000      -0.475982       -12.9521
  29   2.0000      -0.427403       -11.6302
  30   2.0000      -0.405273       -11.0280
  31   0.0000       0.069502         1.8912
  32   0.0000       0.119689         3.2569
  33   0.0000       0.160351         4.3634
  34   0.0000       0.175948         4.7878
  35   0.0000       0.179559         4.8860

MULLIKEN ATOMIC CHARGES
-----------------------
   0 O :   -0.481503
   1 C :   -0.034629
   2 C :   -0.177126
   3 N :   -0.284623
   4 C :    0.261908
   5 O :   -0.367543
   6 C :    0.109197
   7 O :   -0.266107
   8 H :    0.321728
   9 H :    0.122559
  10 H :    0.117903
  11 H :    0.158606
  12 H :    0.129792
  13 H :    0.270666
  14 H :    0.119174
Sum of atomic charges:   -0.0000000

LOEWDIN ATOMIC CHARGES
----------------------
   0 O :   -0.049609
   1 C :   -0.346074
   2 C :   -0.286304
   3 N :    0.133390
   4 C :   -0.480432
   5 O :    0.089885
   6 C :   -0.243440
   7 O :    0.146135
   8 H :    0.176362
   9 H :    0.132981
  10 H :    0.121932
  11 H :    0.150386
  12 H :    0.132301
  13 H :    0.198277
  14 H :    0.124211

  Mayer bond orders larger than 0.1
B(  0-O ,  1-C ) :   0.9026 B(  0-O ,  8-H ) :   0.8432 B(  1-C ,  2-C ) :   0.9463
B(  1-C ,  9-H ) :   0.9264 B(  1-C , 10-H ) :   0.9321 B(  2-C ,  3-N ) :   0.8242
B(  2-C , 11-H ) :   0.9234 B(  2-C , 12-H ) :   0.9272 B(  3-N ,  4-C ) :   1.2026
B(  3-N , 13-H ) :   0.8392 B(  4-C ,  5-O ) :   1.8688 B(  4-C ,  6-C ) :   0.8575
B(  6-C ,  7-O ) :   1.9339 B(  6-C , 14-H ) :   0.9251

MP2 TOTAL ENERGY:     -436.286865101 Eh
FINAL SINGLE POINT ENERGY      -436.286865100501

DIPOLE MOMENT
-------------
                                X             Y             Z
Electronic contribution:     -5.53622      -0.33892      -3.73236
Nuclear contribution   :      6.21615       0.70749       4.59385
                        -----------------------------------------
Total Dipole Moment    :      0.67993       0.36857       0.86149
                        -----------------------------------------
Magnitude (a.u.)       :      1.15772
Magnitude (Debye)      :      2.94268

                             ****ORCA TERMINATED NORMALLY****
TOTAL RUN TIME: 0 days 0 hours 8 minutes 34 seconds 605 msec
