                         Program Version 3.0.3 - RELEASE   -
|  1> ! RI-MP2 RIJK def2-TZVP def2-TZVP/C def2-TZVP/JK TIGHTSCF
|  2> % maxcore 2000
|  3> % mp2 density relaxed end
|  4> *xyz 0 1
|  5>  O       -0.6372182068     0.8904752826     0.1421530438
|  6>  C        0.0212512561    -0.3427694972    -0.1419737880
|  7>  C        0.8859191236    -0.2399023926    -1.3288833529
|  8>  C        1.5846779133    -0.1262098800    -2.2993754254
|  9>  C        0.7740178969    -0.8595446583     1.0073703944
| 10>  C        1.3874836314    -1.2547536824     1.9671550226
| 11>  C        2.1189860698    -1.7273835606     3.1044665169
| 12>  C        1.5218389499    -1.6062999213     4.4994851907
| 13>  C        1.6407869574    -2.9571783050     3.8628830271
| 14>  H        0.0461685529     1.5252408773     0.3872268808
| 15>  H       -0.7989843993    -1.0355367119    -0.3714920610
| 16>  H        2.2014872773    -0.0329887936    -3.1589714900
| 17>  H        3.1959309489    -1.6025001287     3.0396297611
| 18>  H        2.2002259444    -1.3486301668     5.3048243576
| 19>  H        0.5367610962    -1.1619494557     4.5744806452
| 20>  H        0.7368339929    -3.4344559284     3.5044392579
| 21>  H        2.4021306450    -3.6382850075     4.2255463592
| 22> *
| 23>
| 24>                          ****END OF INPUT****

CARTESIAN COORDINATES (ANGSTROEM)
---------------------------------
  O     -0.637218    0.890475    0.142153
  C      0.021251   -0.342769   -0.141974
  C      0.885919   -0.239902   -1.328883
  C      1.584678   -0.126210   -2.299375
  C      0.774018   -0.859545    1.007370
  C      1.387484   -1.254754    1.967155
  C      2.118986   -1.727384    3.104467
  C      1.521839   -1.606300    4.499485
  C      1.640787   -2.957178    3.862883
  H      0.046169    1.525241    0.387227
  H     -0.798984   -1.035537   -0.371492
  H      2.201487   -0.032989   -3.158971
  H      3.195931   -1.602500    3.039630
  H      2.200226   -1.348630    5.304824
  H      0.536761   -1.161949    4.574481
  H      0.736834   -3.434456    3.504439
  H      2.402131   -3.638285    4.225546

 Total Charge           Charge          ....    0
 Multiplicity           Mult            ....    1
 Number of Electrons    NEL             ....   64
 Basis Dimension        Dim             ....  327

ORBITAL ENERGIES
----------------

  NO   OCC          E(Eh)            E(eV)
   0   2.0000     -20.572038      -559.7936
   1   2.0000     -11.339845      -308.5729
   2   2.0000     -11.261801      -306.4492
   3   2.0000     -11.243588      -305.9536
   4   2.0000     -11.242895      -305.9347
   5   2.0000     -11.241514      -305.8971
   6   2.0000     -11.238382      -305.8119
   7   2.0000     -11.234131      -305.6962
   8   2.0000     -11.227369      -305.5122
   9   2.0000      -1.379304       -37.5328
  10   2.0000      -1.162939       -31.6452
  11   2.0000      -1.077953       -29.3326
  12   2.0000      -1.026394       -27.9296
  13   2.0000      -0.958819       -26.0908
  14   2.0000      -0.863935       -23.5089
  15   2.0000      -0.836179       -22.7536
  16   2.0000      -0.752120       -20.4662
  17   2.0000      -0.735135       -20.0040
  18   2.0000      -0.700735       -19.0680
  19   2.0000      -0.683909       -18.6101
  20   2.0000      -0.656001       -17.8507
  21   2.0000      -0.638988       -17.3878
  22   2.0000      -0.566737       -15.4217
  23   2.0000      -0.553360       -15.0577
  24   2.0000      -0.530797       -14.4437
  25   2.0000      -0.499563       -13.5938
  26   2.0000      -0.479431       -13.0460
  27   2.0000      -0.462403       -12.5826
  28   2.0000      -0.409265       -11.1367
  29   2.0000      -0.401139       -10.9155
  30   2.0000      -0.376202       -10.2370
  31   2.0000      -0.359910        -9.7936
  32   0.0000       0.127414         3.4671
  33   0.0000       0.141802         3.8586
  34   0.0000       0.160554         4.3689
  35   0.0000       0.163712         4.4548
  36   0.0000       0.168703         4.5906

MULLIKEN ATOMIC CHARGES
-----------------------
   0 O :   -0.443650
   1 C :   -0.040356
   2 C :   -0.041974
   3 C :   -0.137009
   4 C :   -0.046644
   5 C :    0.056909
   6 C :   -0.242063
   7 C :   -0.232081
   8 C :   -0.231618
   9 H :    0.321757
  10 H :    0.139695
  11 H :    0.194626
  12 H :    0.141530
  13 H :    0.136294
  14 H :    0.145213
  15 H :    0.143264
  16 H :    0.136105
Sum of atomic charges:    0.0000000

LOEWDIN ATOMIC CHARGES
----------------------
   0 O :    0.001917
   1 C :   -0.329220
   2 C :   -0.077002
   3 C :   -0.080939
   4 C :   -0.043803
   5 C :   -0.044278
   6 C :   -0.212691
   7 C :   -0.204708
   8 C :   -0.204646
   9 H :    0.182210
  10 H :    0.177582
  11 H :    0.128716
  12 H :    0.162586
  13 H :    0.133445
  14 H :    0.138850
  15 H :    0.138381
  16 H :    0.133600

  Mayer bond orders larger than 0.1
B(  0-O ,  1-C ) :   0.8925 B(  0-O ,  9-H ) :   0.8397 B(  1-C ,  2-C ) :   1.1472
B(  1-C ,  4-C ) :   1.0523 B(  1-C , 10-H ) :   0.8895 B(  2-C ,  3-C ) :   2.5992
B(  3-C , 11-H ) :   0.9027 B(  4-C ,  5-C ) :   2.5826 B(  4-C ,  6-C ) :  -0.1353
B(  5-C ,  6-C ) :   1.0910 B(  6-C ,  7-C ) :   0.8591 B(  6-C ,  8-C ) :   0.8624
B(  6-C , 12-H ) :   0.9323 B(  7-C ,  8-C ) :   0.9006 B(  7-C , 13-H ) :   0.9305
B(  7-C , 14-H ) :   0.9323 B(  8-C , 15-H ) :   0.9330 B(  8-C , 16-H ) :   0.9301

MP2 TOTAL ENERGY:     -383.905671299 Eh
FINAL SINGLE POINT ENERGY      -383.905671298522

DIPOLE MOMENT
-------------
                                X             Y             Z
Electronic contribution:     -1.67818       3.17571      -6.72551
Nuclear contribution   :      2.36632      -3.41581       7.15657
                        -----------------------------------------
Total Dipole Moment    :      0.68814      -0.24010       0.43106
                        -----------------------------------------
Magnitude (a.u.)       :      0.84676
Magnitude (Debye)      :      2.15228

                             ****ORCA TERMINATED NORMALLY****
TOTAL RUN TIME: 0 days 0 hours 13 minutes 53 seconds 184 msec
