                         Program Version 3.0.3 - RELEASE   -
|  1> ! RI-MP2 RIJK def2-TZVP def2-TZVP/C def2-TZVP/JK TIGHTSCF
|  2> % maxcore 2000
|  3> % mp2 density relaxed end
|  4> *xyz 0 1
|  5>  C       -0.1499473488     1.4670001057    -0.0284434200
|  6>  C       -0.0142309959    -0.0331920826     0.1816102939
|  7>  O        0.8345305910    -0.5111039181     0.9123940476
|  8>  N       -0.9060451086    -0.7975197336    -0.5195539394
|  9>  C       -0.9822987575    -2.2336278930    -0.3799323660
| 10>  C       -2.4130768655    -2.6534559784     0.0104330242
| 11>  O       -3.3614882169    -2.1049043535    -0.9109218851
| 12>  C       -2.5292067219    -4.1062472637     0.1153302313
| 13>  C       -2.6038922689    -5.3054902422     0.1478532000
| 14>  H        0.8003287431     1.8559442053    -0.4033114058
| 15>  H       -0.9475256691     1.7442768784    -0.7223696463
| 16>  H       -0.3369094984     1.9409870096     0.9388176383
| 17>  H       -1.6456921389    -0.3584719364    -1.0438964306
| 18>  H       -0.7095757486    -2.7382593992    -1.3168879069
| 19>  H       -0.2637500912    -2.5293987679     0.3870517949
| 20>  H       -2.6562423842    -2.1898492933     0.9734916002
| 21>  H       -3.3834603078    -2.6839866788    -1.6813920688
| 22>  H       -2.6796496919    -6.3639184483     0.1996192587
| 23> *
| 24>
| 25>                          ****END OF INPUT****

CARTESIAN COORDINATES (ANGSTROEM)
---------------------------------
  C     -0.149947    1.467000   -0.028443
  C     -0.014231   -0.033192    0.181610
  O      0.834531   -0.511104    0.912394
  N     -0.906045   -0.797520   -0.519554
  C     -0.982299   -2.233628   -0.379932
  C     -2.413077   -2.653456    0.010433
  O     -3.361488   -2.104904   -0.910922
  C     -2.529207   -4.106247    0.115330
  C     -2.603892   -5.305490    0.147853
  H      0.800329    1.855944   -0.403311
  H     -0.947526    1.744277   -0.722370
  H     -0.336909    1.940987    0.938818
  H     -1.645692   -0.358472   -1.043896
  H     -0.709576   -2.738259   -1.316888
  H     -0.263750   -2.529399    0.387052
  H     -2.656242   -2.189849    0.973492
  H     -3.383460   -2.683987   -1.681392
  H     -2.679650   -6.363918    0.199619

 Total Charge           Charge          ....    0
 Multiplicity           Mult            ....    1
 Number of Electrons    NEL             ....   68
 Basis Dimension        Dim             ....  333

ORBITAL ENERGIES
----------------

  NO   OCC          E(Eh)            E(eV)
   0   2.0000     -20.581713      -560.0569
   1   2.0000     -20.512066      -558.1617
   2   2.0000     -15.584184      -424.0672
   3   2.0000     -11.349976      -308.8485
   4   2.0000     -11.323133      -308.1181
   5   2.0000     -11.272861      -306.7501
   6   2.0000     -11.248892      -306.0979
   7   2.0000     -11.244183      -305.9698
   8   2.0000     -11.237019      -305.7748
   9   2.0000      -1.388961       -37.7956
  10   2.0000      -1.378358       -37.5070
  11   2.0000      -1.233349       -33.5611
  12   2.0000      -1.076159       -29.2838
  13   2.0000      -1.022718       -27.8296
  14   2.0000      -0.980080       -26.6693
  15   2.0000      -0.884616       -24.0716
  16   2.0000      -0.797686       -21.7061
  17   2.0000      -0.760889       -20.7048
  18   2.0000      -0.713233       -19.4080
  19   2.0000      -0.693116       -18.8606
  20   2.0000      -0.661336       -17.9959
  21   2.0000      -0.651826       -17.7371
  22   2.0000      -0.634433       -17.2638
  23   2.0000      -0.605276       -16.4704
  24   2.0000      -0.585197       -15.9240
  25   2.0000      -0.561670       -15.2838
  26   2.0000      -0.553498       -15.0614
  27   2.0000      -0.542005       -14.7487
  28   2.0000      -0.511007       -13.9052
  29   2.0000      -0.486155       -13.2290
  30   2.0000      -0.425178       -11.5697
  31   2.0000      -0.415540       -11.3074
  32   2.0000      -0.409447       -11.1416
  33   2.0000      -0.388676       -10.5764
  34   0.0000       0.121987         3.3194
  35   0.0000       0.141942         3.8624
  36   0.0000       0.156051         4.2464
  37   0.0000       0.162426         4.4198
  38   0.0000       0.163570         4.4510

MULLIKEN ATOMIC CHARGES
-----------------------
   0 C :   -0.408077
   1 C :    0.319664
   2 O :   -0.387227
   3 N :   -0.334946
   4 C :   -0.109763
   5 C :    0.009845
   6 O :   -0.474202
   7 C :   -0.100325
   8 C :   -0.129814
   9 H :    0.152778
  10 H :    0.117155
  11 H :    0.151280
  12 H :    0.245065
  13 H :    0.125565
  14 H :    0.169472
  15 H :    0.128332
  16 H :    0.326178
  17 H :    0.199020
Sum of atomic charges:   -0.0000000

LOEWDIN ATOMIC CHARGES
----------------------
   0 C :   -0.278554
   1 C :   -0.478509
   2 O :    0.071101
   3 N :    0.106090
   4 C :   -0.251310
   5 C :   -0.333655
   6 O :   -0.016344
   7 C :   -0.096402
   8 C :   -0.075864
   9 H :    0.139050
  10 H :    0.120509
  11 H :    0.138747
  12 H :    0.187205
  13 H :    0.135991
  14 H :    0.156386
  15 H :    0.164077
  16 H :    0.181109
  17 H :    0.130372

  Mayer bond orders larger than 0.1
B(  0-C ,  1-C ) :   0.8965 B(  0-C ,  9-H ) :   0.9265 B(  0-C , 10-H ) :   0.9377
B(  0-C , 11-H ) :   0.9229 B(  1-C ,  2-O ) :   1.8888 B(  1-C ,  3-N ) :   1.1475
B(  3-N ,  4-C ) :   0.8438 B(  3-N , 12-H ) :   0.8605 B(  4-C ,  5-C ) :   0.9494
B(  4-C , 13-H ) :   0.9157 B(  4-C , 14-H ) :   0.9175 B(  5-C ,  6-O ) :   0.8893
B(  5-C ,  7-C ) :   1.1430 B(  5-C , 15-H ) :   0.9015 B(  6-O , 16-H ) :   0.8358
B(  7-C ,  8-C ) :   2.5800 B(  8-C , 17-H ) :   0.8939

MP2 TOTAL ENERGY:     -438.355023419 Eh
FINAL SINGLE POINT ENERGY      -438.355023418551

DIPOLE MOMENT
-------------
                                X             Y             Z
Electronic contribution:     -0.96549      -4.20242       0.94359
Nuclear contribution   :      0.16565       3.93580      -1.88111
                        -----------------------------------------
Total Dipole Moment    :     -0.79984      -0.26662      -0.93752
                        -----------------------------------------
Magnitude (a.u.)       :      1.26086
Magnitude (Debye)      :      3.20485

                             ****ORCA TERMINATED NORMALLY****
TOTAL RUN TIME: 0 days 0 hours 15 minutes 30 seconds 799 msec
