                         Program Version 3.0.3 - RELEASE   -
|  1> ! RI-MP2 RIJK def2-TZVP def2-TZVP/C def2-TZVP/JK TIGHTSCF
|  2> % maxcore 2000
|  3> % mp2 density relaxed end
|  4> *xyz 0 1
|  5>  C       -0.0222640375     1.5325186596     0.0989547529
|  6>  C       -0.0085563223     0.0035300553     0.0219727283
|  7>  O        0.6503013766    -0.4576095368     1.1859286010
|  8>  C       -1.4008170400    -0.4954594129    -0.0354761415
|  9>  N       -2.4865775827    -0.8862266173    -0.0960297135
| 10>  C        0.7710737994    -0.4986284985    -1.2599452895
| 11>  N        2.1394379706    -0.0262360404    -1.3617350433
| 12>  C        0.7801908972    -1.9729826869    -1.2289243233
| 13>  N        0.7890568589    -3.1233907671    -1.1233392471
| 14>  H        1.0011504233     1.9009185009     0.1935239993
| 15>  H       -0.4873962073     1.9647817902    -0.7905846536
| 16>  H       -0.5848043958     1.8470685911     0.9794914185
| 17>  H        0.5724338550    -1.4204232839     1.2287416427
| 18>  H        0.2177874067    -0.1790614297    -2.1499517001
| 19>  H        2.1632752057     0.9595201817    -1.5947206079
| 20>  H        2.6178610920    -0.1572942353    -0.4750771629
| 21> *
| 22>
| 23>                          ****END OF INPUT****

CARTESIAN COORDINATES (ANGSTROEM)
---------------------------------
  C     -0.022264    1.532519    0.098955
  C     -0.008556    0.003530    0.021973
  O      0.650301   -0.457610    1.185929
  C     -1.400817   -0.495459   -0.035476
  N     -2.486578   -0.886227   -0.096030
  C      0.771074   -0.498628   -1.259945
  N      2.139438   -0.026236   -1.361735
  C      0.780191   -1.972983   -1.228924
  N      0.789057   -3.123391   -1.123339
  H      1.001150    1.900919    0.193524
  H     -0.487396    1.964782   -0.790585
  H     -0.584804    1.847069    0.979491
  H      0.572434   -1.420423    1.228742
  H      0.217787   -0.179061   -2.149952
  H      2.163275    0.959520   -1.594721
  H      2.617861   -0.157294   -0.475077

 Total Charge           Charge          ....    0
 Multiplicity           Mult            ....    1
 Number of Electrons    NEL             ....   66
 Basis Dimension        Dim             ....  321

ORBITAL ENERGIES
----------------

  NO   OCC          E(Eh)            E(eV)
   0   2.0000     -20.611424      -560.8654
   1   2.0000     -15.597442      -424.4280
   2   2.0000     -15.593096      -424.3097
   3   2.0000     -15.591566      -424.2681
   4   2.0000     -11.377193      -309.5892
   5   2.0000     -11.348065      -308.7965
   6   2.0000     -11.291328      -307.2527
   7   2.0000     -11.291293      -307.2517
   8   2.0000     -11.266667      -306.5816
   9   2.0000      -1.427065       -38.8324
  10   2.0000      -1.259774       -34.2802
  11   2.0000      -1.239715       -33.7344
  12   2.0000      -1.224579       -33.3225
  13   2.0000      -1.095288       -29.8043
  14   2.0000      -1.004559       -27.3354
  15   2.0000      -0.902177       -24.5495
  16   2.0000      -0.790758       -21.5176
  17   2.0000      -0.762246       -20.7418
  18   2.0000      -0.732375       -19.9289
  19   2.0000      -0.677526       -18.4364
  20   2.0000      -0.653207       -17.7747
  21   2.0000      -0.611607       -16.6427
  22   2.0000      -0.601812       -16.3762
  23   2.0000      -0.589594       -16.0437
  24   2.0000      -0.583970       -15.8906
  25   2.0000      -0.571210       -15.5434
  26   2.0000      -0.558492       -15.1973
  27   2.0000      -0.535320       -14.5668
  28   2.0000      -0.496469       -13.5096
  29   2.0000      -0.489311       -13.3148
  30   2.0000      -0.485372       -13.2076
  31   2.0000      -0.481853       -13.1119
  32   2.0000      -0.437882       -11.9154
  33   0.0000       0.096021         2.6129
  34   0.0000       0.126194         3.4339
  35   0.0000       0.137407         3.7390
  36   0.0000       0.150114         4.0848
  37   0.0000       0.161695         4.3999

MULLIKEN ATOMIC CHARGES
-----------------------
   0 C :   -0.401853
   1 C :    0.272134
   2 O :   -0.446493
   3 C :   -0.214333
   4 N :   -0.035427
   5 C :    0.113417
   6 N :   -0.509818
   7 C :   -0.203223
   8 N :   -0.030417
   9 H :    0.140333
  10 H :    0.149041
  11 H :    0.167980
  12 H :    0.344755
  13 H :    0.156553
  14 H :    0.243367
  15 H :    0.253985
Sum of atomic charges:    0.0000000

LOEWDIN ATOMIC CHARGES
----------------------
   0 C :   -0.244495
   1 C :   -0.384500
   2 O :    0.048691
   3 C :   -0.152243
   4 N :    0.091177
   5 C :   -0.281512
   6 N :   -0.100971
   7 C :   -0.170541
   8 N :    0.082713
   9 H :    0.130639
  10 H :    0.137290
  11 H :    0.143161
  12 H :    0.193420
  13 H :    0.178656
  14 H :    0.160319
  15 H :    0.168196

  Mayer bond orders larger than 0.1
B(  0-C ,  1-C ) :   0.8677 B(  0-C ,  9-H ) :   0.9339 B(  0-C , 10-H ) :   0.9265
B(  0-C , 11-H ) :   0.9279 B(  1-C ,  2-O ) :   0.9398 B(  1-C ,  3-C ) :   0.9153
B(  1-C ,  5-C ) :   0.9039 B(  2-O , 12-H ) :   0.8213 B(  3-C ,  4-N ) :   2.8411
B(  5-C ,  6-N ) :   0.9689 B(  5-C ,  7-C ) :   0.9034 B(  5-C , 13-H ) :   0.8867
B(  6-N , 14-H ) :   0.8949 B(  6-N , 15-H ) :   0.8772 B(  7-C ,  8-N ) :   2.8357

MP2 TOTAL ENERGY:     -433.369622419 Eh
FINAL SINGLE POINT ENERGY      -433.369622418960

DIPOLE MOMENT
-------------
                                X             Y             Z
Electronic contribution:     -3.05119      -6.71158      -0.10441
Nuclear contribution   :      3.92911       8.59480       0.12290
                        -----------------------------------------
Total Dipole Moment    :      0.87793       1.88322       0.01848
                        -----------------------------------------
Magnitude (a.u.)       :      2.07789
Magnitude (Debye)      :      5.28158

                             ****ORCA TERMINATED NORMALLY****
TOTAL RUN TIME: 0 days 0 hours 16 minutes 29 seconds 207 msec
