                         Program Version 3.0.3 - RELEASE   -
|  1> ! RI-MP2 RIJK def2-TZVP def2-TZVP/C def2-TZVP/JK TIGHTSCF
|  2> % maxcore 2000
|  3> % mp2 density relaxed end
|  4> *xyz 0 1
|  5>  C        0.0433776462     1.5363192003     0.0657055748
|  6>  C        0.0113476348     0.0170893175     0.0041633529
|  7>  C        0.6842358900    -0.5456499377    -1.2584510644
|  8>  C        0.9572160247    -2.0343573291    -1.1350559288
|  9>  O        2.1302772760    -2.4013179113    -0.3956311806
| 10>  C        0.8597240535    -2.6833056945     0.1822459057
| 11>  C        0.4719451356    -1.8476632820     1.3827998425
| 12>  O        0.6599740682    -0.4653898039     1.1759252091
| 13>  H        1.0783187970     1.8897774998     0.1029769725
| 14>  H       -0.4401423979     1.9685392459    -0.8157191264
| 15>  H       -0.4736442383     1.8947381541     0.9596402722
| 16>  H       -1.0388533178    -0.3266216670     0.0182577221
| 17>  H        0.0424532240    -0.3574813903    -2.1264716214
| 18>  H        1.6345665622    -0.0288521981    -1.4362345714
| 19>  H        0.8002462679    -2.6373504351    -2.0290560742
| 20>  H        0.6021699669    -3.7417369019     0.2480136882
| 21>  H       -0.5817442814    -2.0697154596     1.6316907956
| 22>  H        1.0860786284    -2.1170202071     2.2486704617
| 23> *
| 24>
| 25>                          ****END OF INPUT****

CARTESIAN COORDINATES (ANGSTROEM)
---------------------------------
  C      0.043378    1.536319    0.065706
  C      0.011348    0.017089    0.004163
  C      0.684236   -0.545650   -1.258451
  C      0.957216   -2.034357   -1.135056
  O      2.130277   -2.401318   -0.395631
  C      0.859724   -2.683306    0.182246
  C      0.471945   -1.847663    1.382800
  O      0.659974   -0.465390    1.175925
  H      1.078319    1.889777    0.102977
  H     -0.440142    1.968539   -0.815719
  H     -0.473644    1.894738    0.959640
  H     -1.038853   -0.326622    0.018258
  H      0.042453   -0.357481   -2.126472
  H      1.634567   -0.028852   -1.436235
  H      0.800246   -2.637350   -2.029056
  H      0.602170   -3.741737    0.248014
  H     -0.581744   -2.069715    1.631691
  H      1.086079   -2.117020    2.248670

 Total Charge           Charge          ....    0
 Multiplicity           Mult            ....    1
 Number of Electrons    NEL             ....   62
 Basis Dimension        Dim             ....  308

ORBITAL ENERGIES
----------------

  NO   OCC          E(Eh)            E(eV)
   0   2.0000     -20.563396      -559.5585
   1   2.0000     -20.555653      -559.3477
   2   2.0000     -11.287806      -307.1568
   3   2.0000     -11.286051      -307.1091
   4   2.0000     -11.284788      -307.0747
   5   2.0000     -11.281946      -306.9974
   6   2.0000     -11.230208      -305.5895
   7   2.0000     -11.216072      -305.2048
   8   2.0000      -1.416230       -38.5376
   9   2.0000      -1.374495       -37.4019
  10   2.0000      -1.069141       -29.0928
  11   2.0000      -1.005364       -27.3573
  12   2.0000      -0.959643       -26.1132
  13   2.0000      -0.863312       -23.4919
  14   2.0000      -0.840643       -22.8751
  15   2.0000      -0.759334       -20.6625
  16   2.0000      -0.715100       -19.4589
  17   2.0000      -0.675282       -18.3753
  18   2.0000      -0.641253       -17.4494
  19   2.0000      -0.625984       -17.0339
  20   2.0000      -0.613852       -16.7038
  21   2.0000      -0.568458       -15.4685
  22   2.0000      -0.551810       -15.0155
  23   2.0000      -0.546060       -14.8591
  24   2.0000      -0.528313       -14.3761
  25   2.0000      -0.523285       -14.2393
  26   2.0000      -0.505333       -13.7508
  27   2.0000      -0.460723       -12.5369
  28   2.0000      -0.439502       -11.9595
  29   2.0000      -0.431094       -11.7307
  30   2.0000      -0.411462       -11.1965
  31   0.0000       0.136749         3.7211
  32   0.0000       0.156230         4.2512
  33   0.0000       0.166679         4.5356
  34   0.0000       0.177700         4.8355
  35   0.0000       0.198042         5.3890

MULLIKEN ATOMIC CHARGES
-----------------------
   0 C :   -0.374633
   1 C :    0.067115
   2 C :   -0.183035
   3 C :   -0.004122
   4 O :   -0.329288
   5 C :    0.017849
   6 C :   -0.060332
   7 O :   -0.292322
   8 H :    0.135306
   9 H :    0.121417
  10 H :    0.138106
  11 H :    0.066309
  12 H :    0.116541
  13 H :    0.114793
  14 H :    0.122090
  15 H :    0.120051
  16 H :    0.094045
  17 H :    0.130110
Sum of atomic charges:    0.0000000

LOEWDIN ATOMIC CHARGES
----------------------
   0 C :   -0.289947
   1 C :   -0.340847
   2 C :   -0.230008
   3 C :   -0.256350
   4 O :    0.169636
   5 C :   -0.280712
   6 C :   -0.309194
   7 O :    0.186520
   8 H :    0.128736
   9 H :    0.126519
  10 H :    0.126571
  11 H :    0.135671
  12 H :    0.145167
  13 H :    0.151377
  14 H :    0.135244
  15 H :    0.137549
  16 H :    0.126500
  17 H :    0.137567

  Mayer bond orders larger than 0.1
B(  0-C ,  1-C ) :   0.9060 B(  0-C ,  8-H ) :   0.9409 B(  0-C ,  9-H ) :   0.9305
B(  0-C , 10-H ) :   0.9395 B(  1-C ,  2-C ) :   0.9490 B(  1-C ,  7-O ) :   0.9326
B(  1-C , 11-H ) :   0.9298 B(  2-C ,  3-C ) :   0.9115 B(  2-C , 12-H ) :   0.9159
B(  2-C , 13-H ) :   0.8987 B(  3-C ,  4-O ) :   0.9090 B(  3-C ,  5-C ) :   0.9791
B(  3-C , 14-H ) :   0.9275 B(  4-O ,  5-C ) :   0.8852 B(  5-C ,  6-C ) :   0.9349
B(  5-C , 15-H ) :   0.9133 B(  6-C ,  7-O ) :   0.9693 B(  6-C , 16-H ) :   0.9383
B(  6-C , 17-H ) :   0.9156

MP2 TOTAL ENERGY:     -384.296226297 Eh
FINAL SINGLE POINT ENERGY      -384.296226297056

DIPOLE MOMENT
-------------
                                X             Y             Z
Electronic contribution:      3.36301      -4.64236       0.93034
Nuclear contribution   :     -4.32127       4.51814      -1.29109
                        -----------------------------------------
Total Dipole Moment    :     -0.95826      -0.12423      -0.36075
                        -----------------------------------------
Magnitude (a.u.)       :      1.03142
Magnitude (Debye)      :      2.62166

                             ****ORCA TERMINATED NORMALLY****
TOTAL RUN TIME: 0 days 0 hours 12 minutes 3 seconds 503 msec
