                         Program Version 3.0.3 - RELEASE   -
|  1> ! RI-MP2 RIJK def2-TZVP def2-TZVP/C def2-TZVP/JK TIGHTSCF
|  2> % maxcore 2000
|  3> % mp2 density relaxed end
|  4> *xyz 0 1
|  5>  N       -0.1085331057    -1.1026470549     0.2791998318
|  6>  C       -0.0485366769     0.0453501016     0.1538765547
|  7>  C        0.0118803236     1.4720853538    -0.0523193362
|  8>  C       -0.9970758025     2.0925201500    -1.0327815782
|  9>  C       -0.2917811626     3.3018320299    -1.6384621604
| 10>  N        0.0837059014     4.3429171573    -0.6645630053
| 11>  C        1.1008670316     3.3714610763    -1.1195983972
| 12>  C        1.3090294593     2.2402808031    -0.1294585078
| 13>  N        0.5083449850     2.2648450491     1.0867454882
| 14>  H       -1.2275818007     1.3672704320    -1.8190542751
| 15>  H       -1.9371495823     2.3572415462    -0.5386312078
| 16>  H       -0.5455921416     3.6055062924    -2.6487364012
| 17>  H        0.2131450627     5.2358172189    -1.1324077820
| 18>  H        1.9357672203     3.7106479466    -1.7208736101
| 19>  H        2.2790054969     1.7602433053    -0.0637779582
| 20>  H        0.0079536915     3.1550495923     1.1227573046
| 21> *
| 22>
| 23>                          ****END OF INPUT****

CARTESIAN COORDINATES (ANGSTROEM)
---------------------------------
  N     -0.108533   -1.102647    0.279200
  C     -0.048537    0.045350    0.153877
  C      0.011880    1.472085   -0.052319
  C     -0.997076    2.092520   -1.032782
  C     -0.291781    3.301832   -1.638462
  N      0.083706    4.342917   -0.664563
  C      1.100867    3.371461   -1.119598
  C      1.309029    2.240281   -0.129459
  N      0.508345    2.264845    1.086745
  H     -1.227582    1.367270   -1.819054
  H     -1.937150    2.357242   -0.538631
  H     -0.545592    3.605506   -2.648736
  H      0.213145    5.235817   -1.132408
  H      1.935767    3.710648   -1.720874
  H      2.279005    1.760243   -0.063778
  H      0.007954    3.155050    1.122757

 Total Charge           Charge          ....    0
 Multiplicity           Mult            ....    1
 Number of Electrons    NEL             ....   64
 Basis Dimension        Dim             ....  321

ORBITAL ENERGIES
----------------

  NO   OCC          E(Eh)            E(eV)
   0   2.0000     -15.589604      -424.2147
   1   2.0000     -15.580737      -423.9734
   2   2.0000     -15.567020      -423.6002
   3   2.0000     -11.313447      -307.8545
   4   2.0000     -11.291957      -307.2698
   5   2.0000     -11.291342      -307.2530
   6   2.0000     -11.290449      -307.2287
   7   2.0000     -11.269891      -306.6693
   8   2.0000     -11.261735      -306.4474
   9   2.0000      -1.330857       -36.2145
  10   2.0000      -1.268159       -34.5084
  11   2.0000      -1.210049       -32.9271
  12   2.0000      -1.052920       -28.6514
  13   2.0000      -0.967799       -26.3351
  14   2.0000      -0.929041       -25.2805
  15   2.0000      -0.834628       -22.7114
  16   2.0000      -0.815285       -22.1850
  17   2.0000      -0.762727       -20.7549
  18   2.0000      -0.700284       -19.0557
  19   2.0000      -0.665978       -18.1222
  20   2.0000      -0.624190       -16.9851
  21   2.0000      -0.598656       -16.2902
  22   2.0000      -0.575684       -15.6651
  23   2.0000      -0.556258       -15.1365
  24   2.0000      -0.527951       -14.3663
  25   2.0000      -0.519455       -14.1351
  26   2.0000      -0.504803       -13.7364
  27   2.0000      -0.497352       -13.5336
  28   2.0000      -0.455266       -12.3884
  29   2.0000      -0.446883       -12.1603
  30   2.0000      -0.420171       -11.4334
  31   2.0000      -0.391922       -10.6647
  32   0.0000       0.115423         3.1408
  33   0.0000       0.146347         3.9823
  34   0.0000       0.152878         4.1600
  35   0.0000       0.159043         4.3278
  36   0.0000       0.170605         4.6424

MULLIKEN ATOMIC CHARGES
-----------------------
   0 N :   -0.051292
   1 C :   -0.224755
   2 C :    0.245052
   3 C :   -0.191139
   4 C :   -0.042185
   5 N :   -0.420219
   6 C :   -0.060692
   7 C :   -0.106799
   8 N :   -0.341040
   9 H :    0.138562
  10 H :    0.138306
  11 H :    0.144243
  12 H :    0.224513
  13 H :    0.148160
  14 H :    0.148277
  15 H :    0.251007
Sum of atomic charges:   -0.0000000

LOEWDIN ATOMIC CHARGES
----------------------
   0 N :    0.069492
   1 C :   -0.148148
   2 C :   -0.259214
   3 C :   -0.176140
   4 C :   -0.234941
   5 N :    0.003766
   6 C :   -0.225801
   7 C :   -0.191453
   8 N :    0.074280
   9 H :    0.157826
  10 H :    0.151841
  11 H :    0.138698
  12 H :    0.172148
  13 H :    0.141813
  14 H :    0.148481
  15 H :    0.177351

  Mayer bond orders larger than 0.1
B(  0-N ,  1-C ) :   2.8803 B(  1-C ,  2-C ) :   0.8925 B(  2-C ,  3-C ) :   0.9566
B(  2-C ,  7-C ) :   0.8900 B(  2-C ,  8-N ) :   0.8746 B(  3-C ,  4-C ) :   0.9526
B(  3-C ,  9-H ) :   0.9171 B(  3-C , 10-H ) :   0.9020 B(  4-C ,  5-N ) :   0.9226
B(  4-C ,  6-C ) :   0.9311 B(  4-C , 11-H ) :   0.9253 B(  5-N ,  6-C ) :   0.8657
B(  5-N , 12-H ) :   0.8697 B(  6-C ,  7-C ) :   0.9220 B(  6-C , 13-H ) :   0.9193
B(  7-C ,  8-N ) :   0.9947 B(  7-C , 14-H ) :   0.9095 B(  8-N , 15-H ) :   0.8416

MP2 TOTAL ENERGY:     -396.211900018 Eh
FINAL SINGLE POINT ENERGY      -396.211900018149

DIPOLE MOMENT
-------------
                                X             Y             Z
Electronic contribution:      0.55996      -4.40276       2.54480
Nuclear contribution   :     -0.43231       6.38544      -4.04505
                        -----------------------------------------
Total Dipole Moment    :      0.12766       1.98267      -1.50026
                        -----------------------------------------
Magnitude (a.u.)       :      2.48959
Magnitude (Debye)      :      6.32804

                             ****ORCA TERMINATED NORMALLY****
TOTAL RUN TIME: 0 days 0 hours 16 minutes 48 seconds 76 msec
