                         Program Version 3.0.3 - RELEASE   -
|  1> ! RI-MP2 RIJK def2-TZVP def2-TZVP/C def2-TZVP/JK TIGHTSCF
|  2> % maxcore 2000
|  3> % mp2 density relaxed end
|  4> *xyz 0 1
|  5>  C       -0.6409275000     1.3697040759     0.5603967336
|  6>  C       -0.3457173834    -0.0463170780     0.0873927071
|  7>  C        1.1225025682    -0.4376391390     0.2488460123
|  8>  O       -1.1776227918    -0.9198323883     0.8789016356
|  9>  C       -1.5708966644    -2.0962908260     0.2644991084
| 10>  C       -2.7386165670    -1.9070965439    -0.7015854146
| 11>  O       -3.2406440968    -0.8535001813    -0.9886405887
| 12>  C       -3.2291090684    -3.1749565827    -1.2931424028
| 13>  N       -3.5842339690    -4.1813702274    -1.7383588788
| 14>  H       -0.0398632900     2.0943364363     0.0032439202
| 15>  H       -1.6984062077     1.6004920210     0.4138953180
| 16>  H       -0.4055805007     1.4706260437     1.6245924683
| 17>  H       -0.6386635231    -0.1374101210    -0.9670412857
| 18>  H        1.4272870763    -0.3405201720     1.2952973006
| 19>  H        1.3026627792    -1.4709067667    -0.0651218681
| 20>  H        1.7604838519     0.2097954207    -0.3608826081
| 21>  H       -0.7639689330    -2.6071891022    -0.2906340797
| 22>  H       -1.8978117705    -2.8031894592     1.0400052422
| 23> *
| 24>
| 25>                          ****END OF INPUT****

CARTESIAN COORDINATES (ANGSTROEM)
---------------------------------
  C     -0.640927    1.369704    0.560397
  C     -0.345717   -0.046317    0.087393
  C      1.122503   -0.437639    0.248846
  O     -1.177623   -0.919832    0.878902
  C     -1.570897   -2.096291    0.264499
  C     -2.738617   -1.907097   -0.701585
  O     -3.240644   -0.853500   -0.988641
  C     -3.229109   -3.174957   -1.293142
  N     -3.584234   -4.181370   -1.738359
  H     -0.039863    2.094336    0.003244
  H     -1.698406    1.600492    0.413895
  H     -0.405581    1.470626    1.624592
  H     -0.638664   -0.137410   -0.967041
  H      1.427287   -0.340520    1.295297
  H      1.302663   -1.470907   -0.065122
  H      1.760484    0.209795   -0.360883
  H     -0.763969   -2.607189   -0.290634
  H     -1.897812   -2.803189    1.040005

 Total Charge           Charge          ....    0
 Multiplicity           Mult            ....    1
 Number of Electrons    NEL             ....   68
 Basis Dimension        Dim             ....  333

ORBITAL ENERGIES
----------------

  NO   OCC          E(Eh)            E(eV)
   0   2.0000     -20.605903      -560.7151
   1   2.0000     -20.580870      -560.0339
   2   2.0000     -15.616139      -424.9367
   3   2.0000     -11.400186      -310.2148
   4   2.0000     -11.327172      -308.2280
   5   2.0000     -11.303066      -307.5721
   6   2.0000     -11.298200      -307.4397
   7   2.0000     -11.229783      -305.5779
   8   2.0000     -11.221079      -305.3411
   9   2.0000      -1.452049       -39.5123
  10   2.0000      -1.402398       -38.1612
  11   2.0000      -1.251875       -34.0653
  12   2.0000      -1.082810       -29.4648
  13   2.0000      -1.025578       -27.9074
  14   2.0000      -0.950104       -25.8536
  15   2.0000      -0.895823       -24.3766
  16   2.0000      -0.817232       -22.2380
  17   2.0000      -0.747106       -20.3298
  18   2.0000      -0.702943       -19.1280
  19   2.0000      -0.690379       -18.7862
  20   2.0000      -0.678621       -18.4662
  21   2.0000      -0.616634       -16.7795
  22   2.0000      -0.603155       -16.4127
  23   2.0000      -0.599970       -16.3260
  24   2.0000      -0.574950       -15.6452
  25   2.0000      -0.560700       -15.2574
  26   2.0000      -0.550484       -14.9794
  27   2.0000      -0.527891       -14.3647
  28   2.0000      -0.516312       -14.0496
  29   2.0000      -0.505663       -13.7598
  30   2.0000      -0.497351       -13.5336
  31   2.0000      -0.491450       -13.3730
  32   2.0000      -0.479174       -13.0390
  33   2.0000      -0.441610       -12.0168
  34   0.0000       0.058755         1.5988
  35   0.0000       0.118320         3.2197
  36   0.0000       0.141235         3.8432
  37   0.0000       0.151457         4.1213
  38   0.0000       0.171865         4.6767

MULLIKEN ATOMIC CHARGES
-----------------------
   0 C :   -0.375807
   1 C :    0.086181
   2 C :   -0.377708
   3 O :   -0.297961
   4 C :   -0.097585
   5 C :    0.311213
   6 O :   -0.228252
   7 C :   -0.170674
   8 N :   -0.036237
   9 H :    0.123721
  10 H :    0.150938
  11 H :    0.130095
  12 H :    0.084288
  13 H :    0.133184
  14 H :    0.122853
  15 H :    0.134471
  16 H :    0.135488
  17 H :    0.171792
Sum of atomic charges:    0.0000000

LOEWDIN ATOMIC CHARGES
----------------------
   0 C :   -0.289307
   1 C :   -0.355585
   2 C :   -0.296317
   3 O :    0.200656
   4 C :   -0.316986
   5 C :   -0.325915
   6 O :    0.217053
   7 C :   -0.138019
   8 N :    0.102356
   9 H :    0.127094
  10 H :    0.130028
  11 H :    0.127650
  12 H :    0.139289
  13 H :    0.128071
  14 H :    0.120526
  15 H :    0.128636
  16 H :    0.144637
  17 H :    0.156132

  Mayer bond orders larger than 0.1
B(  0-C ,  1-C ) :   0.9385 B(  0-C ,  9-H ) :   0.9321 B(  0-C , 10-H ) :   0.9361
B(  0-C , 11-H ) :   0.9305 B(  1-C ,  2-C ) :   0.9306 B(  1-C ,  3-O ) :   0.8254
B(  1-C , 12-H ) :   0.9280 B(  2-C , 13-H ) :   0.9315 B(  2-C , 14-H ) :   0.9314
B(  2-C , 15-H ) :   0.9339 B(  3-O ,  4-C ) :   1.0006 B(  4-C ,  5-C ) :   0.9083
B(  4-C , 16-H ) :   0.9163 B(  4-C , 17-H ) :   0.8917 B(  5-C ,  6-O ) :   1.9732
B(  5-C ,  7-C ) :   0.8721 B(  7-C ,  8-N ) :   2.7821

MP2 TOTAL ENERGY:     -438.369962019 Eh
FINAL SINGLE POINT ENERGY      -438.369962018603

DIPOLE MOMENT
-------------
                                X             Y             Z
Electronic contribution:    -11.90869      -8.67130      -4.37476
Nuclear contribution   :     13.07535       9.06065       4.74312
                        -----------------------------------------
Total Dipole Moment    :      1.16666       0.38936       0.36835
                        -----------------------------------------
Magnitude (a.u.)       :      1.28389
Magnitude (Debye)      :      3.26339

                             ****ORCA TERMINATED NORMALLY****
TOTAL RUN TIME: 0 days 0 hours 17 minutes 57 seconds 182 msec
