                         Program Version 3.0.3 - RELEASE   -
|  1> ! RI-MP2 RIJK def2-TZVP def2-TZVP/C def2-TZVP/JK TIGHTSCF
|  2> % maxcore 2000
|  3> % mp2 density relaxed end
|  4> *xyz 0 1
|  5>  O        0.0916529135     1.2578430103     0.4981850553
|  6>  C        0.0060578665     0.0156475821    -0.2035139734
|  7>  C       -1.3580035378    -0.5880588626    -0.1060482303
|  8>  C       -1.8289032333    -1.8764577181     0.0286010145
|  9>  C       -1.0436207722    -3.1490470364     0.1509278282
| 10>  O        0.0622359262    -3.0434951170     1.0482444530
| 11>  N       -3.2088651259    -1.8828469203     0.0407764792
| 12>  C       -3.5691578653    -0.6261909152    -0.0851894349
| 13>  N       -2.4892709555     0.1962830086    -0.1834711946
| 14>  H       -0.0039821652     1.0641396064     1.4369130456
| 15>  H        0.2531258609     0.2680738795    -1.2420377395
| 16>  H        0.7419543817    -0.7172593887     0.1456571357
| 17>  H       -1.7356866515    -3.9496647622     0.4444862653
| 18>  H       -0.5988073601    -3.4395310827    -0.8074925746
| 19>  H       -0.2972524578    -2.7989510057     1.9076295748
| 20>  H       -4.5832068827    -0.2552301169    -0.0981676815
| 21>  H       -2.4780679415     1.2028561189    -0.2226660729
| 22> *
| 23>
| 24>                          ****END OF INPUT****

CARTESIAN COORDINATES (ANGSTROEM)
---------------------------------
  O      0.091653    1.257843    0.498185
  C      0.006058    0.015648   -0.203514
  C     -1.358004   -0.588059   -0.106048
  C     -1.828903   -1.876458    0.028601
  C     -1.043621   -3.149047    0.150928
  O      0.062236   -3.043495    1.048244
  N     -3.208865   -1.882847    0.040776
  C     -3.569158   -0.626191   -0.085189
  N     -2.489271    0.196283   -0.183471
  H     -0.003982    1.064140    1.436913
  H      0.253126    0.268074   -1.242038
  H      0.741954   -0.717259    0.145657
  H     -1.735687   -3.949665    0.444486
  H     -0.598807   -3.439531   -0.807493
  H     -0.297252   -2.798951    1.907630
  H     -4.583207   -0.255230   -0.098168
  H     -2.478068    1.202856   -0.222666

 Total Charge           Charge          ....    0
 Multiplicity           Mult            ....    1
 Number of Electrons    NEL             ....   68
 Basis Dimension        Dim             ....  327

ORBITAL ENERGIES
----------------

  NO   OCC          E(Eh)            E(eV)
   0   2.0000     -20.571715      -559.7848
   1   2.0000     -20.558989      -559.4385
   2   2.0000     -15.620242      -425.0484
   3   2.0000     -15.548267      -423.0898
   4   2.0000     -11.299503      -307.4751
   5   2.0000     -11.293613      -307.3148
   6   2.0000     -11.279390      -306.9278
   7   2.0000     -11.263643      -306.4993
   8   2.0000     -11.248817      -306.0959
   9   2.0000      -1.375948       -37.4414
  10   2.0000      -1.361868       -37.0583
  11   2.0000      -1.340966       -36.4895
  12   2.0000      -1.172454       -31.9041
  13   2.0000      -1.047945       -28.5160
  14   2.0000      -0.959834       -26.1184
  15   2.0000      -0.904383       -24.6095
  16   2.0000      -0.831562       -22.6280
  17   2.0000      -0.773029       -21.0352
  18   2.0000      -0.746328       -20.3086
  19   2.0000      -0.696703       -18.9582
  20   2.0000      -0.684327       -18.6215
  21   2.0000      -0.634544       -17.2668
  22   2.0000      -0.622250       -16.9323
  23   2.0000      -0.603336       -16.4176
  24   2.0000      -0.601368       -16.3641
  25   2.0000      -0.592598       -16.1254
  26   2.0000      -0.578722       -15.7478
  27   2.0000      -0.527170       -14.3450
  28   2.0000      -0.503483       -13.7005
  29   2.0000      -0.480988       -13.0884
  30   2.0000      -0.457341       -12.4449
  31   2.0000      -0.436925       -11.8893
  32   2.0000      -0.400743       -10.9048
  33   2.0000      -0.315635        -8.5889
  34   0.0000       0.117978         3.2103
  35   0.0000       0.137587         3.7439
  36   0.0000       0.148351         4.0368
  37   0.0000       0.170022         4.6265
  38   0.0000       0.175360         4.7718

MULLIKEN ATOMIC CHARGES
-----------------------
   0 O :   -0.477868
   1 C :   -0.016515
   2 C :   -0.033774
   3 C :   -0.076673
   4 C :   -0.013091
   5 O :   -0.481779
   6 N :   -0.284249
   7 C :    0.057228
   8 N :   -0.256143
   9 H :    0.317160
  10 H :    0.125334
  11 H :    0.162851
  12 H :    0.132198
  13 H :    0.121989
  14 H :    0.313251
  15 H :    0.150541
  16 H :    0.259539
Sum of atomic charges:    0.0000000

LOEWDIN ATOMIC CHARGES
----------------------
   0 O :   -0.055618
   1 C :   -0.309303
   2 C :   -0.227479
   3 C :   -0.260307
   4 C :   -0.304748
   5 O :   -0.054843
   6 N :    0.105240
   7 C :   -0.313575
   8 N :    0.204031
   9 H :    0.174709
  10 H :    0.137420
  11 H :    0.136356
  12 H :    0.131124
  13 H :    0.135122
  14 H :    0.172752
  15 H :    0.130490
  16 H :    0.198628

  Mayer bond orders larger than 0.1
B(  0-O ,  1-C ) :   0.8644 B(  0-O ,  9-H ) :   0.8444 B(  1-C ,  2-C ) :   0.8693
B(  1-C , 10-H ) :   0.9094 B(  1-C , 11-H ) :   0.9559 B(  2-C ,  3-C ) :   1.4773
B(  2-C ,  8-N ) :   1.1402 B(  3-C ,  4-C ) :   0.9019 B(  3-C ,  6-N ) :   1.3497
B(  4-C ,  5-O ) :   0.8733 B(  4-C , 12-H ) :   0.9467 B(  4-C , 13-H ) :   0.9292
B(  5-O , 14-H ) :   0.8455 B(  6-N ,  7-C ) :   1.5354 B(  7-C ,  8-N ) :   1.1707
B(  7-C , 15-H ) :   0.9266 B(  8-N , 16-H ) :   0.8544

MP2 TOTAL ENERGY:     -454.445241567 Eh
FINAL SINGLE POINT ENERGY      -454.445241566568

DIPOLE MOMENT
-------------
                                X             Y             Z
Electronic contribution:     -2.59565       1.07302       0.09649
Nuclear contribution   :      2.39192      -0.13949       0.20969
                        -----------------------------------------
Total Dipole Moment    :     -0.20372       0.93353       0.30619
                        -----------------------------------------
Magnitude (a.u.)       :      1.00336
Magnitude (Debye)      :      2.55034

                             ****ORCA TERMINATED NORMALLY****
TOTAL RUN TIME: 0 days 0 hours 15 minutes 27 seconds 52 msec
