                         Program Version 3.0.3 - RELEASE   -
|  1> ! RI-MP2 RIJK def2-TZVP def2-TZVP/C def2-TZVP/JK TIGHTSCF
|  2> % maxcore 2000
|  3> % mp2 density relaxed end
|  4> *xyz 0 1
|  5>  C       -0.2066622135     1.4414617043     0.0766331877
|  6>  N        0.0378227170     0.0059157527     0.0272035392
|  7>  C        0.7656454909    -0.5026073838    -1.1986888199
|  8>  C        2.1244659666    -0.1276801963    -0.5450015855
|  9>  C        1.2992366677    -0.4609006849     0.7338183092
| 10>  C        1.0827961027    -1.9678252908     0.5488416103
| 11>  O        1.2142873510    -2.8629477869     1.3347124900
| 12>  C        0.6618812252    -2.0162766377    -0.9396996120
| 13>  H        0.6586482051     2.0860179537    -0.1500278897
| 14>  H       -1.0013926690     1.6832397682    -0.6368271323
| 15>  H       -0.5674183420     1.7030926535     1.0763246236
| 16>  H        0.4503170045    -0.1199576829    -2.1695014323
| 17>  H        3.0065785693    -0.7326371986    -0.7773200245
| 18>  H        2.3723263886     0.9304226412    -0.6218346407
| 19>  H        1.5203005173    -0.0921760138     1.7335758846
| 20>  H       -0.3548548701    -2.3994255885    -1.0492147029
| 21>  H        1.3465939886    -2.6279907896    -1.5338762648
| 22> *
| 23>
| 24>                          ****END OF INPUT****

CARTESIAN COORDINATES (ANGSTROEM)
---------------------------------
  C     -0.206662    1.441462    0.076633
  N      0.037823    0.005916    0.027204
  C      0.765645   -0.502607   -1.198689
  C      2.124466   -0.127680   -0.545002
  C      1.299237   -0.460901    0.733818
  C      1.082796   -1.967825    0.548842
  O      1.214287   -2.862948    1.334712
  C      0.661881   -2.016277   -0.939700
  H      0.658648    2.086018   -0.150028
  H     -1.001393    1.683240   -0.636827
  H     -0.567418    1.703093    1.076325
  H      0.450317   -0.119958   -2.169501
  H      3.006579   -0.732637   -0.777320
  H      2.372326    0.930423   -0.621835
  H      1.520301   -0.092176    1.733576
  H     -0.354855   -2.399426   -1.049215
  H      1.346594   -2.627991   -1.533876

 Total Charge           Charge          ....    0
 Multiplicity           Mult            ....    1
 Number of Electrons    NEL             ....   60
 Basis Dimension        Dim             ....  302

ORBITAL ENERGIES
----------------

  NO   OCC          E(Eh)            E(eV)
   0   2.0000     -20.546764      -559.1059
   1   2.0000     -15.565486      -423.5584
   2   2.0000     -11.330293      -308.3130
   3   2.0000     -11.279951      -306.9431
   4   2.0000     -11.276896      -306.8599
   5   2.0000     -11.254136      -306.2406
   6   2.0000     -11.247163      -306.0509
   7   2.0000     -11.238855      -305.8248
   8   2.0000      -1.392218       -37.8842
   9   2.0000      -1.282191       -34.8902
  10   2.0000      -1.073637       -29.2152
  11   2.0000      -0.980164       -26.6716
  12   2.0000      -0.935107       -25.4456
  13   2.0000      -0.900456       -24.5027
  14   2.0000      -0.768324       -20.9072
  15   2.0000      -0.737154       -20.0590
  16   2.0000      -0.692797       -18.8520
  17   2.0000      -0.662834       -18.0366
  18   2.0000      -0.633403       -17.2358
  19   2.0000      -0.607041       -16.5184
  20   2.0000      -0.594606       -16.1800
  21   2.0000      -0.574214       -15.6252
  22   2.0000      -0.553394       -15.0586
  23   2.0000      -0.540081       -14.6964
  24   2.0000      -0.528192       -14.3728
  25   2.0000      -0.515679       -14.0324
  26   2.0000      -0.471192       -12.8218
  27   2.0000      -0.466099       -12.6832
  28   2.0000      -0.400784       -10.9059
  29   2.0000      -0.366160        -9.9637
  30   0.0000       0.129832         3.5329
  31   0.0000       0.149795         4.0761
  32   0.0000       0.158846         4.3224
  33   0.0000       0.165460         4.5024
  34   0.0000       0.174675         4.7532

MULLIKEN ATOMIC CHARGES
-----------------------
   0 C :   -0.338970
   1 N :   -0.215846
   2 C :   -0.022582
   3 C :   -0.310579
   4 C :    0.037696
   5 C :    0.088499
   6 O :   -0.251990
   7 C :   -0.183658
   8 H :    0.103035
   9 H :    0.140760
  10 H :    0.145437
  11 H :    0.133761
  12 H :    0.130511
  13 H :    0.137513
  14 H :    0.141190
  15 H :    0.131546
  16 H :    0.133676
Sum of atomic charges:    0.0000000

LOEWDIN ATOMIC CHARGES
----------------------
   0 C :   -0.336383
   1 N :    0.103530
   2 C :   -0.218924
   3 C :   -0.200953
   4 C :   -0.190002
   5 C :   -0.292513
   6 O :    0.160543
   7 C :   -0.201508
   8 H :    0.102341
   9 H :    0.120448
  10 H :    0.121151
  11 H :    0.132675
  12 H :    0.131560
  13 H :    0.135298
  14 H :    0.137779
  15 H :    0.149838
  16 H :    0.145120

  Mayer bond orders larger than 0.1
B(  0-C ,  1-N ) :   0.9039 B(  0-C ,  8-H ) :   0.9217 B(  0-C ,  9-H ) :   0.9376
B(  0-C , 10-H ) :   0.9391 B(  1-N ,  2-C ) :   0.8464 B(  1-N ,  4-C ) :   0.8303
B(  2-C ,  3-C ) :   0.9095 B(  2-C ,  7-C ) :   0.9040 B(  2-C , 11-H ) :   0.9055
B(  3-C ,  4-C ) :   0.8973 B(  3-C , 12-H ) :   0.9233 B(  3-C , 13-H ) :   0.9142
B(  4-C ,  5-C ) :   0.8356 B(  4-C ,  7-C ) :  -0.1408 B(  4-C , 14-H ) :   0.9011
B(  5-C ,  6-O ) :   2.0751 B(  5-C ,  7-C ) :   0.9481 B(  7-C , 15-H ) :   0.8904
B(  7-C , 16-H ) :   0.9070

MP2 TOTAL ENERGY:     -363.220723774 Eh
FINAL SINGLE POINT ENERGY      -363.220723774189

DIPOLE MOMENT
-------------
                                X             Y             Z
Electronic contribution:      0.60323      -6.03861       3.09695
Nuclear contribution   :     -0.33899       7.13414      -3.98071
                        -----------------------------------------
Total Dipole Moment    :      0.26424       1.09554      -0.88376
                        -----------------------------------------
Magnitude (a.u.)       :      1.43215
Magnitude (Debye)      :      3.64024

                             ****ORCA TERMINATED NORMALLY****
TOTAL RUN TIME: 0 days 0 hours 13 minutes 0 seconds 381 msec
