                         Program Version 3.0.3 - RELEASE   -
|  1> ! RI-MP2 RIJK def2-TZVP def2-TZVP/C def2-TZVP/JK TIGHTSCF
|  2> % maxcore 2000
|  3> % mp2 density relaxed end
|  4> *xyz 0 1
|  5>  O        0.0430676551     1.4637054259    -0.1158290106
|  6>  C        0.1048070110     0.0836753469    -0.0689856564
|  7>  C        0.0730121207    -0.6068178322     1.3318183783
|  8>  O       -1.3478554142    -0.1788244191     1.4516403926
|  9>  C       -1.2349010235    -0.7083967374     0.0647894080
| 10>  C       -0.4656138097    -1.8971139157     0.6786502942
| 11>  O        0.3984621990    -2.6413050804    -0.1533580416
| 12>  C        0.3918703644    -3.9897964117    -0.0406860314
| 13>  O        1.0889702260    -4.6912395988    -0.7048207577
| 14>  H       -0.6164034756     1.7211623128     0.5444109665
| 15>  H        0.8353952858    -0.2717680237    -0.7946669152
| 16>  H        0.7127854227    -0.4777828354     2.2044093276
| 17>  H       -2.1329446048    -0.6987197690    -0.5522933454
| 18>  H       -1.0626120440    -2.5232097626     1.3451709327
| 19>  H       -0.3224585929    -4.3495484294     0.7241756082
| 20> *
| 21>
| 22>                          ****END OF INPUT****

CARTESIAN COORDINATES (ANGSTROEM)
---------------------------------
  O      0.043068    1.463705   -0.115829
  C      0.104807    0.083675   -0.068986
  C      0.073012   -0.606818    1.331818
  O     -1.347855   -0.178824    1.451640
  C     -1.234901   -0.708397    0.064789
  C     -0.465614   -1.897114    0.678650
  O      0.398462   -2.641305   -0.153358
  C      0.391870   -3.989796   -0.040686
  O      1.088970   -4.691240   -0.704821
  H     -0.616403    1.721162    0.544411
  H      0.835395   -0.271768   -0.794667
  H      0.712785   -0.477783    2.204409
  H     -2.132945   -0.698720   -0.552293
  H     -1.062612   -2.523210    1.345171
  H     -0.322459   -4.349548    0.724176

 Total Charge           Charge          ....    0
 Multiplicity           Mult            ....    1
 Number of Electrons    NEL             ....   68
 Basis Dimension        Dim             ....  315

ORBITAL ENERGIES
----------------

  NO   OCC          E(Eh)            E(eV)
   0   2.0000     -20.630635      -561.3881
   1   2.0000     -20.586481      -560.1866
   2   2.0000     -20.576159      -559.9058
   3   2.0000     -20.567385      -559.6670
   4   2.0000     -11.400798      -310.2315
   5   2.0000     -11.336400      -308.4791
   6   2.0000     -11.324013      -308.1421
   7   2.0000     -11.323961      -308.1406
   8   2.0000     -11.315574      -307.9124
   9   2.0000      -1.486025       -40.4368
  10   2.0000      -1.439922       -39.1823
  11   2.0000      -1.392893       -37.9026
  12   2.0000      -1.375819       -37.4379
  13   2.0000      -1.095608       -29.8130
  14   2.0000      -0.944169       -25.6922
  15   2.0000      -0.921728       -25.0815
  16   2.0000      -0.875413       -23.8212
  17   2.0000      -0.813536       -22.1374
  18   2.0000      -0.761202       -20.7134
  19   2.0000      -0.734485       -19.9864
  20   2.0000      -0.702574       -19.1180
  21   2.0000      -0.671049       -18.2602
  22   2.0000      -0.657534       -17.8924
  23   2.0000      -0.643560       -17.5122
  24   2.0000      -0.602963       -16.4075
  25   2.0000      -0.585713       -15.9381
  26   2.0000      -0.572399       -15.5758
  27   2.0000      -0.549596       -14.9553
  28   2.0000      -0.533193       -14.5089
  29   2.0000      -0.517272       -14.0757
  30   2.0000      -0.476792       -12.9742
  31   2.0000      -0.458835       -12.4855
  32   2.0000      -0.449331       -12.2269
  33   2.0000      -0.437081       -11.8936
  34   0.0000       0.135904         3.6981
  35   0.0000       0.141241         3.8433
  36   0.0000       0.146632         3.9900
  37   0.0000       0.164919         4.4877
  38   0.0000       0.167054         4.5458

MULLIKEN ATOMIC CHARGES
-----------------------
   0 O :   -0.456954
   1 C :    0.124095
   2 C :   -0.078399
   3 O :   -0.320917
   4 C :   -0.078439
   5 C :    0.090126
   6 O :   -0.212038
   7 C :    0.194363
   8 O :   -0.252135
   9 H :    0.333435
  10 H :    0.146132
  11 H :    0.154355
  12 H :    0.154358
  13 H :    0.122130
  14 H :    0.079889
Sum of atomic charges:    0.0000000

LOEWDIN ATOMIC CHARGES
----------------------
   0 O :    0.013570
   1 C :   -0.301369
   2 C :   -0.192712
   3 O :    0.127200
   4 C :   -0.192666
   5 C :   -0.262287
   6 O :    0.269974
   7 C :   -0.436947
   8 O :    0.133796
   9 H :    0.188641
  10 H :    0.145993
  11 H :    0.129232
  12 H :    0.129228
  13 H :    0.143294
  14 H :    0.105053

  Mayer bond orders larger than 0.1
B(  0-O ,  1-C ) :   1.0042 B(  0-O ,  9-H ) :   0.8149 B(  1-C ,  2-C ) :   0.9045
B(  1-C ,  4-C ) :   0.9045 B(  1-C , 10-H ) :   0.9222 B(  2-C ,  3-O ) :   0.8769
B(  2-C ,  5-C ) :   0.9493 B(  2-C , 11-H ) :   0.8865 B(  3-O ,  4-C ) :   0.8769
B(  4-C ,  5-C ) :   0.9493 B(  4-C , 12-H ) :   0.8865 B(  5-C ,  6-O ) :   0.8989
B(  5-C , 13-H ) :   0.8894 B(  6-O ,  7-C ) :   1.0444 B(  7-C ,  8-O ) :   2.0485
B(  7-C , 14-H ) :   0.9157

MP2 TOTAL ENERGY:     -494.076773851 Eh
FINAL SINGLE POINT ENERGY      -494.076773851103

DIPOLE MOMENT
-------------
                                X             Y             Z
Electronic contribution:      1.08398      -1.86714      -0.96906
Nuclear contribution   :     -1.84358       1.97824       1.74435
                        -----------------------------------------
Total Dipole Moment    :     -0.75960       0.11110       0.77529
                        -----------------------------------------
Magnitude (a.u.)       :      1.09106
Magnitude (Debye)      :      2.77326

                             ****ORCA TERMINATED NORMALLY****
TOTAL RUN TIME: 0 days 0 hours 13 minutes 25 seconds 209 msec
