                         Program Version 3.0.3 - RELEASE   -
|  1> ! RI-MP2 RIJK def2-TZVP def2-TZVP/C def2-TZVP/JK TIGHTSCF
|  2> % maxcore 2000
|  3> % mp2 density relaxed end
|  4> *xyz 0 1
|  5>  C       -0.2201391535     1.4719494222     0.1366050549
|  6>  C        0.1837188318     0.0150678128    -0.1209796872
|  7>  C        0.8347673356    -0.6160346119     1.0897268774
|  8>  C        0.0313925590    -1.2983673073     2.1877818166
|  9>  O       -1.2905823420    -1.6436523022     1.8646421590
| 10>  C       -1.2754935852    -2.9349984504     1.2402816175
| 11>  C        0.0902631095    -3.0674835066     0.5344161021
| 12>  C        0.9777475750    -2.0985029528     1.3272069695
| 13>  O        2.2348383710    -2.5250686152     1.7581966914
| 14>  H        0.6475945744     2.0837132997     0.4069086508
| 15>  H       -0.6792631271     1.9174867291    -0.7513426141
| 16>  H       -0.9413516774     1.5331814248     0.9575831441
| 17>  H       -0.7071640592    -0.5544724205    -0.4023222842
| 18>  H        0.8734226092    -0.0350893989    -0.9730640858
| 19>  H        1.6924174138    -0.0708091234     1.4802721742
| 20>  H        0.2144706146    -1.0805437591     3.2361983466
| 21>  H       -1.3919052631    -3.7188872428     2.0044945412
| 22>  H       -2.1335476842    -2.9853457407     0.5645740696
| 23>  H        0.4941248052    -4.0813712698     0.6060929905
| 24>  H        0.0319886935    -2.8125609154    -0.5279343214
| 25>  H        2.1095508090    -3.2472782413     2.3847490073
| 26> *
| 27>
| 28>                          ****END OF INPUT****

CARTESIAN COORDINATES (ANGSTROEM)
---------------------------------
  C     -0.220139    1.471949    0.136605
  C      0.183719    0.015068   -0.120980
  C      0.834767   -0.616035    1.089727
  C      0.031393   -1.298367    2.187782
  O     -1.290582   -1.643652    1.864642
  C     -1.275494   -2.934998    1.240282
  C      0.090263   -3.067484    0.534416
  C      0.977748   -2.098503    1.327207
  O      2.234838   -2.525069    1.758197
  H      0.647595    2.083713    0.406909
  H     -0.679263    1.917487   -0.751343
  H     -0.941352    1.533181    0.957583
  H     -0.707164   -0.554472   -0.402322
  H      0.873423   -0.035089   -0.973064
  H      1.692417   -0.070809    1.480272
  H      0.214471   -1.080544    3.236198
  H     -1.391905   -3.718887    2.004495
  H     -2.133548   -2.985346    0.564574
  H      0.494125   -4.081371    0.606093
  H      0.031989   -2.812561   -0.527934
  H      2.109551   -3.247278    2.384749

 Total Charge           Charge          ....    0
 Multiplicity           Mult            ....    1
 Number of Electrons    NEL             ....   70
 Basis Dimension        Dim             ....  351

ORBITAL ENERGIES
----------------

  NO   OCC          E(Eh)            E(eV)
   0   2.0000     -20.568415      -559.6950
   1   2.0000     -20.557027      -559.3852
   2   2.0000     -11.287213      -307.1407
   3   2.0000     -11.280593      -306.9605
   4   2.0000     -11.273176      -306.7587
   5   2.0000     -11.232970      -305.6646
   6   2.0000     -11.228009      -305.5297
   7   2.0000     -11.220298      -305.3198
   8   2.0000     -11.208832      -305.0078
   9   2.0000      -1.392044       -37.8794
  10   2.0000      -1.369931       -37.2777
  11   2.0000      -1.128574       -30.7101
  12   2.0000      -1.034245       -28.1432
  13   2.0000      -1.013886       -27.5892
  14   2.0000      -0.879586       -23.9348
  15   2.0000      -0.847528       -23.0624
  16   2.0000      -0.796764       -21.6810
  17   2.0000      -0.749678       -20.3998
  18   2.0000      -0.722466       -19.6593
  19   2.0000      -0.671498       -18.2724
  20   2.0000      -0.639542       -17.4028
  21   2.0000      -0.620804       -16.8929
  22   2.0000      -0.603339       -16.4177
  23   2.0000      -0.590585       -16.0706
  24   2.0000      -0.584641       -15.9089
  25   2.0000      -0.555358       -15.1121
  26   2.0000      -0.549074       -14.9411
  27   2.0000      -0.512118       -13.9354
  28   2.0000      -0.511117       -13.9082
  29   2.0000      -0.496853       -13.5201
  30   2.0000      -0.484644       -13.1878
  31   2.0000      -0.468627       -12.7520
  32   2.0000      -0.448790       -12.2122
  33   2.0000      -0.393953       -10.7200
  34   2.0000      -0.370155       -10.0724
  35   0.0000       0.128719         3.5026
  36   0.0000       0.149863         4.0780
  37   0.0000       0.163101         4.4382
  38   0.0000       0.171371         4.6632
  39   0.0000       0.185520         5.0482

MULLIKEN ATOMIC CHARGES
-----------------------
   0 C :   -0.407918
   1 C :   -0.189292
   2 C :   -0.124136
   3 C :    0.017705
   4 O :   -0.329030
   5 C :   -0.037165
   6 C :   -0.271528
   7 C :    0.143092
   8 O :   -0.450843
   9 H :    0.120807
  10 H :    0.131203
  11 H :    0.139957
  12 H :    0.110899
  13 H :    0.118393
  14 H :    0.117181
  15 H :    0.132121
  16 H :    0.091767
  17 H :    0.113664
  18 H :    0.126312
  19 H :    0.128901
  20 H :    0.317911
Sum of atomic charges:    0.0000000

LOEWDIN ATOMIC CHARGES
----------------------
   0 C :   -0.311811
   1 C :   -0.270491
   2 C :   -0.170591
   3 C :   -0.253018
   4 O :    0.173294
   5 C :   -0.286630
   6 C :   -0.222223
   7 C :   -0.331014
   8 O :    0.025224
   9 H :    0.119921
  10 H :    0.119943
  11 H :    0.125375
  12 H :    0.142283
  13 H :    0.139468
  14 H :    0.162556
  15 H :    0.135166
  16 H :    0.118417
  17 H :    0.124035
  18 H :    0.140360
  19 H :    0.139601
  20 H :    0.180133

  Mayer bond orders larger than 0.1
B(  0-C ,  1-C ) :   0.9204 B(  0-C ,  9-H ) :   0.9391 B(  0-C , 10-H ) :   0.9412
B(  0-C , 11-H ) :   0.9410 B(  1-C ,  2-C ) :   0.8917 B(  1-C , 12-H ) :   0.9266
B(  1-C , 13-H ) :   0.9335 B(  2-C ,  3-C ) :   0.8881 B(  2-C ,  7-C ) :   0.8694
B(  2-C , 14-H ) :   0.9135 B(  3-C ,  4-O ) :   0.9516 B(  3-C ,  7-C ) :   0.8294
B(  3-C , 15-H ) :   0.9343 B(  4-O ,  5-C ) :   0.9273 B(  5-C ,  6-C ) :   0.9604
B(  5-C , 16-H ) :   0.9229 B(  5-C , 17-H ) :   0.9283 B(  6-C ,  7-C ) :   0.9000
B(  6-C , 18-H ) :   0.9280 B(  6-C , 19-H ) :   0.9173 B(  7-C ,  8-O ) :   1.0784
B(  8-O , 20-H ) :   0.8381

MP2 TOTAL ENERGY:     -423.505641712 Eh
FINAL SINGLE POINT ENERGY      -423.505641712252

DIPOLE MOMENT
-------------
                                X             Y             Z
Electronic contribution:      1.75677      -4.35009       4.19441
Nuclear contribution   :     -1.79603       3.74676      -4.18258
                        -----------------------------------------
Total Dipole Moment    :     -0.03926      -0.60333       0.01183
                        -----------------------------------------
Magnitude (a.u.)       :      0.60472
Magnitude (Debye)      :      1.53708

                             ****ORCA TERMINATED NORMALLY****
TOTAL RUN TIME: 0 days 0 hours 29 minutes 27 seconds 396 msec
