                         Program Version 3.0.3 - RELEASE   -
|  1> ! RI-MP2 RIJK def2-TZVP def2-TZVP/C def2-TZVP/JK TIGHTSCF
|  2> % maxcore 2000
|  3> % mp2 density relaxed end
|  4> *xyz 0 1
|  5>  C       -0.2856285654     1.5315108401    -0.0815264751
|  6>  C        0.1029576056     0.0706115387    -0.0407006123
|  7>  O        1.3576393576    -0.1813812573    -0.7699714670
|  8>  C        1.9640948411    -0.6868789777     0.3570510927
|  9>  N        3.1363572501    -1.0976140669     0.5401331458
| 10>  C        0.7434993000    -0.5330152108     1.2434798302
| 11>  C        0.8980715777     0.3050102419     2.5112244560
| 12>  C        1.6306261646    -0.4650852986     3.6172636538
| 13>  O        1.7550099331     0.2960377063     4.8085824778
| 14>  H        0.5111709090     2.1700552082     0.3080476061
| 15>  H       -0.4947093166     1.8348263127    -1.1115948284
| 16>  H       -1.1899219270     1.7000353278     0.5123562921
| 17>  H       -0.6869640123    -0.5548698165    -0.4679502364
| 18>  H        3.6924094244    -1.0322388528    -0.3144478761
| 19>  H        0.3061720922    -1.5055468294     1.4931326391
| 20>  H        1.4541785297     1.2245710942     2.2911212540
| 21>  H       -0.0871721786     0.6077398081     2.8849109140
| 22>  H        1.0516362205    -1.3547973822     3.8910160643
| 23>  H        2.6048540485    -0.8104594143     3.2462609403
| 24>  H        2.4164643160     0.9773093286     4.6534551592
| 25> *
| 26>
| 27>                          ****END OF INPUT****

CARTESIAN COORDINATES (ANGSTROEM)
---------------------------------
  C     -0.285629    1.531511   -0.081526
  C      0.102958    0.070612   -0.040701
  O      1.357639   -0.181381   -0.769971
  C      1.964095   -0.686879    0.357051
  N      3.136357   -1.097614    0.540133
  C      0.743499   -0.533015    1.243480
  C      0.898072    0.305010    2.511224
  C      1.630626   -0.465085    3.617264
  O      1.755010    0.296038    4.808582
  H      0.511171    2.170055    0.308048
  H     -0.494709    1.834826   -1.111595
  H     -1.189922    1.700035    0.512356
  H     -0.686964   -0.554870   -0.467950
  H      3.692409   -1.032239   -0.314448
  H      0.306172   -1.505547    1.493133
  H      1.454179    1.224571    2.291121
  H     -0.087172    0.607740    2.884911
  H      1.051636   -1.354797    3.891016
  H      2.604854   -0.810459    3.246261
  H      2.416464    0.977309    4.653455

 Total Charge           Charge          ....    0
 Multiplicity           Mult            ....    1
 Number of Electrons    NEL             ....   70
 Basis Dimension        Dim             ....  345

ORBITAL ENERGIES
----------------

  NO   OCC          E(Eh)            E(eV)
   0   2.0000     -20.591054      -560.3111
   1   2.0000     -20.555616      -559.3467
   2   2.0000     -15.537856      -422.8066
   3   2.0000     -11.339869      -308.5735
   4   2.0000     -11.309650      -307.7512
   5   2.0000     -11.275116      -306.8115
   6   2.0000     -11.258414      -306.3570
   7   2.0000     -11.239105      -305.8316
   8   2.0000     -11.236091      -305.7496
   9   2.0000      -1.434437       -39.0330
  10   2.0000      -1.359618       -36.9971
  11   2.0000      -1.197951       -32.5979
  12   2.0000      -1.093265       -29.7492
  13   2.0000      -1.024535       -27.8790
  14   2.0000      -0.961134       -26.1538
  15   2.0000      -0.854482       -23.2516
  16   2.0000      -0.836948       -22.7745
  17   2.0000      -0.731887       -19.9157
  18   2.0000      -0.710921       -19.3451
  19   2.0000      -0.700012       -19.0483
  20   2.0000      -0.685768       -18.6607
  21   2.0000      -0.648606       -17.6495
  22   2.0000      -0.616902       -16.7868
  23   2.0000      -0.595028       -16.1915
  24   2.0000      -0.593737       -16.1564
  25   2.0000      -0.568809       -15.4781
  26   2.0000      -0.556791       -15.1510
  27   2.0000      -0.523154       -14.2358
  28   2.0000      -0.513110       -13.9624
  29   2.0000      -0.503905       -13.7120
  30   2.0000      -0.490371       -13.3437
  31   2.0000      -0.481120       -13.0919
  32   2.0000      -0.440337       -11.9822
  33   2.0000      -0.431483       -11.7412
  34   2.0000      -0.402709       -10.9583
  35   0.0000       0.124517         3.3883
  36   0.0000       0.139922         3.8075
  37   0.0000       0.151674         4.1272
  38   0.0000       0.171234         4.6595
  39   0.0000       0.173601         4.7239

MULLIKEN ATOMIC CHARGES
-----------------------
   0 C :   -0.399001
   1 C :    0.113333
   2 O :   -0.268946
   3 C :    0.102826
   4 N :   -0.384950
   5 C :   -0.075281
   6 C :   -0.234206
   7 C :   -0.057867
   8 O :   -0.473345
   9 H :    0.135102
  10 H :    0.150395
  11 H :    0.134866
  12 H :    0.106441
  13 H :    0.226776
  14 H :    0.127018
  15 H :    0.101438
  16 H :    0.123213
  17 H :    0.106090
  18 H :    0.150299
  19 H :    0.315798
Sum of atomic charges:    0.0000000

LOEWDIN ATOMIC CHARGES
----------------------
   0 C :   -0.291073
   1 C :   -0.243108
   2 O :    0.228392
   3 C :   -0.385770
   4 N :   -0.062194
   5 C :   -0.180539
   6 C :   -0.251933
   7 C :   -0.342754
   8 O :   -0.050776
   9 H :    0.128680
  10 H :    0.132311
  11 H :    0.132860
  12 H :    0.139012
  13 H :    0.172086
  14 H :    0.164463
  15 H :    0.138878
  16 H :    0.142823
  17 H :    0.128310
  18 H :    0.126749
  19 H :    0.173583

  Mayer bond orders larger than 0.1
B(  0-C ,  1-C ) :   0.9185 B(  0-C ,  9-H ) :   0.9363 B(  0-C , 10-H ) :   0.9317
B(  0-C , 11-H ) :   0.9262 B(  1-C ,  2-O ) :   0.8753 B(  1-C ,  5-C ) :   0.9223
B(  1-C , 12-H ) :   0.9219 B(  2-O ,  3-C ) :   1.0775 B(  3-C ,  4-N ) :   2.0275
B(  3-C ,  5-C ) :   0.9099 B(  4-N , 13-H ) :   0.8440 B(  5-C ,  6-C ) :   0.8929
B(  5-C , 14-H ) :   0.9103 B(  6-C ,  7-C ) :   0.9141 B(  6-C , 15-H ) :   0.9228
B(  6-C , 16-H ) :   0.9255 B(  7-C ,  8-O ) :   0.9261 B(  7-C , 17-H ) :   0.9231
B(  7-C , 18-H ) :   0.9426 B(  8-O , 19-H ) :   0.8490

MP2 TOTAL ENERGY:     -439.566171178 Eh
FINAL SINGLE POINT ENERGY      -439.566171177940

DIPOLE MOMENT
-------------
                                X             Y             Z
Electronic contribution:      3.43061      -3.11189      -2.37975
Nuclear contribution   :     -4.10579       3.65937       1.85726
                        -----------------------------------------
Total Dipole Moment    :     -0.67518       0.54747      -0.52249
                        -----------------------------------------
Magnitude (a.u.)       :      1.01419
Magnitude (Debye)      :      2.57787

                             ****ORCA TERMINATED NORMALLY****
TOTAL RUN TIME: 0 days 0 hours 16 minutes 31 seconds 941 msec
