                         Program Version 3.0.3 - RELEASE   -
|  1> ! RI-MP2 RIJK def2-TZVP def2-TZVP/C def2-TZVP/JK TIGHTSCF
|  2> % maxcore 2000
|  3> % mp2 density relaxed end
|  4> *xyz 0 1
|  5>  C        0.0205435351     1.5210921930    -0.1146655551
|  6>  C       -0.0025040315     0.0161795340    -0.0155367882
|  7>  O        0.3598904182    -0.5444115580    -1.2630595082
|  8>  C       -0.1282028583    -1.8519780577    -1.4168581232
|  9>  O        0.1214863304    -2.6530839113    -0.2856444672
| 10>  C       -0.2046436175    -1.9497859578     0.8811283857
| 11>  C        0.6192738394    -0.6812417030     1.2369665831
| 12>  O       -0.5295809889    -0.2211665718     2.0373190426
| 13>  C       -1.1469004182    -0.7041007339     0.7967304416
| 14>  H        1.0071651241     1.8571695705    -0.4474145400
| 15>  H       -0.7152388541     1.8651800562    -0.8476122296
| 16>  H       -0.2018665007     1.9631402099     0.8572294467
| 17>  H       -1.2160249431    -1.8188157151    -1.6025356284
| 18>  H        0.3869203868    -2.3029200876    -2.2668352550
| 19>  H       -0.3920212988    -2.6406494070     1.7025416602
| 20>  H        1.6167310894    -0.5898276272     1.6664345411
| 21>  H       -2.2323935423    -0.6301063733     0.7224578939
| 22> *
| 23>
| 24>                          ****END OF INPUT****

CARTESIAN COORDINATES (ANGSTROEM)
---------------------------------
  C      0.020544    1.521092   -0.114666
  C     -0.002504    0.016180   -0.015537
  O      0.359890   -0.544412   -1.263060
  C     -0.128203   -1.851978   -1.416858
  O      0.121486   -2.653084   -0.285644
  C     -0.204644   -1.949786    0.881128
  C      0.619274   -0.681242    1.236967
  O     -0.529581   -0.221167    2.037319
  C     -1.146900   -0.704101    0.796730
  H      1.007165    1.857170   -0.447415
  H     -0.715239    1.865180   -0.847612
  H     -0.201867    1.963140    0.857229
  H     -1.216025   -1.818816   -1.602536
  H      0.386920   -2.302920   -2.266835
  H     -0.392021   -2.640649    1.702542
  H      1.616731   -0.589828    1.666435
  H     -2.232394   -0.630106    0.722458

 Total Charge           Charge          ....    0
 Multiplicity           Mult            ....    1
 Number of Electrons    NEL             ....   68
 Basis Dimension        Dim             ....  327

ORBITAL ENERGIES
----------------

  NO   OCC          E(Eh)            E(eV)
   0   2.0000     -20.579647      -560.0007
   1   2.0000     -20.577950      -559.9545
   2   2.0000     -20.567030      -559.6573
   3   2.0000     -11.341909      -308.6290
   4   2.0000     -11.312594      -307.8313
   5   2.0000     -11.308778      -307.7275
   6   2.0000     -11.305635      -307.6420
   7   2.0000     -11.300132      -307.4922
   8   2.0000     -11.221444      -305.3510
   9   2.0000      -1.456614       -39.6365
  10   2.0000      -1.402518       -38.1645
  11   2.0000      -1.364282       -37.1240
  12   2.0000      -1.081410       -29.4267
  13   2.0000      -1.000464       -27.2240
  14   2.0000      -0.932457       -25.3734
  15   2.0000      -0.903337       -24.5811
  16   2.0000      -0.864455       -23.5230
  17   2.0000      -0.730855       -19.8876
  18   2.0000      -0.722407       -19.6577
  19   2.0000      -0.714909       -19.4537
  20   2.0000      -0.696682       -18.9577
  21   2.0000      -0.641092       -17.4450
  22   2.0000      -0.616616       -16.7790
  23   2.0000      -0.597020       -16.2457
  24   2.0000      -0.573425       -15.6037
  25   2.0000      -0.558260       -15.1910
  26   2.0000      -0.552826       -15.0432
  27   2.0000      -0.540647       -14.7118
  28   2.0000      -0.515628       -14.0310
  29   2.0000      -0.504849       -13.7376
  30   2.0000      -0.489639       -13.3238
  31   2.0000      -0.431317       -11.7367
  32   2.0000      -0.420582       -11.4446
  33   2.0000      -0.406582       -11.0637
  34   0.0000       0.143249         3.8980
  35   0.0000       0.157565         4.2875
  36   0.0000       0.172757         4.7009
  37   0.0000       0.180265         4.9053
  38   0.0000       0.194128         5.2825

MULLIKEN ATOMIC CHARGES
-----------------------
   0 C :   -0.450463
   1 C :    0.269167
   2 O :   -0.304176
   3 C :    0.085042
   4 O :   -0.303739
   5 C :    0.096813
   6 C :   -0.043632
   7 O :   -0.316465
   8 C :   -0.108018
   9 H :    0.142085
  10 H :    0.133699
  11 H :    0.162357
  12 H :    0.085761
  13 H :    0.136992
  14 H :    0.128293
  15 H :    0.145974
  16 H :    0.140310
Sum of atomic charges:   -0.0000000

LOEWDIN ATOMIC CHARGES
----------------------
   0 C :   -0.266316
   1 C :   -0.310994
   2 O :    0.206567
   3 C :   -0.371955
   4 O :    0.184451
   5 C :   -0.259025
   6 C :   -0.178498
   7 O :    0.154750
   8 C :   -0.194209
   9 H :    0.133447
  10 H :    0.130657
  11 H :    0.138515
  12 H :    0.111274
  13 H :    0.124929
  14 H :    0.143240
  15 H :    0.127387
  16 H :    0.125781

  Mayer bond orders larger than 0.1
B(  0-C ,  1-C ) :   0.8821 B(  0-C ,  9-H ) :   0.9351 B(  0-C , 10-H ) :   0.9309
B(  0-C , 11-H ) :   0.9402 B(  1-C ,  2-O ) :   0.9440 B(  1-C ,  6-C ) :   0.8978
B(  1-C ,  8-C ) :   0.8767 B(  2-O ,  3-C ) :   0.9736 B(  3-C ,  4-O ) :   0.9613
B(  3-C , 12-H ) :   0.9234 B(  3-C , 13-H ) :   0.9270 B(  4-O ,  5-C ) :   0.9668
B(  5-C ,  6-C ) :   0.8887 B(  5-C ,  8-C ) :   0.8873 B(  5-C , 14-H ) :   0.9348
B(  6-C ,  7-O ) :   0.8961 B(  6-C , 15-H ) :   0.8829 B(  7-O ,  8-C ) :   0.9167
B(  8-C , 16-H ) :   0.8881

MP2 TOTAL ENERGY:     -458.161360637 Eh
FINAL SINGLE POINT ENERGY      -458.161360637358

DIPOLE MOMENT
-------------
                                X             Y             Z
Electronic contribution:      0.64329      -3.69633       1.26999
Nuclear contribution   :     -0.89404       3.73703      -1.61101
                        -----------------------------------------
Total Dipole Moment    :     -0.25075       0.04070      -0.34101
                        -----------------------------------------
Magnitude (a.u.)       :      0.42523
Magnitude (Debye)      :      1.08085

                             ****ORCA TERMINATED NORMALLY****
TOTAL RUN TIME: 0 days 0 hours 17 minutes 7 seconds 101 msec
