                         Program Version 3.0.3 - RELEASE   -
|  1> ! RI-MP2 RIJK def2-TZVP def2-TZVP/C def2-TZVP/JK TIGHTSCF
|  2> % maxcore 2000
|  3> % mp2 density relaxed end
|  4> *xyz 0 1
|  5>  C       -0.0414579346     1.5137215432     0.0439210042
|  6>  C       -0.0210224591    -0.0019110326     0.0113971928
|  7>  C       -0.8643566107    -0.7552043020     1.0118860000
|  8>  C        0.6402178799    -0.7425337347     1.1553909296
|  9>  C        1.4868968572    -1.9696901831     0.8083940018
| 10>  C        2.3153516655    -1.7420110222    -0.4526022774
| 11>  O        1.9173950854    -2.4578895467    -1.6285171867
| 12>  C        1.6605518017    -1.0484484394    -1.5722948652
| 13>  C        0.2088991438    -0.6231313778    -1.3754745538
| 14>  H        0.8841996066     1.9350886192    -0.3668728972
| 15>  H       -0.8758414101     1.9118678782    -0.5461224656
| 16>  H       -0.1493774745     1.8885266129     1.0668116012
| 17>  H       -1.4539097155    -0.1839297040     1.7222586813
| 18>  H       -1.3319931336    -1.6826895148     0.6930766425
| 19>  H        1.0376269707    -0.1232814175     1.9545217802
| 20>  H        2.1396872141    -2.2228344200     1.6484679367
| 21>  H        0.8498027697    -2.8424810800     0.6318847406
| 22>  H        3.3948657399    -1.6575681151    -0.3327781780
| 23>  H        2.2661276004    -0.4637183123    -2.2636252929
| 24>  H       -0.4137234196    -1.5129920907    -1.5096518222
| 25>  H       -0.0864467973     0.0883895993    -2.1526646122
| 26> *
| 27>
| 28>                          ****END OF INPUT****

CARTESIAN COORDINATES (ANGSTROEM)
---------------------------------
  C     -0.041458    1.513722    0.043921
  C     -0.021022   -0.001911    0.011397
  C     -0.864357   -0.755204    1.011886
  C      0.640218   -0.742534    1.155391
  C      1.486897   -1.969690    0.808394
  C      2.315352   -1.742011   -0.452602
  O      1.917395   -2.457890   -1.628517
  C      1.660552   -1.048448   -1.572295
  C      0.208899   -0.623131   -1.375475
  H      0.884200    1.935089   -0.366873
  H     -0.875841    1.911868   -0.546122
  H     -0.149377    1.888527    1.066812
  H     -1.453910   -0.183930    1.722259
  H     -1.331993   -1.682690    0.693077
  H      1.037627   -0.123281    1.954522
  H      2.139687   -2.222834    1.648468
  H      0.849803   -2.842481    0.631885
  H      3.394866   -1.657568   -0.332778
  H      2.266128   -0.463718   -2.263625
  H     -0.413723   -1.512992   -1.509652
  H     -0.086447    0.088390   -2.152665

 Total Charge           Charge          ....    0
 Multiplicity           Mult            ....    1
 Number of Electrons    NEL             ....   68
 Basis Dimension        Dim             ....  351

ORBITAL ENERGIES
----------------

  NO   OCC          E(Eh)            E(eV)
   0   2.0000     -20.557168      -559.3890
   1   2.0000     -11.277662      -306.8808
   2   2.0000     -11.276865      -306.8591
   3   2.0000     -11.237907      -305.7990
   4   2.0000     -11.229425      -305.5682
   5   2.0000     -11.228257      -305.5364
   6   2.0000     -11.227373      -305.5124
   7   2.0000     -11.223486      -305.4066
   8   2.0000     -11.220291      -305.3196
   9   2.0000      -1.401573       -38.1387
  10   2.0000      -1.165974       -31.7278
  11   2.0000      -1.020136       -27.7593
  12   2.0000      -1.003585       -27.3089
  13   2.0000      -0.951447       -25.8902
  14   2.0000      -0.864040       -23.5117
  15   2.0000      -0.821325       -22.3494
  16   2.0000      -0.790071       -21.4989
  17   2.0000      -0.711716       -19.3668
  18   2.0000      -0.696958       -18.9652
  19   2.0000      -0.647374       -17.6160
  20   2.0000      -0.628981       -17.1154
  21   2.0000      -0.613659       -16.6985
  22   2.0000      -0.595042       -16.1919
  23   2.0000      -0.565034       -15.3754
  24   2.0000      -0.545471       -14.8430
  25   2.0000      -0.530533       -14.4365
  26   2.0000      -0.523146       -14.2355
  27   2.0000      -0.518436       -14.1074
  28   2.0000      -0.506270       -13.7763
  29   2.0000      -0.467502       -12.7214
  30   2.0000      -0.442047       -12.0287
  31   2.0000      -0.416913       -11.3448
  32   2.0000      -0.399896       -10.8817
  33   2.0000      -0.382843       -10.4177
  34   0.0000       0.134604         3.6628
  35   0.0000       0.159015         4.3270
  36   0.0000       0.164043         4.4638
  37   0.0000       0.170425         4.6375
  38   0.0000       0.186690         5.0801

MULLIKEN ATOMIC CHARGES
-----------------------
   0 C :   -0.443517
   1 C :    0.154018
   2 C :   -0.334680
   3 C :   -0.113392
   4 C :   -0.246077
   5 C :    0.020434
   6 O :   -0.331182
   7 C :    0.024525
   8 C :   -0.247465
   9 H :    0.131676
  10 H :    0.134038
  11 H :    0.127462
  12 H :    0.126991
  13 H :    0.127293
  14 H :    0.117026
  15 H :    0.126529
  16 H :    0.132545
  17 H :    0.113770
  18 H :    0.118133
  19 H :    0.134884
  20 H :    0.126986
Sum of atomic charges:    0.0000000

LOEWDIN ATOMIC CHARGES
----------------------
   0 C :   -0.269430
   1 C :   -0.247081
   2 C :   -0.190384
   3 C :   -0.182470
   4 C :   -0.218837
   5 C :   -0.257214
   6 O :    0.154827
   7 C :   -0.255248
   8 C :   -0.191810
   9 H :    0.126302
  10 H :    0.126030
  11 H :    0.127483
  12 H :    0.133036
  13 H :    0.134413
  14 H :    0.146965
  15 H :    0.144086
  16 H :    0.152088
  17 H :    0.133379
  18 H :    0.133504
  19 H :    0.153479
  20 H :    0.146881

  Mayer bond orders larger than 0.1
B(  0-C ,  1-C ) :   0.9015 B(  0-C ,  9-H ) :   0.9399 B(  0-C , 10-H ) :   0.9407
B(  0-C , 11-H ) :   0.9347 B(  1-C ,  2-C ) :   0.8856 B(  1-C ,  3-C ) :   0.8190
B(  1-C ,  8-C ) :   0.9167 B(  2-C ,  3-C ) :   0.8981 B(  2-C , 12-H ) :   0.9289
B(  2-C , 13-H ) :   0.9165 B(  3-C ,  4-C ) :   0.9220 B(  3-C , 14-H ) :   0.9294
B(  4-C ,  5-C ) :   0.9162 B(  4-C , 15-H ) :   0.9292 B(  4-C , 16-H ) :   0.9182
B(  5-C ,  6-O ) :   0.9171 B(  5-C ,  7-C ) :   0.9622 B(  5-C , 17-H ) :   0.9219
B(  6-O ,  7-C ) :   0.9120 B(  7-C ,  8-C ) :   0.9114 B(  7-C , 18-H ) :   0.9231
B(  8-C , 19-H ) :   0.9216 B(  8-C , 20-H ) :   0.9274

MP2 TOTAL ENERGY:     -386.395040709 Eh
FINAL SINGLE POINT ENERGY      -386.395040708655

DIPOLE MOMENT
-------------
                                X             Y             Z
Electronic contribution:      3.27933      -4.59614      -2.78289
Nuclear contribution   :     -3.32675       5.26787       3.20551
                        -----------------------------------------
Total Dipole Moment    :     -0.04742       0.67174       0.42262
                        -----------------------------------------
Magnitude (a.u.)       :      0.79504
Magnitude (Debye)      :      2.02083

                             ****ORCA TERMINATED NORMALLY****
TOTAL RUN TIME: 0 days 0 hours 19 minutes 11 seconds 194 msec
