                         Program Version 3.0.3 - RELEASE   -
|  1> ! RI-MP2 RIJK def2-TZVP def2-TZVP/C def2-TZVP/JK TIGHTSCF
|  2> % maxcore 2000
|  3> % mp2 density relaxed end
|  4> *xyz 0 1
|  5>  C       -0.1005190738     1.4974178940     0.0665994989
|  6>  C        0.1564646971     0.0271493579    -0.0425222600
|  7>  N       -0.7564187910    -0.9829684645     0.5648354030
|  8>  C        0.6891027749    -0.9629426785     0.9374040820
|  9>  C        1.3481380966    -1.8007333718    -0.1589500646
| 10>  O        0.9366175148    -3.1313732762    -0.2718968238
| 11>  C        0.7815144634    -0.7423166347    -1.2168577664
| 12>  O       -0.0831696489    -1.1945884085    -2.2158597535
| 13>  H        0.7981343338     2.0682707465    -0.1894498128
| 14>  H       -0.8979882378     1.8082372900    -0.6174614064
| 15>  H       -0.3981336917     1.7770496502     1.0834319497
| 16>  H       -1.2798897919    -0.5260841851     1.3094054227
| 17>  H        0.9860550079    -0.8267954692     1.9707712075
| 18>  H        2.4398398937    -1.7954586765    -0.1239108853
| 19>  H       -0.0149212411    -3.1307912414    -0.1061733245
| 20>  H        1.5891623349    -0.1924733453    -1.7070712388
| 21>  H       -0.8532579008    -1.5554611967    -1.7586419477
| 22> *
| 23>
| 24>                          ****END OF INPUT****

CARTESIAN COORDINATES (ANGSTROEM)
---------------------------------
  C     -0.100519    1.497418    0.066599
  C      0.156465    0.027149   -0.042522
  N     -0.756419   -0.982968    0.564835
  C      0.689103   -0.962943    0.937404
  C      1.348138   -1.800733   -0.158950
  O      0.936618   -3.131373   -0.271897
  C      0.781514   -0.742317   -1.216858
  O     -0.083170   -1.194588   -2.215860
  H      0.798134    2.068271   -0.189450
  H     -0.897988    1.808237   -0.617461
  H     -0.398134    1.777050    1.083432
  H     -1.279890   -0.526084    1.309405
  H      0.986055   -0.826795    1.970771
  H      2.439840   -1.795459   -0.123911
  H     -0.014921   -3.130791   -0.106173
  H      1.589162   -0.192473   -1.707071
  H     -0.853258   -1.555461   -1.758642

 Total Charge           Charge          ....    0
 Multiplicity           Mult            ....    1
 Number of Electrons    NEL             ....   62
 Basis Dimension        Dim             ....  302

ORBITAL ENERGIES
----------------

  NO   OCC          E(Eh)            E(eV)
   0   2.0000     -20.552998      -559.2755
   1   2.0000     -20.552094      -559.2509
   2   2.0000     -15.577820      -423.8940
   3   2.0000     -11.285425      -307.0920
   4   2.0000     -11.284444      -307.0653
   5   2.0000     -11.277992      -306.8898
   6   2.0000     -11.270444      -306.6844
   7   2.0000     -11.240559      -305.8712
   8   2.0000      -1.380675       -37.5701
   9   2.0000      -1.353705       -36.8362
  10   2.0000      -1.284345       -34.9488
  11   2.0000      -1.035768       -28.1847
  12   2.0000      -1.005039       -27.3485
  13   2.0000      -0.879824       -23.9412
  14   2.0000      -0.838338       -22.8123
  15   2.0000      -0.772594       -21.0233
  16   2.0000      -0.724216       -19.7069
  17   2.0000      -0.674779       -18.3617
  18   2.0000      -0.641127       -17.4459
  19   2.0000      -0.623194       -16.9580
  20   2.0000      -0.613252       -16.6874
  21   2.0000      -0.596111       -16.2210
  22   2.0000      -0.574410       -15.6305
  23   2.0000      -0.565382       -15.3848
  24   2.0000      -0.541085       -14.7237
  25   2.0000      -0.512143       -13.9361
  26   2.0000      -0.504870       -13.7382
  27   2.0000      -0.481683       -13.1073
  28   2.0000      -0.438445       -11.9307
  29   2.0000      -0.401530       -10.9262
  30   2.0000      -0.380300       -10.3485
  31   0.0000       0.122281         3.3274
  32   0.0000       0.151839         4.1317
  33   0.0000       0.166091         4.5196
  34   0.0000       0.174362         4.7446
  35   0.0000       0.189273         5.1504

MULLIKEN ATOMIC CHARGES
-----------------------
   0 C :   -0.389754
   1 C :    0.075895
   2 N :   -0.456954
   3 C :   -0.108214
   4 C :    0.072092
   5 O :   -0.455133
   6 C :    0.067243
   7 O :   -0.451962
   8 H :    0.139191
   9 H :    0.153468
  10 H :    0.125848
  11 H :    0.220039
  12 H :    0.142809
  13 H :    0.111222
  14 H :    0.324426
  15 H :    0.106172
  16 H :    0.323612
Sum of atomic charges:   -0.0000000

LOEWDIN ATOMIC CHARGES
----------------------
   0 C :   -0.277130
   1 C :   -0.275386
   2 N :   -0.003433
   3 C :   -0.203301
   4 C :   -0.301795
   5 O :   -0.002129
   6 C :   -0.280144
   7 O :    0.000564
   8 H :    0.134686
   9 H :    0.135216
  10 H :    0.129674
  11 H :    0.171757
  12 H :    0.130905
  13 H :    0.140658
  14 H :    0.178358
  15 H :    0.142529
  16 H :    0.178972

  Mayer bond orders larger than 0.1
B(  0-C ,  1-C ) :   0.8916 B(  0-C ,  8-H ) :   0.9318 B(  0-C ,  9-H ) :   0.9429
B(  0-C , 10-H ) :   0.9234 B(  1-C ,  2-N ) :   0.8666 B(  1-C ,  3-C ) :   0.8215
B(  1-C ,  6-C ) :   0.9281 B(  2-N ,  3-C ) :   0.8795 B(  2-N , 11-H ) :   0.8758
B(  3-C ,  4-C ) :   0.9683 B(  3-C , 12-H ) :   0.9105 B(  4-C ,  5-O ) :   0.9939
B(  4-C ,  6-C ) :   0.9028 B(  4-C , 13-H ) :   0.9369 B(  5-O , 14-H ) :   0.8253
B(  6-C ,  7-O ) :   0.9966 B(  6-C , 15-H ) :   0.9353 B(  7-O , 16-H ) :   0.8252

MP2 TOTAL ENERGY:     -400.316228934 Eh
FINAL SINGLE POINT ENERGY      -400.316228933696

DIPOLE MOMENT
-------------
                                X             Y             Z
Electronic contribution:      0.45415      -4.62460      -1.45668
Nuclear contribution   :     -0.71289       5.74352       2.56110
                        -----------------------------------------
Total Dipole Moment    :     -0.25874       1.11892       1.10442
                        -----------------------------------------
Magnitude (a.u.)       :      1.59332
Magnitude (Debye)      :      4.04991

                             ****ORCA TERMINATED NORMALLY****
TOTAL RUN TIME: 0 days 0 hours 11 minutes 30 seconds 574 msec
