                         Program Version 3.0.3 - RELEASE   -
|  1> ! RI-MP2 RIJK def2-TZVP def2-TZVP/C def2-TZVP/JK TIGHTSCF
|  2> % maxcore 2000
|  3> % mp2 density relaxed end
|  4> *xyz 0 1
|  5>  C       -0.0428153293     1.5656729135     0.2191536014
|  6>  C       -0.0228159101     0.0389604692     0.0299846437
|  7>  C        0.8755775319    -0.6335012806     1.0753418465
|  8>  C       -1.4316236697    -0.5084811985     0.0110253294
|  9>  C       -2.2506000167    -0.9275208069     1.2038445488
| 10>  C       -1.9645654759    -1.9340943990     0.1133435112
| 11>  C       -2.8311264558    -1.6874580087    -1.1537064730
| 12>  N       -3.7638054880    -0.5590013666    -0.8936562829
| 13>  C       -2.3433965933    -0.3010428922    -1.2472720482
| 14>  H        0.9665047774     1.9848287833     0.1485258490
| 15>  H       -0.6633896018     2.0550925020    -0.5385640782
| 16>  H       -0.4514317081     1.8273020688     1.2013483046
| 17>  H        0.4148798765    -0.1677862091    -0.9591383174
| 18>  H        0.8834802442    -1.7220125995     0.9597797849
| 19>  H        1.9063629082    -0.2785706698     0.9769421452
| 20>  H        0.5459903903    -0.4023188729     2.0939117973
| 21>  H       -1.6808142225    -1.0921042629     2.1126523334
| 22>  H       -3.2542567326    -0.5496989860     1.3511153787
| 23>  H       -1.4187236614    -2.8517248432     0.2928415862
| 24>  H       -3.0334369663    -2.4130432349    -1.9307572097
| 25>  H       -4.3085434727    -0.4236635985    -1.7451881478
| 26>  H       -2.0776136344     0.2938273126    -2.1124601533
| 27> *
| 28>
| 29>                          ****END OF INPUT****

CARTESIAN COORDINATES (ANGSTROEM)
---------------------------------
  C     -0.042815    1.565673    0.219154
  C     -0.022816    0.038960    0.029985
  C      0.875578   -0.633501    1.075342
  C     -1.431624   -0.508481    0.011025
  C     -2.250600   -0.927521    1.203845
  C     -1.964565   -1.934094    0.113344
  C     -2.831126   -1.687458   -1.153706
  N     -3.763805   -0.559001   -0.893656
  C     -2.343397   -0.301043   -1.247272
  H      0.966505    1.984829    0.148526
  H     -0.663390    2.055093   -0.538564
  H     -0.451432    1.827302    1.201348
  H      0.414880   -0.167786   -0.959138
  H      0.883480   -1.722013    0.959780
  H      1.906363   -0.278571    0.976942
  H      0.545990   -0.402319    2.093912
  H     -1.680814   -1.092104    2.112652
  H     -3.254257   -0.549699    1.351115
  H     -1.418724   -2.851725    0.292842
  H     -3.033437   -2.413043   -1.930757
  H     -4.308543   -0.423664   -1.745188
  H     -2.077614    0.293827   -2.112460

 Total Charge           Charge          ....    0
 Multiplicity           Mult            ....    1
 Number of Electrons    NEL             ....   68
 Basis Dimension        Dim             ....  357

ORBITAL ENERGIES
----------------

  NO   OCC          E(Eh)            E(eV)
   0   2.0000     -15.556523      -423.3145
   1   2.0000     -11.258133      -306.3494
   2   2.0000     -11.255937      -306.2896
   3   2.0000     -11.232503      -305.6519
   4   2.0000     -11.230449      -305.5961
   5   2.0000     -11.225959      -305.4739
   6   2.0000     -11.216306      -305.2112
   7   2.0000     -11.212289      -305.1019
   8   2.0000     -11.209991      -305.0394
   9   2.0000      -1.280589       -34.8466
  10   2.0000      -1.133710       -30.8498
  11   2.0000      -1.052926       -28.6516
  12   2.0000      -0.929636       -25.2967
  13   2.0000      -0.912299       -24.8249
  14   2.0000      -0.875831       -23.8326
  15   2.0000      -0.811750       -22.0889
  16   2.0000      -0.758634       -20.6435
  17   2.0000      -0.724994       -19.7281
  18   2.0000      -0.693361       -18.8673
  19   2.0000      -0.633590       -17.2409
  20   2.0000      -0.619411       -16.8550
  21   2.0000      -0.602452       -16.3936
  22   2.0000      -0.556652       -15.1473
  23   2.0000      -0.554406       -15.0861
  24   2.0000      -0.534639       -14.5483
  25   2.0000      -0.529917       -14.4198
  26   2.0000      -0.501642       -13.6504
  27   2.0000      -0.490047       -13.3349
  28   2.0000      -0.482329       -13.1248
  29   2.0000      -0.476569       -12.9681
  30   2.0000      -0.437915       -11.9163
  31   2.0000      -0.403390       -10.9768
  32   2.0000      -0.398499       -10.8437
  33   2.0000      -0.321668        -8.7530
  34   0.0000       0.135328         3.6825
  35   0.0000       0.150852         4.1049
  36   0.0000       0.161428         4.3927
  37   0.0000       0.165541         4.5046
  38   0.0000       0.188935         5.1412

MULLIKEN ATOMIC CHARGES
-----------------------
   0 C :   -0.406825
   1 C :   -0.027885
   2 C :   -0.419239
   3 C :    0.163963
   4 C :   -0.303017
   5 C :   -0.137690
   6 C :   -0.085909
   7 N :   -0.378541
   8 C :   -0.186930
   9 H :    0.129374
  10 H :    0.129229
  11 H :    0.128583
  12 H :    0.083008
  13 H :    0.133051
  14 H :    0.135384
  15 H :    0.124736
  16 H :    0.129900
  17 H :    0.163596
  18 H :    0.135760
  19 H :    0.137688
  20 H :    0.213633
  21 H :    0.138133
Sum of atomic charges:    0.0000000

LOEWDIN ATOMIC CHARGES
----------------------
   0 C :   -0.284570
   1 C :   -0.275319
   2 C :   -0.286909
   3 C :   -0.166770
   4 C :   -0.181131
   5 C :   -0.149898
   6 C :   -0.210786
   7 N :   -0.001213
   8 C :   -0.191938
   9 H :    0.121384
  10 H :    0.122985
  11 H :    0.125618
  12 H :    0.155892
  13 H :    0.124174
  14 H :    0.124509
  15 H :    0.123125
  16 H :    0.141278
  17 H :    0.139977
  18 H :    0.136277
  19 H :    0.129729
  20 H :    0.171565
  21 H :    0.132024

  Mayer bond orders larger than 0.1
B(  0-C ,  1-C ) :   0.9234 B(  0-C ,  9-H ) :   0.9396 B(  0-C , 10-H ) :   0.9380
B(  0-C , 11-H ) :   0.9324 B(  1-C ,  2-C ) :   0.9062 B(  1-C ,  3-C ) :   0.9177
B(  1-C , 12-H ) :   0.9233 B(  2-C , 13-H ) :   0.9413 B(  2-C , 14-H ) :   0.9391
B(  2-C , 15-H ) :   0.9337 B(  3-C ,  4-C ) :   0.8912 B(  3-C ,  5-C ) :   0.8699
B(  3-C ,  6-C ) :  -0.1133 B(  3-C ,  8-C ) :   0.8047 B(  4-C ,  5-C ) :   0.8927
B(  4-C , 16-H ) :   0.9323 B(  4-C , 17-H ) :   0.8894 B(  5-C ,  6-C ) :   0.8893
B(  5-C , 18-H ) :   0.9253 B(  6-C ,  7-N ) :   0.9459 B(  6-C ,  8-C ) :   1.0374
B(  6-C , 19-H ) :   0.9268 B(  7-N ,  8-C ) :   0.9913 B(  7-N , 20-H ) :   0.8688
B(  8-C , 21-H ) :   0.9246

MP2 TOTAL ENERGY:     -366.467559350 Eh
FINAL SINGLE POINT ENERGY      -366.467559349591

DIPOLE MOMENT
-------------
                                X             Y             Z
Electronic contribution:     -6.54398      -2.97095      -3.07776
Nuclear contribution   :      6.90662       2.85638       2.48717
                        -----------------------------------------
Total Dipole Moment    :      0.36264      -0.11457      -0.59059
                        -----------------------------------------
Magnitude (a.u.)       :      0.70245
Magnitude (Debye)      :      1.78548

                             ****ORCA TERMINATED NORMALLY****
TOTAL RUN TIME: 0 days 0 hours 23 minutes 58 seconds 36 msec
