                         Program Version 3.0.3 - RELEASE   -
|  1> ! RI-MP2 RIJK def2-TZVP def2-TZVP/C def2-TZVP/JK TIGHTSCF
|  2> % maxcore 2000
|  3> % mp2 density relaxed end
|  4> *xyz 0 1
|  5>  C        0.4090318622     1.1784169913     0.2583524079
|  6>  C        0.1854244161    -0.2992900999     0.0934189994
|  7>  C        0.6255587246    -1.1898532539    -1.1191022329
|  8>  C       -0.1124676829    -2.1412210915    -0.1279009621
|  9>  O       -0.4356032166    -3.4785497527    -0.2820781539
| 10>  C        0.7007549909    -1.4526932520     1.0123280528
| 11>  C       -1.1955042826    -1.0353894181     0.0369865949
| 12>  C       -2.1438993249    -1.0508202768     1.2303670197
| 13>  O       -1.9356072257    -0.6901327779    -1.1239369398
| 14>  H        1.4760396785     1.4228142234     0.2236311370
| 15>  H       -0.0918198947     1.7349103448    -0.5404423523
| 16>  H        0.0154999372     1.5355616086     1.2164722449
| 17>  H        0.1425562118    -0.9954461900    -2.0734439185
| 18>  H        1.7040939132    -1.3447080842    -1.2161375777
| 19>  H        0.3724655520    -3.9743836121    -0.4515921333
| 20>  H        1.7818430148    -1.6144089186     0.9837761494
| 21>  H        0.3250841316    -1.5110107676     2.0338409252
| 22>  H       -1.6602286455    -1.2676739308     2.1831936321
| 23>  H       -2.6500498061    -0.0839399758     1.3085827739
| 24>  H       -2.9141669988    -1.8165780604     1.0773738807
| 25>  H       -2.6154547853    -1.3608789857    -1.2476309374
| 26> *
| 27>
| 28>                          ****END OF INPUT****

CARTESIAN COORDINATES (ANGSTROEM)
---------------------------------
  C      0.409032    1.178417    0.258352
  C      0.185424   -0.299290    0.093419
  C      0.625559   -1.189853   -1.119102
  C     -0.112468   -2.141221   -0.127901
  O     -0.435603   -3.478550   -0.282078
  C      0.700755   -1.452693    1.012328
  C     -1.195504   -1.035389    0.036987
  C     -2.143899   -1.050820    1.230367
  O     -1.935607   -0.690133   -1.123937
  H      1.476040    1.422814    0.223631
  H     -0.091820    1.734910   -0.540442
  H      0.015500    1.535562    1.216472
  H      0.142556   -0.995446   -2.073444
  H      1.704094   -1.344708   -1.216138
  H      0.372466   -3.974384   -0.451592
  H      1.781843   -1.614409    0.983776
  H      0.325084   -1.511011    2.033841
  H     -1.660229   -1.267674    2.183194
  H     -2.650050   -0.083940    1.308583
  H     -2.914167   -1.816578    1.077374
  H     -2.615455   -1.360879   -1.247631

 Total Charge           Charge          ....    0
 Multiplicity           Mult            ....    1
 Number of Electrons    NEL             ....   70
 Basis Dimension        Dim             ....  351

ORBITAL ENERGIES
----------------

  NO   OCC          E(Eh)            E(eV)
   0   2.0000     -20.566254      -559.6362
   1   2.0000     -20.549494      -559.1802
   2   2.0000     -11.293562      -307.3134
   3   2.0000     -11.285638      -307.0978
   4   2.0000     -11.246488      -306.0325
   5   2.0000     -11.225078      -305.4499
   6   2.0000     -11.219110      -305.2875
   7   2.0000     -11.215175      -305.1804
   8   2.0000     -11.214693      -305.1673
   9   2.0000      -1.381157       -37.5832
  10   2.0000      -1.358777       -36.9742
  11   2.0000      -1.195328       -32.5265
  12   2.0000      -0.991268       -26.9738
  13   2.0000      -0.979867       -26.6635
  14   2.0000      -0.904000       -24.5991
  15   2.0000      -0.855377       -23.2760
  16   2.0000      -0.810661       -22.0592
  17   2.0000      -0.721380       -19.6298
  18   2.0000      -0.686387       -18.6775
  19   2.0000      -0.659593       -17.9485
  20   2.0000      -0.649363       -17.6701
  21   2.0000      -0.619560       -16.8591
  22   2.0000      -0.594628       -16.1807
  23   2.0000      -0.580171       -15.7873
  24   2.0000      -0.567941       -15.4545
  25   2.0000      -0.551413       -15.0047
  26   2.0000      -0.546596       -14.8736
  27   2.0000      -0.532568       -14.4919
  28   2.0000      -0.517063       -14.0700
  29   2.0000      -0.490563       -13.3489
  30   2.0000      -0.456594       -12.4246
  31   2.0000      -0.449873       -12.2417
  32   2.0000      -0.424947       -11.5634
  33   2.0000      -0.405052       -11.0220
  34   2.0000      -0.400529       -10.8990
  35   0.0000       0.129189         3.5154
  36   0.0000       0.146941         3.9985
  37   0.0000       0.157851         4.2953
  38   0.0000       0.179378         4.8811
  39   0.0000       0.183338         4.9889

MULLIKEN ATOMIC CHARGES
-----------------------
   0 C :   -0.407868
   1 C :   -0.009647
   2 C :   -0.190617
   3 C :    0.066932
   4 O :   -0.460386
   5 C :   -0.244072
   6 C :    0.248138
   7 C :   -0.434336
   8 O :   -0.485577
   9 H :    0.135019
  10 H :    0.150210
  11 H :    0.133102
  12 H :    0.125426
  13 H :    0.108600
  14 H :    0.325151
  15 H :    0.107781
  16 H :    0.114389
  17 H :    0.122314
  18 H :    0.145740
  19 H :    0.128868
  20 H :    0.320833
Sum of atomic charges:   -0.0000000

LOEWDIN ATOMIC CHARGES
----------------------
   0 C :   -0.275363
   1 C :   -0.195000
   2 C :   -0.164526
   3 C :   -0.318883
   4 O :    0.019099
   5 C :   -0.165882
   6 C :   -0.296309
   7 C :   -0.275515
   8 O :    0.014100
   9 H :    0.129852
  10 H :    0.134994
  11 H :    0.129228
  12 H :    0.133526
  13 H :    0.126644
  14 H :    0.184216
  15 H :    0.129711
  16 H :    0.124701
  17 H :    0.125743
  18 H :    0.130665
  19 H :    0.128683
  20 H :    0.180315

  Mayer bond orders larger than 0.1
B(  0-C ,  1-C ) :   0.8103 B(  0-C ,  9-H ) :   0.9434 B(  0-C , 10-H ) :   0.9467
B(  0-C , 11-H ) :   0.9396 B(  1-C ,  2-C ) :   0.9396 B(  1-C ,  5-C ) :   0.8970
B(  1-C ,  6-C ) :   0.8582 B(  2-C ,  3-C ) :   0.9151 B(  2-C , 12-H ) :   0.9022
B(  2-C , 13-H ) :   0.9285 B(  3-C ,  4-O ) :   1.0443 B(  3-C ,  5-C ) :   0.8892
B(  3-C ,  6-C ) :   0.8925 B(  4-O , 14-H ) :   0.8358 B(  5-C , 15-H ) :   0.9111
B(  5-C , 16-H ) :   0.9301 B(  6-C ,  7-C ) :   0.9485 B(  6-C ,  8-O ) :   1.0049
B(  7-C , 17-H ) :   0.9299 B(  7-C , 18-H ) :   0.9445 B(  7-C , 19-H ) :   0.9237
B(  8-O , 20-H ) :   0.8387

MP2 TOTAL ENERGY:     -423.493524566 Eh
FINAL SINGLE POINT ENERGY      -423.493524566405

DIPOLE MOMENT
-------------
                                X             Y             Z
Electronic contribution:     -1.04722      -4.50694      -3.20360
Nuclear contribution   :      1.43095       4.27012       3.46673
                        -----------------------------------------
Total Dipole Moment    :      0.38373      -0.23682       0.26313
                        -----------------------------------------
Magnitude (a.u.)       :      0.52207
Magnitude (Debye)      :      1.32701

                             ****ORCA TERMINATED NORMALLY****
TOTAL RUN TIME: 0 days 0 hours 18 minutes 55 seconds 817 msec
