                         Program Version 3.0.3 - RELEASE   -
|  1> ! RI-MP2 RIJK def2-TZVP def2-TZVP/C def2-TZVP/JK TIGHTSCF
|  2> % maxcore 2000
|  3> % mp2 density relaxed end
|  4> *xyz 0 1
|  5>  C       -0.0475285331     1.3569271843    -0.0470147971
|  6>  O        0.0270259270    -0.0747867337     0.0390130535
|  7>  C        0.6666491394    -0.5403449968     1.1182988312
|  8>  O        1.1649534972     0.1233940040     1.9874778376
|  9>  N        0.6830771542    -1.9415183612     1.1041066279
| 10>  C        1.2717752184    -2.7326792062     2.0847880391
| 11>  C        1.0604782830    -4.0153230512     1.6858112471
| 12>  N        0.3592715575    -4.0540289427     0.4880113409
| 13>  C        0.1492623711    -2.8100935609     0.1667547679
| 14>  H        0.9547606966     1.7891750270    -0.0865144474
| 15>  H       -0.5923599060     1.5646835412    -0.9671273644
| 16>  H       -0.5790929975     1.7635718119     0.8161237275
| 17>  H        1.7597599205    -2.2825848194     2.9310469620
| 18>  H        1.3670630400    -4.9230488091     2.1818432116
| 19>  H       -0.3681813782    -2.4456914372    -0.7053885673
| 20> *
| 21>
| 22>                          ****END OF INPUT****

CARTESIAN COORDINATES (ANGSTROEM)
---------------------------------
  C     -0.047529    1.356927   -0.047015
  O      0.027026   -0.074787    0.039013
  C      0.666649   -0.540345    1.118299
  O      1.164953    0.123394    1.987478
  N      0.683077   -1.941518    1.104107
  C      1.271775   -2.732679    2.084788
  C      1.060478   -4.015323    1.685811
  N      0.359272   -4.054029    0.488011
  C      0.149262   -2.810094    0.166755
  H      0.954761    1.789175   -0.086514
  H     -0.592360    1.564684   -0.967127
  H     -0.579093    1.763572    0.816124
  H      1.759760   -2.282585    2.931047
  H      1.367063   -4.923049    2.181843
  H     -0.368181   -2.445691   -0.705389

 Total Charge           Charge          ....    0
 Multiplicity           Mult            ....    1
 Number of Electrons    NEL             ....   66
 Basis Dimension        Dim             ....  315

ORBITAL ENERGIES
----------------

  NO   OCC          E(Eh)            E(eV)
   0   2.0000     -20.632262      -561.4324
   1   2.0000     -20.564152      -559.5790
   2   2.0000     -15.643931      -425.6930
   3   2.0000     -15.563031      -423.4916
   4   2.0000     -11.439113      -311.2741
   5   2.0000     -11.313868      -307.8660
   6   2.0000     -11.306862      -307.6754
   7   2.0000     -11.271822      -306.7219
   8   2.0000     -11.257675      -306.3369
   9   2.0000      -1.500721       -40.8367
  10   2.0000      -1.394342       -37.9420
  11   2.0000      -1.355937       -36.8969
  12   2.0000      -1.200251       -32.6605
  13   2.0000      -1.036366       -28.2009
  14   2.0000      -0.991076       -26.9686
  15   2.0000      -0.890793       -24.2397
  16   2.0000      -0.821452       -22.3528
  17   2.0000      -0.787006       -21.4155
  18   2.0000      -0.776563       -21.1314
  19   2.0000      -0.711009       -19.3475
  20   2.0000      -0.698041       -18.9947
  21   2.0000      -0.659908       -17.9570
  22   2.0000      -0.629502       -17.1296
  23   2.0000      -0.615890       -16.7592
  24   2.0000      -0.609318       -16.5804
  25   2.0000      -0.583227       -15.8704
  26   2.0000      -0.560611       -15.2550
  27   2.0000      -0.557924       -15.1819
  28   2.0000      -0.501098       -13.6356
  29   2.0000      -0.493931       -13.4405
  30   2.0000      -0.449420       -12.2293
  31   2.0000      -0.417247       -11.3539
  32   2.0000      -0.339028        -9.2254
  33   0.0000       0.110394         3.0040
  34   0.0000       0.137849         3.7511
  35   0.0000       0.168287         4.5793
  36   0.0000       0.183969         5.0060
  37   0.0000       0.186323         5.0701

MULLIKEN ATOMIC CHARGES
-----------------------
   0 C :   -0.224885
   1 O :   -0.268467
   2 C :    0.401405
   3 O :   -0.330156
   4 N :   -0.039981
   5 C :   -0.119980
   6 C :   -0.085140
   7 N :   -0.268259
   8 C :    0.005857
   9 H :    0.148678
  10 H :    0.151645
  11 H :    0.148757
  12 H :    0.173102
  13 H :    0.141816
  14 H :    0.165606
Sum of atomic charges:    0.0000000

LOEWDIN ATOMIC CHARGES
----------------------
   0 C :   -0.292498
   1 O :    0.238099
   2 C :   -0.519253
   3 O :    0.130877
   4 N :    0.263266
   5 C :   -0.186643
   6 C :   -0.240792
   7 N :    0.098878
   8 C :   -0.266974
   9 H :    0.117711
  10 H :    0.118582
  11 H :    0.117735
  12 H :    0.146815
  13 H :    0.136008
  14 H :    0.138190

  Mayer bond orders larger than 0.1
B(  0-C ,  1-O ) :   0.8312 B(  0-C ,  9-H ) :   0.9381 B(  0-C , 10-H ) :   0.9317
B(  0-C , 11-H ) :   0.9381 B(  1-O ,  2-C ) :   1.1291 B(  2-C ,  3-O ) :   1.9154
B(  2-C ,  4-N ) :   0.9936 B(  4-N ,  5-C ) :   1.0446 B(  4-N ,  8-C ) :   1.0906
B(  5-C ,  6-C ) :   1.5628 B(  5-C , 12-H ) :   0.9174 B(  6-C ,  7-N ) :   1.2086
B(  6-C , 13-H ) :   0.9383 B(  7-N ,  8-C ) :   1.6282 B(  8-C , 14-H ) :   0.9182

MP2 TOTAL ENERGY:     -453.270860925 Eh
FINAL SINGLE POINT ENERGY      -453.270860924874

DIPOLE MOMENT
-------------
                                X             Y             Z
Electronic contribution:      0.73019      -3.23498       1.15553
Nuclear contribution   :     -0.89498       4.38016      -1.40268
                        -----------------------------------------
Total Dipole Moment    :     -0.16479       1.14518      -0.24715
                        -----------------------------------------
Magnitude (a.u.)       :      1.18308
Magnitude (Debye)      :      3.00714

                             ****ORCA TERMINATED NORMALLY****
TOTAL RUN TIME: 0 days 0 hours 13 minutes 26 seconds 544 msec
