                         Program Version 3.0.3 - RELEASE   -
|  1> ! RI-MP2 RIJK def2-TZVP def2-TZVP/C def2-TZVP/JK TIGHTSCF
|  2> % maxcore 2000
|  3> % mp2 density relaxed end
|  4> *xyz 0 1
|  5>  C       -0.3642278274     1.4522035970    -0.0806607982
|  6>  N        0.1022369341     0.0767346329     0.0213581943
|  7>  C        1.4117077533    -0.4539471888    -0.3117156202
|  8>  C        2.6816873616     0.3754102291    -0.3204410225
|  9>  N        2.5303247540     1.8169533427    -0.0186632314
| 10>  C        2.9279787940     0.8849903484     1.0543113794
| 11>  C        1.7929457847     0.4088724747     1.9615598859
| 12>  C        0.8778073305    -0.4948440389     1.1048871585
| 13>  C        0.2952899464    -1.7210624923     1.7728586894
| 14>  H       -0.3229321850     1.7647828991    -1.1279387246
| 15>  H       -1.4145430736     1.4707575344     0.2342158800
| 16>  H        0.2026217298     2.1825170763     0.5012713739
| 17>  H        1.4032648724    -1.3239290660    -0.9669866467
| 18>  H        3.4886684151     0.0607310791    -0.9740928495
| 19>  H        3.3550051983     2.3130282389    -0.3489828930
| 20>  H        3.9282063265     0.9781380886     1.4666253340
| 21>  H        2.2093853327    -0.1870025737     2.7804163805
| 22>  H        1.2512121031     1.2449390841     2.4179994330
| 23>  H       -0.3720858709    -1.4415145895     2.5973512859
| 24>  H       -0.2889842753    -2.2982178088     1.0522574736
| 25>  H        1.0821139156    -2.3623707672     2.1865979178
| 26> *
| 27>
| 28>                          ****END OF INPUT****

CARTESIAN COORDINATES (ANGSTROEM)
---------------------------------
  C     -0.364228    1.452204   -0.080661
  N      0.102237    0.076735    0.021358
  C      1.411708   -0.453947   -0.311716
  C      2.681687    0.375410   -0.320441
  N      2.530325    1.816953   -0.018663
  C      2.927979    0.884990    1.054311
  C      1.792946    0.408872    1.961560
  C      0.877807   -0.494844    1.104887
  C      0.295290   -1.721062    1.772859
  H     -0.322932    1.764783   -1.127939
  H     -1.414543    1.470758    0.234216
  H      0.202622    2.182517    0.501271
  H      1.403265   -1.323929   -0.966987
  H      3.488668    0.060731   -0.974093
  H      3.355005    2.313028   -0.348983
  H      3.928206    0.978138    1.466625
  H      2.209385   -0.187003    2.780416
  H      1.251212    1.244939    2.417999
  H     -0.372086   -1.441515    2.597351
  H     -0.288984   -2.298218    1.052257
  H      1.082114   -2.362371    2.186598

 Total Charge           Charge          ....    0
 Multiplicity           Mult            ....    1
 Number of Electrons    NEL             ....   68
 Basis Dimension        Dim             ....  351

ORBITAL ENERGIES
----------------

  NO   OCC          E(Eh)            E(eV)
   0   2.0000     -15.557676      -423.3459
   1   2.0000     -15.541535      -422.9067
   2   2.0000     -11.259388      -306.3835
   3   2.0000     -11.258276      -306.3533
   4   2.0000     -11.255176      -306.2689
   5   2.0000     -11.249025      -306.1015
   6   2.0000     -11.225713      -305.4672
   7   2.0000     -11.224771      -305.4416
   8   2.0000     -11.209520      -305.0266
   9   2.0000      -1.288749       -35.0687
  10   2.0000      -1.237860       -33.6839
  11   2.0000      -1.034749       -28.1569
  12   2.0000      -0.971988       -26.4492
  13   2.0000      -0.963428       -26.2162
  14   2.0000      -0.893809       -24.3218
  15   2.0000      -0.816611       -22.2211
  16   2.0000      -0.756494       -20.5853
  17   2.0000      -0.735889       -20.0246
  18   2.0000      -0.712231       -19.3808
  19   2.0000      -0.627864       -17.0851
  20   2.0000      -0.619400       -16.8547
  21   2.0000      -0.599203       -16.3051
  22   2.0000      -0.576045       -15.6750
  23   2.0000      -0.552481       -15.0338
  24   2.0000      -0.548296       -14.9199
  25   2.0000      -0.545052       -14.8316
  26   2.0000      -0.518267       -14.1027
  27   2.0000      -0.517352       -14.0779
  28   2.0000      -0.471181       -12.8215
  29   2.0000      -0.459514       -12.5040
  30   2.0000      -0.432534       -11.7699
  31   2.0000      -0.399117       -10.8605
  32   2.0000      -0.392111       -10.6699
  33   2.0000      -0.335555        -9.1309
  34   0.0000       0.133025         3.6198
  35   0.0000       0.150135         4.0854
  36   0.0000       0.168090         4.5740
  37   0.0000       0.179013         4.8712
  38   0.0000       0.189536         5.1575

MULLIKEN ATOMIC CHARGES
-----------------------
   0 C :   -0.274971
   1 N :   -0.236648
   2 C :   -0.048422
   3 C :   -0.137991
   4 N :   -0.391510
   5 C :   -0.013662
   6 C :   -0.238499
   7 C :    0.157300
   8 C :   -0.411122
   9 H :    0.122119
  10 H :    0.127303
  11 H :    0.130308
  12 H :    0.116352
  13 H :    0.124306
  14 H :    0.213861
  15 H :    0.126383
  16 H :    0.117547
  17 H :    0.129763
  18 H :    0.127795
  19 H :    0.140629
  20 H :    0.119161
Sum of atomic charges:    0.0000000

LOEWDIN ATOMIC CHARGES
----------------------
   0 C :   -0.329158
   1 N :    0.143880
   2 C :   -0.200177
   3 C :   -0.232831
   4 N :    0.008719
   5 C :   -0.242948
   6 C :   -0.192680
   7 C :   -0.270202
   8 C :   -0.275026
   9 H :    0.119316
  10 H :    0.112697
  11 H :    0.107704
  12 H :    0.139743
  13 H :    0.136417
  14 H :    0.167256
  15 H :    0.132317
  16 H :    0.148146
  17 H :    0.145148
  18 H :    0.126908
  19 H :    0.131334
  20 H :    0.123436

  Mayer bond orders larger than 0.1
B(  0-C ,  1-N ) :   0.8770 B(  0-C ,  9-H ) :   0.9384 B(  0-C , 10-H ) :   0.9333
B(  0-C , 11-H ) :   0.9252 B(  1-N ,  2-C ) :   0.9683 B(  1-N ,  7-C ) :   0.8747
B(  2-C ,  3-C ) :   0.9100 B(  2-C ,  7-C ) :   0.8849 B(  2-C , 12-H ) :   0.9163
B(  3-C ,  4-N ) :   0.9629 B(  3-C ,  5-C ) :   0.9364 B(  3-C , 13-H ) :   0.9262
B(  4-N ,  5-C ) :   0.9079 B(  4-N , 14-H ) :   0.8727 B(  5-C ,  6-C ) :   0.9523
B(  5-C , 15-H ) :   0.9268 B(  6-C ,  7-C ) :   0.9609 B(  6-C , 16-H ) :   0.9236
B(  6-C , 17-H ) :   0.9093 B(  7-C ,  8-C ) :   0.8724 B(  8-C , 18-H ) :   0.9377
B(  8-C , 19-H ) :   0.9454 B(  8-C , 20-H ) :   0.9350

MP2 TOTAL ENERGY:     -382.540855717 Eh
FINAL SINGLE POINT ENERGY      -382.540855717135

DIPOLE MOMENT
-------------
                                X             Y             Z
Electronic contribution:      2.43833       0.85739      -2.45575
Nuclear contribution   :     -1.52425      -0.85509       2.66354
                        -----------------------------------------
Total Dipole Moment    :      0.91408       0.00230       0.20779
                        -----------------------------------------
Magnitude (a.u.)       :      0.93741
Magnitude (Debye)      :      2.38270

                             ****ORCA TERMINATED NORMALLY****
TOTAL RUN TIME: 0 days 0 hours 22 minutes 26 seconds 272 msec
