                         Program Version 3.0.3 - RELEASE   -
|  1> ! RI-MP2 RIJK def2-TZVP def2-TZVP/C def2-TZVP/JK TIGHTSCF
|  2> % maxcore 2000
|  3> % mp2 density relaxed end
|  4> *xyz 0 1
|  5>  C        0.1815933102     1.5750110178     0.0115980895
|  6>  C        0.0491558651     0.0469849027    -0.1161872833
|  7>  C        0.9872490663    -0.4822626082    -1.2098325614
|  8>  C        0.7048890848    -1.9143227988    -1.6867306459
|  9>  C        1.0557698255    -3.0336322289    -0.7413022897
| 10>  C        1.0135312016    -3.0543269127     0.5924949090
| 11>  C        0.6186960589    -2.0072498133     1.5647605964
| 12>  C        1.5481134273    -0.8450647554     1.9074068281
| 13>  C        0.2121844855    -0.5842461184     1.2603611777
| 14>  H        1.1993444922     1.8544177109     0.3062798496
| 15>  H       -0.0432122740     2.0723787041    -0.9376048375
| 16>  H       -0.5026960837     1.9720509175     0.7686895123
| 17>  H       -0.9787403313    -0.1687101137    -0.4460436741
| 18>  H        0.8908562879     0.1836936731    -2.0763569123
| 19>  H        2.0326334359    -0.4017342000    -0.8861641113
| 20>  H       -0.3580019475    -1.9908483478    -1.9662628934
| 21>  H        1.2552099133    -2.0795300103    -2.6211565565
| 22>  H        1.3769833302    -3.9519435114    -1.2299420596
| 23>  H        1.3112401354    -3.9858179101     1.0734473252
| 24>  H        0.1169607481    -2.4300634669     2.4326050392
| 25>  H        1.6913894773    -0.5775402894     2.9490076635
| 26>  H        2.4398692014    -0.7547428526     1.2972231683
| 27>  H       -0.5384352006    -0.2080688182     1.9534240063
| 28> *
| 29>
| 30>                          ****END OF INPUT****

CARTESIAN COORDINATES (ANGSTROEM)
---------------------------------
  C      0.181593    1.575011    0.011598
  C      0.049156    0.046985   -0.116187
  C      0.987249   -0.482263   -1.209833
  C      0.704889   -1.914323   -1.686731
  C      1.055770   -3.033632   -0.741302
  C      1.013531   -3.054327    0.592495
  C      0.618696   -2.007250    1.564761
  C      1.548113   -0.845065    1.907407
  C      0.212184   -0.584246    1.260361
  H      1.199344    1.854418    0.306280
  H     -0.043212    2.072379   -0.937605
  H     -0.502696    1.972051    0.768690
  H     -0.978740   -0.168710   -0.446044
  H      0.890856    0.183694   -2.076357
  H      2.032633   -0.401734   -0.886164
  H     -0.358002   -1.990848   -1.966263
  H      1.255210   -2.079530   -2.621157
  H      1.376983   -3.951944   -1.229942
  H      1.311240   -3.985818    1.073447
  H      0.116961   -2.430063    2.432605
  H      1.691389   -0.577540    2.949008
  H      2.439869   -0.754743    1.297223
  H     -0.538435   -0.208069    1.953424

 Total Charge           Charge          ....    0
 Multiplicity           Mult            ....    1
 Number of Electrons    NEL             ....   68
 Basis Dimension        Dim             ....  363

ORBITAL ENERGIES
----------------

  NO   OCC          E(Eh)            E(eV)
   0   2.0000     -11.229293      -305.5646
   1   2.0000     -11.227419      -305.5136
   2   2.0000     -11.226762      -305.4957
   3   2.0000     -11.221310      -305.3474
   4   2.0000     -11.221156      -305.3432
   5   2.0000     -11.220044      -305.3129
   6   2.0000     -11.217814      -305.2522
   7   2.0000     -11.216722      -305.2225
   8   2.0000     -11.209617      -305.0292
   9   2.0000      -1.154731       -31.4218
  10   2.0000      -1.071868       -29.1670
  11   2.0000      -1.050604       -28.5884
  12   2.0000      -0.964830       -26.2544
  13   2.0000      -0.882484       -24.0136
  14   2.0000      -0.859149       -23.3786
  15   2.0000      -0.818677       -22.2773
  16   2.0000      -0.741813       -20.1858
  17   2.0000      -0.692661       -18.8483
  18   2.0000      -0.679929       -18.5018
  19   2.0000      -0.638805       -17.3828
  20   2.0000      -0.621866       -16.9218
  21   2.0000      -0.589981       -16.0542
  22   2.0000      -0.561378       -15.2759
  23   2.0000      -0.549976       -14.9656
  24   2.0000      -0.544357       -14.8127
  25   2.0000      -0.523250       -14.2383
  26   2.0000      -0.510451       -13.8901
  27   2.0000      -0.496191       -13.5020
  28   2.0000      -0.475520       -12.9396
  29   2.0000      -0.453837       -12.3495
  30   2.0000      -0.449693       -12.2368
  31   2.0000      -0.424587       -11.5536
  32   2.0000      -0.397742       -10.8231
  33   2.0000      -0.327685        -8.9168
  34   0.0000       0.136551         3.7157
  35   0.0000       0.150433         4.0935
  36   0.0000       0.156056         4.2465
  37   0.0000       0.159446         4.3387
  38   0.0000       0.177154         4.8206

MULLIKEN ATOMIC CHARGES
-----------------------
   0 C :   -0.393415
   1 C :   -0.002802
   2 C :   -0.256097
   3 C :   -0.135950
   4 C :   -0.201137
   5 C :   -0.203876
   6 C :   -0.022779
   7 C :   -0.296875
   8 C :   -0.132933
   9 H :    0.126051
  10 H :    0.129002
  11 H :    0.127907
  12 H :    0.081421
  13 H :    0.119241
  14 H :    0.114126
  15 H :    0.113178
  16 H :    0.124748
  17 H :    0.111285
  18 H :    0.110781
  19 H :    0.117705
  20 H :    0.129009
  21 H :    0.131425
  22 H :    0.109984
Sum of atomic charges:   -0.0000000

LOEWDIN ATOMIC CHARGES
----------------------
   0 C :   -0.287727
   1 C :   -0.263546
   2 C :   -0.236934
   3 C :   -0.255661
   4 C :   -0.179707
   5 C :   -0.165173
   6 C :   -0.193674
   7 C :   -0.194669
   8 C :   -0.186145
   9 H :    0.124687
  10 H :    0.120704
  11 H :    0.122389
  12 H :    0.156305
  13 H :    0.142656
  14 H :    0.140003
  15 H :    0.147391
  16 H :    0.143768
  17 H :    0.144016
  18 H :    0.149762
  19 H :    0.154657
  20 H :    0.128276
  21 H :    0.134689
  22 H :    0.153933

  Mayer bond orders larger than 0.1
B(  0-C ,  1-C ) :   0.8965 B(  0-C ,  9-H ) :   0.9330 B(  0-C , 10-H ) :   0.9410
B(  0-C , 11-H ) :   0.9422 B(  1-C ,  2-C ) :   0.9037 B(  1-C ,  8-C ) :   0.9490
B(  1-C , 12-H ) :   0.9238 B(  2-C ,  3-C ) :   0.9144 B(  2-C , 13-H ) :   0.9328
B(  2-C , 14-H ) :   0.9285 B(  3-C ,  4-C ) :   0.9349 B(  3-C , 15-H ) :   0.9119
B(  3-C , 16-H ) :   0.9344 B(  4-C ,  5-C ) :   1.8053 B(  4-C , 17-H ) :   0.9294
B(  5-C ,  6-C ) :   0.9505 B(  5-C , 18-H ) :   0.9301 B(  6-C ,  7-C ) :   0.8372
B(  6-C ,  8-C ) :   0.8661 B(  6-C , 19-H ) :   0.9278 B(  7-C ,  8-C ) :   0.8826
B(  7-C , 20-H ) :   0.9247 B(  7-C , 21-H ) :   0.9293 B(  8-C , 22-H ) :   0.9267

MP2 TOTAL ENERGY:     -350.503716294 Eh
FINAL SINGLE POINT ENERGY      -350.503716294239

DIPOLE MOMENT
-------------
                                X             Y             Z
Electronic contribution:     -0.05618      -4.46486       1.51627
Nuclear contribution   :     -0.01438       4.60926      -1.53075
                        -----------------------------------------
Total Dipole Moment    :     -0.07056       0.14440      -0.01448
                        -----------------------------------------
Magnitude (a.u.)       :      0.16137
Magnitude (Debye)      :      0.41017

                             ****ORCA TERMINATED NORMALLY****
TOTAL RUN TIME: 0 days 0 hours 21 minutes 3 seconds 860 msec
