                         Program Version 3.0.3 - RELEASE   -
|  1> ! RI-MP2 RIJK def2-TZVP def2-TZVP/C def2-TZVP/JK TIGHTSCF
|  2> % maxcore 2000
|  3> % mp2 density relaxed end
|  4> *xyz 0 1
|  5>  C        0.5636095030     1.5936942894    -0.1315987010
|  6>  C        0.3346021739     0.0928835122    -0.1318999294
|  7>  O       -0.4739338832    -0.4316135072     0.5998201490
|  8>  C        1.1796127361    -0.7175713487    -1.1106980559
|  9>  C        0.9654298102    -2.2119776797    -0.9563037057
| 10>  C       -0.1516601152    -3.0091013311    -1.6755995490
| 11>  C        0.7105721237    -2.8508693552    -2.9457065172
| 12>  N        1.7776950450    -3.1592642537    -1.8753890974
| 13>  C        0.7639296770    -4.2218665257    -1.4043006751
| 14>  H        1.6009525408     1.8185925056     0.1411896274
| 15>  H        0.4033361890     2.0077429123    -1.1333568971
| 16>  H       -0.1132333553     2.0716471559     0.5774202567
| 17>  H        0.9622520831    -0.3467184108    -2.1190610215
| 18>  H        2.2391947323    -0.4802134544    -0.9409324602
| 19>  H        1.1023030834    -2.4769115536     0.0960433849
| 20>  H       -1.2364557858    -2.9232352285    -1.5568293359
| 21>  H        0.6357271695    -3.6280767373    -3.7111687418
| 22>  H        0.8093413853    -1.8699964069    -3.4134183563
| 23>  H        0.9119967149    -4.5373736332    -0.3679177799
| 24>  H        0.6955057124    -5.0793292894    -2.0787289745
| 25> *
| 26>
| 27>                          ****END OF INPUT****

CARTESIAN COORDINATES (ANGSTROEM)
---------------------------------
  C      0.563610    1.593694   -0.131599
  C      0.334602    0.092884   -0.131900
  O     -0.473934   -0.431614    0.599820
  C      1.179613   -0.717571   -1.110698
  C      0.965430   -2.211978   -0.956304
  C     -0.151660   -3.009101   -1.675600
  C      0.710572   -2.850869   -2.945707
  N      1.777695   -3.159264   -1.875389
  C      0.763930   -4.221867   -1.404301
  H      1.600953    1.818593    0.141190
  H      0.403336    2.007743   -1.133357
  H     -0.113233    2.071647    0.577420
  H      0.962252   -0.346718   -2.119061
  H      2.239195   -0.480213   -0.940932
  H      1.102303   -2.476912    0.096043
  H     -1.236456   -2.923235   -1.556829
  H      0.635727   -3.628077   -3.711169
  H      0.809341   -1.869996   -3.413418
  H      0.911997   -4.537374   -0.367918
  H      0.695506   -5.079329   -2.078729

 Total Charge           Charge          ....    0
 Multiplicity           Mult            ....    1
 Number of Electrons    NEL             ....   68
 Basis Dimension        Dim             ....  345

ORBITAL ENERGIES
----------------

  NO   OCC          E(Eh)            E(eV)
   0   2.0000     -20.548327      -559.1484
   1   2.0000     -15.567270      -423.6070
   2   2.0000     -11.335960      -308.4672
   3   2.0000     -11.265782      -306.5575
   4   2.0000     -11.258496      -306.3592
   5   2.0000     -11.257848      -306.3416
   6   2.0000     -11.246903      -306.0438
   7   2.0000     -11.242191      -305.9156
   8   2.0000     -11.238832      -305.8242
   9   2.0000      -1.392902       -37.9028
  10   2.0000      -1.292064       -35.1588
  11   2.0000      -1.058065       -28.7914
  12   2.0000      -0.995733       -27.0953
  13   2.0000      -0.924355       -25.1530
  14   2.0000      -0.922085       -25.0912
  15   2.0000      -0.876652       -23.8549
  16   2.0000      -0.758673       -20.6445
  17   2.0000      -0.727195       -19.7880
  18   2.0000      -0.668225       -18.1833
  19   2.0000      -0.647591       -17.6218
  20   2.0000      -0.643548       -17.5118
  21   2.0000      -0.641480       -17.4556
  22   2.0000      -0.610383       -16.6094
  23   2.0000      -0.592407       -16.1202
  24   2.0000      -0.565089       -15.3768
  25   2.0000      -0.551696       -15.0124
  26   2.0000      -0.506627       -13.7860
  27   2.0000      -0.497334       -13.5332
  28   2.0000      -0.491174       -13.3655
  29   2.0000      -0.478335       -13.0161
  30   2.0000      -0.456695       -12.4273
  31   2.0000      -0.452318       -12.3082
  32   2.0000      -0.414329       -11.2745
  33   2.0000      -0.371759       -10.1161
  34   0.0000       0.123793         3.3686
  35   0.0000       0.140015         3.8100
  36   0.0000       0.162318         4.4169
  37   0.0000       0.171683         4.6717
  38   0.0000       0.176583         4.8051

MULLIKEN ATOMIC CHARGES
-----------------------
   0 C :   -0.407045
   1 C :    0.214896
   2 O :   -0.292854
   3 C :   -0.316249
   4 C :    0.026656
   5 C :   -0.100176
   6 C :   -0.175747
   7 N :   -0.198217
   8 C :   -0.153362
   9 H :    0.146080
  10 H :    0.142966
  11 H :    0.155430
  12 H :    0.129685
  13 H :    0.155420
  14 H :    0.101774
  15 H :    0.116138
  16 H :    0.114268
  17 H :    0.109926
  18 H :    0.114806
  19 H :    0.115605
Sum of atomic charges:   -0.0000000

LOEWDIN ATOMIC CHARGES
----------------------
   0 C :   -0.280164
   1 C :   -0.344065
   2 O :    0.151388
   3 C :   -0.225610
   4 C :   -0.224486
   5 C :   -0.197098
   6 C :   -0.230676
   7 N :    0.098936
   8 C :   -0.228148
   9 H :    0.137217
  10 H :    0.135775
  11 H :    0.133473
  12 H :    0.153116
  13 H :    0.160736
  14 H :    0.149731
  15 H :    0.121918
  16 H :    0.123635
  17 H :    0.117000
  18 H :    0.124150
  19 H :    0.123173

  Mayer bond orders larger than 0.1
B(  0-C ,  1-C ) :   0.9245 B(  0-C ,  9-H ) :   0.9196 B(  0-C , 10-H ) :   0.9163
B(  0-C , 11-H ) :   0.9390 B(  1-C ,  2-O ) :   1.9826 B(  1-C ,  3-C ) :   0.9046
B(  3-C ,  4-C ) :   0.9279 B(  3-C , 12-H ) :   0.8960 B(  3-C , 13-H ) :   0.9109
B(  4-C ,  5-C ) :   0.9282 B(  4-C ,  7-N ) :   0.9210 B(  4-C , 14-H ) :   0.9196
B(  5-C ,  6-C ) :   0.9305 B(  5-C ,  8-C ) :   0.9359 B(  5-C , 15-H ) :   0.9028
B(  6-C ,  7-N ) :   0.9135 B(  6-C , 16-H ) :   0.9290 B(  6-C , 17-H ) :   0.9274
B(  7-N ,  8-C ) :   0.9158 B(  8-C , 18-H ) :   0.9211 B(  8-C , 19-H ) :   0.9263

MP2 TOTAL ENERGY:     -402.393051961 Eh
FINAL SINGLE POINT ENERGY      -402.393051960920

DIPOLE MOMENT
-------------
                                X             Y             Z
Electronic contribution:     -1.11993      -1.68072       2.21806
Nuclear contribution   :      1.08867       2.23584      -2.73507
                        -----------------------------------------
Total Dipole Moment    :     -0.03126       0.55512      -0.51701
                        -----------------------------------------
Magnitude (a.u.)       :      0.75923
Magnitude (Debye)      :      1.92982

                             ****ORCA TERMINATED NORMALLY****
TOTAL RUN TIME: 0 days 0 hours 19 minutes 34 seconds 327 msec
