                         Program Version 3.0.3 - RELEASE   -
|  1> ! RI-MP2 RIJK def2-TZVP def2-TZVP/C def2-TZVP/JK TIGHTSCF
|  2> % maxcore 2000
|  3> % mp2 density relaxed end
|  4> *xyz 0 1
|  5>  C       -0.8393840266     1.6342586871     0.0179471113
|  6>  C       -0.7233607628     0.1684905362     0.4247272796
|  7>  C       -1.3191762523    -0.7962509387    -0.5818364850
|  8>  O       -1.7594700963    -0.4531043698    -1.6545522592
|  9>  C       -1.3983993575    -2.2626602681    -0.1320443437
| 10>  C       -2.7709801548    -2.4587713202     0.5286501722
| 11>  O       -2.9356754280    -2.2078771728     1.7000814957
| 12>  C       -3.8849622351    -2.9144371837    -0.3934685385
| 13>  C       -5.2647986113    -2.9110305158     0.2572608913
| 14>  H       -0.3740270522     2.2806918504     0.7669225325
| 15>  H       -0.3535779122     1.8115691997    -0.9448051566
| 16>  H       -1.8869904609     1.9285396658    -0.0874069247
| 17>  H        0.3265808808    -0.1239632193     0.5714151458
| 18>  H       -1.2080211369    -0.0346834313     1.3898041159
| 19>  H       -1.2928005235    -2.8978170405    -1.0137308278
| 20>  H       -0.6269538246    -2.4889194891     0.6066179849
| 21>  H       -3.8447081182    -2.2746354639    -1.2859823411
| 22>  H       -3.6159279112    -3.9174589431    -0.7553968502
| 23>  H       -6.0231682533    -3.2694815423    -0.4440139528
| 24>  H       -5.2799523155    -3.5508667194     1.1431052221
| 25>  H       -5.5423476974    -1.9037305411     0.5789645284
| 26> *
| 27>
| 28>                          ****END OF INPUT****

CARTESIAN COORDINATES (ANGSTROEM)
---------------------------------
  C     -0.839384    1.634259    0.017947
  C     -0.723361    0.168491    0.424727
  C     -1.319176   -0.796251   -0.581836
  O     -1.759470   -0.453104   -1.654552
  C     -1.398399   -2.262660   -0.132044
  C     -2.770980   -2.458771    0.528650
  O     -2.935675   -2.207877    1.700081
  C     -3.884962   -2.914437   -0.393469
  C     -5.264799   -2.911031    0.257261
  H     -0.374027    2.280692    0.766923
  H     -0.353578    1.811569   -0.944805
  H     -1.886990    1.928540   -0.087407
  H      0.326581   -0.123963    0.571415
  H     -1.208021   -0.034683    1.389804
  H     -1.292801   -2.897817   -1.013731
  H     -0.626954   -2.488919    0.606618
  H     -3.844708   -2.274635   -1.285982
  H     -3.615928   -3.917459   -0.755397
  H     -6.023168   -3.269482   -0.444014
  H     -5.279952   -3.550867    1.143105
  H     -5.542348   -1.903731    0.578965

 Total Charge           Charge          ....    0
 Multiplicity           Mult            ....    1
 Number of Electrons    NEL             ....   70
 Basis Dimension        Dim             ....  351

ORBITAL ENERGIES
----------------

  NO   OCC          E(Eh)            E(eV)
   0   2.0000     -20.555907      -559.3547
   1   2.0000     -20.555906      -559.3546
   2   2.0000     -11.343496      -308.6722
   3   2.0000     -11.343494      -308.6722
   4   2.0000     -11.253041      -306.2108
   5   2.0000     -11.242679      -305.9289
   6   2.0000     -11.242675      -305.9287
   7   2.0000     -11.220193      -305.3170
   8   2.0000     -11.220191      -305.3169
   9   2.0000      -1.404308       -38.2132
  10   2.0000      -1.397649       -38.0320
  11   2.0000      -1.081888       -29.4397
  12   2.0000      -1.058725       -28.8094
  13   2.0000      -1.020097       -27.7583
  14   2.0000      -0.905634       -24.6436
  15   2.0000      -0.872040       -23.7294
  16   2.0000      -0.757020       -20.5996
  17   2.0000      -0.733736       -19.9660
  18   2.0000      -0.678102       -18.4521
  19   2.0000      -0.669828       -18.2269
  20   2.0000      -0.647117       -17.6089
  21   2.0000      -0.637483       -17.3468
  22   2.0000      -0.624529       -16.9943
  23   2.0000      -0.609310       -16.5802
  24   2.0000      -0.582846       -15.8600
  25   2.0000      -0.543012       -14.7761
  26   2.0000      -0.532862       -14.4999
  27   2.0000      -0.525550       -14.3010
  28   2.0000      -0.521151       -14.1812
  29   2.0000      -0.516923       -14.0662
  30   2.0000      -0.515160       -14.0182
  31   2.0000      -0.496634       -13.5141
  32   2.0000      -0.489938       -13.3319
  33   2.0000      -0.428247       -11.6532
  34   2.0000      -0.408442       -11.1143
  35   0.0000       0.110116         2.9964
  36   0.0000       0.130239         3.5440
  37   0.0000       0.145049         3.9470
  38   0.0000       0.160824         4.3762
  39   0.0000       0.166491         4.5304

MULLIKEN ATOMIC CHARGES
-----------------------
   0 C :   -0.373873
   1 C :   -0.266680
   2 C :    0.165182
   3 O :   -0.292275
   4 C :   -0.147532
   5 C :    0.165183
   6 O :   -0.292269
   7 C :   -0.266681
   8 C :   -0.373874
   9 H :    0.135442
  10 H :    0.134731
  11 H :    0.132465
  12 H :    0.134221
  13 H :    0.163388
  14 H :    0.141162
  15 H :    0.141161
  16 H :    0.163393
  17 H :    0.134218
  18 H :    0.135443
  19 H :    0.134728
  20 H :    0.132466
Sum of atomic charges:    0.0000000

LOEWDIN ATOMIC CHARGES
----------------------
   0 C :   -0.309395
   1 C :   -0.268465
   2 C :   -0.321385
   3 O :    0.155492
   4 C :   -0.200344
   5 C :   -0.321384
   6 O :    0.155494
   7 C :   -0.268465
   8 C :   -0.309395
   9 H :    0.122707
  10 H :    0.127220
  11 H :    0.127051
  12 H :    0.153708
  13 H :    0.158985
  14 H :    0.154255
  15 H :    0.154252
  16 H :    0.158985
  17 H :    0.153708
  18 H :    0.122707
  19 H :    0.127218
  20 H :    0.127051

  Mayer bond orders larger than 0.1
B(  0-C ,  1-C ) :   0.9359 B(  0-C ,  9-H ) :   0.9390 B(  0-C , 10-H ) :   0.9332
B(  0-C , 11-H ) :   0.9367 B(  1-C ,  2-C ) :   0.9388 B(  1-C , 12-H ) :   0.8998
B(  1-C , 13-H ) :   0.9078 B(  2-C ,  3-O ) :   1.9717 B(  2-C ,  4-C ) :   0.8653
B(  4-C ,  5-C ) :   0.8653 B(  4-C , 14-H ) :   0.9135 B(  4-C , 15-H ) :   0.9135
B(  5-C ,  6-O ) :   1.9717 B(  5-C ,  7-C ) :   0.9388 B(  7-C ,  8-C ) :   0.9359
B(  7-C , 16-H ) :   0.9078 B(  7-C , 17-H ) :   0.8998 B(  8-C , 18-H ) :   0.9390
B(  8-C , 19-H ) :   0.9332 B(  8-C , 20-H ) :   0.9367

MP2 TOTAL ENERGY:     -423.560269397 Eh
FINAL SINGLE POINT ENERGY      -423.560269396921

DIPOLE MOMENT
-------------
                                X             Y             Z
Electronic contribution:      1.96897      -1.93432      -0.32093
Nuclear contribution   :     -1.56279       1.53553       0.25464
                        -----------------------------------------
Total Dipole Moment    :      0.40617      -0.39879      -0.06629
                        -----------------------------------------
Magnitude (a.u.)       :      0.57306
Magnitude (Debye)      :      1.45661

                             ****ORCA TERMINATED NORMALLY****
TOTAL RUN TIME: 0 days 0 hours 16 minutes 57 seconds 252 msec
