                         Program Version 3.0.3 - RELEASE   -
|  1> ! RI-MP2 RIJK def2-TZVP def2-TZVP/C def2-TZVP/JK TIGHTSCF
|  2> % maxcore 2000
|  3> % mp2 density relaxed end
|  4> *xyz 0 1
|  5>  C        0.0282273177     1.5132793725     0.0861928845
|  6>  C       -0.0211221719     0.0170268614    -0.0360735211
|  7>  C       -0.0700098802    -0.6326432220    -1.1995521869
|  8>  C       -0.0667069327    -2.1352840968    -1.2923890293
|  9>  C        0.4106577329    -2.7182451536     0.0479959411
| 10>  O       -0.2933136337    -2.1319824093     1.1272741296
| 11>  C       -0.0037792112    -0.7498974753     1.2644530202
| 12>  C        0.2114904243    -4.1721086681     0.1172882826
| 13>  N        0.0740894954    -5.3184762345     0.1297527824
| 14>  H        0.9202041445     1.8387393433     0.6369083191
| 15>  H        0.0446781994     1.9926594546    -0.8956757415
| 16>  H       -0.8380988222     1.8966140607     0.6400557161
| 17>  H       -0.1045054925    -0.0768506310    -2.1331480911
| 18>  H       -1.0662276746    -2.5233008746    -1.5250087265
| 19>  H        0.5973307015    -2.4762593922    -2.0951510679
| 20>  H        1.4917754155    -2.5260637530     0.1531430271
| 21>  H        0.9710204358    -0.6109458946     1.7670891482
| 22>  H       -0.7682508682    -0.3596320775     1.9461772934
| 23> *
| 24>
| 25>                          ****END OF INPUT****

CARTESIAN COORDINATES (ANGSTROEM)
---------------------------------
  C      0.028227    1.513279    0.086193
  C     -0.021122    0.017027   -0.036074
  C     -0.070010   -0.632643   -1.199552
  C     -0.066707   -2.135284   -1.292389
  C      0.410658   -2.718245    0.047996
  O     -0.293314   -2.131982    1.127274
  C     -0.003779   -0.749897    1.264453
  C      0.211490   -4.172109    0.117288
  N      0.074089   -5.318476    0.129753
  H      0.920204    1.838739    0.636908
  H      0.044678    1.992659   -0.895676
  H     -0.838099    1.896614    0.640056
  H     -0.104505   -0.076851   -2.133148
  H     -1.066228   -2.523301   -1.525009
  H      0.597331   -2.476259   -2.095151
  H      1.491775   -2.526064    0.153143
  H      0.971020   -0.610946    1.767089
  H     -0.768251   -0.359632    1.946177

 Total Charge           Charge          ....    0
 Multiplicity           Mult            ....    1
 Number of Electrons    NEL             ....   66
 Basis Dimension        Dim             ....  333

ORBITAL ENERGIES
----------------

  NO   OCC          E(Eh)            E(eV)
   0   2.0000     -20.585779      -560.1675
   1   2.0000     -15.573553      -423.7779
   2   2.0000     -11.340170      -308.5817
   3   2.0000     -11.300539      -307.5033
   4   2.0000     -11.272186      -306.7318
   5   2.0000     -11.255522      -306.2783
   6   2.0000     -11.254810      -306.2589
   7   2.0000     -11.242925      -305.9356
   8   2.0000     -11.240813      -305.8781
   9   2.0000      -1.411962       -38.4214
  10   2.0000      -1.219386       -33.1812
  11   2.0000      -1.120558       -30.4919
  12   2.0000      -1.080883       -29.4123
  13   2.0000      -0.976319       -26.5670
  14   2.0000      -0.920531       -25.0489
  15   2.0000      -0.884233       -24.0612
  16   2.0000      -0.752639       -20.4804
  17   2.0000      -0.740900       -20.1609
  18   2.0000      -0.684476       -18.6255
  19   2.0000      -0.654406       -17.8073
  20   2.0000      -0.629088       -17.1184
  21   2.0000      -0.608791       -16.5661
  22   2.0000      -0.593456       -16.1487
  23   2.0000      -0.585732       -15.9386
  24   2.0000      -0.565899       -15.3989
  25   2.0000      -0.556444       -15.1416
  26   2.0000      -0.553085       -15.0502
  27   2.0000      -0.520689       -14.1687
  28   2.0000      -0.495357       -13.4794
  29   2.0000      -0.472916       -12.8687
  30   2.0000      -0.468043       -12.7361
  31   2.0000      -0.434478       -11.8228
  32   2.0000      -0.363226        -9.8839
  33   0.0000       0.118784         3.2323
  34   0.0000       0.135059         3.6751
  35   0.0000       0.143091         3.8937
  36   0.0000       0.157550         4.2871
  37   0.0000       0.169780         4.6200

MULLIKEN ATOMIC CHARGES
-----------------------
   0 C :   -0.411154
   1 C :    0.038962
   2 C :   -0.259816
   3 C :   -0.121735
   4 C :    0.113889
   5 O :   -0.282160
   6 C :   -0.079534
   7 C :   -0.134388
   8 N :   -0.052563
   9 H :    0.139850
  10 H :    0.139014
  11 H :    0.143524
  12 H :    0.126270
  13 H :    0.134777
  14 H :    0.136736
  15 H :    0.110205
  16 H :    0.120229
  17 H :    0.137896
Sum of atomic charges:   -0.0000000

LOEWDIN ATOMIC CHARGES
----------------------
   0 C :   -0.267482
   1 C :   -0.205745
   2 C :   -0.147445
   3 C :   -0.214660
   4 C :   -0.303763
   5 O :    0.198960
   6 C :   -0.268966
   7 C :   -0.154604
   8 N :    0.074212
   9 H :    0.132406
  10 H :    0.132203
  11 H :    0.132319
  12 H :    0.146379
  13 H :    0.154734
  14 H :    0.152162
  15 H :    0.163477
  16 H :    0.132026
  17 H :    0.143786

  Mayer bond orders larger than 0.1
B(  0-C ,  1-C ) :   0.8961 B(  0-C ,  9-H ) :   0.9284 B(  0-C , 10-H ) :   0.9419
B(  0-C , 11-H ) :   0.9294 B(  1-C ,  2-C ) :   1.7669 B(  1-C ,  6-C ) :   0.9315
B(  2-C ,  3-C ) :   0.9268 B(  2-C , 12-H ) :   0.9283 B(  3-C ,  4-C ) :   0.9428
B(  3-C , 13-H ) :   0.8996 B(  3-C , 14-H ) :   0.9149 B(  4-C ,  5-O ) :   0.9799
B(  4-C ,  7-C ) :   0.8979 B(  4-C , 15-H ) :   0.9251 B(  5-O ,  6-C ) :   0.9369
B(  6-C , 16-H ) :   0.9511 B(  6-C , 17-H ) :   0.9100 B(  7-C ,  8-N ) :   2.8636

MP2 TOTAL ENERGY:     -401.271360160 Eh
FINAL SINGLE POINT ENERGY      -401.271360159973

DIPOLE MOMENT
-------------
                                X             Y             Z
Electronic contribution:     -0.50968     -10.32187       1.43950
Nuclear contribution   :      0.92813      12.25943      -1.81979
                        -----------------------------------------
Total Dipole Moment    :      0.41845       1.93756      -0.38029
                        -----------------------------------------
Magnitude (a.u.)       :      2.01838
Magnitude (Debye)      :      5.13031

                             ****ORCA TERMINATED NORMALLY****
TOTAL RUN TIME: 0 days 0 hours 17 minutes 20 seconds 27 msec
