                         Program Version 3.0.3 - RELEASE   -
|  1> ! RI-MP2 RIJK def2-TZVP def2-TZVP/C def2-TZVP/JK TIGHTSCF
|  2> % maxcore 2000
|  3> % mp2 density relaxed end
|  4> *xyz 0 1
|  5>  O        0.1931801904     1.3425355242     0.2603742003
|  6>  C        0.0594442706    -0.0372256382     0.0329288235
|  7>  C       -1.3992305598    -0.5411237294    -0.0965197818
|  8>  C       -1.2545273336    -1.9307323273    -0.7378096346
|  9>  C       -0.0534380776    -1.7839295876    -1.6667578303
| 10>  O        0.2168596530    -2.4603722748    -2.6267797999
| 11>  C        0.7372454045    -0.5211848820    -1.2607925755
| 12>  O        0.4996869416     0.4752410676    -2.2538011169
| 13>  H        0.1193575003     1.7678945287    -0.6034472212
| 14>  H        0.5352221613    -0.5439225578     0.8820206275
| 15>  H       -1.9169269784    -0.5498574371     0.8644058518
| 16>  H       -1.9443080931     0.1311024528    -0.7677859222
| 17>  H       -0.9974807358    -2.6884035513     0.0160755876
| 18>  H       -2.1304121283    -2.2990356074    -1.2760478322
| 19>  H        1.8099654853    -0.7234538829    -1.1526163400
| 20>  H        0.7209504097     0.0915808923    -3.1102785461
| 21> *
| 22>
| 23>                          ****END OF INPUT****

CARTESIAN COORDINATES (ANGSTROEM)
---------------------------------
  O      0.193180    1.342536    0.260374
  C      0.059444   -0.037226    0.032929
  C     -1.399231   -0.541124   -0.096520
  C     -1.254527   -1.930732   -0.737810
  C     -0.053438   -1.783930   -1.666758
  O      0.216860   -2.460372   -2.626780
  C      0.737245   -0.521185   -1.260793
  O      0.499687    0.475241   -2.253801
  H      0.119358    1.767895   -0.603447
  H      0.535222   -0.543923    0.882021
  H     -1.916927   -0.549857    0.864406
  H     -1.944308    0.131102   -0.767786
  H     -0.997481   -2.688404    0.016076
  H     -2.130412   -2.299036   -1.276048
  H      1.809965   -0.723454   -1.152616
  H      0.720950    0.091581   -3.110279

 Total Charge           Charge          ....    0
 Multiplicity           Mult            ....    1
 Number of Electrons    NEL             ....   62
 Basis Dimension        Dim             ....  296

ORBITAL ENERGIES
----------------

  NO   OCC          E(Eh)            E(eV)
   0   2.0000     -20.587473      -560.2136
   1   2.0000     -20.565681      -559.6206
   2   2.0000     -20.560295      -559.4741
   3   2.0000     -11.343274      -308.6662
   4   2.0000     -11.302841      -307.5659
   5   2.0000     -11.295625      -307.3696
   6   2.0000     -11.250299      -306.1362
   7   2.0000     -11.239186      -305.8338
   8   2.0000      -1.416416       -38.5426
   9   2.0000      -1.391829       -37.8736
  10   2.0000      -1.362728       -37.0817
  11   2.0000      -1.123133       -30.5620
  12   2.0000      -0.983879       -26.7727
  13   2.0000      -0.936197       -25.4752
  14   2.0000      -0.819268       -22.2934
  15   2.0000      -0.777105       -21.1461
  16   2.0000      -0.739088       -20.1116
  17   2.0000      -0.695499       -18.9255
  18   2.0000      -0.666997       -18.1499
  19   2.0000      -0.645815       -17.5735
  20   2.0000      -0.620111       -16.8741
  21   2.0000      -0.609176       -16.5765
  22   2.0000      -0.591304       -16.0902
  23   2.0000      -0.562124       -15.2962
  24   2.0000      -0.557973       -15.1832
  25   2.0000      -0.537958       -14.6386
  26   2.0000      -0.514785       -14.0080
  27   2.0000      -0.496558       -13.5120
  28   2.0000      -0.486283       -13.2324
  29   2.0000      -0.437897       -11.9158
  30   2.0000      -0.407738       -11.0951
  31   0.0000       0.108370         2.9489
  32   0.0000       0.133057         3.6207
  33   0.0000       0.152202         4.1416
  34   0.0000       0.161998         4.4082
  35   0.0000       0.179500         4.8845

MULLIKEN ATOMIC CHARGES
-----------------------
   0 O :   -0.470614
   1 C :    0.055062
   2 C :   -0.216503
   3 C :   -0.225182
   4 C :    0.080107
   5 O :   -0.268256
   6 C :    0.119374
   7 O :   -0.509729
   8 H :    0.336843
   9 H :    0.104939
  10 H :    0.131578
  11 H :    0.118031
  12 H :    0.141705
  13 H :    0.147907
  14 H :    0.118941
  15 H :    0.335798
Sum of atomic charges:   -0.0000000

LOEWDIN ATOMIC CHARGES
----------------------
   0 O :   -0.005206
   1 C :   -0.330474
   2 C :   -0.233621
   3 C :   -0.224276
   4 C :   -0.299098
   5 O :    0.156970
   6 C :   -0.290915
   7 O :   -0.017637
   8 H :    0.183011
   9 H :    0.148914
  10 H :    0.136456
  11 H :    0.143507
  12 H :    0.158276
  13 H :    0.148248
  14 H :    0.138910
  15 H :    0.186935

  Mayer bond orders larger than 0.1
B(  0-O ,  1-C ) :   0.9904 B(  0-O ,  8-H ) :   0.8206 B(  1-C ,  2-C ) :   0.8932
B(  1-C ,  6-C ) :   0.9010 B(  1-C ,  9-H ) :   0.9336 B(  2-C ,  3-C ) :   0.9191
B(  2-C , 10-H ) :   0.9251 B(  2-C , 11-H ) :   0.9170 B(  3-C ,  4-C ) :   0.9005
B(  3-C , 12-H ) :   0.9010 B(  3-C , 13-H ) :   0.9124 B(  4-C ,  5-O ) :   2.0084
B(  4-C ,  6-C ) :   0.8508 B(  6-C ,  7-O ) :   0.8893 B(  6-C , 14-H ) :   0.9166
B(  7-O , 15-H ) :   0.8300

MP2 TOTAL ENERGY:     -420.243374090 Eh
FINAL SINGLE POINT ENERGY      -420.243374090073

DIPOLE MOMENT
-------------
                                X             Y             Z
Electronic contribution:      2.54221      -0.45119      -3.07859
Nuclear contribution   :     -2.76007       0.21763       3.15787
                        -----------------------------------------
Total Dipole Moment    :     -0.21786      -0.23357       0.07928
                        -----------------------------------------
Magnitude (a.u.)       :      0.32909
Magnitude (Debye)      :      0.83648

                             ****ORCA TERMINATED NORMALLY****
TOTAL RUN TIME: 0 days 0 hours 12 minutes 16 seconds 863 msec
