                         Program Version 3.0.3 - RELEASE   -
|  1> ! RI-MP2 RIJK def2-TZVP def2-TZVP/C def2-TZVP/JK TIGHTSCF
|  2> % maxcore 2000
|  3> % mp2 density relaxed end
|  4> *xyz 0 1
|  5>  C       -0.1034026245     0.5507538679    -1.4771871342
|  6>  O       -0.2849754964    -0.7091080916    -0.8748288957
|  7>  C       -1.4600904615    -0.8130152905    -0.0816170487
|  8>  C       -2.7364329629    -1.0670060624    -0.9194779537
|  9>  C       -2.8730601175    -2.5825840386    -0.9466821194
| 10>  C       -1.6601973185    -3.3776964845    -1.2702881893
| 11>  N       -2.0706986002    -3.1828590954     0.1335841616
| 12>  C       -1.3764280037    -2.0728991436     0.8235747784
| 13>  C        0.0220323066    -2.4576340283     1.2899647041
| 14>  H        0.8525473664     0.5218426817    -2.0059646756
| 15>  H       -0.8964361130     0.7919096678    -2.2006883971
| 16>  H       -0.0707946494     1.3546530743    -0.7250969137
| 17>  H       -1.5526312671     0.0981289432     0.5277204488
| 18>  H       -3.6069396968    -0.6246004589    -0.4218691142
| 19>  H       -2.6689830529    -0.6186985127    -1.9152135200
| 20>  H       -3.8607974897    -3.0052770739    -1.1100410045
| 21>  H       -1.7659050003    -4.3991468394    -1.6246939307
| 22>  H       -0.7906711578    -2.8444565911    -1.6397328090
| 23>  H       -1.9932786611    -1.8588739779     1.7065907291
| 24>  H        0.6774340020    -2.6703816716     0.4431868249
| 25>  H        0.4743609835    -1.6454793136     1.8672683403
| 26>  H       -0.0320555151    -3.3458761010     1.9250499085
| 27> *
| 28>
| 29>                          ****END OF INPUT****

CARTESIAN COORDINATES (ANGSTROEM)
---------------------------------
  C     -0.103403    0.550754   -1.477187
  O     -0.284975   -0.709108   -0.874829
  C     -1.460090   -0.813015   -0.081617
  C     -2.736433   -1.067006   -0.919478
  C     -2.873060   -2.582584   -0.946682
  C     -1.660197   -3.377696   -1.270288
  N     -2.070699   -3.182859    0.133584
  C     -1.376428   -2.072899    0.823575
  C      0.022032   -2.457634    1.289965
  H      0.852547    0.521843   -2.005965
  H     -0.896436    0.791910   -2.200688
  H     -0.070795    1.354653   -0.725097
  H     -1.552631    0.098129    0.527720
  H     -3.606940   -0.624600   -0.421869
  H     -2.668983   -0.618699   -1.915214
  H     -3.860797   -3.005277   -1.110041
  H     -1.765905   -4.399147   -1.624694
  H     -0.790671   -2.844457   -1.639733
  H     -1.993279   -1.858874    1.706591
  H      0.677434   -2.670382    0.443187
  H      0.474361   -1.645479    1.867268
  H     -0.032056   -3.345876    1.925050

 Total Charge           Charge          ....    0
 Multiplicity           Mult            ....    1
 Number of Electrons    NEL             ....   70
 Basis Dimension        Dim             ....  357

ORBITAL ENERGIES
----------------

  NO   OCC          E(Eh)            E(eV)
   0   2.0000     -20.556834      -559.3799
   1   2.0000     -15.547220      -423.0614
   2   2.0000     -11.281200      -306.9770
   3   2.0000     -11.274573      -306.7967
   4   2.0000     -11.250475      -306.1410
   5   2.0000     -11.249614      -306.1175
   6   2.0000     -11.238638      -305.8189
   7   2.0000     -11.227257      -305.5092
   8   2.0000     -11.204157      -304.8806
   9   2.0000      -1.379688       -37.5432
  10   2.0000      -1.270583       -34.5743
  11   2.0000      -1.052298       -28.6345
  12   2.0000      -1.017577       -27.6897
  13   2.0000      -0.934524       -25.4297
  14   2.0000      -0.902392       -24.5553
  15   2.0000      -0.843345       -22.9486
  16   2.0000      -0.780043       -21.2261
  17   2.0000      -0.757590       -20.6151
  18   2.0000      -0.700013       -19.0483
  19   2.0000      -0.660283       -17.9672
  20   2.0000      -0.642807       -17.4917
  21   2.0000      -0.624073       -16.9819
  22   2.0000      -0.605834       -16.4856
  23   2.0000      -0.573713       -15.6115
  24   2.0000      -0.562968       -15.3191
  25   2.0000      -0.552993       -15.0477
  26   2.0000      -0.536323       -14.5941
  27   2.0000      -0.516016       -14.0415
  28   2.0000      -0.503192       -13.6926
  29   2.0000      -0.481122       -13.0920
  30   2.0000      -0.466402       -12.6915
  31   2.0000      -0.446441       -12.1483
  32   2.0000      -0.429804       -11.6956
  33   2.0000      -0.414810       -11.2875
  34   2.0000      -0.362923        -9.8756
  35   0.0000       0.134699         3.6653
  36   0.0000       0.158122         4.3027
  37   0.0000       0.160168         4.3584
  38   0.0000       0.177699         4.8354
  39   0.0000       0.194306         5.2873

MULLIKEN ATOMIC CHARGES
-----------------------
   0 C :   -0.225255
   1 O :   -0.317956
   2 C :    0.078756
   3 C :   -0.260598
   4 C :   -0.026259
   5 C :   -0.218867
   6 N :   -0.224710
   7 C :    0.021224
   8 C :   -0.398986
   9 H :    0.141030
  10 H :    0.108670
  11 H :    0.113670
  12 H :    0.088620
  13 H :    0.121671
  14 H :    0.119340
  15 H :    0.119328
  16 H :    0.121509
  17 H :    0.145363
  18 H :    0.096620
  19 H :    0.134622
  20 H :    0.121824
  21 H :    0.140384
Sum of atomic charges:   -0.0000000

LOEWDIN ATOMIC CHARGES
----------------------
   0 C :   -0.360510
   1 O :    0.156414
   2 C :   -0.290238
   3 C :   -0.226208
   4 C :   -0.250041
   5 C :   -0.243456
   6 N :    0.124094
   7 C :   -0.281618
   8 C :   -0.290442
   9 H :    0.114179
  10 H :    0.100054
  11 H :    0.102842
  12 H :    0.135346
  13 H :    0.143366
  14 H :    0.141629
  15 H :    0.136621
  16 H :    0.124203
  17 H :    0.131304
  18 H :    0.153057
  19 H :    0.126320
  20 H :    0.125817
  21 H :    0.127268

  Mayer bond orders larger than 0.1
B(  0-C ,  1-O ) :   0.9200 B(  0-C ,  9-H ) :   0.9405 B(  0-C , 10-H ) :   0.9317
B(  0-C , 11-H ) :   0.9359 B(  1-O ,  2-C ) :   0.9101 B(  2-C ,  3-C ) :   0.9295
B(  2-C ,  7-C ) :   0.9038 B(  2-C , 12-H ) :   0.9263 B(  3-C ,  4-C ) :   0.9577
B(  3-C , 13-H ) :   0.9213 B(  3-C , 14-H ) :   0.9143 B(  4-C ,  5-C ) :   0.9295
B(  4-C ,  6-N ) :   0.9010 B(  4-C , 15-H ) :   0.9258 B(  5-C ,  6-N ) :   0.8759
B(  5-C , 16-H ) :   0.9262 B(  5-C , 17-H ) :   0.9061 B(  6-N ,  7-C ) :   0.9442
B(  7-C ,  8-C ) :   0.9337 B(  7-C , 18-H ) :   0.9207 B(  8-C , 19-H ) :   0.9249
B(  8-C , 20-H ) :   0.9382 B(  8-C , 21-H ) :   0.9387

MP2 TOTAL ENERGY:     -403.634991885 Eh
FINAL SINGLE POINT ENERGY      -403.634991884681

DIPOLE MOMENT
-------------
                                X             Y             Z
Electronic contribution:     -2.22226      -2.72293      -0.07223
Nuclear contribution   :      2.14413       3.62896      -0.22181
                        -----------------------------------------
Total Dipole Moment    :     -0.07813       0.90602      -0.29403
                        -----------------------------------------
Magnitude (a.u.)       :      0.95574
Magnitude (Debye)      :      2.42930

                             ****ORCA TERMINATED NORMALLY****
TOTAL RUN TIME: 0 days 0 hours 32 minutes 7 seconds 642 msec
