                         Program Version 3.0.3 - RELEASE   -
|  1> ! RI-MP2 RIJK def2-TZVP def2-TZVP/C def2-TZVP/JK TIGHTSCF
|  2> % maxcore 2000
|  3> % mp2 density relaxed end
|  4> *xyz 0 1
|  5>  N       -0.0439151089     1.3548942598     0.0003395224
|  6>  C        0.0656761658    -0.0069505010    -0.0307821741
|  7>  O        1.1325165191    -0.5885292702    -0.0768205289
|  8>  C       -1.2149982796    -0.6983414074    -0.0168776935
|  9>  C       -2.2478950487    -1.3203757644    -0.0056234582
| 10>  C       -3.4786939791    -2.0988153890     0.0065285222
| 11>  C       -3.2332465772    -3.6197129700     0.0161160342
| 12>  C       -4.5372107890    -4.4072620881     0.0265805368
| 13>  O       -4.2070247598    -5.7850449951     0.0369992520
| 14>  H        0.8020768715     1.8981370563     0.0538108972
| 15>  H       -0.9332958000     1.8075215460     0.1166418342
| 16>  H       -4.0751403543    -1.8122694239     0.8835379241
| 17>  H       -4.0828350699    -1.8247144915    -0.8692281521
| 18>  H       -2.6478415248    -3.9061801402    -0.8630227476
| 19>  H       -2.6413571303    -3.8941412139     0.8947964763
| 20>  H       -5.1323460296    -4.1302369592     0.9131883486
| 21>  H       -5.1376470821    -4.1448357384    -0.8608502443
| 22>  H       -5.0236664831    -6.2925741899     0.0420285306
| 23> *
| 24>
| 25>                          ****END OF INPUT****

CARTESIAN COORDINATES (ANGSTROEM)
---------------------------------
  N     -0.043915    1.354894    0.000340
  C      0.065676   -0.006951   -0.030782
  O      1.132517   -0.588529   -0.076821
  C     -1.214998   -0.698341   -0.016878
  C     -2.247895   -1.320376   -0.005623
  C     -3.478694   -2.098815    0.006529
  C     -3.233247   -3.619713    0.016116
  C     -4.537211   -4.407262    0.026581
  O     -4.207025   -5.785045    0.036999
  H      0.802077    1.898137    0.053811
  H     -0.933296    1.807522    0.116642
  H     -4.075140   -1.812269    0.883538
  H     -4.082835   -1.824714   -0.869228
  H     -2.647842   -3.906180   -0.863023
  H     -2.641357   -3.894141    0.894796
  H     -5.132346   -4.130237    0.913188
  H     -5.137647   -4.144836   -0.860850
  H     -5.023666   -6.292574    0.042029

 Total Charge           Charge          ....    0
 Multiplicity           Mult            ....    1
 Number of Electrons    NEL             ....   68
 Basis Dimension        Dim             ....  333

ORBITAL ENERGIES
----------------

  NO   OCC          E(Eh)            E(eV)
   0   2.0000     -20.563882      -559.5717
   1   2.0000     -20.524069      -558.4883
   2   2.0000     -15.588215      -424.1769
   3   2.0000     -11.375299      -309.5376
   4   2.0000     -11.287353      -307.1445
   5   2.0000     -11.267739      -306.6108
   6   2.0000     -11.258008      -306.3460
   7   2.0000     -11.236299      -305.7552
   8   2.0000     -11.236142      -305.7510
   9   2.0000      -1.388026       -37.7701
  10   2.0000      -1.368811       -37.2472
  11   2.0000      -1.217334       -33.1253
  12   2.0000      -1.105091       -30.0710
  13   2.0000      -1.036977       -28.2176
  14   2.0000      -0.954333       -25.9687
  15   2.0000      -0.870624       -23.6909
  16   2.0000      -0.827520       -22.5180
  17   2.0000      -0.756251       -20.5786
  18   2.0000      -0.709874       -19.3166
  19   2.0000      -0.691996       -18.8302
  20   2.0000      -0.674145       -18.3444
  21   2.0000      -0.658972       -17.9315
  22   2.0000      -0.617317       -16.7981
  23   2.0000      -0.609824       -16.5942
  24   2.0000      -0.583866       -15.8878
  25   2.0000      -0.569841       -15.5062
  26   2.0000      -0.547827       -14.9071
  27   2.0000      -0.514068       -13.9885
  28   2.0000      -0.495494       -13.4831
  29   2.0000      -0.453549       -12.3417
  30   2.0000      -0.451411       -12.2835
  31   2.0000      -0.419625       -11.4186
  32   2.0000      -0.397082       -10.8051
  33   2.0000      -0.396782       -10.7970
  34   0.0000       0.119483         3.2513
  35   0.0000       0.121034         3.2935
  36   0.0000       0.132379         3.6022
  37   0.0000       0.143482         3.9043
  38   0.0000       0.176706         4.8084

MULLIKEN ATOMIC CHARGES
-----------------------
   0 N :   -0.471640
   1 C :    0.227958
   2 O :   -0.320549
   3 C :    0.105351
   4 C :   -0.023026
   5 C :   -0.430847
   6 C :   -0.123156
   7 C :   -0.079112
   8 O :   -0.461010
   9 H :    0.262241
  10 H :    0.263349
  11 H :    0.145633
  12 H :    0.146374
  13 H :    0.128448
  14 H :    0.127698
  15 H :    0.092176
  16 H :    0.092573
  17 H :    0.317539
Sum of atomic charges:    0.0000000

LOEWDIN ATOMIC CHARGES
----------------------
   0 N :   -0.007739
   1 C :   -0.481251
   2 O :    0.104972
   3 C :   -0.035584
   4 C :   -0.043984
   5 C :   -0.247082
   6 C :   -0.249191
   7 C :   -0.354948
   8 O :   -0.045964
   9 H :    0.174804
  10 H :    0.174490
  11 H :    0.158286
  12 H :    0.158690
  13 H :    0.146332
  14 H :    0.146140
  15 H :    0.114296
  16 H :    0.114389
  17 H :    0.173344

  Mayer bond orders larger than 0.1
B(  0-N ,  1-C ) :   1.2365 B(  0-N ,  3-C ) :  -0.1161 B(  0-N ,  9-H ) :   0.8600
B(  0-N , 10-H ) :   0.8677 B(  1-C ,  2-O ) :   2.0383 B(  1-C ,  3-C ) :   0.8422
B(  3-C ,  4-C ) :   2.7478 B(  3-C ,  5-C ) :  -0.1684 B(  4-C ,  5-C ) :   1.0949
B(  5-C ,  6-C ) :   0.9373 B(  5-C , 11-H ) :   0.9174 B(  5-C , 12-H ) :   0.9168
B(  6-C ,  7-C ) :   0.9307 B(  6-C , 13-H ) :   0.9217 B(  6-C , 14-H ) :   0.9216
B(  7-C ,  8-O ) :   1.0374 B(  7-C , 15-H ) :   0.9308 B(  7-C , 16-H ) :   0.9309
B(  8-O , 17-H ) :   0.8481

MP2 TOTAL ENERGY:     -438.358748562 Eh
FINAL SINGLE POINT ENERGY      -438.358748562022

DIPOLE MOMENT
-------------
                                X             Y             Z
Electronic contribution:      8.17573       5.12042      -0.17313
Nuclear contribution   :    -10.13952      -4.24114       0.31562
                        -----------------------------------------
Total Dipole Moment    :     -1.96379       0.87928       0.14249
                        -----------------------------------------
Magnitude (a.u.)       :      2.15636
Magnitude (Debye)      :      5.48104

                             ****ORCA TERMINATED NORMALLY****
TOTAL RUN TIME: 0 days 0 hours 12 minutes 38 seconds 826 msec
