                         Program Version 3.0.3 - RELEASE   -
|  1> ! RI-MP2 RIJK def2-TZVP def2-TZVP/C def2-TZVP/JK TIGHTSCF
|  2> % maxcore 2000
|  3> % mp2 density relaxed end
|  4> *xyz 0 1
|  5>  C        0.0480985758     1.6095873719     0.1347997979
|  6>  C        0.0162759805     0.0868968083     0.0231150918
|  7>  C       -1.3909844208    -0.4715920953    -0.2192381027
|  8>  C       -2.0711136154     0.0245308439    -1.4906417910
|  9>  O       -3.2829972784    -0.7042225886    -1.6359030082
| 10>  C        1.0920368245    -0.5673471118    -0.9409619826
| 11>  C        1.6743602453    -1.3076295215     0.2643689281
| 12>  N        2.1161823182    -0.2611424089     1.2202722620
| 13>  C        0.6943216021    -0.6767969720     1.1848292667
| 14>  H        1.0409924529     1.9391000591     0.4491647931
| 15>  H       -0.1822374605     2.0888086613    -0.8227686491
| 16>  H       -0.6840481333     1.9657544507     0.8696441463
| 17>  H       -1.3479492240    -1.5669646000    -0.2678842924
| 18>  H       -2.0344009226    -0.2246222161     0.6355119417
| 19>  H       -2.2679662645     1.1046647831    -1.4213037314
| 20>  H       -1.4093132926    -0.1305939144    -2.3585183171
| 21>  H       -3.7477326957    -0.3621915509    -2.4050327942
| 22>  H        0.6385989042    -1.2304936375    -1.6812193950
| 23>  H        1.7817828831     0.1201163669    -1.4374644533
| 24>  H        2.1163816000    -2.2961781808     0.2879614501
| 25>  H        2.5449801032    -0.7396805521     2.0121873610
| 26>  H        0.2083295780    -1.0704357155     2.0709578483
| 27> *
| 28>
| 29>                          ****END OF INPUT****

CARTESIAN COORDINATES (ANGSTROEM)
---------------------------------
  C      0.048099    1.609587    0.134800
  C      0.016276    0.086897    0.023115
  C     -1.390984   -0.471592   -0.219238
  C     -2.071114    0.024531   -1.490642
  O     -3.282997   -0.704223   -1.635903
  C      1.092037   -0.567347   -0.940962
  C      1.674360   -1.307630    0.264369
  N      2.116182   -0.261142    1.220272
  C      0.694322   -0.676797    1.184829
  H      1.040992    1.939100    0.449165
  H     -0.182237    2.088809   -0.822769
  H     -0.684048    1.965754    0.869644
  H     -1.347949   -1.566965   -0.267884
  H     -2.034401   -0.224622    0.635512
  H     -2.267966    1.104665   -1.421304
  H     -1.409313   -0.130594   -2.358518
  H     -3.747733   -0.362192   -2.405033
  H      0.638599   -1.230494   -1.681219
  H      1.781783    0.120116   -1.437464
  H      2.116382   -2.296178    0.287961
  H      2.544980   -0.739681    2.012187
  H      0.208330   -1.070436    2.070958

 Total Charge           Charge          ....    0
 Multiplicity           Mult            ....    1
 Number of Electrons    NEL             ....   70
 Basis Dimension        Dim             ....  357

ORBITAL ENERGIES
----------------

  NO   OCC          E(Eh)            E(eV)
   0   2.0000     -20.553646      -559.2931
   1   2.0000     -15.555973      -423.2995
   2   2.0000     -11.273162      -306.7583
   3   2.0000     -11.256638      -306.3087
   4   2.0000     -11.253905      -306.2343
   5   2.0000     -11.238446      -305.8137
   6   2.0000     -11.221767      -305.3598
   7   2.0000     -11.216840      -305.2257
   8   2.0000     -11.203990      -304.8761
   9   2.0000      -1.357194       -36.9311
  10   2.0000      -1.275599       -34.7108
  11   2.0000      -1.089982       -29.6599
  12   2.0000      -0.991622       -26.9834
  13   2.0000      -0.954910       -25.9844
  14   2.0000      -0.883920       -24.0527
  15   2.0000      -0.834912       -22.7191
  16   2.0000      -0.799156       -21.7461
  17   2.0000      -0.722088       -19.6490
  18   2.0000      -0.713548       -19.4166
  19   2.0000      -0.670283       -18.2393
  20   2.0000      -0.650902       -17.7120
  21   2.0000      -0.605953       -16.4888
  22   2.0000      -0.601196       -16.3594
  23   2.0000      -0.571260       -15.5448
  24   2.0000      -0.559684       -15.2298
  25   2.0000      -0.545357       -14.8399
  26   2.0000      -0.517390       -14.0789
  27   2.0000      -0.509843       -13.8735
  28   2.0000      -0.497783       -13.5454
  29   2.0000      -0.482938       -13.1414
  30   2.0000      -0.455628       -12.3983
  31   2.0000      -0.441822       -12.0226
  32   2.0000      -0.430537       -11.7155
  33   2.0000      -0.421847       -11.4790
  34   2.0000      -0.359408        -9.7800
  35   0.0000       0.133791         3.6406
  36   0.0000       0.143871         3.9149
  37   0.0000       0.157287         4.2800
  38   0.0000       0.169664         4.6168
  39   0.0000       0.170962         4.6521

MULLIKEN ATOMIC CHARGES
-----------------------
   0 C :   -0.484809
   1 C :    0.248382
   2 C :   -0.248354
   3 C :   -0.095452
   4 O :   -0.463317
   5 C :   -0.224600
   6 C :   -0.123942
   7 N :   -0.386463
   8 C :   -0.112081
   9 H :    0.163085
  10 H :    0.128976
  11 H :    0.124872
  12 H :    0.127146
  13 H :    0.113940
  14 H :    0.106229
  15 H :    0.096919
  16 H :    0.314465
  17 H :    0.121912
  18 H :    0.108165
  19 H :    0.134897
  20 H :    0.214478
  21 H :    0.135552
Sum of atomic charges:   -0.0000000

LOEWDIN ATOMIC CHARGES
----------------------
   0 C :   -0.273812
   1 C :   -0.254704
   2 C :   -0.229088
   3 C :   -0.346267
   4 O :   -0.051888
   5 C :   -0.177177
   6 C :   -0.235256
   7 N :   -0.001392
   8 C :   -0.203924
   9 H :    0.133063
  10 H :    0.122765
  11 H :    0.125851
  12 H :    0.148735
  13 H :    0.144011
  14 H :    0.115427
  15 H :    0.115104
  16 H :    0.171077
  17 H :    0.136395
  18 H :    0.133097
  19 H :    0.126658
  20 H :    0.170683
  21 H :    0.130644

  Mayer bond orders larger than 0.1
B(  0-C ,  1-C ) :   0.8735 B(  0-C ,  9-H ) :   0.9352 B(  0-C , 10-H ) :   0.9371
B(  0-C , 11-H ) :   0.9355 B(  1-C ,  2-C ) :   0.8643 B(  1-C ,  5-C ) :   0.9461
B(  1-C ,  8-C ) :   0.8552 B(  2-C ,  3-C ) :   0.9267 B(  2-C ,  4-O ) :  -0.1020
B(  2-C , 12-H ) :   0.9229 B(  2-C , 13-H ) :   0.9272 B(  3-C ,  4-O ) :   1.0236
B(  3-C , 14-H ) :   0.9373 B(  3-C , 15-H ) :   0.9289 B(  4-O , 16-H ) :   0.8496
B(  5-C ,  6-C ) :   0.9524 B(  5-C , 17-H ) :   0.9256 B(  5-C , 18-H ) :   0.8889
B(  6-C ,  7-N ) :   0.9679 B(  6-C ,  8-C ) :   0.9164 B(  6-C , 19-H ) :   0.9215
B(  7-N ,  8-C ) :   0.9331 B(  7-N , 20-H ) :   0.8707 B(  8-C , 21-H ) :   0.9120

MP2 TOTAL ENERGY:     -403.614566278 Eh
FINAL SINGLE POINT ENERGY      -403.614566277796

DIPOLE MOMENT
-------------
                                X             Y             Z
Electronic contribution:      0.67616      -2.72395       1.15714
Nuclear contribution   :     -0.72389       2.58537      -1.36442
                        -----------------------------------------
Total Dipole Moment    :     -0.04773      -0.13858      -0.20729
                        -----------------------------------------
Magnitude (a.u.)       :      0.25387
Magnitude (Debye)      :      0.64529

                             ****ORCA TERMINATED NORMALLY****
TOTAL RUN TIME: 0 days 0 hours 20 minutes 52 seconds 8 msec
