                         Program Version 3.0.3 - RELEASE   -
|  1> ! RI-MP2 RIJK def2-TZVP def2-TZVP/C def2-TZVP/JK TIGHTSCF
|  2> % maxcore 2000
|  3> % mp2 density relaxed end
|  4> *xyz 0 1
|  5>  C        0.6105088211     1.5086116581    -0.0182162251
|  6>  C        0.0602703808     0.0753388948    -0.0160900941
|  7>  C        0.4371052715    -0.8053101604    -1.2361418095
|  8>  C        1.3129566275    -1.9445298269    -0.7069448986
|  9>  C        2.5721636686    -1.5503693853    -0.0099592800
| 10>  C        1.3301900885    -1.8900117416     0.8103277844
| 11>  C        0.5134898098    -0.7131788224     1.2330265039
| 12>  O        0.2049084946    -0.4296821876     2.3651423798
| 13>  H        1.6988962413     1.5265457556    -0.1374049003
| 14>  H        0.1777436287     2.0903356480    -0.8379340232
| 15>  H        0.3650831980     2.0046513440     0.9249270541
| 16>  H       -1.0299437814     0.1429395949     0.0696381136
| 17>  H       -0.4637126002    -1.2211501471    -1.6971792793
| 18>  H        0.9552700930    -0.2315313531    -2.0125941990
| 19>  H        1.2809373503    -2.9007946705    -1.2162878119
| 20>  H        3.3762547151    -2.2755689082     0.0458879009
| 21>  H        2.9083765382    -0.5196620942    -0.0539256533
| 22>  H        1.3559124246    -2.7593533283     1.4549365776
| 23> *
| 24>
| 25>                          ****END OF INPUT****

CARTESIAN COORDINATES (ANGSTROEM)
---------------------------------
  C      0.610509    1.508612   -0.018216
  C      0.060270    0.075339   -0.016090
  C      0.437105   -0.805310   -1.236142
  C      1.312957   -1.944530   -0.706945
  C      2.572164   -1.550369   -0.009959
  C      1.330190   -1.890012    0.810328
  C      0.513490   -0.713179    1.233027
  O      0.204908   -0.429682    2.365142
  H      1.698896    1.526546   -0.137405
  H      0.177744    2.090336   -0.837934
  H      0.365083    2.004651    0.924927
  H     -1.029944    0.142940    0.069638
  H     -0.463713   -1.221150   -1.697179
  H      0.955270   -0.231531   -2.012594
  H      1.280937   -2.900795   -1.216288
  H      3.376255   -2.275569    0.045888
  H      2.908377   -0.519662   -0.053926
  H      1.355912   -2.759353    1.454937

 Total Charge           Charge          ....    0
 Multiplicity           Mult            ....    1
 Number of Electrons    NEL             ....   60
 Basis Dimension        Dim             ....  308

ORBITAL ENERGIES
----------------

  NO   OCC          E(Eh)            E(eV)
   0   2.0000     -20.535849      -558.8089
   1   2.0000     -11.322638      -308.1046
   2   2.0000     -11.250325      -306.1369
   3   2.0000     -11.246802      -306.0410
   4   2.0000     -11.242348      -305.9199
   5   2.0000     -11.241170      -305.8878
   6   2.0000     -11.237465      -305.7870
   7   2.0000     -11.225202      -305.4533
   8   2.0000      -1.380534       -37.5662
   9   2.0000      -1.187407       -32.3110
  10   2.0000      -1.064975       -28.9794
  11   2.0000      -0.958069       -26.0704
  12   2.0000      -0.918142       -24.9839
  13   2.0000      -0.837020       -22.7765
  14   2.0000      -0.786359       -21.3979
  15   2.0000      -0.736123       -20.0309
  16   2.0000      -0.690101       -18.7786
  17   2.0000      -0.630003       -17.1433
  18   2.0000      -0.616372       -16.7723
  19   2.0000      -0.612599       -16.6697
  20   2.0000      -0.582737       -15.8571
  21   2.0000      -0.563964       -15.3463
  22   2.0000      -0.555481       -15.1154
  23   2.0000      -0.533670       -14.5219
  24   2.0000      -0.528678       -14.3861
  25   2.0000      -0.481235       -13.0951
  26   2.0000      -0.474856       -12.9215
  27   2.0000      -0.433262       -11.7897
  28   2.0000      -0.417666       -11.3653
  29   2.0000      -0.389931       -10.6105
  30   0.0000       0.123930         3.3723
  31   0.0000       0.148367         4.0373
  32   0.0000       0.154138         4.1943
  33   0.0000       0.164583         4.4785
  34   0.0000       0.181645         4.9428

MULLIKEN ATOMIC CHARGES
-----------------------
   0 C :   -0.423474
   1 C :   -0.037225
   2 C :   -0.239491
   3 C :   -0.075082
   4 C :   -0.299151
   5 C :   -0.104093
   6 C :    0.131455
   7 O :   -0.282449
   8 H :    0.117284
   9 H :    0.137719
  10 H :    0.154139
  11 H :    0.112555
  12 H :    0.128535
  13 H :    0.122780
  14 H :    0.132331
  15 H :    0.143151
  16 H :    0.139484
  17 H :    0.141532
Sum of atomic charges:   -0.0000000

LOEWDIN ATOMIC CHARGES
----------------------
   0 C :   -0.287871
   1 C :   -0.227688
   2 C :   -0.205231
   3 C :   -0.190625
   4 C :   -0.185823
   5 C :   -0.157505
   6 C :   -0.289154
   7 O :    0.147933
   8 H :    0.120073
   9 H :    0.124176
  10 H :    0.132114
  11 H :    0.165296
  12 H :    0.141386
  13 H :    0.140468
  14 H :    0.145414
  15 H :    0.139557
  16 H :    0.136061
  17 H :    0.151419

  Mayer bond orders larger than 0.1
B(  0-C ,  1-C ) :   0.9181 B(  0-C ,  8-H ) :   0.9298 B(  0-C ,  9-H ) :   0.9388
B(  0-C , 10-H ) :   0.9354 B(  1-C ,  2-C ) :   0.9018 B(  1-C ,  5-C ) :  -0.1035
B(  1-C ,  6-C ) :   0.8734 B(  1-C , 11-H ) :   0.9068 B(  2-C ,  3-C ) :   0.9287
B(  2-C , 12-H ) :   0.9265 B(  2-C , 13-H ) :   0.9269 B(  3-C ,  4-C ) :   0.8974
B(  3-C ,  5-C ) :   0.8216 B(  3-C , 14-H ) :   0.9238 B(  4-C ,  5-C ) :   0.8368
B(  4-C , 15-H ) :   0.9304 B(  4-C , 16-H ) :   0.9217 B(  5-C ,  6-C ) :   0.9524
B(  5-C , 17-H ) :   0.9216 B(  6-C ,  7-O ) :   2.0220

MP2 TOTAL ENERGY:     -347.219224320 Eh
FINAL SINGLE POINT ENERGY      -347.219224319981

DIPOLE MOMENT
-------------
                                X             Y             Z
Electronic contribution:     -1.46085      -2.78957       5.04929
Nuclear contribution   :      1.77313       2.49905      -6.19876
                        -----------------------------------------
Total Dipole Moment    :      0.31229      -0.29053      -1.14946
                        -----------------------------------------
Magnitude (a.u.)       :      1.22605
Magnitude (Debye)      :      3.11637

                             ****ORCA TERMINATED NORMALLY****
TOTAL RUN TIME: 0 days 0 hours 14 minutes 45 seconds 824 msec
