                         Program Version 3.0.3 - RELEASE   -
|  1> ! RI-MP2 RIJK def2-TZVP def2-TZVP/C def2-TZVP/JK TIGHTSCF
|  2> % maxcore 2000
|  3> % mp2 density relaxed end
|  4> *xyz 0 1
|  5>  C        0.9862596486     2.1637143434    -0.4821170531
|  6>  C        0.9048680823     0.6388739145    -0.3711134169
|  7>  C        0.8328775571     0.1640473197     1.0788583757
|  8>  C        0.7510357824    -1.3368316204     1.2599032873
|  9>  O        0.8551673555    -1.6007344296     2.6049190749
| 10>  C        0.2591785208    -2.7459183597     3.1981357187
| 11>  N        0.6329420603    -2.1080127103     0.2684562976
| 12>  C        0.6590867086    -3.5571602738     0.2553926262
| 13>  C       -0.6911747858    -4.1290428467    -0.1877842362
| 14>  H        1.8724831260     2.5562343524     0.0297423102
| 15>  H        1.0402261207     2.4811276479    -1.5281183866
| 16>  H        0.1091634048     2.6452898339    -0.0345928102
| 17>  H        0.0313717724     0.2645144560    -0.9141150447
| 18>  H        1.7722229849     0.1784382282    -0.8564265688
| 19>  H        1.7060390224     0.5135184416     1.6459517072
| 20>  H       -0.0318815910     0.6103624441     1.5895150080
| 21>  H       -0.0191166551    -2.4566531750     4.2156057516
| 22>  H       -0.6405851075    -3.0569943976     2.6590436471
| 23>  H        0.9587912281    -3.5866164319     3.2538634711
| 24>  H        1.4130022078    -3.8429692952    -0.4898024899
| 25>  H        0.9733644711    -4.0222180848     1.1969961866
| 26>  H       -0.6254813193    -5.2129182652    -0.3255114409
| 27>  H       -1.4720257054    -3.9256747660     0.5529077773
| 28>  H       -1.0025018898    -3.6741615555    -1.1322928721
| 29> *
| 30>
| 31>                          ****END OF INPUT****

CARTESIAN COORDINATES (ANGSTROEM)
---------------------------------
  C      0.986260    2.163714   -0.482117
  C      0.904868    0.638874   -0.371113
  C      0.832878    0.164047    1.078858
  C      0.751036   -1.336832    1.259903
  O      0.855167   -1.600734    2.604919
  C      0.259179   -2.745918    3.198136
  N      0.632942   -2.108013    0.268456
  C      0.659087   -3.557160    0.255393
  C     -0.691175   -4.129043   -0.187784
  H      1.872483    2.556234    0.029742
  H      1.040226    2.481128   -1.528118
  H      0.109163    2.645290   -0.034593
  H      0.031372    0.264514   -0.914115
  H      1.772223    0.178438   -0.856427
  H      1.706039    0.513518    1.645952
  H     -0.031882    0.610362    1.589515
  H     -0.019117   -2.456653    4.215606
  H     -0.640585   -3.056994    2.659044
  H      0.958791   -3.586616    3.253863
  H      1.413002   -3.842969   -0.489802
  H      0.973364   -4.022218    1.196996
  H     -0.625481   -5.212918   -0.325511
  H     -1.472026   -3.925675    0.552908
  H     -1.002502   -3.674162   -1.132293

 Total Charge           Charge          ....    0
 Multiplicity           Mult            ....    1
 Number of Electrons    NEL             ....   72
 Basis Dimension        Dim             ....  369

ORBITAL ENERGIES
----------------

  NO   OCC          E(Eh)            E(eV)
   0   2.0000     -20.581818      -560.0597
   1   2.0000     -15.530520      -422.6069
   2   2.0000     -11.328603      -308.2670
   3   2.0000     -11.286515      -307.1217
   4   2.0000     -11.249494      -306.1143
   5   2.0000     -11.221775      -305.3600
   6   2.0000     -11.213127      -305.1247
   7   2.0000     -11.208969      -305.0115
   8   2.0000     -11.206684      -304.9494
   9   2.0000      -1.409172       -38.3455
  10   2.0000      -1.208773       -32.8924
  11   2.0000      -1.065722       -28.9998
  12   2.0000      -1.016099       -27.6495
  13   2.0000      -0.971014       -26.4226
  14   2.0000      -0.925248       -25.1773
  15   2.0000      -0.850844       -23.1526
  16   2.0000      -0.810122       -22.0445
  17   2.0000      -0.744662       -20.2633
  18   2.0000      -0.676682       -18.4134
  19   2.0000      -0.668115       -18.1803
  20   2.0000      -0.658262       -17.9122
  21   2.0000      -0.620734       -16.8910
  22   2.0000      -0.605393       -16.4736
  23   2.0000      -0.586702       -15.9650
  24   2.0000      -0.559014       -15.2116
  25   2.0000      -0.553226       -15.0541
  26   2.0000      -0.536075       -14.5873
  27   2.0000      -0.523966       -14.2578
  28   2.0000      -0.515215       -14.0197
  29   2.0000      -0.501128       -13.6364
  30   2.0000      -0.496782       -13.5181
  31   2.0000      -0.473817       -12.8932
  32   2.0000      -0.466375       -12.6907
  33   2.0000      -0.457837       -12.4584
  34   2.0000      -0.390807       -10.6344
  35   2.0000      -0.378266       -10.2931
  36   0.0000       0.136179         3.7056
  37   0.0000       0.147516         4.0141
  38   0.0000       0.162188         4.4134
  39   0.0000       0.175754         4.7825
  40   0.0000       0.183336         4.9888

MULLIKEN ATOMIC CHARGES
-----------------------
   0 C :   -0.379929
   1 C :   -0.172321
   2 C :   -0.204954
   3 C :    0.188312
   4 O :   -0.276538
   5 C :   -0.230474
   6 N :   -0.261897
   7 C :   -0.116611
   8 C :   -0.361094
   9 H :    0.118959
  10 H :    0.132804
  11 H :    0.118769
  12 H :    0.111280
  13 H :    0.106695
  14 H :    0.125739
  15 H :    0.116832
  16 H :    0.147107
  17 H :    0.126860
  18 H :    0.132589
  19 H :    0.122200
  20 H :    0.087238
  21 H :    0.123464
  22 H :    0.110225
  23 H :    0.134747
Sum of atomic charges:   -0.0000000

LOEWDIN ATOMIC CHARGES
----------------------
   0 C :   -0.322921
   1 C :   -0.291424
   2 C :   -0.235017
   3 C :   -0.370798
   4 O :    0.210153
   5 C :   -0.332439
   6 N :    0.111730
   7 C :   -0.327125
   8 C :   -0.318157
   9 H :    0.118765
  10 H :    0.120239
  11 H :    0.118714
  12 H :    0.137968
  13 H :    0.137692
  14 H :    0.150416
  15 H :    0.148069
  16 H :    0.114308
  17 H :    0.111033
  18 H :    0.106055
  19 H :    0.134426
  20 H :    0.118744
  21 H :    0.120973
  22 H :    0.113970
  23 H :    0.124625

  Mayer bond orders larger than 0.1
B(  0-C ,  1-C ) :   0.9056 B(  0-C ,  9-H ) :   0.9383 B(  0-C , 10-H ) :   0.9457
B(  0-C , 11-H ) :   0.9387 B(  1-C ,  2-C ) :   0.9379 B(  1-C , 12-H ) :   0.9333
B(  1-C , 13-H ) :   0.9333 B(  2-C ,  3-C ) :   0.9435 B(  2-C , 14-H ) :   0.9216
B(  2-C , 15-H ) :   0.9081 B(  3-C ,  4-O ) :   1.0683 B(  3-C ,  6-N ) :   1.8569
B(  4-O ,  5-C ) :   0.8700 B(  5-C , 16-H ) :   0.9375 B(  5-C , 17-H ) :   0.9342
B(  5-C , 18-H ) :   0.9349 B(  6-N ,  7-C ) :   0.8845 B(  7-C ,  8-C ) :   0.9292
B(  7-C , 19-H ) :   0.9324 B(  7-C , 20-H ) :   0.9175 B(  8-C , 21-H ) :   0.9362
B(  8-C , 22-H ) :   0.9322 B(  8-C , 23-H ) :   0.9373

MP2 TOTAL ENERGY:     -404.849656173 Eh
FINAL SINGLE POINT ENERGY      -404.849656173280

DIPOLE MOMENT
-------------
                                X             Y             Z
Electronic contribution:      2.04670      -1.01179       3.44046
Nuclear contribution   :     -2.25363       0.50841      -2.97210
                        -----------------------------------------
Total Dipole Moment    :     -0.20693      -0.50339       0.46837
                        -----------------------------------------
Magnitude (a.u.)       :      0.71805
Magnitude (Debye)      :      1.82513

                             ****ORCA TERMINATED NORMALLY****
TOTAL RUN TIME: 0 days 0 hours 19 minutes 13 seconds 870 msec
