                         Program Version 3.0.3 - RELEASE   -
|  1> ! RI-MP2 RIJK def2-TZVP def2-TZVP/C def2-TZVP/JK TIGHTSCF
|  2> % maxcore 2000
|  3> % mp2 density relaxed end
|  4> *xyz 0 1
|  5>  C       -0.2533205291     1.5179558669    -0.1811749428
|  6>  N       -0.1418675845     0.0840640992     0.0430182961
|  7>  C        1.1320867758    -0.5501463624    -0.2543034109
|  8>  C        0.6854077769    -0.4106906540     1.1637610745
|  9>  C        1.3764341072     0.4751676113     2.1285742321
| 10>  C        1.0898827432     0.5440195530     3.4604203393
| 11>  O        1.8961877480     1.4353334102     4.0916899259
| 12>  C        2.7210317714     1.9545100865     3.1457844438
| 13>  C        2.4568757780     1.4093464946     1.9317327448
| 14>  H        0.6745357536     2.0844477518    -0.0131231854
| 15>  H       -0.5715372372     1.6814759047    -1.2157821666
| 16>  H       -1.0233171711     1.9268078012     0.4805511396
| 17>  H        1.0869156951    -1.5157338303    -0.7523426263
| 18>  H        1.9565107225     0.0841427661    -0.5788080640
| 19>  H        0.2377812326    -1.2839490303     1.6342187839
| 20>  H        0.3730436286     0.0339753093     4.0830854364
| 21>  H        3.4323847962     2.6850463388     3.4937568519
| 22>  H        2.9756104430     1.6265624535     1.0117673479
| 23> *
| 24>
| 25>                          ****END OF INPUT****

CARTESIAN COORDINATES (ANGSTROEM)
---------------------------------
  C     -0.253321    1.517956   -0.181175
  N     -0.141868    0.084064    0.043018
  C      1.132087   -0.550146   -0.254303
  C      0.685408   -0.410691    1.163761
  C      1.376434    0.475168    2.128574
  C      1.089883    0.544020    3.460420
  O      1.896188    1.435333    4.091690
  C      2.721032    1.954510    3.145784
  C      2.456876    1.409346    1.931733
  H      0.674536    2.084448   -0.013123
  H     -0.571537    1.681476   -1.215782
  H     -1.023317    1.926808    0.480551
  H      1.086916   -1.515734   -0.752343
  H      1.956511    0.084143   -0.578808
  H      0.237781   -1.283949    1.634219
  H      0.373044    0.033975    4.083085
  H      3.432385    2.685046    3.493757
  H      2.975610    1.626562    1.011767

 Total Charge           Charge          ....    0
 Multiplicity           Mult            ....    1
 Number of Electrons    NEL             ....   66
 Basis Dimension        Dim             ....  333

ORBITAL ENERGIES
----------------

  NO   OCC          E(Eh)            E(eV)
   0   2.0000     -20.624682      -561.2261
   1   2.0000     -15.558363      -423.3646
   2   2.0000     -11.290977      -307.2431
   3   2.0000     -11.287029      -307.1357
   4   2.0000     -11.267350      -306.6002
   5   2.0000     -11.255307      -306.2725
   6   2.0000     -11.242988      -305.9373
   7   2.0000     -11.239727      -305.8485
   8   2.0000     -11.232961      -305.6644
   9   2.0000      -1.462455       -39.7954
  10   2.0000      -1.271642       -34.6031
  11   2.0000      -1.094700       -29.7883
  12   2.0000      -1.016498       -27.6603
  13   2.0000      -0.988899       -26.9093
  14   2.0000      -0.872538       -23.7430
  15   2.0000      -0.828001       -22.5310
  16   2.0000      -0.794173       -21.6106
  17   2.0000      -0.770625       -20.9698
  18   2.0000      -0.721862       -19.6429
  19   2.0000      -0.662119       -18.0172
  20   2.0000      -0.639165       -17.3926
  21   2.0000      -0.632020       -17.1981
  22   2.0000      -0.608648       -16.5622
  23   2.0000      -0.590308       -16.0631
  24   2.0000      -0.578983       -15.7549
  25   2.0000      -0.559091       -15.2136
  26   2.0000      -0.539991       -14.6939
  27   2.0000      -0.524157       -14.2630
  28   2.0000      -0.475709       -12.9447
  29   2.0000      -0.457109       -12.4386
  30   2.0000      -0.397207       -10.8085
  31   2.0000      -0.368337       -10.0230
  32   2.0000      -0.315966        -8.5979
  33   0.0000       0.136736         3.7208
  34   0.0000       0.149540         4.0692
  35   0.0000       0.166333         4.5261
  36   0.0000       0.173381         4.7179
  37   0.0000       0.177428         4.8281

MULLIKEN ATOMIC CHARGES
-----------------------
   0 C :   -0.282510
   1 N :   -0.210015
   2 C :   -0.146034
   3 C :   -0.118180
   4 C :    0.122206
   5 C :   -0.088378
   6 O :   -0.204399
   7 C :    0.017313
   8 C :   -0.275671
   9 H :    0.105873
  10 H :    0.139888
  11 H :    0.134045
  12 H :    0.128188
  13 H :    0.112886
  14 H :    0.120388
  15 H :    0.149791
  16 H :    0.151598
  17 H :    0.143014
Sum of atomic charges:    0.0000000

LOEWDIN ATOMIC CHARGES
----------------------
   0 C :   -0.329162
   1 N :    0.090156
   2 C :   -0.239648
   3 C :   -0.218353
   4 C :   -0.179031
   5 C :   -0.212603
   6 O :    0.342877
   7 C :   -0.244156
   8 C :   -0.169716
   9 H :    0.107992
  10 H :    0.118809
  11 H :    0.120036
  12 H :    0.124406
  13 H :    0.123801
  14 H :    0.151783
  15 H :    0.136385
  16 H :    0.133222
  17 H :    0.143202

  Mayer bond orders larger than 0.1
B(  0-C ,  1-N ) :   0.8828 B(  0-C ,  9-H ) :   0.9270 B(  0-C , 10-H ) :   0.9359
B(  0-C , 11-H ) :   0.9389 B(  1-N ,  2-C ) :   0.9075 B(  1-N ,  3-C ) :   0.8840
B(  2-C ,  3-C ) :   0.9466 B(  2-C , 12-H ) :   0.9186 B(  2-C , 13-H ) :   0.9212
B(  3-C ,  4-C ) :   0.9088 B(  3-C , 14-H ) :   0.9335 B(  4-C ,  5-C ) :   1.5025
B(  4-C ,  8-C ) :   1.1060 B(  5-C ,  6-O ) :   1.0593 B(  5-C , 15-H ) :   0.9297
B(  6-O ,  7-C ) :   1.0402 B(  7-C ,  8-C ) :   1.5574 B(  7-C , 16-H ) :   0.9371
B(  8-C , 17-H ) :   0.9170

MP2 TOTAL ENERGY:     -401.235335800 Eh
FINAL SINGLE POINT ENERGY      -401.235335799986

DIPOLE MOMENT
-------------
                                X             Y             Z
Electronic contribution:      2.00529      -0.43436       6.70925
Nuclear contribution   :     -1.57885       0.64742      -6.80985
                        -----------------------------------------
Total Dipole Moment    :      0.42644       0.21306      -0.10061
                        -----------------------------------------
Magnitude (a.u.)       :      0.48720
Magnitude (Debye)      :      1.23837

                             ****ORCA TERMINATED NORMALLY****
TOTAL RUN TIME: 0 days 0 hours 16 minutes 4 seconds 468 msec
