                         Program Version 3.0.3 - RELEASE   -
|  1> ! RI-MP2 RIJK def2-TZVP def2-TZVP/C def2-TZVP/JK TIGHTSCF
|  2> % maxcore 2000
|  3> % mp2 density relaxed end
|  4> *xyz 0 1
|  5>  C        0.0570351920     1.5457465952     0.1687576773
|  6>  C       -0.0000945414     0.0318000653    -0.1081732273
|  7>  C       -1.3557853809    -0.5067234954    -0.0843713721
|  8>  C       -2.4841568352    -0.9346265128    -0.0532264702
|  9>  C       -3.8196670826    -1.4274687908    -0.0524553162
| 10>  C       -4.5226154939    -1.9080658924     1.1999479719
| 11>  C       -4.3502972103    -2.8795325649     0.0743463365
| 12>  C       -5.3885742882    -2.6151988546    -1.0189969943
| 13>  C       -4.8740581285    -1.1447678993    -1.1427783510
| 14>  H        1.0915828034     1.9014280286     0.1402631454
| 15>  H       -0.5182228539     2.0985378016    -0.5789712245
| 16>  H       -0.3612292853     1.7763167361     1.1522892155
| 17>  H        0.4633334105    -0.1783663148    -1.0812408158
| 18>  H        0.6121325683    -0.4974029522     0.6339283449
| 19>  H       -3.8716967549    -2.0571632986     2.0543682197
| 20>  H       -5.5089763509    -1.5180181933     1.4452541342
| 21>  H       -3.7695650276    -3.7864943079     0.1903831938
| 22>  H       -5.2092572084    -3.1901807870    -1.9296797957
| 23>  H       -6.4338982030    -2.7501922486    -0.7218522254
| 24>  H       -5.5850227780    -0.3451781175    -0.9114515988
| 25>  H       -4.4219140213    -0.9434156967    -2.1152037079
| 26> *
| 27>
| 28>                          ****END OF INPUT****

CARTESIAN COORDINATES (ANGSTROEM)
---------------------------------
  C      0.057035    1.545747    0.168758
  C     -0.000095    0.031800   -0.108173
  C     -1.355785   -0.506723   -0.084371
  C     -2.484157   -0.934627   -0.053226
  C     -3.819667   -1.427469   -0.052455
  C     -4.522615   -1.908066    1.199948
  C     -4.350297   -2.879533    0.074346
  C     -5.388574   -2.615199   -1.018997
  C     -4.874058   -1.144768   -1.142778
  H      1.091583    1.901428    0.140263
  H     -0.518223    2.098538   -0.578971
  H     -0.361229    1.776317    1.152289
  H      0.463333   -0.178366   -1.081241
  H      0.612133   -0.497403    0.633928
  H     -3.871697   -2.057163    2.054368
  H     -5.508976   -1.518018    1.445254
  H     -3.769565   -3.786494    0.190383
  H     -5.209257   -3.190181   -1.929680
  H     -6.433898   -2.750192   -0.721852
  H     -5.585023   -0.345178   -0.911452
  H     -4.421914   -0.943416   -2.115204

 Total Charge           Charge          ....    0
 Multiplicity           Mult            ....    1
 Number of Electrons    NEL             ....   66
 Basis Dimension        Dim             ....  351

ORBITAL ENERGIES
----------------

  NO   OCC          E(Eh)            E(eV)
   0   2.0000     -11.251694      -306.1742
   1   2.0000     -11.245283      -305.9997
   2   2.0000     -11.237341      -305.7836
   3   2.0000     -11.230747      -305.6042
   4   2.0000     -11.227588      -305.5182
   5   2.0000     -11.226370      -305.4851
   6   2.0000     -11.219524      -305.2988
   7   2.0000     -11.214921      -305.1735
   8   2.0000     -11.211200      -305.0723
   9   2.0000      -1.194241       -32.4970
  10   2.0000      -1.069807       -29.1109
  11   2.0000      -1.000302       -27.2196
  12   2.0000      -0.980845       -26.6901
  13   2.0000      -0.903512       -24.5858
  14   2.0000      -0.863103       -23.4862
  15   2.0000      -0.811212       -22.0742
  16   2.0000      -0.758956       -20.6522
  17   2.0000      -0.701242       -19.0818
  18   2.0000      -0.641931       -17.4678
  19   2.0000      -0.619600       -16.8602
  20   2.0000      -0.617012       -16.7897
  21   2.0000      -0.611196       -16.6315
  22   2.0000      -0.543945       -14.8015
  23   2.0000      -0.537012       -14.6128
  24   2.0000      -0.533275       -14.5112
  25   2.0000      -0.517653       -14.0860
  26   2.0000      -0.507228       -13.8024
  27   2.0000      -0.489539       -13.3210
  28   2.0000      -0.472185       -12.8488
  29   2.0000      -0.437697       -11.9103
  30   2.0000      -0.420561       -11.4440
  31   2.0000      -0.353326        -9.6145
  32   2.0000      -0.324967        -8.8428
  33   0.0000       0.135787         3.6950
  34   0.0000       0.151974         4.1354
  35   0.0000       0.160884         4.3779
  36   0.0000       0.173998         4.7347
  37   0.0000       0.177302         4.8246

MULLIKEN ATOMIC CHARGES
-----------------------
   0 C :   -0.359134
   1 C :   -0.300893
   2 C :    0.080192
   3 C :   -0.037124
   4 C :   -0.096467
   5 C :   -0.261917
   6 C :   -0.100436
   7 C :   -0.234227
   8 C :   -0.218695
   9 H :    0.129603
  10 H :    0.128925
  11 H :    0.129096
  12 H :    0.139244
  13 H :    0.140206
  14 H :    0.136788
  15 H :    0.124056
  16 H :    0.133261
  17 H :    0.120059
  18 H :    0.112426
  19 H :    0.114016
  20 H :    0.121021
Sum of atomic charges:   -0.0000000

LOEWDIN ATOMIC CHARGES
----------------------
   0 C :   -0.301057
   1 C :   -0.280843
   2 C :   -0.069658
   3 C :   -0.050865
   4 C :   -0.195684
   5 C :   -0.170100
   6 C :   -0.152023
   7 C :   -0.217053
   8 C :   -0.176273
   9 H :    0.119801
  10 H :    0.123599
  11 H :    0.123670
  12 H :    0.151624
  13 H :    0.152807
  14 H :    0.144646
  15 H :    0.133634
  16 H :    0.136690
  17 H :    0.134594
  18 H :    0.126387
  19 H :    0.128069
  20 H :    0.138037

  Mayer bond orders larger than 0.1
B(  0-C ,  1-C ) :   0.9394 B(  0-C ,  9-H ) :   0.9390 B(  0-C , 10-H ) :   0.9358
B(  0-C , 11-H ) :   0.9356 B(  1-C ,  2-C ) :   0.9220 B(  1-C , 12-H ) :   0.9414
B(  1-C , 13-H ) :   0.9429 B(  2-C ,  3-C ) :   2.5907 B(  2-C ,  4-C ) :  -0.2146
B(  3-C ,  4-C ) :   1.2093 B(  4-C ,  5-C ) :   0.8376 B(  4-C ,  6-C ) :   0.7812
B(  4-C ,  8-C ) :   0.9260 B(  5-C ,  6-C ) :   0.9037 B(  5-C , 14-H ) :   0.9324
B(  5-C , 15-H ) :   0.9098 B(  6-C ,  7-C ) :   0.9495 B(  6-C , 16-H ) :   0.9129
B(  7-C ,  8-C ) :   0.9797 B(  7-C , 17-H ) :   0.9270 B(  7-C , 18-H ) :   0.9239
B(  8-C , 19-H ) :   0.9159 B(  8-C , 20-H ) :   0.9226

MP2 TOTAL ENERGY:     -349.245175034 Eh
FINAL SINGLE POINT ENERGY      -349.245175034235

DIPOLE MOMENT
-------------
                                X             Y             Z
Electronic contribution:     -1.73257      -3.09954       0.27021
Nuclear contribution   :      1.80415       3.06144      -0.30880
                        -----------------------------------------
Total Dipole Moment    :      0.07157      -0.03811      -0.03859
                        -----------------------------------------
Magnitude (a.u.)       :      0.08980
Magnitude (Debye)      :      0.22825

                             ****ORCA TERMINATED NORMALLY****
TOTAL RUN TIME: 0 days 0 hours 17 minutes 47 seconds 624 msec
