                         Program Version 3.0.3 - RELEASE   -
|  1> ! RI-MP2 RIJK def2-TZVP def2-TZVP/C def2-TZVP/JK TIGHTSCF
|  2> % maxcore 2000
|  3> % mp2 density relaxed end
|  4> *xyz 0 1
|  5>  C       -0.1442132167     1.5750396214     0.0038014266
|  6>  C        0.0673421449     0.0713876824     0.0253946509
|  7>  C        1.1627511832    -0.5555166130    -0.8729413050
|  8>  O        2.4213941101     0.1541749275    -0.7581366331
|  9>  C        2.7835856449    -0.5822782662     0.4352318220
| 10>  C        1.5555558422    -1.5307266896     0.2683268152
| 11>  C        0.7287831839    -0.6214385032     1.2687295776
| 12>  C        2.0634086638     0.0330495606     1.6609628906
| 13>  O        2.4357714548     0.6330656129     2.6267649788
| 14>  H        0.8099926534     2.1003316107     0.0994593138
| 15>  H       -0.6091922702     1.8884448960    -0.9371777153
| 16>  H       -0.7961133239     1.8942897312     0.8232955501
| 17>  H       -0.8710859650    -0.4610476516    -0.1746723982
| 18>  H        0.9349498130    -0.8005978430    -1.9120582210
| 19>  H        3.8430580182    -0.8411059585     0.4774359916
| 20>  H        1.5747166038    -2.6152792877     0.2567604907
| 21>  H        0.0825057696    -0.9657493298     2.0756642248
| 22> *
| 23>
| 24>                          ****END OF INPUT****

CARTESIAN COORDINATES (ANGSTROEM)
---------------------------------
  C     -0.144213    1.575040    0.003801
  C      0.067342    0.071388    0.025395
  C      1.162751   -0.555517   -0.872941
  O      2.421394    0.154175   -0.758137
  C      2.783586   -0.582278    0.435232
  C      1.555556   -1.530727    0.268327
  C      0.728783   -0.621439    1.268730
  C      2.063409    0.033050    1.660963
  O      2.435771    0.633066    2.626765
  H      0.809993    2.100332    0.099459
  H     -0.609192    1.888445   -0.937178
  H     -0.796113    1.894290    0.823296
  H     -0.871086   -0.461048   -0.174672
  H      0.934950   -0.800598   -1.912058
  H      3.843058   -0.841106    0.477436
  H      1.574717   -2.615279    0.256760
  H      0.082506   -0.965749    2.075664

 Total Charge           Charge          ....    0
 Multiplicity           Mult            ....    1
 Number of Electrons    NEL             ....   66
 Basis Dimension        Dim             ....  327

ORBITAL ENERGIES
----------------

  NO   OCC          E(Eh)            E(eV)
   0   2.0000     -20.571490      -559.7787
   1   2.0000     -20.560095      -559.4686
   2   2.0000     -11.336320      -308.4769
   3   2.0000     -11.304765      -307.6183
   4   2.0000     -11.301573      -307.5314
   5   2.0000     -11.260376      -306.4104
   6   2.0000     -11.255855      -306.2874
   7   2.0000     -11.255337      -306.2733
   8   2.0000     -11.221971      -305.3654
   9   2.0000      -1.413636       -38.4670
  10   2.0000      -1.393667       -37.9236
  11   2.0000      -1.159713       -31.5574
  12   2.0000      -1.045284       -28.4436
  13   2.0000      -0.964615       -26.2485
  14   2.0000      -0.905281       -24.6340
  15   2.0000      -0.828722       -22.5507
  16   2.0000      -0.801838       -21.8191
  17   2.0000      -0.731682       -19.9101
  18   2.0000      -0.694829       -18.9072
  19   2.0000      -0.663947       -18.0669
  20   2.0000      -0.642395       -17.4805
  21   2.0000      -0.622880       -16.9494
  22   2.0000      -0.611053       -16.6276
  23   2.0000      -0.591485       -16.0951
  24   2.0000      -0.582483       -15.8502
  25   2.0000      -0.537300       -14.6207
  26   2.0000      -0.532024       -14.4771
  27   2.0000      -0.514503       -14.0003
  28   2.0000      -0.476696       -12.9716
  29   2.0000      -0.453794       -12.3484
  30   2.0000      -0.442312       -12.0359
  31   2.0000      -0.429227       -11.6799
  32   2.0000      -0.388187       -10.5631
  33   0.0000       0.113742         3.0951
  34   0.0000       0.143282         3.8989
  35   0.0000       0.153374         4.1735
  36   0.0000       0.164218         4.4686
  37   0.0000       0.173523         4.7218

MULLIKEN ATOMIC CHARGES
-----------------------
   0 C :   -0.418145
   1 C :   -0.075251
   2 C :    0.054878
   3 O :   -0.321100
   4 C :    0.076724
   5 C :   -0.205580
   6 C :   -0.017963
   7 C :    0.068315
   8 O :   -0.241432
   9 H :    0.152164
  10 H :    0.132430
  11 H :    0.138356
  12 H :    0.106727
  13 H :    0.124921
  14 H :    0.128274
  15 H :    0.154128
  16 H :    0.142552
Sum of atomic charges:    0.0000000

LOEWDIN ATOMIC CHARGES
----------------------
   0 C :   -0.290680
   1 C :   -0.219117
   2 C :   -0.208890
   3 O :    0.170480
   4 C :   -0.193291
   5 C :   -0.113994
   6 C :   -0.122882
   7 C :   -0.282097
   8 O :    0.173844
   9 H :    0.132235
  10 H :    0.127746
  11 H :    0.129107
  12 H :    0.159955
  13 H :    0.128501
  14 H :    0.131998
  15 H :    0.134916
  16 H :    0.142170

  Mayer bond orders larger than 0.1
B(  0-C ,  1-C ) :   0.9094 B(  0-C ,  9-H ) :   0.9300 B(  0-C , 10-H ) :   0.9330
B(  0-C , 11-H ) :   0.9345 B(  1-C ,  2-C ) :   0.9198 B(  1-C ,  6-C ) :   0.8932
B(  1-C , 12-H ) :   0.9041 B(  2-C ,  3-O ) :   0.9226 B(  2-C ,  5-C ) :   0.9360
B(  2-C , 13-H ) :   0.9178 B(  3-O ,  4-C ) :   0.9293 B(  4-C ,  5-C ) :   0.9463
B(  4-C ,  6-C ) :  -0.1226 B(  4-C ,  7-C ) :   0.8450 B(  4-C , 14-H ) :   0.9116
B(  5-C ,  6-C ) :   0.9058 B(  5-C , 15-H ) :   0.8961 B(  6-C ,  7-C ) :   0.8386
B(  6-C , 16-H ) :   0.8971 B(  7-C ,  8-O ) :   2.0226

MP2 TOTAL ENERGY:     -421.075926186 Eh
FINAL SINGLE POINT ENERGY      -421.075926185836

DIPOLE MOMENT
-------------
                                X             Y             Z
Electronic contribution:      5.46581      -1.55249       2.63643
Nuclear contribution   :     -6.27807       0.59603      -3.19914
                        -----------------------------------------
Total Dipole Moment    :     -0.81227      -0.95646      -0.56271
                        -----------------------------------------
Magnitude (a.u.)       :      1.37522
Magnitude (Debye)      :      3.49554

                             ****ORCA TERMINATED NORMALLY****
TOTAL RUN TIME: 0 days 0 hours 19 minutes 14 seconds 917 msec
