                         Program Version 3.0.3 - RELEASE   -
|  1> ! RI-MP2 RIJK def2-TZVP def2-TZVP/C def2-TZVP/JK TIGHTSCF
|  2> % maxcore 2000
|  3> % mp2 density relaxed end
|  4> *xyz 0 1
|  5>  C       -0.0659586712     1.4712893351    -0.1787599319
|  6>  C        0.0724756313    -0.0329025166    -0.0472363091
|  7>  N        1.2488681206    -0.8724457586    -0.3324138099
|  8>  C        2.5080980332    -0.1499053976     0.0836717553
|  9>  C        3.0877701587     0.9520173869    -0.7864630322
| 10>  C        1.9399947584     0.0097156434     1.5095769833
| 11>  O        2.3833361439     0.3756700732     2.5610675390
| 12>  C        0.6996048977    -0.7496640354     1.1029456217
| 13>  C        0.0589575682    -1.8531186130     1.8905650167
| 14>  H        0.6985378411     2.0320327473     0.3606503651
| 15>  H       -0.0503632454     1.7759226282    -1.2304305800
| 16>  H       -1.0354930210     1.7679315230     0.2355860558
| 17>  H       -0.8131191599    -0.5520675520    -0.4142567048
| 18>  H        3.2690509283    -0.9371568888     0.1853819241
| 19>  H        2.4201871773     1.8038121134    -0.9142168730
| 20>  H        4.0186513351     1.3143958203    -0.3389464225
| 21>  H        3.3244419821     0.5536770202    -1.7783455760
| 22>  H       -0.4834221042    -1.4402428643     2.7478428655
| 23>  H       -0.6503780512    -2.4101201841     1.2724123975
| 24>  H        0.8072098770    -2.5534739706     2.2746644954
| 25> *
| 26>
| 27>                          ****END OF INPUT****

CARTESIAN COORDINATES (ANGSTROEM)
---------------------------------
  C     -0.065959    1.471289   -0.178760
  C      0.072476   -0.032903   -0.047236
  N      1.248868   -0.872446   -0.332414
  C      2.508098   -0.149905    0.083672
  C      3.087770    0.952017   -0.786463
  C      1.939995    0.009716    1.509577
  O      2.383336    0.375670    2.561068
  C      0.699605   -0.749664    1.102946
  C      0.058958   -1.853119    1.890565
  H      0.698538    2.032033    0.360650
  H     -0.050363    1.775923   -1.230431
  H     -1.035493    1.767932    0.235586
  H     -0.813119   -0.552068   -0.414257
  H      3.269051   -0.937157    0.185382
  H      2.420187    1.803812   -0.914217
  H      4.018651    1.314396   -0.338946
  H      3.324442    0.553677   -1.778346
  H     -0.483422   -1.440243    2.747843
  H     -0.650378   -2.410120    1.272412
  H      0.807210   -2.553474    2.274664

 Total Charge           Charge          ....    0
 Multiplicity           Mult            ....    1
 Number of Electrons    NEL             ....   68
 Basis Dimension        Dim             ....  345

ORBITAL ENERGIES
----------------

  NO   OCC          E(Eh)            E(eV)
   0   2.0000     -20.556220      -559.3632
   1   2.0000     -15.576934      -423.8699
   2   2.0000     -11.336424      -308.4798
   3   2.0000     -11.282285      -307.0066
   4   2.0000     -11.277910      -306.8875
   5   2.0000     -11.276862      -306.8590
   6   2.0000     -11.237426      -305.7859
   7   2.0000     -11.233638      -305.6828
   8   2.0000     -11.230381      -305.5942
   9   2.0000      -1.400501       -38.1096
  10   2.0000      -1.302537       -35.4438
  11   2.0000      -1.058049       -28.7910
  12   2.0000      -1.016823       -27.6692
  13   2.0000      -0.992286       -27.0015
  14   2.0000      -0.926644       -25.2153
  15   2.0000      -0.864595       -23.5268
  16   2.0000      -0.778431       -21.1822
  17   2.0000      -0.700679       -19.0664
  18   2.0000      -0.679028       -18.4773
  19   2.0000      -0.663571       -18.0567
  20   2.0000      -0.632833       -17.2203
  21   2.0000      -0.598997       -16.2995
  22   2.0000      -0.590231       -16.0610
  23   2.0000      -0.573005       -15.5923
  24   2.0000      -0.569173       -15.4880
  25   2.0000      -0.565578       -15.3902
  26   2.0000      -0.556431       -15.1413
  27   2.0000      -0.546660       -14.8754
  28   2.0000      -0.529244       -14.4015
  29   2.0000      -0.511646       -13.9226
  30   2.0000      -0.463384       -12.6093
  31   2.0000      -0.431518       -11.7422
  32   2.0000      -0.413897       -11.2627
  33   2.0000      -0.372349       -10.1321
  34   0.0000       0.122620         3.3367
  35   0.0000       0.138968         3.7815
  36   0.0000       0.152869         4.1598
  37   0.0000       0.158139         4.3032
  38   0.0000       0.184129         5.0104

MULLIKEN ATOMIC CHARGES
-----------------------
   0 C :   -0.402639
   1 C :   -0.025222
   2 N :   -0.221342
   3 C :   -0.004744
   4 C :   -0.395523
   5 C :    0.101771
   6 O :   -0.254051
   7 C :    0.083563
   8 C :   -0.413917
   9 H :    0.148845
  10 H :    0.144925
  11 H :    0.144907
  12 H :    0.117622
  13 H :    0.124786
  14 H :    0.129698
  15 H :    0.144801
  16 H :    0.146851
  17 H :    0.146888
  18 H :    0.143479
  19 H :    0.139301
Sum of atomic charges:    0.0000000

LOEWDIN ATOMIC CHARGES
----------------------
   0 C :   -0.291974
   1 C :   -0.241994
   2 N :    0.157808
   3 C :   -0.245203
   4 C :   -0.291702
   5 C :   -0.287330
   6 O :    0.161922
   7 C :   -0.210176
   8 C :   -0.263897
   9 H :    0.129047
  10 H :    0.128973
  11 H :    0.134312
  12 H :    0.155391
  13 H :    0.167464
  14 H :    0.123461
  15 H :    0.135129
  16 H :    0.132454
  17 H :    0.137790
  18 H :    0.135063
  19 H :    0.133463

  Mayer bond orders larger than 0.1
B(  0-C ,  1-C ) :   0.8822 B(  0-C ,  9-H ) :   0.9385 B(  0-C , 10-H ) :   0.9346
B(  0-C , 11-H ) :   0.9231 B(  1-C ,  2-N ) :   0.9061 B(  1-C ,  7-C ) :   0.8880
B(  1-C , 12-H ) :   0.9273 B(  2-N ,  3-C ) :   0.9378 B(  2-N ,  7-C ) :   0.8682
B(  3-C ,  4-C ) :   0.9133 B(  3-C ,  5-C ) :   0.9272 B(  3-C ,  7-C ) :  -0.1220
B(  3-C , 13-H ) :   0.8948 B(  4-C , 14-H ) :   0.9321 B(  4-C , 15-H ) :   0.9285
B(  4-C , 16-H ) :   0.9341 B(  5-C ,  6-O ) :   2.0682 B(  5-C ,  7-C ) :   0.8611
B(  7-C ,  8-C ) :   0.8631 B(  8-C , 17-H ) :   0.9332 B(  8-C , 18-H ) :   0.9415
B(  8-C , 19-H ) :   0.9337

MP2 TOTAL ENERGY:     -402.434994792 Eh
FINAL SINGLE POINT ENERGY      -402.434994792119

DIPOLE MOMENT
-------------
                                X             Y             Z
Electronic contribution:      2.42953      -1.87730       3.90881
Nuclear contribution   :     -2.95326       2.02173      -4.45858
                        -----------------------------------------
Total Dipole Moment    :     -0.52374       0.14443      -0.54978
                        -----------------------------------------
Magnitude (a.u.)       :      0.77293
Magnitude (Debye)      :      1.96463

                             ****ORCA TERMINATED NORMALLY****
TOTAL RUN TIME: 0 days 0 hours 21 minutes 25 seconds 790 msec
