                         Program Version 3.0.3 - RELEASE   -
|  1> ! RI-MP2 RIJK def2-TZVP def2-TZVP/C def2-TZVP/JK TIGHTSCF
|  2> % maxcore 2000
|  3> % mp2 density relaxed end
|  4> *xyz 0 1
|  5>  O       -0.2601775386     1.1230549383     1.1955479704
|  6>  C        0.0760422589     1.1294954473     0.0384132621
|  7>  C        1.4434834750     1.5833631139    -0.4402638503
|  8>  C        1.3439510266     2.8304955648    -1.3091186607
|  9>  C        0.9922466459     4.1699687748    -0.6617449190
| 10>  C        2.3784286303     3.9441993452    -1.1548136944
| 11>  C        0.8348371610     2.6297216255    -2.6867655644
| 12>  O        0.4931165419     1.5656777496    -3.1439126838
| 13>  H       -0.6166239213     0.8123276931    -0.7690326309
| 14>  H        2.0650523317     1.7698132065     0.4391987410
| 15>  H        1.8903963614     0.7771863769    -1.0347698253
| 16>  H        0.3489748211     4.8462226549    -1.2149044922
| 17>  H        0.8033583725     4.1399682913     0.4053694273
| 18>  H        3.1694798784     3.7639225348    -0.4362530122
| 19>  H        2.6970464454     4.4600405601    -2.0546947112
| 20>  H        0.7903798597     3.5614384733    -3.2975565362
| 21> *
| 22>
| 23>                          ****END OF INPUT****

CARTESIAN COORDINATES (ANGSTROEM)
---------------------------------
  O     -0.260178    1.123055    1.195548
  C      0.076042    1.129495    0.038413
  C      1.443483    1.583363   -0.440264
  C      1.343951    2.830496   -1.309119
  C      0.992247    4.169969   -0.661745
  C      2.378429    3.944199   -1.154814
  C      0.834837    2.629722   -2.686766
  O      0.493117    1.565678   -3.143913
  H     -0.616624    0.812328   -0.769033
  H      2.065052    1.769813    0.439199
  H      1.890396    0.777186   -1.034770
  H      0.348975    4.846223   -1.214904
  H      0.803358    4.139968    0.405369
  H      3.169480    3.763923   -0.436253
  H      2.697046    4.460041   -2.054695
  H      0.790380    3.561438   -3.297557

 Total Charge           Charge          ....    0
 Multiplicity           Mult            ....    1
 Number of Electrons    NEL             ....   60
 Basis Dimension        Dim             ....  296

ORBITAL ENERGIES
----------------

  NO   OCC          E(Eh)            E(eV)
   0   2.0000     -20.565719      -559.6217
   1   2.0000     -20.557057      -559.3860
   2   2.0000     -11.345974      -308.7397
   3   2.0000     -11.330258      -308.3120
   4   2.0000     -11.275590      -306.8244
   5   2.0000     -11.265496      -306.5497
   6   2.0000     -11.263294      -306.4898
   7   2.0000     -11.251473      -306.1681
   8   2.0000      -1.406902       -38.2838
   9   2.0000      -1.395364       -37.9698
  10   2.0000      -1.191757       -32.4294
  11   2.0000      -1.030372       -28.0379
  12   2.0000      -0.919659       -25.0252
  13   2.0000      -0.859774       -23.3956
  14   2.0000      -0.813764       -22.1436
  15   2.0000      -0.765399       -20.8276
  16   2.0000      -0.702493       -19.1158
  17   2.0000      -0.688961       -18.7476
  18   2.0000      -0.663105       -18.0440
  19   2.0000      -0.635155       -17.2834
  20   2.0000      -0.631797       -17.1921
  21   2.0000      -0.594205       -16.1691
  22   2.0000      -0.564836       -15.3700
  23   2.0000      -0.552264       -15.0279
  24   2.0000      -0.542359       -14.7583
  25   2.0000      -0.517495       -14.0817
  26   2.0000      -0.472065       -12.8455
  27   2.0000      -0.451393       -12.2830
  28   2.0000      -0.431797       -11.7498
  29   2.0000      -0.405343       -11.0299
  30   0.0000       0.116168         3.1611
  31   0.0000       0.131776         3.5858
  32   0.0000       0.137042         3.7291
  33   0.0000       0.154741         4.2107
  34   0.0000       0.170785         4.6473

MULLIKEN ATOMIC CHARGES
-----------------------
   0 O :   -0.269480
   1 C :    0.069421
   2 C :   -0.151149
   3 C :    0.066286
   4 C :   -0.285366
   5 C :   -0.277455
   6 C :    0.069251
   7 O :   -0.282995
   8 H :    0.107801
   9 H :    0.119252
  10 H :    0.140668
  11 H :    0.149371
  12 H :    0.162546
  13 H :    0.150906
  14 H :    0.147540
  15 H :    0.083402
Sum of atomic charges:    0.0000000

LOEWDIN ATOMIC CHARGES
----------------------
   0 O :    0.129526
   1 C :   -0.282541
   2 C :   -0.212771
   3 C :   -0.240195
   4 C :   -0.186426
   5 C :   -0.187618
   6 C :   -0.270115
   7 O :    0.129933
   8 H :    0.118047
   9 H :    0.151776
  10 H :    0.160891
  11 H :    0.139641
  12 H :    0.146939
  13 H :    0.141704
  14 H :    0.139289
  15 H :    0.121920

  Mayer bond orders larger than 0.1
B(  0-O ,  1-C ) :   1.9809 B(  1-C ,  2-C ) :   0.8778 B(  1-C ,  8-H ) :   0.9311
B(  2-C ,  3-C ) :   0.8938 B(  2-C ,  9-H ) :   0.9118 B(  2-C , 10-H ) :   0.8973
B(  3-C ,  4-C ) :   0.8237 B(  3-C ,  5-C ) :   0.8315 B(  3-C ,  6-C ) :   0.8962
B(  4-C ,  5-C ) :   0.9088 B(  4-C , 11-H ) :   0.9248 B(  4-C , 12-H ) :   0.9198
B(  5-C , 13-H ) :   0.9214 B(  5-C , 14-H ) :   0.9270 B(  6-C ,  7-O ) :   1.9742
B(  6-C , 15-H ) :   0.9515

MP2 TOTAL ENERGY:     -383.105983655 Eh
FINAL SINGLE POINT ENERGY      -383.105983655223

DIPOLE MOMENT
-------------
                                X             Y             Z
Electronic contribution:     -2.93008      -3.96048      -0.44230
Nuclear contribution   :      3.75106       5.00746       0.15073
                        -----------------------------------------
Total Dipole Moment    :      0.82098       1.04699      -0.29157
                        -----------------------------------------
Magnitude (a.u.)       :      1.36206
Magnitude (Debye)      :      3.46208

                             ****ORCA TERMINATED NORMALLY****
TOTAL RUN TIME: 0 days 0 hours 17 minutes 10 seconds 222 msec
