                         Program Version 3.0.3 - RELEASE   -
|  1> ! RI-MP2 RIJK def2-TZVP def2-TZVP/C def2-TZVP/JK TIGHTSCF
|  2> % maxcore 2000
|  3> % mp2 density relaxed end
|  4> *xyz 0 1
|  5>  C       -0.0465446703     1.5089809126    -0.0116681457
|  6>  C       -0.0269874267     0.0538789349     0.0150779180
|  7>  C       -0.0209099057    -1.1503128408     0.0438370975
|  8>  C       -0.0074194704    -2.6002805117     0.0705447922
|  9>  C        0.2089127803    -3.3721862008     1.3830861151
| 10>  C       -1.1984462581    -3.5316680685     1.9801732573
| 11>  O       -2.1213074852    -2.8449732172     1.1365152720
| 12>  C       -1.3681533277    -3.3794210683     0.0202409740
| 13>  C       -0.7315564425    -4.4882593302     0.9385084644
| 14>  H        0.9682116180     1.9219359392    -0.0353851900
| 15>  H       -0.5752773643     1.8829985922    -0.8956010663
| 16>  H       -0.5504900911     1.9164319307     0.8717592084
| 17>  H        0.6598230062    -3.0078038485    -0.6964304166
| 18>  H        1.1136105294    -3.4432827254     1.9725976836
| 19>  H       -1.4201754306    -3.6362599320     3.0334609087
| 20>  H       -1.9482418950    -3.4832934556    -0.8936875513
| 21>  H       -0.6303915864    -5.5623391104     0.8798564287
| 22> *
| 23>
| 24>                          ****END OF INPUT****

CARTESIAN COORDINATES (ANGSTROEM)
---------------------------------
  C     -0.046545    1.508981   -0.011668
  C     -0.026987    0.053879    0.015078
  C     -0.020910   -1.150313    0.043837
  C     -0.007419   -2.600281    0.070545
  C      0.208913   -3.372186    1.383086
  C     -1.198446   -3.531668    1.980173
  O     -2.121307   -2.844973    1.136515
  C     -1.368153   -3.379421    0.020241
  C     -0.731556   -4.488259    0.938508
  H      0.968212    1.921936   -0.035385
  H     -0.575277    1.882999   -0.895601
  H     -0.550490    1.916432    0.871759
  H      0.659823   -3.007804   -0.696430
  H      1.113611   -3.443283    1.972598
  H     -1.420175   -3.636260    3.033461
  H     -1.948242   -3.483293   -0.893688
  H     -0.630392   -5.562339    0.879856

 Total Charge           Charge          ....    0
 Multiplicity           Mult            ....    1
 Number of Electrons    NEL             ....   64
 Basis Dimension        Dim             ....  327

ORBITAL ENERGIES
----------------

  NO   OCC          E(Eh)            E(eV)
   0   2.0000     -20.554711      -559.3221
   1   2.0000     -11.302467      -307.5558
   2   2.0000     -11.293396      -307.3089
   3   2.0000     -11.259952      -306.3989
   4   2.0000     -11.248520      -306.0878
   5   2.0000     -11.244016      -305.9652
   6   2.0000     -11.241250      -305.8900
   7   2.0000     -11.217661      -305.2481
   8   2.0000     -11.209110      -305.0154
   9   2.0000      -1.408226       -38.3198
  10   2.0000      -1.158900       -31.5353
  11   2.0000      -1.057440       -28.7744
  12   2.0000      -1.006109       -27.3776
  13   2.0000      -0.940110       -25.5817
  14   2.0000      -0.890439       -24.2301
  15   2.0000      -0.788041       -21.4437
  16   2.0000      -0.753218       -20.4961
  17   2.0000      -0.730137       -19.8680
  18   2.0000      -0.680078       -18.5059
  19   2.0000      -0.631862       -17.1938
  20   2.0000      -0.618214       -16.8225
  21   2.0000      -0.600016       -16.3273
  22   2.0000      -0.580754       -15.8031
  23   2.0000      -0.579604       -15.7718
  24   2.0000      -0.550237       -14.9727
  25   2.0000      -0.541498       -14.7349
  26   2.0000      -0.496242       -13.5034
  27   2.0000      -0.448573       -12.2063
  28   2.0000      -0.407298       -11.0831
  29   2.0000      -0.391380       -10.6500
  30   2.0000      -0.358480        -9.7547
  31   2.0000      -0.355275        -9.6675
  32   0.0000       0.142523         3.8782
  33   0.0000       0.156250         4.2518
  34   0.0000       0.163191         4.4407
  35   0.0000       0.172041         4.6815
  36   0.0000       0.180245         4.9047

MULLIKEN ATOMIC CHARGES
-----------------------
   0 C :   -0.489293
   1 C :    0.022468
   2 C :   -0.019813
   3 C :   -0.110713
   4 C :   -0.163469
   5 C :    0.012553
   6 O :   -0.313116
   7 C :    0.059872
   8 C :   -0.184544
   9 H :    0.160146
  10 H :    0.161253
  11 H :    0.164719
  12 H :    0.126871
  13 H :    0.137594
  14 H :    0.141165
  15 H :    0.138838
  16 H :    0.155471
Sum of atomic charges:   -0.0000000

LOEWDIN ATOMIC CHARGES
----------------------
   0 C :   -0.295641
   1 C :   -0.094400
   2 C :   -0.061556
   3 C :   -0.194630
   4 C :   -0.135623
   5 C :   -0.229872
   6 O :    0.181474
   7 C :   -0.168435
   8 C :   -0.134617
   9 H :    0.139907
  10 H :    0.140780
  11 H :    0.141296
  12 H :    0.172682
  13 H :    0.139061
  14 H :    0.135262
  15 H :    0.131001
  16 H :    0.133310

  Mayer bond orders larger than 0.1
B(  0-C ,  1-C ) :   0.8514 B(  0-C ,  9-H ) :   0.9506 B(  0-C , 10-H ) :   0.9481
B(  0-C , 11-H ) :   0.9471 B(  1-C ,  2-C ) :   2.6546 B(  1-C ,  3-C ) :  -0.1046
B(  2-C ,  3-C ) :   1.1149 B(  3-C ,  4-C ) :   0.9033 B(  3-C ,  7-C ) :   0.9095
B(  3-C , 12-H ) :   0.9270 B(  4-C ,  5-C ) :   0.8587 B(  4-C ,  8-C ) :   0.8516
B(  4-C , 13-H ) :   0.9216 B(  5-C ,  6-O ) :   0.9526 B(  5-C ,  8-C ) :   0.9018
B(  5-C , 14-H ) :   0.9226 B(  6-O ,  7-C ) :   0.9471 B(  7-C ,  8-C ) :   0.9529
B(  7-C , 15-H ) :   0.9146 B(  8-C , 16-H ) :   0.9019

MP2 TOTAL ENERGY:     -383.900389588 Eh
FINAL SINGLE POINT ENERGY      -383.900389588196

DIPOLE MOMENT
-------------
                                X             Y             Z
Electronic contribution:     -1.88661      -4.12462       0.70651
Nuclear contribution   :      2.40653       3.81984      -0.75158
                        -----------------------------------------
Total Dipole Moment    :      0.51992      -0.30478      -0.04507
                        -----------------------------------------
Magnitude (a.u.)       :      0.60435
Magnitude (Debye)      :      1.53614

                             ****ORCA TERMINATED NORMALLY****
TOTAL RUN TIME: 0 days 0 hours 17 minutes 51 seconds 202 msec
