                         Program Version 3.0.3 - RELEASE   -
|  1> ! RI-MP2 RIJK def2-TZVP def2-TZVP/C def2-TZVP/JK TIGHTSCF
|  2> % maxcore 2000
|  3> % mp2 density relaxed end
|  4> *xyz 0 1
|  5>  C        0.1376153844     1.4823557803     0.0121702616
|  6>  C        0.0904682979    -0.0063227123    -0.1066884948
|  7>  C        0.0114417015    -0.8329911606    -1.2188931941
|  8>  C       -0.0166795944    -0.4035643569    -2.6540133939
|  9>  O        1.0500694317     0.4841432345    -3.0008041909
| 10>  C       -0.0131319775    -2.1537123614    -0.6925415779
| 11>  C       -0.0986402077    -3.4511499204    -1.4353017921
| 12>  N        0.0450792666    -2.1471025806     0.6369478557
| 13>  N        0.1060821432    -0.8371510847     0.9632837872
| 14>  H        0.7918135746     1.8012311814     0.8307757285
| 15>  H        0.5180058194     1.9062121289    -0.9188782232
| 16>  H       -0.8559937433     1.9074980012     0.1995112166
| 17>  H       -0.0141369409    -1.2916159095    -3.3035359069
| 18>  H       -0.9289118999     0.1562712036    -2.8906050311
| 19>  H        1.8651739862     0.0736265033    -2.6926671111
| 20>  H        0.7003715047    -3.5467348474    -2.1791376588
| 21>  H       -0.0133026603    -4.2816858511    -0.7315198278
| 22>  H       -1.0501563515    -3.5527302021    -1.9693282286
| 23>  H        0.1771470554    -0.5811037864     1.9338082914
| 24> *
| 25>
| 26>                          ****END OF INPUT****

CARTESIAN COORDINATES (ANGSTROEM)
---------------------------------
  C      0.137615    1.482356    0.012170
  C      0.090468   -0.006323   -0.106688
  C      0.011442   -0.832991   -1.218893
  C     -0.016680   -0.403564   -2.654013
  O      1.050069    0.484143   -3.000804
  C     -0.013132   -2.153712   -0.692542
  C     -0.098640   -3.451150   -1.435302
  N      0.045079   -2.147103    0.636948
  N      0.106082   -0.837151    0.963284
  H      0.791814    1.801231    0.830776
  H      0.518006    1.906212   -0.918878
  H     -0.855994    1.907498    0.199511
  H     -0.014137   -1.291616   -3.303536
  H     -0.928912    0.156271   -2.890605
  H      1.865174    0.073627   -2.692667
  H      0.700372   -3.546735   -2.179138
  H     -0.013303   -4.281686   -0.731520
  H     -1.050156   -3.552730   -1.969328
  H      0.177147   -0.581104    1.933808

 Total Charge           Charge          ....    0
 Multiplicity           Mult            ....    1
 Number of Electrons    NEL             ....   68
 Basis Dimension        Dim             ....  339

ORBITAL ENERGIES
----------------

  NO   OCC          E(Eh)            E(eV)
   0   2.0000     -20.554870      -559.3264
   1   2.0000     -15.626660      -425.2230
   2   2.0000     -15.572338      -423.7449
   3   2.0000     -11.281492      -306.9850
   4   2.0000     -11.279614      -306.9339
   5   2.0000     -11.255064      -306.2659
   6   2.0000     -11.239272      -305.8361
   7   2.0000     -11.222377      -305.3764
   8   2.0000     -11.212210      -305.0997
   9   2.0000      -1.366052       -37.1722
  10   2.0000      -1.355912       -36.8963
  11   2.0000      -1.114064       -30.3152
  12   2.0000      -1.077435       -29.3185
  13   2.0000      -0.977790       -26.6070
  14   2.0000      -0.960034       -26.1239
  15   2.0000      -0.916270       -24.9330
  16   2.0000      -0.781481       -21.2652
  17   2.0000      -0.758143       -20.6301
  18   2.0000      -0.703112       -19.1326
  19   2.0000      -0.680026       -18.5045
  20   2.0000      -0.630716       -17.1626
  21   2.0000      -0.605152       -16.4670
  22   2.0000      -0.594779       -16.1848
  23   2.0000      -0.584846       -15.9145
  24   2.0000      -0.575275       -15.6540
  25   2.0000      -0.569294       -15.4913
  26   2.0000      -0.546106       -14.8603
  27   2.0000      -0.543290       -14.7837
  28   2.0000      -0.521480       -14.1902
  29   2.0000      -0.507993       -13.8232
  30   2.0000      -0.452869       -12.3232
  31   2.0000      -0.442823       -12.0498
  32   2.0000      -0.348146        -9.4735
  33   2.0000      -0.328644        -8.9429
  34   0.0000       0.123696         3.3659
  35   0.0000       0.138430         3.7669
  36   0.0000       0.150799         4.1034
  37   0.0000       0.162787         4.4297
  38   0.0000       0.169229         4.6050

MULLIKEN ATOMIC CHARGES
-----------------------
   0 C :   -0.459121
   1 C :    0.085318
   2 C :   -0.157418
   3 C :    0.015067
   4 O :   -0.477966
   5 C :    0.075750
   6 C :   -0.460474
   7 N :   -0.215158
   8 N :   -0.108848
   9 H :    0.136316
  10 H :    0.179946
  11 H :    0.149818
  12 H :    0.116331
  13 H :    0.121181
  14 H :    0.314480
  15 H :    0.136804
  16 H :    0.155876
  17 H :    0.141309
  18 H :    0.250790
Sum of atomic charges:    0.0000000

LOEWDIN ATOMIC CHARGES
----------------------
   0 C :   -0.275107
   1 C :   -0.237092
   2 C :   -0.179930
   3 C :   -0.300342
   4 O :   -0.056368
   5 C :   -0.284662
   6 C :   -0.279536
   7 N :    0.040714
   8 N :    0.147501
   9 H :    0.130476
  10 H :    0.143054
  11 H :    0.133407
  12 H :    0.126888
  13 H :    0.135389
  14 H :    0.172855
  15 H :    0.128606
  16 H :    0.136440
  17 H :    0.129940
  18 H :    0.187767

  Mayer bond orders larger than 0.1
B(  0-C ,  1-C ) :   0.8335 B(  0-C ,  9-H ) :   0.9421 B(  0-C , 10-H ) :   0.9407
B(  0-C , 11-H ) :   0.9280 B(  1-C ,  2-C ) :   1.3864 B(  1-C ,  7-N ) :   0.1170
B(  1-C ,  8-N ) :   1.2310 B(  2-C ,  3-C ) :   0.9432 B(  2-C ,  5-C ) :   1.2407
B(  3-C ,  4-O ) :   0.8810 B(  3-C , 12-H ) :   0.9354 B(  3-C , 13-H ) :   0.9257
B(  4-O , 14-H ) :   0.8433 B(  5-C ,  6-C ) :   0.8642 B(  5-C ,  7-N ) :   1.6083
B(  6-C , 15-H ) :   0.9394 B(  6-C , 16-H ) :   0.9481 B(  6-C , 17-H ) :   0.9350
B(  7-N ,  8-N ) :   1.0415 B(  8-N , 18-H ) :   0.8723

MP2 TOTAL ENERGY:     -418.533940656 Eh
FINAL SINGLE POINT ENERGY      -418.533940655808

DIPOLE MOMENT
-------------
                                X             Y             Z
Electronic contribution:      0.55718      -0.54621       3.17131
Nuclear contribution   :     -0.46678       0.94158      -2.78356
                        -----------------------------------------
Total Dipole Moment    :      0.09040       0.39537       0.38775
                        -----------------------------------------
Magnitude (a.u.)       :      0.56111
Magnitude (Debye)      :      1.42622

                             ****ORCA TERMINATED NORMALLY****
TOTAL RUN TIME: 0 days 0 hours 18 minutes 3 seconds 597 msec
