                         Program Version 3.0.3 - RELEASE   -
|  1> ! RI-MP2 RIJK def2-TZVP def2-TZVP/C def2-TZVP/JK TIGHTSCF
|  2> % maxcore 2000
|  3> % mp2 density relaxed end
|  4> *xyz 0 1
|  5>  C       -0.2071286387     1.4664882251    -0.0916817694
|  6>  O       -0.4266056837     0.1043209651    -0.3855790035
|  7>  C        0.5587062794    -0.5179134078    -1.1734783268
|  8>  C        0.5761066821     0.0164063446    -2.6056211595
|  9>  C        1.9802660153    -0.6613668884    -0.5480431717
| 10>  C        1.9772551492    -2.1576649806    -0.9495990557
| 11>  C        0.4236333579    -2.0878549960    -1.1504622933
| 12>  C       -0.3384232906    -2.6360103730    -0.0466983118
| 13>  C       -0.9474202235    -3.1271064583     0.8663989432
| 14>  H        0.7843223014     1.6382389453     0.3527470220
| 15>  H       -0.3064985771     2.1125854003    -0.9755288837
| 16>  H       -0.9691481533     1.7570096103     0.6355003004
| 17>  H        0.8966569462     1.0622291659    -2.6380849480
| 18>  H        1.2692897364    -0.5571453129    -3.2285002148
| 19>  H       -0.4239230498    -0.0548702739    -3.0447484187
| 20>  H        2.7765016520    -0.0289808167    -0.9479728397
| 21>  H        1.9314845012    -0.5416217112     0.5368807534
| 22>  H        2.4977670881    -2.3492488899    -1.8905442233
| 23>  H        2.3227796802    -2.8710604073    -0.2017253271
| 24>  H        0.0590731853    -2.5070221906    -2.0937031404
| 25>  H       -1.4995046278    -3.5443047900     1.6713491184
| 26> *
| 27>
| 28>                          ****END OF INPUT****

CARTESIAN COORDINATES (ANGSTROEM)
---------------------------------
  C     -0.207129    1.466488   -0.091682
  O     -0.426606    0.104321   -0.385579
  C      0.558706   -0.517913   -1.173478
  C      0.576107    0.016406   -2.605621
  C      1.980266   -0.661367   -0.548043
  C      1.977255   -2.157665   -0.949599
  C      0.423633   -2.087855   -1.150462
  C     -0.338423   -2.636010   -0.046698
  C     -0.947420   -3.127106    0.866399
  H      0.784322    1.638239    0.352747
  H     -0.306499    2.112585   -0.975529
  H     -0.969148    1.757010    0.635500
  H      0.896657    1.062229   -2.638085
  H      1.269290   -0.557145   -3.228500
  H     -0.423923   -0.054870   -3.044748
  H      2.776502   -0.028981   -0.947973
  H      1.931485   -0.541622    0.536881
  H      2.497767   -2.349249   -1.890544
  H      2.322780   -2.871060   -0.201725
  H      0.059073   -2.507022   -2.093703
  H     -1.499505   -3.544305    1.671349

 Total Charge           Charge          ....    0
 Multiplicity           Mult            ....    1
 Number of Electrons    NEL             ....   68
 Basis Dimension        Dim             ....  351

ORBITAL ENERGIES
----------------

  NO   OCC          E(Eh)            E(eV)
   0   2.0000     -20.551645      -559.2387
   1   2.0000     -11.293328      -307.3071
   2   2.0000     -11.269339      -306.6543
   3   2.0000     -11.249471      -306.1137
   4   2.0000     -11.231374      -305.6212
   5   2.0000     -11.223727      -305.4131
   6   2.0000     -11.222537      -305.3808
   7   2.0000     -11.221113      -305.3420
   8   2.0000     -11.208788      -305.0066
   9   2.0000      -1.377054       -37.4716
  10   2.0000      -1.142715       -31.0949
  11   2.0000      -1.022878       -27.8339
  12   2.0000      -0.985016       -26.8036
  13   2.0000      -0.936118       -25.4731
  14   2.0000      -0.916510       -24.9395
  15   2.0000      -0.845631       -23.0108
  16   2.0000      -0.757136       -20.6027
  17   2.0000      -0.707611       -19.2551
  18   2.0000      -0.678089       -18.4517
  19   2.0000      -0.664019       -18.0689
  20   2.0000      -0.637392       -17.3443
  21   2.0000      -0.627305       -17.0698
  22   2.0000      -0.592919       -16.1342
  23   2.0000      -0.576371       -15.6839
  24   2.0000      -0.551436       -15.0053
  25   2.0000      -0.547348       -14.8941
  26   2.0000      -0.512182       -13.9372
  27   2.0000      -0.497892       -13.5483
  28   2.0000      -0.480697       -13.0804
  29   2.0000      -0.476220       -12.9586
  30   2.0000      -0.447521       -12.1777
  31   2.0000      -0.408853       -11.1255
  32   2.0000      -0.368675       -10.0321
  33   2.0000      -0.366865        -9.9829
  34   0.0000       0.130163         3.5419
  35   0.0000       0.153359         4.1731
  36   0.0000       0.164884         4.4867
  37   0.0000       0.170771         4.6469
  38   0.0000       0.182370         4.9625

MULLIKEN ATOMIC CHARGES
-----------------------
   0 C :   -0.230212
   1 O :   -0.286508
   2 C :    0.286839
   3 C :   -0.466508
   4 C :   -0.294682
   5 C :   -0.233203
   6 C :   -0.151178
   7 C :   -0.045832
   8 C :   -0.186786
   9 H :    0.114036
  10 H :    0.115822
  11 H :    0.145590
  12 H :    0.135372
  13 H :    0.135669
  14 H :    0.143777
  15 H :    0.117925
  16 H :    0.132227
  17 H :    0.124250
  18 H :    0.129747
  19 H :    0.128760
  20 H :    0.184896
Sum of atomic charges:   -0.0000000

LOEWDIN ATOMIC CHARGES
----------------------
   0 C :   -0.351136
   1 O :    0.194475
   2 C :   -0.338511
   3 C :   -0.270916
   4 C :   -0.208154
   5 C :   -0.198180
   6 C :   -0.173183
   7 C :   -0.085601
   8 C :   -0.101755
   9 H :    0.104265
  10 H :    0.101556
  11 H :    0.115407
  12 H :    0.125578
  13 H :    0.131592
  14 H :    0.131229
  15 H :    0.126262
  16 H :    0.144665
  17 H :    0.132883
  18 H :    0.132779
  19 H :    0.161961
  20 H :    0.124784

  Mayer bond orders larger than 0.1
B(  0-C ,  1-O ) :   0.9044 B(  0-C ,  9-H ) :   0.9311 B(  0-C , 10-H ) :   0.9337
B(  0-C , 11-H ) :   0.9420 B(  1-O ,  2-C ) :   1.0435 B(  1-O ,  6-C ) :  -0.1469
B(  2-C ,  3-C ) :   0.9101 B(  2-C ,  4-C ) :   0.9144 B(  2-C ,  6-C ) :   0.8232
B(  3-C , 12-H ) :   0.9327 B(  3-C , 13-H ) :   0.9247 B(  3-C , 14-H ) :   0.9438
B(  4-C ,  5-C ) :   0.9651 B(  4-C , 15-H ) :   0.9221 B(  4-C , 16-H ) :   0.9145
B(  5-C ,  6-C ) :   0.8497 B(  5-C , 17-H ) :   0.9244 B(  5-C , 18-H ) :   0.9199
B(  6-C ,  7-C ) :   1.1921 B(  6-C , 19-H ) :   0.9298 B(  7-C ,  8-C ) :   2.5737
B(  8-C , 20-H ) :   0.8958

MP2 TOTAL ENERGY:     -386.352838674 Eh
FINAL SINGLE POINT ENERGY      -386.352838674042

DIPOLE MOMENT
-------------
                                X             Y             Z
Electronic contribution:     -3.62300      -4.99668       2.96692
Nuclear contribution   :      4.13384       5.44960      -3.24314
                        -----------------------------------------
Total Dipole Moment    :      0.51084       0.45292      -0.27622
                        -----------------------------------------
Magnitude (a.u.)       :      0.73647
Magnitude (Debye)      :      1.87196

                             ****ORCA TERMINATED NORMALLY****
TOTAL RUN TIME: 0 days 0 hours 21 minutes 51 seconds 379 msec
