                         Program Version 3.0.3 - RELEASE   -
|  1> ! RI-MP2 RIJK def2-TZVP def2-TZVP/C def2-TZVP/JK TIGHTSCF
|  2> % maxcore 2000
|  3> % mp2 density relaxed end
|  4> *xyz 0 1
|  5>  C        0.1575370224     1.5269380213    -0.0272128677
|  6>  C        1.4254111451     0.7433727159     0.1881714659
|  7>  C        0.0956319961     0.0208562464     0.0241738473
|  8>  C       -0.4985449169    -0.6279625599     1.2073546131
|  9>  C       -0.8862858226    -1.8905726359     1.3624179386
| 10>  C       -0.8205724794    -3.0358489818     0.3960878118
| 11>  N       -0.3321278836    -2.8969128907    -0.9525766989
| 12>  C       -0.0631062509    -1.8414486659    -1.5790054764
| 13>  O       -0.0953937407    -0.5165603041    -1.2687721534
| 14>  H       -0.2672872075     2.0815694936     0.8017749668
| 15>  H        0.0037126731     1.9705694750    -1.0034776236
| 16>  H        2.1138393899     0.6636744291    -0.6448022604
| 17>  H        1.8858471354     0.7423398494     1.1694191772
| 18>  H       -0.5895191065     0.0422002542     2.0593208784
| 19>  H       -1.2917141068    -2.1737340560     2.3328690294
| 20>  H       -0.2300730967    -3.8348837953     0.8713780191
| 21>  H       -1.8270450953    -3.4763631990     0.3136209549
| 22>  H        0.2150746748    -1.9196202265    -2.6308933321
| 23> *
| 24>
| 25>                          ****END OF INPUT****

CARTESIAN COORDINATES (ANGSTROEM)
---------------------------------
  C      0.157537    1.526938   -0.027213
  C      1.425411    0.743373    0.188171
  C      0.095632    0.020856    0.024174
  C     -0.498545   -0.627963    1.207355
  C     -0.886286   -1.890573    1.362418
  C     -0.820572   -3.035849    0.396088
  N     -0.332128   -2.896913   -0.952577
  C     -0.063106   -1.841449   -1.579005
  O     -0.095394   -0.516560   -1.268772
  H     -0.267287    2.081569    0.801775
  H      0.003713    1.970569   -1.003478
  H      2.113839    0.663674   -0.644802
  H      1.885847    0.742340    1.169419
  H     -0.589519    0.042200    2.059321
  H     -1.291714   -2.173734    2.332869
  H     -0.230073   -3.834884    0.871378
  H     -1.827045   -3.476363    0.313621
  H      0.215075   -1.919620   -2.630893

 Total Charge           Charge          ....    0
 Multiplicity           Mult            ....    1
 Number of Electrons    NEL             ....   66
 Basis Dimension        Dim             ....  333

ORBITAL ENERGIES
----------------

  NO   OCC          E(Eh)            E(eV)
   0   2.0000     -20.592083      -560.3391
   1   2.0000     -15.544424      -422.9853
   2   2.0000     -11.331881      -308.3562
   3   2.0000     -11.308668      -307.7245
   4   2.0000     -11.262367      -306.4646
   5   2.0000     -11.238811      -305.8236
   6   2.0000     -11.237522      -305.7885
   7   2.0000     -11.236838      -305.7699
   8   2.0000     -11.235933      -305.7453
   9   2.0000      -1.423906       -38.7464
  10   2.0000      -1.220326       -33.2068
  11   2.0000      -1.156168       -31.4609
  12   2.0000      -1.064846       -28.9759
  13   2.0000      -0.964540       -26.2465
  14   2.0000      -0.894274       -24.3344
  15   2.0000      -0.840236       -22.8640
  16   2.0000      -0.796275       -21.6678
  17   2.0000      -0.742900       -20.2153
  18   2.0000      -0.701616       -19.0920
  19   2.0000      -0.657031       -17.8787
  20   2.0000      -0.651759       -17.7353
  21   2.0000      -0.626840       -17.0572
  22   2.0000      -0.614744       -16.7280
  23   2.0000      -0.587617       -15.9899
  24   2.0000      -0.563895       -15.3444
  25   2.0000      -0.554990       -15.1021
  26   2.0000      -0.528809       -14.3896
  27   2.0000      -0.505701       -13.7608
  28   2.0000      -0.462922       -12.5967
  29   2.0000      -0.449176       -12.2227
  30   2.0000      -0.399763       -10.8781
  31   2.0000      -0.382020       -10.3953
  32   2.0000      -0.341541        -9.2938
  33   0.0000       0.141389         3.8474
  34   0.0000       0.148934         4.0527
  35   0.0000       0.159436         4.3385
  36   0.0000       0.161313         4.3896
  37   0.0000       0.177259         4.8235

MULLIKEN ATOMIC CHARGES
-----------------------
   0 C :   -0.294375
   1 C :   -0.282414
   2 C :    0.329834
   3 C :   -0.244103
   4 C :   -0.195709
   5 C :   -0.073791
   6 N :   -0.262834
   7 C :    0.066427
   8 O :   -0.251433
   9 H :    0.135282
  10 H :    0.143675
  11 H :    0.140035
  12 H :    0.137189
  13 H :    0.123527
  14 H :    0.122498
  15 H :    0.138682
  16 H :    0.137497
  17 H :    0.130013
Sum of atomic charges:   -0.0000000

LOEWDIN ATOMIC CHARGES
----------------------
   0 C :   -0.195627
   1 C :   -0.194715
   2 C :   -0.297033
   3 C :   -0.148229
   4 C :   -0.174766
   5 C :   -0.295360
   6 N :    0.085526
   7 C :   -0.358109
   8 O :    0.277895
   9 H :    0.135152
  10 H :    0.141753
  11 H :    0.140239
  12 H :    0.135449
  13 H :    0.158874
  14 H :    0.150724
  15 H :    0.151483
  16 H :    0.152691
  17 H :    0.134052

  Mayer bond orders larger than 0.1
B(  0-C ,  1-C ) :   0.9230 B(  0-C ,  2-C ) :   0.8511 B(  0-C ,  9-H ) :   0.9219
B(  0-C , 10-H ) :   0.9234 B(  1-C ,  2-C ) :   0.8307 B(  1-C , 11-H ) :   0.9216
B(  1-C , 12-H ) :   0.9199 B(  2-C ,  3-C ) :   0.9398 B(  2-C ,  8-O ) :   0.9252
B(  3-C ,  4-C ) :   1.8244 B(  3-C , 13-H ) :   0.9078 B(  4-C ,  5-C ) :   0.9033
B(  4-C , 14-H ) :   0.9123 B(  5-C ,  6-N ) :   0.9541 B(  5-C , 15-H ) :   0.9213
B(  5-C , 16-H ) :   0.9193 B(  6-N ,  7-C ) :   1.8637 B(  7-C ,  8-O ) :   1.0432
B(  7-C , 17-H ) :   0.9323

MP2 TOTAL ENERGY:     -401.221707947 Eh
FINAL SINGLE POINT ENERGY      -401.221707947102

DIPOLE MOMENT
-------------
                                X             Y             Z
Electronic contribution:     -0.82054      -1.88682      -3.20040
Nuclear contribution   :      0.91948       2.41656       3.83105
                        -----------------------------------------
Total Dipole Moment    :      0.09894       0.52974       0.63065
                        -----------------------------------------
Magnitude (a.u.)       :      0.82953
Magnitude (Debye)      :      2.10851

                             ****ORCA TERMINATED NORMALLY****
TOTAL RUN TIME: 0 days 0 hours 16 minutes 56 seconds 685 msec
