                         Program Version 3.0.3 - RELEASE   -
|  1> ! RI-MP2 RIJK def2-TZVP def2-TZVP/C def2-TZVP/JK TIGHTSCF
|  2> % maxcore 2000
|  3> % mp2 density relaxed end
|  4> *xyz 0 1
|  5>  O        0.1261789828     1.4133928486    -0.2180310360
|  6>  C        0.0502968108     0.0227169062     0.0374794257
|  7>  C       -1.4005075459    -0.4950421993     0.0341855409
|  8>  C       -2.0818057261    -0.0596301948    -1.2523145780
|  9>  O       -3.0515876425     0.6473530213    -1.3104677153
| 10>  C       -1.4218507821    -2.0429265381     0.1725834049
| 11>  O       -0.6799713770    -2.4767594572     1.3081696997
| 12>  C       -2.7904298473    -2.5603605358     0.1879441007
| 13>  C       -3.9223842605    -2.9609209083     0.2395153182
| 14>  H       -0.3463308245     1.8773231846     0.4810195136
| 15>  H        0.6145408318    -0.4569699841    -0.7712160685
| 16>  H        0.5324941706    -0.2594827475     0.9809014467
| 17>  H       -1.9634468472    -0.0565022995     0.8672064514
| 18>  H       -1.5930911881    -0.4490361506    -2.1765440026
| 19>  H       -0.8880873077    -2.4685380174    -0.6874811242
| 20>  H       -1.2428974672    -2.3662788697     2.0827534230
| 21>  H       -4.9218314798    -3.3203173583     0.2686519798
| 22> *
| 23>
| 24>                          ****END OF INPUT****

CARTESIAN COORDINATES (ANGSTROEM)
---------------------------------
  O      0.126179    1.413393   -0.218031
  C      0.050297    0.022717    0.037479
  C     -1.400508   -0.495042    0.034186
  C     -2.081806   -0.059630   -1.252315
  O     -3.051588    0.647353   -1.310468
  C     -1.421851   -2.042927    0.172583
  O     -0.679971   -2.476759    1.308170
  C     -2.790430   -2.560361    0.187944
  C     -3.922384   -2.960921    0.239515
  H     -0.346331    1.877323    0.481020
  H      0.614541   -0.456970   -0.771216
  H      0.532494   -0.259483    0.980901
  H     -1.963447   -0.056502    0.867206
  H     -1.593091   -0.449036   -2.176544
  H     -0.888087   -2.468538   -0.687481
  H     -1.242897   -2.366279    2.082753
  H     -4.921831   -3.320317    0.268652

 Total Charge           Charge          ....    0
 Multiplicity           Mult            ....    1
 Number of Electrons    NEL             ....   68
 Basis Dimension        Dim             ....  327

ORBITAL ENERGIES
----------------

  NO   OCC          E(Eh)            E(eV)
   0   2.0000     -20.587413      -560.2120
   1   2.0000     -20.571764      -559.7862
   2   2.0000     -20.562708      -559.5397
   3   2.0000     -11.338926      -308.5479
   4   2.0000     -11.338150      -308.5268
   5   2.0000     -11.296859      -307.4032
   6   2.0000     -11.261961      -306.4535
   7   2.0000     -11.252621      -306.1994
   8   2.0000     -11.248610      -306.0902
   9   2.0000      -1.403074       -38.1796
  10   2.0000      -1.395180       -37.9648
  11   2.0000      -1.376925       -37.4680
  12   2.0000      -1.108597       -30.1665
  13   2.0000      -1.046975       -28.4896
  14   2.0000      -0.946851       -25.7651
  15   2.0000      -0.891567       -24.2608
  16   2.0000      -0.809444       -22.0261
  17   2.0000      -0.771874       -21.0038
  18   2.0000      -0.716339       -19.4926
  19   2.0000      -0.703532       -19.1441
  20   2.0000      -0.682243       -18.5648
  21   2.0000      -0.665590       -18.1116
  22   2.0000      -0.651837       -17.7374
  23   2.0000      -0.619298       -16.8520
  24   2.0000      -0.610174       -16.6037
  25   2.0000      -0.578419       -15.7396
  26   2.0000      -0.554423       -15.0866
  27   2.0000      -0.533241       -14.5102
  28   2.0000      -0.504661       -13.7325
  29   2.0000      -0.497977       -13.5506
  30   2.0000      -0.462428       -12.5833
  31   2.0000      -0.423107       -11.5133
  32   2.0000      -0.417139       -11.3509
  33   2.0000      -0.406751       -11.0683
  34   0.0000       0.113302         3.0831
  35   0.0000       0.129957         3.5363
  36   0.0000       0.133347         3.6286
  37   0.0000       0.140432         3.8214
  38   0.0000       0.157852         4.2954

MULLIKEN ATOMIC CHARGES
-----------------------
   0 O :   -0.460058
   1 C :   -0.027470
   2 C :   -0.036935
   3 C :    0.095201
   4 O :   -0.247450
   5 C :   -0.089435
   6 O :   -0.453444
   7 C :   -0.054956
   8 C :   -0.110447
   9 H :    0.320805
  10 H :    0.110547
  11 H :    0.135699
  12 H :    0.088195
  13 H :    0.070937
  14 H :    0.131470
  15 H :    0.326181
  16 H :    0.201160
Sum of atomic charges:    0.0000000

LOEWDIN ATOMIC CHARGES
----------------------
   0 O :   -0.034265
   1 C :   -0.321598
   2 C :   -0.246573
   3 C :   -0.268341
   4 O :    0.148771
   5 C :   -0.311552
   6 O :    0.002712
   7 C :   -0.095881
   8 C :   -0.067645
   9 H :    0.178231
  10 H :    0.135029
  11 H :    0.125920
  12 H :    0.158419
  13 H :    0.115923
  14 H :    0.166436
  15 H :    0.183040
  16 H :    0.131374

  Mayer bond orders larger than 0.1
B(  0-O ,  1-C ) :   0.9261 B(  0-O ,  9-H ) :   0.8425 B(  1-C ,  2-C ) :   0.9312
B(  1-C , 10-H ) :   0.9088 B(  1-C , 11-H ) :   0.9322 B(  2-C ,  3-C ) :   0.8410
B(  2-C ,  5-C ) :   0.9093 B(  2-C , 12-H ) :   0.8843 B(  3-C ,  4-O ) :   1.9923
B(  3-C , 13-H ) :   0.9256 B(  5-C ,  6-O ) :   0.9027 B(  5-C ,  7-C ) :   1.1088
B(  5-C , 14-H ) :   0.9079 B(  6-O , 15-H ) :   0.8357 B(  7-C ,  8-C ) :   2.6032
B(  8-C , 16-H ) :   0.8882

MP2 TOTAL ENERGY:     -458.181129631 Eh
FINAL SINGLE POINT ENERGY      -458.181129630813

DIPOLE MOMENT
-------------
                                X             Y             Z
Electronic contribution:     -2.98734      -0.09377      -0.74218
Nuclear contribution   :      2.91210      -0.47468       1.53395
                        -----------------------------------------
Total Dipole Moment    :     -0.07524      -0.56845       0.79177
                        -----------------------------------------
Magnitude (a.u.)       :      0.97760
Magnitude (Debye)      :      2.48485

                             ****ORCA TERMINATED NORMALLY****
TOTAL RUN TIME: 0 days 0 hours 15 minutes 11 seconds 639 msec
