                         Program Version 3.0.3 - RELEASE   -
|  1> ! RI-MP2 RIJK def2-TZVP def2-TZVP/C def2-TZVP/JK TIGHTSCF
|  2> % maxcore 2000
|  3> % mp2 density relaxed end
|  4> *xyz 0 1
|  5>  C       -0.0368298445     1.6012990445     0.1271919527
|  6>  C        0.0196677813     0.0838098528    -0.0781497189
|  7>  C       -1.3511669343    -0.5984491395    -0.0519046358
|  8>  C       -2.3061217754    -0.1819072773    -1.2004013730
|  9>  C       -3.1982306678    -1.4193349480    -1.5331134881
| 10>  C       -3.0501456388    -1.8357544048    -3.0025950708
| 11>  C       -2.7576335131    -2.5087634892    -0.5036212629
| 12>  C       -2.9660362777    -3.9648260417    -0.9191781324
| 13>  C       -1.3069260399    -2.1302330870    -0.1696562979
| 14>  H        0.9653867082     2.0413023690     0.1171742752
| 15>  H       -0.6213949235     2.0907666273    -0.6586581883
| 16>  H       -0.5001684160     1.8522102951     1.0882460836
| 17>  H        0.5085760298    -0.1388847324    -1.0369745006
| 18>  H        0.6557923885    -0.3614370248     0.6981645296
| 19>  H       -1.8333961654    -0.3548323297     0.9063646701
| 20>  H       -2.9024985783     0.6972507311    -0.9405804486
| 21>  H       -1.7165456594     0.0952874888    -2.0836621494
| 22>  H       -4.2542695944    -1.1788804500    -1.3662856140
| 23>  H       -2.0199667295    -2.1276685441    -3.2378140896
| 24>  H       -3.7032799398    -2.6748295653    -3.2612556024
| 25>  H       -3.3091505783    -0.9996782296    -3.6611320071
| 26>  H       -3.3471777199    -2.3372684122     0.4082231957
| 27>  H       -2.3688100892    -4.2261305723    -1.7987130062
| 28>  H       -2.6732777621    -4.6425531438    -0.1099858018
| 29>  H       -4.0158505374    -4.1705358608    -1.1561630312
| 30>  H       -0.6392512894    -2.4252594453    -0.9925581904
| 31>  H       -0.9348664935    -2.6194018010     0.7369847528
| 32> *
| 33>
| 34>                          ****END OF INPUT****

CARTESIAN COORDINATES (ANGSTROEM)
---------------------------------
  C     -0.036830    1.601299    0.127192
  C      0.019668    0.083810   -0.078150
  C     -1.351167   -0.598449   -0.051905
  C     -2.306122   -0.181907   -1.200401
  C     -3.198231   -1.419335   -1.533113
  C     -3.050146   -1.835754   -3.002595
  C     -2.757634   -2.508763   -0.503621
  C     -2.966036   -3.964826   -0.919178
  C     -1.306926   -2.130233   -0.169656
  H      0.965387    2.041302    0.117174
  H     -0.621395    2.090767   -0.658658
  H     -0.500168    1.852210    1.088246
  H      0.508576   -0.138885   -1.036975
  H      0.655792   -0.361437    0.698165
  H     -1.833396   -0.354832    0.906365
  H     -2.902499    0.697251   -0.940580
  H     -1.716546    0.095287   -2.083662
  H     -4.254270   -1.178880   -1.366286
  H     -2.019967   -2.127669   -3.237814
  H     -3.703280   -2.674830   -3.261256
  H     -3.309151   -0.999678   -3.661132
  H     -3.347178   -2.337268    0.408223
  H     -2.368810   -4.226131   -1.798713
  H     -2.673278   -4.642553   -0.109986
  H     -4.015851   -4.170536   -1.156163
  H     -0.639251   -2.425259   -0.992558
  H     -0.934866   -2.619402    0.736985

 Total Charge           Charge          ....    0
 Multiplicity           Mult            ....    1
 Number of Electrons    NEL             ....   72
 Basis Dimension        Dim             ....  387

ORBITAL ENERGIES
----------------

  NO   OCC          E(Eh)            E(eV)
   0   2.0000     -11.218291      -305.2652
   1   2.0000     -11.216766      -305.2237
   2   2.0000     -11.215331      -305.1847
   3   2.0000     -11.213528      -305.1356
   4   2.0000     -11.208455      -304.9976
   5   2.0000     -11.208385      -304.9957
   6   2.0000     -11.207436      -304.9698
   7   2.0000     -11.207386      -304.9685
   8   2.0000     -11.207101      -304.9607
   9   2.0000      -1.129419       -30.7330
  10   2.0000      -1.047515       -28.5043
  11   2.0000      -0.997541       -27.1445
  12   2.0000      -0.974581       -26.5197
  13   2.0000      -0.903826       -24.5944
  14   2.0000      -0.877369       -23.8744
  15   2.0000      -0.820383       -22.3238
  16   2.0000      -0.756412       -20.5830
  17   2.0000      -0.724704       -19.7202
  18   2.0000      -0.661496       -18.0002
  19   2.0000      -0.614854       -16.7310
  20   2.0000      -0.606179       -16.4950
  21   2.0000      -0.588909       -16.0250
  22   2.0000      -0.574078       -15.6214
  23   2.0000      -0.555439       -15.1143
  24   2.0000      -0.544222       -14.8090
  25   2.0000      -0.529709       -14.4141
  26   2.0000      -0.526612       -14.3298
  27   2.0000      -0.521689       -14.1959
  28   2.0000      -0.502046       -13.6614
  29   2.0000      -0.483092       -13.1456
  30   2.0000      -0.460814       -12.5394
  31   2.0000      -0.444558       -12.0970
  32   2.0000      -0.441619       -12.0171
  33   2.0000      -0.434339       -11.8190
  34   2.0000      -0.432809       -11.7773
  35   2.0000      -0.424118       -11.5408
  36   0.0000       0.130630         3.5546
  37   0.0000       0.147125         4.0035
  38   0.0000       0.149296         4.0625
  39   0.0000       0.167164         4.5488
  40   0.0000       0.178013         4.8440

MULLIKEN ATOMIC CHARGES
-----------------------
   0 C :   -0.395098
   1 C :   -0.203549
   2 C :   -0.021717
   3 C :   -0.323550
   4 C :    0.031417
   5 C :   -0.470492
   6 C :   -0.027533
   7 C :   -0.407426
   8 C :   -0.280043
   9 H :    0.132760
  10 H :    0.128775
  11 H :    0.121569
  12 H :    0.103149
  13 H :    0.109752
  14 H :    0.080111
  15 H :    0.124191
  16 H :    0.112277
  17 H :    0.090714
  18 H :    0.128434
  19 H :    0.134143
  20 H :    0.136542
  21 H :    0.081864
  22 H :    0.127963
  23 H :    0.132588
  24 H :    0.133330
  25 H :    0.101623
  26 H :    0.118207
Sum of atomic charges:   -0.0000000

LOEWDIN ATOMIC CHARGES
----------------------
   0 C :   -0.318871
   1 C :   -0.277916
   2 C :   -0.251889
   3 C :   -0.207054
   4 C :   -0.238850
   5 C :   -0.301246
   6 C :   -0.254559
   7 C :   -0.298171
   8 C :   -0.216553
   9 H :    0.119744
  10 H :    0.120423
  11 H :    0.120238
  12 H :    0.135467
  13 H :    0.136593
  14 H :    0.151495
  15 H :    0.132607
  16 H :    0.140948
  17 H :    0.145538
  18 H :    0.121456
  19 H :    0.121014
  20 H :    0.123516
  21 H :    0.152786
  22 H :    0.122912
  23 H :    0.123575
  24 H :    0.123181
  25 H :    0.139541
  26 H :    0.134079

  Mayer bond orders larger than 0.1
B(  0-C ,  1-C ) :   0.9179 B(  0-C ,  9-H ) :   0.9424 B(  0-C , 10-H ) :   0.9392
B(  0-C , 11-H ) :   0.9390 B(  1-C ,  2-C ) :   0.8984 B(  1-C , 12-H ) :   0.9295
B(  1-C , 13-H ) :   0.9393 B(  2-C ,  3-C ) :   0.9234 B(  2-C ,  8-C ) :   0.9363
B(  2-C , 14-H ) :   0.9253 B(  3-C ,  4-C ) :   0.9288 B(  3-C , 15-H ) :   0.9285
B(  3-C , 16-H ) :   0.9269 B(  4-C ,  5-C ) :   0.8795 B(  4-C ,  6-C ) :   0.9073
B(  4-C , 17-H ) :   0.9238 B(  5-C , 18-H ) :   0.9398 B(  5-C , 19-H ) :   0.9401
B(  5-C , 20-H ) :   0.9400 B(  6-C ,  7-C ) :   0.8915 B(  6-C ,  8-C ) :   0.9435
B(  6-C , 21-H ) :   0.9280 B(  7-C , 22-H ) :   0.9341 B(  7-C , 23-H ) :   0.9401
B(  7-C , 24-H ) :   0.9468 B(  8-C , 25-H ) :   0.9199 B(  8-C , 26-H ) :   0.9234

MP2 TOTAL ENERGY:     -352.941939083 Eh
FINAL SINGLE POINT ENERGY      -352.941939083044

DIPOLE MOMENT
-------------
                                X             Y             Z
Electronic contribution:     -1.00148      -0.34055       1.41781
Nuclear contribution   :      0.96135       0.34365      -1.35424
                        -----------------------------------------
Total Dipole Moment    :     -0.04013       0.00310       0.06356
                        -----------------------------------------
Magnitude (a.u.)       :      0.07523
Magnitude (Debye)      :      0.19123

                             ****ORCA TERMINATED NORMALLY****
TOTAL RUN TIME: 0 days 0 hours 35 minutes 9 seconds 891 msec
