                         Program Version 3.0.3 - RELEASE   -
|  1> ! RI-MP2 RIJK def2-TZVP def2-TZVP/C def2-TZVP/JK TIGHTSCF
|  2> % maxcore 2000
|  3> % mp2 density relaxed end
|  4> *xyz 0 1
|  5>  C        0.0596885016    -1.2118310961     0.1357516835
|  6>  C       -0.0053298674    -0.0111929438     0.0633008715
|  7>  C       -0.0453119172     1.4160486884    -0.0096076648
|  8>  C       -1.2397173330     2.0586246349    -0.0603495328
|  9>  C       -1.3437915406     3.5561488448     0.0120853732
| 10>  C       -0.7379678427     4.1276868581    -1.2463492439
| 11>  C        0.5788894879     4.0221634378    -1.5020582827
| 12>  C        1.5152113122     3.2469182725    -0.7211852501
| 13>  C        1.2432492264     2.0978452570    -0.0509905973
| 14>  H        0.1052963516    -2.2707890384     0.1957039561
| 15>  H       -2.1488207569     1.4716059799    -0.1441798625
| 16>  H       -2.3844253283     3.8669153683     0.1248287446
| 17>  H       -0.7857269058     3.9233149349     0.8850557877
| 18>  H       -1.3873475666     4.6440597133    -1.9475562368
| 19>  H        0.9878595021     4.5406565751    -2.3665319695
| 20>  H        2.5579744727     3.5525863889    -0.7708966795
| 21>  H        2.0761929839     1.5545316944     0.3860502531
| 22> *
| 23>
| 24>                          ****END OF INPUT****

CARTESIAN COORDINATES (ANGSTROEM)
---------------------------------
  C      0.059689   -1.211831    0.135752
  C     -0.005330   -0.011193    0.063301
  C     -0.045312    1.416049   -0.009608
  C     -1.239717    2.058625   -0.060350
  C     -1.343792    3.556149    0.012085
  C     -0.737968    4.127687   -1.246349
  C      0.578889    4.022163   -1.502058
  C      1.515211    3.246918   -0.721185
  C      1.243249    2.097845   -0.050991
  H      0.105296   -2.270789    0.195704
  H     -2.148821    1.471606   -0.144180
  H     -2.384425    3.866915    0.124829
  H     -0.785727    3.923315    0.885056
  H     -1.387348    4.644060   -1.947556
  H      0.987860    4.540657   -2.366532
  H      2.557974    3.552586   -0.770897
  H      2.076193    1.554532    0.386050

 Total Charge           Charge          ....    0
 Multiplicity           Mult            ....    1
 Number of Electrons    NEL             ....   62
 Basis Dimension        Dim             ....  327

ORBITAL ENERGIES
----------------

  NO   OCC          E(Eh)            E(eV)
   0   2.0000     -11.257462      -306.3311
   1   2.0000     -11.252695      -306.2014
   2   2.0000     -11.244082      -305.9670
   3   2.0000     -11.243295      -305.9456
   4   2.0000     -11.241386      -305.8937
   5   2.0000     -11.240085      -305.8583
   6   2.0000     -11.234482      -305.7058
   7   2.0000     -11.232925      -305.6634
   8   2.0000     -11.222552      -305.3812
   9   2.0000      -1.150670       -31.3113
  10   2.0000      -1.076363       -29.2893
  11   2.0000      -1.045528       -28.4503
  12   2.0000      -1.005829       -27.3700
  13   2.0000      -0.916966       -24.9519
  14   2.0000      -0.869902       -23.6712
  15   2.0000      -0.768797       -20.9200
  16   2.0000      -0.734263       -19.9803
  17   2.0000      -0.700801       -19.0698
  18   2.0000      -0.692431       -18.8420
  19   2.0000      -0.636843       -17.3294
  20   2.0000      -0.624638       -16.9973
  21   2.0000      -0.599780       -16.3208
  22   2.0000      -0.554348       -15.0846
  23   2.0000      -0.539882       -14.6909
  24   2.0000      -0.517367       -14.0783
  25   2.0000      -0.501481       -13.6460
  26   2.0000      -0.467316       -12.7163
  27   2.0000      -0.414825       -11.2880
  28   2.0000      -0.393672       -10.7124
  29   2.0000      -0.335732        -9.1357
  30   2.0000      -0.309082        -8.4106
  31   0.0000       0.086369         2.3502
  32   0.0000       0.120781         3.2866
  33   0.0000       0.144867         3.9420
  34   0.0000       0.167084         4.5466
  35   0.0000       0.168777         4.5927

MULLIKEN ATOMIC CHARGES
-----------------------
   0 C :   -0.108837
   1 C :    0.006406
   2 C :   -0.013285
   3 C :   -0.169545
   4 C :   -0.163829
   5 C :   -0.138170
   6 C :   -0.165425
   7 C :   -0.072394
   8 C :   -0.283155
   9 H :    0.191367
  10 H :    0.136956
  11 H :    0.134895
  12 H :    0.129882
  13 H :    0.128190
  14 H :    0.126110
  15 H :    0.127184
  16 H :    0.133648
Sum of atomic charges:   -0.0000000

LOEWDIN ATOMIC CHARGES
----------------------
   0 C :   -0.085148
   1 C :   -0.065507
   2 C :   -0.157493
   3 C :   -0.080861
   4 C :   -0.241415
   5 C :   -0.133666
   6 C :   -0.166587
   7 C :   -0.143703
   8 C :   -0.104604
   9 H :    0.127093
  10 H :    0.149441
  11 H :    0.144990
  12 H :    0.157094
  13 H :    0.142024
  14 H :    0.151464
  15 H :    0.150846
  16 H :    0.156030

  Mayer bond orders larger than 0.1
B(  0-C ,  1-C ) :   2.5599 B(  0-C ,  2-C ) :  -0.1557 B(  0-C ,  9-H ) :   0.8863
B(  1-C ,  2-C ) :   1.1070 B(  2-C ,  3-C ) :   1.5851 B(  2-C ,  8-C ) :   1.0385
B(  3-C ,  4-C ) :   0.9161 B(  3-C , 10-H ) :   0.9219 B(  4-C ,  5-C ) :   0.9171
B(  4-C , 11-H ) :   0.9339 B(  4-C , 12-H ) :   0.9074 B(  5-C ,  6-C ) :   1.6918
B(  5-C , 13-H ) :   0.9216 B(  6-C ,  7-C ) :   1.0573 B(  6-C , 14-H ) :   0.9212
B(  7-C ,  8-C ) :   1.6283 B(  7-C , 15-H ) :   0.9252 B(  8-C , 16-H ) :   0.9231

MP2 TOTAL ENERGY:     -346.868827701 Eh
FINAL SINGLE POINT ENERGY      -346.868827700702

DIPOLE MOMENT
-------------
                                X             Y             Z
Electronic contribution:      0.77103      -3.31448       0.46376
Nuclear contribution   :     -0.87405       3.60148      -0.55317
                        -----------------------------------------
Total Dipole Moment    :     -0.10303       0.28701      -0.08941
                        -----------------------------------------
Magnitude (a.u.)       :      0.31778
Magnitude (Debye)      :      0.80773

                             ****ORCA TERMINATED NORMALLY****
TOTAL RUN TIME: 0 days 0 hours 17 minutes 43 seconds 318 msec
