                         Program Version 3.0.3 - RELEASE   -
|  1> ! RI-MP2 RIJK def2-TZVP def2-TZVP/C def2-TZVP/JK TIGHTSCF
|  2> % maxcore 2000
|  3> % mp2 density relaxed end
|  4> *xyz 0 1
|  5>  N       -0.0160941899     1.3644766710     0.0687631630
|  6>  C       -0.0278605266    -0.0021063419     0.0402546548
|  7>  N       -1.0802123088    -0.7416829082     0.0152240408
|  8>  C       -0.5461570233    -2.1228941277    -0.0064056471
|  9>  C        0.1177993320    -2.3084577594    -1.3858916004
| 10>  O        1.2810218261    -1.4474796630    -1.3055266228
| 11>  C        1.2334330892    -0.8565527067     0.0095313548
| 12>  C        0.7314607944    -2.0418238822     0.8658169852
| 13>  O        0.4283551487    -1.7783502231     2.2108396833
| 14>  H        0.7986281822     1.8226090648    -0.3070993494
| 15>  H       -0.8925613879     1.8079345303    -0.1683546690
| 16>  H       -1.2893632762    -2.8701431358     0.2672996661
| 17>  H        0.4452022211    -3.3370712630    -1.5783597705
| 18>  H       -0.5376728686    -1.9739001322    -2.1960942662
| 19>  H        2.1980129946    -0.3966025150     0.2270580057
| 20>  H        1.3896794640    -2.9138377718     0.7514456157
| 21>  H        1.2554284089    -1.6984682462     2.6957021360
| 22> *
| 23>
| 24>                          ****END OF INPUT****

CARTESIAN COORDINATES (ANGSTROEM)
---------------------------------
  N     -0.016094    1.364477    0.068763
  C     -0.027861   -0.002106    0.040255
  N     -1.080212   -0.741683    0.015224
  C     -0.546157   -2.122894   -0.006406
  C      0.117799   -2.308458   -1.385892
  O      1.281022   -1.447480   -1.305527
  C      1.233433   -0.856553    0.009531
  C      0.731461   -2.041824    0.865817
  O      0.428355   -1.778350    2.210840
  H      0.798628    1.822609   -0.307099
  H     -0.892561    1.807935   -0.168355
  H     -1.289363   -2.870143    0.267300
  H      0.445202   -3.337071   -1.578360
  H     -0.537673   -1.973900   -2.196094
  H      2.198013   -0.396603    0.227058
  H      1.389679   -2.913838    0.751446
  H      1.255428   -1.698468    2.695702

 Total Charge           Charge          ....    0
 Multiplicity           Mult            ....    1
 Number of Electrons    NEL             ....   68
 Basis Dimension        Dim             ....  327

ORBITAL ENERGIES
----------------

  NO   OCC          E(Eh)            E(eV)
   0   2.0000     -20.568099      -559.6864
   1   2.0000     -20.564628      -559.5920
   2   2.0000     -15.577827      -423.8942
   3   2.0000     -15.524688      -422.4482
   4   2.0000     -11.307016      -307.6795
   5   2.0000     -11.297523      -307.4212
   6   2.0000     -11.291302      -307.2519
   7   2.0000     -11.275143      -306.8122
   8   2.0000     -11.257016      -306.3190
   9   2.0000      -1.398578       -38.0572
  10   2.0000      -1.370710       -37.2989
  11   2.0000      -1.265222       -34.4285
  12   2.0000      -1.181030       -32.1375
  13   2.0000      -1.010447       -27.4957
  14   2.0000      -1.006485       -27.3878
  15   2.0000      -0.857223       -23.3262
  16   2.0000      -0.815334       -22.1864
  17   2.0000      -0.754199       -20.5228
  18   2.0000      -0.731178       -19.8964
  19   2.0000      -0.715995       -19.4832
  20   2.0000      -0.689344       -18.7580
  21   2.0000      -0.653759       -17.7897
  22   2.0000      -0.633016       -17.2252
  23   2.0000      -0.602088       -16.3836
  24   2.0000      -0.568671       -15.4743
  25   2.0000      -0.554737       -15.0952
  26   2.0000      -0.541111       -14.7244
  27   2.0000      -0.520668       -14.1681
  28   2.0000      -0.510937       -13.9033
  29   2.0000      -0.480802       -13.0833
  30   2.0000      -0.476434       -12.9644
  31   2.0000      -0.427374       -11.6294
  32   2.0000      -0.388313       -10.5665
  33   2.0000      -0.351808        -9.5732
  34   0.0000       0.124452         3.3865
  35   0.0000       0.137020         3.7285
  36   0.0000       0.157112         4.2752
  37   0.0000       0.167255         4.5513
  38   0.0000       0.183983         5.0064

MULLIKEN ATOMIC CHARGES
-----------------------
   0 N :   -0.500237
   1 C :    0.120210
   2 N :   -0.260192
   3 C :    0.042712
   4 C :   -0.092391
   5 O :   -0.329735
   6 C :    0.086327
   7 C :   -0.057563
   8 O :   -0.451635
   9 H :    0.258282
  10 H :    0.259797
  11 H :    0.135623
  12 H :    0.111699
  13 H :    0.113068
  14 H :    0.133672
  15 H :    0.109246
  16 H :    0.321117
Sum of atomic charges:   -0.0000000

LOEWDIN ATOMIC CHARGES
----------------------
   0 N :   -0.035863
   1 C :   -0.349698
   2 N :    0.106297
   3 C :   -0.252050
   4 C :   -0.259318
   5 O :    0.154867
   6 C :   -0.259586
   7 C :   -0.309681
   8 O :    0.007856
   9 H :    0.172188
  10 H :    0.175358
  11 H :    0.143676
  12 H :    0.123105
  13 H :    0.126323
  14 H :    0.138682
  15 H :    0.138352
  16 H :    0.179493

  Mayer bond orders larger than 0.1
B(  0-N ,  1-C ) :   1.1148 B(  0-N ,  9-H ) :   0.8718 B(  0-N , 10-H ) :   0.8645
B(  1-C ,  2-N ) :   1.8230 B(  1-C ,  6-C ) :   0.9203 B(  2-N ,  3-C ) :   0.9771
B(  3-C ,  4-C ) :   0.9320 B(  3-C ,  7-C ) :   0.9035 B(  3-C , 11-H ) :   0.9142
B(  4-C ,  5-O ) :   0.9119 B(  4-C , 12-H ) :   0.9257 B(  4-C , 13-H ) :   0.9187
B(  5-O ,  6-C ) :   0.9134 B(  6-C ,  7-C ) :   0.9207 B(  6-C , 14-H ) :   0.8940
B(  7-C ,  8-O ) :   1.0601 B(  7-C , 15-H ) :   0.9464 B(  8-O , 16-H ) :   0.8418

MP2 TOTAL ENERGY:     -454.417359985 Eh
FINAL SINGLE POINT ENERGY      -454.417359985106

DIPOLE MOMENT
-------------
                                X             Y             Z
Electronic contribution:     -0.21949       0.96080       0.81937
Nuclear contribution   :      1.20507      -0.73329      -0.84227
                        -----------------------------------------
Total Dipole Moment    :      0.98558       0.22751      -0.02290
                        -----------------------------------------
Magnitude (a.u.)       :      1.01176
Magnitude (Debye)      :      2.57168

                             ****ORCA TERMINATED NORMALLY****
TOTAL RUN TIME: 0 days 0 hours 20 minutes 54 seconds 241 msec
