                         Program Version 3.0.3 - RELEASE   -
|  1> ! RI-MP2 RIJK def2-TZVP def2-TZVP/C def2-TZVP/JK TIGHTSCF
|  2> % maxcore 2000
|  3> % mp2 density relaxed end
|  4> *xyz 0 1
|  5>  O        0.0111159440     1.4023920205     0.0953575539
|  6>  C        0.0341159829    -0.0081540349     0.0764033603
|  7>  C       -1.3619964415    -0.6015706467    -0.0710772580
|  8>  C       -1.3900057377    -2.1230838102    -0.1241582752
|  9>  C       -2.8377299816    -2.6180320519    -0.0719357379
| 10>  C       -3.5117386880    -2.0812639697     1.1965281429
| 11>  C       -3.3349076861    -0.5920815348     1.3761145025
| 12>  N       -4.2394288194     0.1264306751     1.8918451329
| 13>  O       -2.1053385458    -0.0753186997     1.0561485629
| 14>  H       -0.6282614968     1.6508269949     0.7730085003
| 15>  H        0.6471997429    -0.3074304354    -0.7800985655
| 16>  H        0.4987432731    -0.4211903347     0.9867906910
| 17>  H       -1.8224897453    -0.1900763211    -0.9813234454
| 18>  H       -0.8909089254    -2.4527810687    -1.0417630284
| 19>  H       -0.8226035484    -2.5320981595     0.7219672908
| 20>  H       -3.3784099958    -2.2680166761    -0.9603912701
| 21>  H       -2.8790093427    -3.7112487986    -0.0853346525
| 22>  H       -4.5801938795    -2.2985578595     1.2279210753
| 23>  H       -3.0564918995    -2.5659296710     2.0713665026
| 24>  H       -3.9186881994     1.0949701720     1.9619591574
| 25> *
| 26>
| 27>                          ****END OF INPUT****

CARTESIAN COORDINATES (ANGSTROEM)
---------------------------------
  O      0.011116    1.402392    0.095358
  C      0.034116   -0.008154    0.076403
  C     -1.361996   -0.601571   -0.071077
  C     -1.390006   -2.123084   -0.124158
  C     -2.837730   -2.618032   -0.071936
  C     -3.511739   -2.081264    1.196528
  C     -3.334908   -0.592082    1.376115
  N     -4.239429    0.126431    1.891845
  O     -2.105339   -0.075319    1.056149
  H     -0.628261    1.650827    0.773009
  H      0.647200   -0.307430   -0.780099
  H      0.498743   -0.421190    0.986791
  H     -1.822490   -0.190076   -0.981323
  H     -0.890909   -2.452781   -1.041763
  H     -0.822604   -2.532098    0.721967
  H     -3.378410   -2.268017   -0.960391
  H     -2.879009   -3.711249   -0.085335
  H     -4.580194   -2.298558    1.227921
  H     -3.056492   -2.565930    2.071367
  H     -3.918688    1.094970    1.961959

 Total Charge           Charge          ....    0
 Multiplicity           Mult            ....    1
 Number of Electrons    NEL             ....   70
 Basis Dimension        Dim             ....  345

ORBITAL ENERGIES
----------------

  NO   OCC          E(Eh)            E(eV)
   0   2.0000     -20.592449      -560.3490
   1   2.0000     -20.558014      -559.4120
   2   2.0000     -15.533908      -422.6991
   3   2.0000     -11.337615      -308.5122
   4   2.0000     -11.302726      -307.5628
   5   2.0000     -11.284760      -307.0739
   6   2.0000     -11.245354      -306.0016
   7   2.0000     -11.244743      -305.9850
   8   2.0000     -11.243080      -305.9398
   9   2.0000      -1.425025       -38.7769
  10   2.0000      -1.364041       -37.1174
  11   2.0000      -1.198211       -32.6050
  12   2.0000      -1.105515       -30.0826
  13   2.0000      -1.038322       -28.2542
  14   2.0000      -0.946138       -25.7457
  15   2.0000      -0.862036       -23.4572
  16   2.0000      -0.848578       -23.0910
  17   2.0000      -0.762306       -20.7434
  18   2.0000      -0.707678       -19.2569
  19   2.0000      -0.690584       -18.7917
  20   2.0000      -0.683701       -18.6045
  21   2.0000      -0.637974       -17.3602
  22   2.0000      -0.620360       -16.8808
  23   2.0000      -0.609010       -16.5720
  24   2.0000      -0.596270       -16.2253
  25   2.0000      -0.585272       -15.9261
  26   2.0000      -0.576856       -15.6970
  27   2.0000      -0.517570       -14.0838
  28   2.0000      -0.513331       -13.9685
  29   2.0000      -0.504819       -13.7368
  30   2.0000      -0.491008       -13.3610
  31   2.0000      -0.464707       -12.6453
  32   2.0000      -0.449807       -12.2399
  33   2.0000      -0.432213       -11.7611
  34   2.0000      -0.401642       -10.9292
  35   0.0000       0.120602         3.2817
  36   0.0000       0.148717         4.0468
  37   0.0000       0.150943         4.1074
  38   0.0000       0.153626         4.1804
  39   0.0000       0.171315         4.6617

MULLIKEN ATOMIC CHARGES
-----------------------
   0 O :   -0.476044
   1 C :    0.022144
   2 C :    0.018181
   3 C :   -0.252954
   4 C :   -0.197583
   5 C :   -0.169498
   6 C :    0.081341
   7 N :   -0.354074
   8 O :   -0.297876
   9 H :    0.327175
  10 H :    0.108139
  11 H :    0.098536
  12 H :    0.095160
  13 H :    0.135138
  14 H :    0.116441
  15 H :    0.120886
  16 H :    0.132992
  17 H :    0.148752
  18 H :    0.128406
  19 H :    0.214738
Sum of atomic charges:    0.0000000

LOEWDIN ATOMIC CHARGES
----------------------
   0 O :   -0.040495
   1 C :   -0.331236
   2 C :   -0.302294
   3 C :   -0.245241
   4 C :   -0.257837
   5 C :   -0.223248
   6 C :   -0.407218
   7 N :   -0.049864
   8 O :    0.229931
   9 H :    0.177039
  10 H :    0.134134
  11 H :    0.121841
  12 H :    0.146124
  13 H :    0.147448
  14 H :    0.144683
  15 H :    0.142045
  16 H :    0.139725
  17 H :    0.154208
  18 H :    0.155625
  19 H :    0.164630

  Mayer bond orders larger than 0.1
B(  0-O ,  1-C ) :   0.9369 B(  0-O ,  9-H ) :   0.8324 B(  1-C ,  2-C ) :   0.9488
B(  1-C , 10-H ) :   0.9216 B(  1-C , 11-H ) :   0.9193 B(  2-C ,  3-C ) :   0.9395
B(  2-C ,  8-O ) :   0.8248 B(  2-C , 12-H ) :   0.9230 B(  3-C ,  4-C ) :   0.9074
B(  3-C , 13-H ) :   0.9212 B(  3-C , 14-H ) :   0.9193 B(  4-C ,  5-C ) :   0.9191
B(  4-C , 15-H ) :   0.9295 B(  4-C , 16-H ) :   0.9329 B(  5-C ,  6-C ) :   0.9244
B(  5-C , 17-H ) :   0.9185 B(  5-C , 18-H ) :   0.9189 B(  6-C ,  7-N ) :   2.0657
B(  6-C ,  8-O ) :   1.0659 B(  7-N , 19-H ) :   0.8566

MP2 TOTAL ENERGY:     -439.590915597 Eh
FINAL SINGLE POINT ENERGY      -439.590915597279

DIPOLE MOMENT
-------------
                                X             Y             Z
Electronic contribution:     -1.06633       5.10085       2.13868
Nuclear contribution   :      1.47570      -6.10133      -2.52905
                        -----------------------------------------
Total Dipole Moment    :      0.40937      -1.00049      -0.39037
                        -----------------------------------------
Magnitude (a.u.)       :      1.14932
Magnitude (Debye)      :      2.92135

                             ****ORCA TERMINATED NORMALLY****
TOTAL RUN TIME: 0 days 0 hours 17 minutes 32 seconds 308 msec
