                         Program Version 3.0.3 - RELEASE   -
|  1> ! RI-MP2 RIJK def2-TZVP def2-TZVP/C def2-TZVP/JK TIGHTSCF
|  2> % maxcore 2000
|  3> % mp2 density relaxed end
|  4> *xyz 0 1
|  5>  C        0.1322333736     1.4125807100     0.2134992652
|  6>  C       -0.1518109887    -0.0672164512     0.1137713658
|  7>  O       -0.6669206743    -0.7419234131     0.9693213066
|  8>  O        0.2549593552    -0.5509983165    -1.0810916901
|  9>  C        0.0548702098    -1.9516237372    -1.2951364122
| 10>  C       -1.3321854251    -2.4272667982    -1.7812371463
| 11>  C       -0.5898446665    -3.3645059358    -2.7763776361
| 12>  C        0.6787763335    -2.4809758438    -2.5976451818
| 13>  H        1.2052759845     1.5960567113     0.1072976234
| 14>  H       -0.3696157072     1.9467340946    -0.5982326657
| 15>  H       -0.2154719276     1.7852217332     1.1761498145
| 16>  H        0.3799418018    -2.4966239568    -0.4063478227
| 17>  H       -2.0026378952    -2.8657689438    -1.0411083337
| 18>  H       -1.8497531264    -1.6180051325    -2.3044162349
| 19>  H       -0.4507826368    -4.3683274280    -2.3669682493
| 20>  H       -0.9992531931    -3.4534854521    -3.7838803462
| 21>  H        0.7205024046    -1.6854821992    -3.3466868358
| 22>  H        1.6545451679    -2.9673488907    -2.5373226210
| 23> *
| 24>
| 25>                          ****END OF INPUT****

CARTESIAN COORDINATES (ANGSTROEM)
---------------------------------
  C      0.132233    1.412581    0.213499
  C     -0.151811   -0.067216    0.113771
  O     -0.666921   -0.741923    0.969321
  O      0.254959   -0.550998   -1.081092
  C      0.054870   -1.951624   -1.295136
  C     -1.332185   -2.427267   -1.781237
  C     -0.589845   -3.364506   -2.776378
  C      0.678776   -2.480976   -2.597645
  H      1.205276    1.596057    0.107298
  H     -0.369616    1.946734   -0.598233
  H     -0.215472    1.785222    1.176150
  H      0.379942   -2.496624   -0.406348
  H     -2.002638   -2.865769   -1.041108
  H     -1.849753   -1.618005   -2.304416
  H     -0.450783   -4.368327   -2.366968
  H     -0.999253   -3.453485   -3.783880
  H      0.720502   -1.685482   -3.346687
  H      1.654545   -2.967349   -2.537323

 Total Charge           Charge          ....    0
 Multiplicity           Mult            ....    1
 Number of Electrons    NEL             ....   62
 Basis Dimension        Dim             ....  308

ORBITAL ENERGIES
----------------

  NO   OCC          E(Eh)            E(eV)
   0   2.0000     -20.596153      -560.4498
   1   2.0000     -20.539417      -558.9060
   2   2.0000     -11.377134      -309.5876
   3   2.0000     -11.287254      -307.1418
   4   2.0000     -11.239261      -305.8358
   5   2.0000     -11.228159      -305.5337
   6   2.0000     -11.226850      -305.4981
   7   2.0000     -11.223947      -305.4191
   8   2.0000      -1.455739       -39.6127
   9   2.0000      -1.356714       -36.9181
  10   2.0000      -1.134305       -30.8660
  11   2.0000      -1.018553       -27.7162
  12   2.0000      -0.910585       -24.7783
  13   2.0000      -0.902237       -24.5511
  14   2.0000      -0.792672       -21.5697
  15   2.0000      -0.760384       -20.6911
  16   2.0000      -0.692479       -18.8433
  17   2.0000      -0.677160       -18.4265
  18   2.0000      -0.664367       -18.0784
  19   2.0000      -0.636457       -17.3189
  20   2.0000      -0.602599       -16.3976
  21   2.0000      -0.575277       -15.6541
  22   2.0000      -0.567031       -15.4297
  23   2.0000      -0.546347       -14.8669
  24   2.0000      -0.529371       -14.4049
  25   2.0000      -0.497344       -13.5334
  26   2.0000      -0.487306       -13.2603
  27   2.0000      -0.469989       -12.7890
  28   2.0000      -0.455741       -12.4013
  29   2.0000      -0.440679       -11.9915
  30   2.0000      -0.432260       -11.7624
  31   0.0000       0.137930         3.7533
  32   0.0000       0.146741         3.9930
  33   0.0000       0.164922         4.4877
  34   0.0000       0.170836         4.6487
  35   0.0000       0.179715         4.8903

MULLIKEN ATOMIC CHARGES
-----------------------
   0 C :   -0.395529
   1 C :    0.323452
   2 O :   -0.337391
   3 O :   -0.256049
   4 C :    0.026791
   5 C :   -0.225709
   6 C :   -0.236162
   7 C :   -0.181526
   8 H :    0.149333
   9 H :    0.148372
  10 H :    0.153386
  11 H :    0.104615
  12 H :    0.133752
  13 H :    0.110311
  14 H :    0.120042
  15 H :    0.121506
  16 H :    0.118019
  17 H :    0.122787
Sum of atomic charges:   -0.0000000

LOEWDIN ATOMIC CHARGES
----------------------
   0 C :   -0.273419
   1 C :   -0.498412
   2 O :    0.119049
   3 O :    0.261420
   4 C :   -0.273708
   5 C :   -0.222428
   6 C :   -0.239878
   7 C :   -0.221152
   8 H :    0.138922
   9 H :    0.138351
  10 H :    0.135222
  11 H :    0.144309
  12 H :    0.128698
  13 H :    0.139271
  14 H :    0.133587
  15 H :    0.124211
  16 H :    0.140954
  17 H :    0.125004

  Mayer bond orders larger than 0.1
B(  0-C ,  1-C ) :   0.9252 B(  0-C ,  8-H ) :   0.9163 B(  0-C ,  9-H ) :   0.9174
B(  0-C , 10-H ) :   0.9444 B(  1-C ,  2-O ) :   1.9294 B(  1-C ,  3-O ) :   1.0832
B(  3-O ,  4-C ) :   0.8805 B(  4-C ,  5-C ) :   0.9474 B(  4-C ,  7-C ) :   0.9081
B(  4-C , 11-H ) :   0.9490 B(  5-C ,  6-C ) :   0.9344 B(  5-C , 12-H ) :   0.9275
B(  5-C , 13-H ) :   0.9170 B(  6-C ,  7-C ) :   0.9214 B(  6-C , 14-H ) :   0.9288
B(  6-C , 15-H ) :   0.9291 B(  7-C , 16-H ) :   0.9178 B(  7-C , 17-H ) :   0.9315

MP2 TOTAL ENERGY:     -384.331795631 Eh
FINAL SINGLE POINT ENERGY      -384.331795630945

DIPOLE MOMENT
-------------
                                X             Y             Z
Electronic contribution:      0.17549       1.74638       4.07237
Nuclear contribution   :      0.08569      -1.60001      -4.72246
                        -----------------------------------------
Total Dipole Moment    :      0.26118       0.14637      -0.65009
                        -----------------------------------------
Magnitude (a.u.)       :      0.71572
Magnitude (Debye)      :      1.81922

                             ****ORCA TERMINATED NORMALLY****
TOTAL RUN TIME: 0 days 0 hours 11 minutes 35 seconds 750 msec
