                         Program Version 3.0.3 - RELEASE   -
|  1> ! RI-MP2 RIJK def2-TZVP def2-TZVP/C def2-TZVP/JK TIGHTSCF
|  2> % maxcore 2000
|  3> % mp2 density relaxed end
|  4> *xyz 0 1
|  5>  C        0.0294979452     1.5764481977     0.0725074964
|  6>  C        0.0028664800     0.0358931662     0.0409433212
|  7>  C        0.7736341348    -0.5073342788     1.1566154907
|  8>  C        1.4292046552    -0.9231832649     2.0744483567
|  9>  C       -1.4666335943    -0.5297583558     0.0239724757
| 10>  C       -1.4747362470    -2.0621260776     0.0808266081
| 11>  O       -2.1887444491    -0.0936795496     1.1740211846
| 12>  C       -2.1365182727    -0.0711087277    -1.2042824074
| 13>  C       -2.6932462129     0.3169908372    -2.1970710756
| 14>  H        1.0589782102     1.9376000948     0.0198929948
| 15>  H       -0.5290390480     1.9870666966    -0.7726753060
| 16>  H       -0.4032992918     1.9477047640     1.0058080590
| 17>  H        0.4672321940    -0.2971006785    -0.8965493548
| 18>  H        2.0045373131    -1.2989295614     2.8839967671
| 19>  H       -1.0288768024    -2.3889599507     1.0219785848
| 20>  H       -2.5031743682    -2.4239423899     0.0252699435
| 21>  H       -0.9047859979    -2.4829795074    -0.7512726454
| 22>  H       -2.4366629431     0.8272338138     1.0419787018
| 23>  H       -3.1916860349     0.6499207018    -3.0742092753
| 24> *
| 25>
| 26>                          ****END OF INPUT****

CARTESIAN COORDINATES (ANGSTROEM)
---------------------------------
  C      0.029498    1.576448    0.072507
  C      0.002866    0.035893    0.040943
  C      0.773634   -0.507334    1.156615
  C      1.429205   -0.923183    2.074448
  C     -1.466634   -0.529758    0.023972
  C     -1.474736   -2.062126    0.080827
  O     -2.188744   -0.093680    1.174021
  C     -2.136518   -0.071109   -1.204282
  C     -2.693246    0.316991   -2.197071
  H      1.058978    1.937600    0.019893
  H     -0.529039    1.987067   -0.772675
  H     -0.403299    1.947705    1.005808
  H      0.467232   -0.297101   -0.896549
  H      2.004537   -1.298930    2.883997
  H     -1.028877   -2.388960    1.021979
  H     -2.503174   -2.423942    0.025270
  H     -0.904786   -2.482980   -0.751273
  H     -2.436663    0.827234    1.041979
  H     -3.191686    0.649921   -3.074209

 Total Charge           Charge          ....    0
 Multiplicity           Mult            ....    1
 Number of Electrons    NEL             ....   66
 Basis Dimension        Dim             ....  339

ORBITAL ENERGIES
----------------

  NO   OCC          E(Eh)            E(eV)
   0   2.0000     -20.565988      -559.6290
   1   2.0000     -11.325712      -308.1883
   2   2.0000     -11.267077      -306.5928
   3   2.0000     -11.242216      -305.9163
   4   2.0000     -11.236659      -305.7650
   5   2.0000     -11.232143      -305.6421
   6   2.0000     -11.228029      -305.5302
   7   2.0000     -11.220577      -305.3274
   8   2.0000     -11.219731      -305.3044
   9   2.0000      -1.377632       -37.4873
  10   2.0000      -1.115844       -30.3637
  11   2.0000      -1.051957       -28.6252
  12   2.0000      -1.002661       -27.2838
  13   2.0000      -0.994893       -27.0724
  14   2.0000      -0.888186       -24.1688
  15   2.0000      -0.848354       -23.0849
  16   2.0000      -0.749276       -20.3888
  17   2.0000      -0.722926       -19.6718
  18   2.0000      -0.701355       -19.0848
  19   2.0000      -0.664359       -18.0781
  20   2.0000      -0.644673       -17.5424
  21   2.0000      -0.608819       -16.5668
  22   2.0000      -0.569306       -15.4916
  23   2.0000      -0.553222       -15.0539
  24   2.0000      -0.541034       -14.7223
  25   2.0000      -0.529385       -14.4053
  26   2.0000      -0.523865       -14.2551
  27   2.0000      -0.510239       -13.8843
  28   2.0000      -0.464602       -12.6425
  29   2.0000      -0.411481       -11.1970
  30   2.0000      -0.404843       -11.0163
  31   2.0000      -0.385681       -10.4949
  32   2.0000      -0.377661       -10.2767
  33   0.0000       0.126434         3.4405
  34   0.0000       0.153748         4.1837
  35   0.0000       0.155027         4.2185
  36   0.0000       0.162999         4.4354
  37   0.0000       0.166290         4.5250

MULLIKEN ATOMIC CHARGES
-----------------------
   0 C :   -0.454136
   1 C :   -0.133557
   2 C :   -0.024812
   3 C :   -0.148347
   4 C :    0.140400
   5 C :   -0.386836
   6 O :   -0.455121
   7 C :   -0.112024
   8 C :   -0.124409
   9 H :    0.147129
  10 H :    0.154281
  11 H :    0.135908
  12 H :    0.123168
  13 H :    0.189167
  14 H :    0.160143
  15 H :    0.141873
  16 H :    0.129163
  17 H :    0.322923
  18 H :    0.195088
Sum of atomic charges:   -0.0000000

LOEWDIN ATOMIC CHARGES
----------------------
   0 C :   -0.272428
   1 C :   -0.221948
   2 C :   -0.085741
   3 C :   -0.096109
   4 C :   -0.362397
   5 C :   -0.241514
   6 O :    0.036135
   7 C :   -0.074958
   8 C :   -0.084676
   9 H :    0.131280
  10 H :    0.130130
  11 H :    0.126688
  12 H :    0.177463
  13 H :    0.126641
  14 H :    0.137836
  15 H :    0.133071
  16 H :    0.132570
  17 H :    0.179030
  18 H :    0.128926

  Mayer bond orders larger than 0.1
B(  0-C ,  1-C ) :   0.8630 B(  0-C ,  9-H ) :   0.9329 B(  0-C , 10-H ) :   0.9329
B(  0-C , 11-H ) :   0.9374 B(  1-C ,  2-C ) :   1.0835 B(  1-C ,  4-C ) :   0.9062
B(  1-C , 12-H ) :   0.9193 B(  2-C ,  3-C ) :   2.6321 B(  3-C , 13-H ) :   0.8862
B(  4-C ,  5-C ) :   0.8613 B(  4-C ,  6-O ) :   0.9250 B(  4-C ,  7-C ) :   1.2127
B(  5-C , 14-H ) :   0.9346 B(  5-C , 15-H ) :   0.9353 B(  5-C , 16-H ) :   0.9295
B(  6-O , 17-H ) :   0.8385 B(  7-C ,  8-C ) :   2.5692 B(  8-C , 18-H ) :   0.8784

MP2 TOTAL ENERGY:     -385.139023937 Eh
FINAL SINGLE POINT ENERGY      -385.139023937064

DIPOLE MOMENT
-------------
                                X             Y             Z
Electronic contribution:     -1.27750      -0.41744       0.51639
Nuclear contribution   :      1.34907       0.78579      -1.03771
                        -----------------------------------------
Total Dipole Moment    :      0.07158       0.36835      -0.52132
                        -----------------------------------------
Magnitude (a.u.)       :      0.64232
Magnitude (Debye)      :      1.63265

                             ****ORCA TERMINATED NORMALLY****
TOTAL RUN TIME: 0 days 0 hours 20 minutes 49 seconds 297 msec
