                         Program Version 3.0.3 - RELEASE   -
|  1> ! RI-MP2 RIJK def2-TZVP def2-TZVP/C def2-TZVP/JK TIGHTSCF
|  2> % maxcore 2000
|  3> % mp2 density relaxed end
|  4> *xyz 0 1
|  5>  O       -0.2294751771     1.4961187933    -0.2199620502
|  6>  C        0.0845562617     0.1255025341     0.0019870516
|  7>  C       -1.1791910744    -0.7906003829     0.1882591306
|  8>  C       -1.4426467821    -1.5669057655    -1.1486574531
|  9>  C       -0.1090067886    -1.4455135960    -1.8172151164
| 10>  N        0.5117809592    -1.9587657133    -2.8745189260
| 11>  N        1.6973578190    -1.3373405560    -2.8208922561
| 12>  N        1.8963233341    -0.4729512738    -1.8252092691
| 13>  C        0.7364740083    -0.5378656653    -1.1745932285
| 14>  H       -0.5578941604     1.5840304888    -1.1213413525
| 15>  H        0.6994420535     0.1264976214     0.9053805229
| 16>  H       -0.9743420170    -1.5133066644     0.9839434893
| 17>  H       -2.0298209142    -0.1837692814     0.5056169157
| 18>  H       -1.7485569750    -2.6005202834    -0.9669206051
| 19>  H       -2.2358196464    -1.1027487398    -1.7460561769
| 20>  H        2.4188282894    -1.5313906357    -3.4970520363
| 21> *
| 22>
| 23>                          ****END OF INPUT****

CARTESIAN COORDINATES (ANGSTROEM)
---------------------------------
  O     -0.229475    1.496119   -0.219962
  C      0.084556    0.125503    0.001987
  C     -1.179191   -0.790600    0.188259
  C     -1.442647   -1.566906   -1.148657
  C     -0.109007   -1.445514   -1.817215
  N      0.511781   -1.958766   -2.874519
  N      1.697358   -1.337341   -2.820892
  N      1.896323   -0.472951   -1.825209
  C      0.736474   -0.537866   -1.174593
  H     -0.557894    1.584030   -1.121341
  H      0.699442    0.126498    0.905381
  H     -0.974342   -1.513307    0.983943
  H     -2.029821   -0.183769    0.505617
  H     -1.748557   -2.600520   -0.966921
  H     -2.235820   -1.102749   -1.746056
  H      2.418828   -1.531391   -3.497052

 Total Charge           Charge          ....    0
 Multiplicity           Mult            ....    1
 Number of Electrons    NEL             ....   66
 Basis Dimension        Dim             ....  321

ORBITAL ENERGIES
----------------

  NO   OCC          E(Eh)            E(eV)
   0   2.0000     -20.562007      -559.5207
   1   2.0000     -15.681282      -426.7094
   2   2.0000     -15.623565      -425.1388
   3   2.0000     -15.617715      -424.9796
   4   2.0000     -11.300658      -307.5065
   5   2.0000     -11.263481      -306.4949
   6   2.0000     -11.256262      -306.2985
   7   2.0000     -11.249172      -306.1055
   8   2.0000     -11.239675      -305.8471
   9   2.0000      -1.444764       -39.3140
  10   2.0000      -1.368151       -37.2293
  11   2.0000      -1.196284       -32.5525
  12   2.0000      -1.149309       -31.2743
  13   2.0000      -1.044958       -28.4348
  14   2.0000      -0.961628       -26.1672
  15   2.0000      -0.878281       -23.8992
  16   2.0000      -0.807544       -21.9744
  17   2.0000      -0.794132       -21.6094
  18   2.0000      -0.732426       -19.9303
  19   2.0000      -0.681237       -18.5374
  20   2.0000      -0.671379       -18.2692
  21   2.0000      -0.634970       -17.2784
  22   2.0000      -0.614350       -16.7173
  23   2.0000      -0.601951       -16.3799
  24   2.0000      -0.575599       -15.6628
  25   2.0000      -0.540288       -14.7020
  26   2.0000      -0.514115       -13.9898
  27   2.0000      -0.502672       -13.6784
  28   2.0000      -0.481576       -13.1043
  29   2.0000      -0.471760       -12.8372
  30   2.0000      -0.444486       -12.0951
  31   2.0000      -0.399754       -10.8779
  32   2.0000      -0.366941        -9.9850
  33   0.0000       0.115106         3.1322
  34   0.0000       0.128405         3.4941
  35   0.0000       0.139988         3.8093
  36   0.0000       0.159134         4.3303
  37   0.0000       0.173480         4.7206

MULLIKEN ATOMIC CHARGES
-----------------------
   0 O :   -0.454770
   1 C :    0.109747
   2 C :   -0.237213
   3 C :   -0.229280
   4 C :   -0.012799
   5 N :   -0.179586
   6 N :    0.027424
   7 N :   -0.172739
   8 C :   -0.086849
   9 H :    0.312990
  10 H :    0.119124
  11 H :    0.122392
  12 H :    0.137893
  13 H :    0.140221
  14 H :    0.133403
  15 H :    0.270040
Sum of atomic charges:   -0.0000000

LOEWDIN ATOMIC CHARGES
----------------------
   0 O :   -0.018297
   1 C :   -0.291194
   2 C :   -0.206825
   3 C :   -0.210790
   4 C :   -0.266554
   5 N :    0.047631
   6 N :    0.077352
   7 N :    0.053344
   8 C :   -0.262758
   9 H :    0.175571
  10 H :    0.148219
  11 H :    0.140874
  12 H :    0.137492
  13 H :    0.144422
  14 H :    0.144280
  15 H :    0.187235

  Mayer bond orders larger than 0.1
B(  0-O ,  1-C ) :   0.9388 B(  0-O ,  9-H ) :   0.8418 B(  1-C ,  2-C ) :   0.8977
B(  1-C ,  8-C ) :   0.9500 B(  1-C , 10-H ) :   0.9310 B(  2-C ,  3-C ) :   0.9263
B(  2-C , 11-H ) :   0.9156 B(  2-C , 12-H ) :   0.9357 B(  3-C ,  4-C ) :   0.9304
B(  3-C , 13-H ) :   0.9221 B(  3-C , 14-H ) :   0.9120 B(  4-C ,  5-N ) :   1.5344
B(  4-C ,  8-C ) :   1.3068 B(  5-N ,  6-N ) :   1.1250 B(  6-N ,  7-N ) :   1.1370
B(  6-N , 15-H ) :   0.8702 B(  7-N ,  8-C ) :   1.5270

MP2 TOTAL ENERGY:     -433.358531678 Eh
FINAL SINGLE POINT ENERGY      -433.358531677827

DIPOLE MOMENT
-------------
                                X             Y             Z
Electronic contribution:      5.25978      -0.06324      -4.13150
Nuclear contribution   :     -5.52900      -0.42787       3.82902
                        -----------------------------------------
Total Dipole Moment    :     -0.26922      -0.49112      -0.30248
                        -----------------------------------------
Magnitude (a.u.)       :      0.63653
Magnitude (Debye)      :      1.61794

                             ****ORCA TERMINATED NORMALLY****
TOTAL RUN TIME: 0 days 0 hours 17 minutes 45 seconds 330 msec
