                         Program Version 3.0.3 - RELEASE   -
|  1> ! RI-MP2 RIJK def2-TZVP def2-TZVP/C def2-TZVP/JK TIGHTSCF
|  2> % maxcore 2000
|  3> % mp2 density relaxed end
|  4> *xyz 0 1
|  5>  C       -0.2583165959     1.5718935934    -0.0283570130
|  6>  C       -0.0366713506     0.0613729469    -0.0004090669
|  7>  C       -1.3635484008    -0.6799825873    -0.1999460597
|  8>  C        1.0873962520    -0.5580345795    -0.8873927608
|  9>  N        1.6797302638    -1.3103131027     0.2822325114
| 10>  C        2.1893920852    -0.2821096960     1.2331201299
| 11>  C        2.8653389271     0.9160875102     0.8209394962
| 12>  C        3.5032949649     1.8868846434     0.5061229146
| 13>  C        0.7265036902    -0.5526815202     1.1833362752
| 14>  H        0.6722283230     2.1250328681     0.1066582979
| 15>  H       -0.6989349433     1.8739310135    -0.9856950762
| 16>  H       -0.9541671560     1.8746871435     0.7625823226
| 17>  H       -1.8037328526    -0.4249167353    -1.1702087796
| 18>  H       -1.2253248412    -1.7652849237    -0.1642344920
| 19>  H       -2.0860037457    -0.4050856171     0.5770940873
| 20>  H        0.7284748964    -1.2653938952    -1.6374319756
| 21>  H        1.7877191530     0.1415533738    -1.3512840422
| 22>  H        2.6843323974    -0.7756709364     2.0679615166
| 23>  H        4.0520099937     2.7526522808     0.2280386102
| 24>  H        0.2447719294    -1.0379715102     2.0298039741
| 25> *
| 26>
| 27>                          ****END OF INPUT****

CARTESIAN COORDINATES (ANGSTROEM)
---------------------------------
  C     -0.258317    1.571894   -0.028357
  C     -0.036671    0.061373   -0.000409
  C     -1.363548   -0.679983   -0.199946
  C      1.087396   -0.558035   -0.887393
  N      1.679730   -1.310313    0.282233
  C      2.189392   -0.282110    1.233120
  C      2.865339    0.916088    0.820939
  C      3.503295    1.886885    0.506123
  C      0.726504   -0.552682    1.183336
  H      0.672228    2.125033    0.106658
  H     -0.698935    1.873931   -0.985695
  H     -0.954167    1.874687    0.762582
  H     -1.803733   -0.424917   -1.170209
  H     -1.225325   -1.765285   -0.164234
  H     -2.086004   -0.405086    0.577094
  H      0.728475   -1.265394   -1.637432
  H      1.787719    0.141553   -1.351284
  H      2.684332   -0.775671    2.067962
  H      4.052010    2.752652    0.228039
  H      0.244772   -1.037972    2.029804

 Total Charge           Charge          ....    0
 Multiplicity           Mult            ....    1
 Number of Electrons    NEL             ....   66
 Basis Dimension        Dim             ....  345

ORBITAL ENERGIES
----------------

  NO   OCC          E(Eh)            E(eV)
   0   2.0000     -15.569085      -423.6564
   1   2.0000     -11.286381      -307.1180
   2   2.0000     -11.270028      -306.6730
   3   2.0000     -11.251784      -306.1766
   4   2.0000     -11.247897      -306.0708
   5   2.0000     -11.241963      -305.9094
   6   2.0000     -11.231388      -305.6216
   7   2.0000     -11.220224      -305.3178
   8   2.0000     -11.213523      -305.1355
   9   2.0000      -1.296930       -35.2912
  10   2.0000      -1.079062       -29.3628
  11   2.0000      -1.042441       -28.3663
  12   2.0000      -0.967219       -26.3194
  13   2.0000      -0.936158       -25.4742
  14   2.0000      -0.877944       -23.8901
  15   2.0000      -0.858993       -23.3744
  16   2.0000      -0.737670       -20.0730
  17   2.0000      -0.715950       -19.4820
  18   2.0000      -0.676393       -18.4056
  19   2.0000      -0.661485       -17.9999
  20   2.0000      -0.625748       -17.0275
  21   2.0000      -0.588630       -16.0174
  22   2.0000      -0.574593       -15.6355
  23   2.0000      -0.552083       -15.0229
  24   2.0000      -0.546118       -14.8606
  25   2.0000      -0.529403       -14.4058
  26   2.0000      -0.495876       -13.4935
  27   2.0000      -0.469756       -12.7827
  28   2.0000      -0.460557       -12.5324
  29   2.0000      -0.437658       -11.9093
  30   2.0000      -0.407054       -11.0765
  31   2.0000      -0.393898       -10.7185
  32   2.0000      -0.354693        -9.6517
  33   0.0000       0.133880         3.6431
  34   0.0000       0.150942         4.1073
  35   0.0000       0.159416         4.3379
  36   0.0000       0.165536         4.5045
  37   0.0000       0.176486         4.8024

MULLIKEN ATOMIC CHARGES
-----------------------
   0 C :   -0.414283
   1 C :    0.128523
   2 C :   -0.456512
   3 C :   -0.181025
   4 N :   -0.212267
   5 C :   -0.273457
   6 C :    0.018823
   7 C :   -0.131158
   8 C :   -0.014168
   9 H :    0.155377
  10 H :    0.127468
  11 H :    0.127172
  12 H :    0.137443
  13 H :    0.150570
  14 H :    0.130232
  15 H :    0.126918
  16 H :    0.130430
  17 H :    0.130642
  18 H :    0.191625
  19 H :    0.127648
Sum of atomic charges:   -0.0000000

LOEWDIN ATOMIC CHARGES
----------------------
   0 C :   -0.268889
   1 C :   -0.296647
   2 C :   -0.267379
   3 C :   -0.193938
   4 N :    0.130320
   5 C :   -0.232622
   6 C :   -0.099526
   7 C :   -0.088736
   8 C :   -0.150465
   9 H :    0.131590
  10 H :    0.126915
  11 H :    0.127291
  12 H :    0.127344
  13 H :    0.131353
  14 H :    0.126097
  15 H :    0.130603
  16 H :    0.130793
  17 H :    0.170127
  18 H :    0.128215
  19 H :    0.137554

  Mayer bond orders larger than 0.1
B(  0-C ,  1-C ) :   0.9161 B(  0-C ,  9-H ) :   0.9293 B(  0-C , 10-H ) :   0.9325
B(  0-C , 11-H ) :   0.9343 B(  1-C ,  2-C ) :   0.8958 B(  1-C ,  3-C ) :   0.9434
B(  1-C ,  8-C ) :   0.9200 B(  2-C , 12-H ) :   0.9391 B(  2-C , 13-H ) :   0.9318
B(  2-C , 14-H ) :   0.9368 B(  3-C ,  4-N ) :   0.9109 B(  3-C , 15-H ) :   0.9173
B(  3-C , 16-H ) :   0.9205 B(  4-N ,  5-C ) :   0.9611 B(  4-N ,  8-C ) :   0.8361
B(  5-C ,  6-C ) :   1.0924 B(  5-C ,  7-C ) :  -0.1142 B(  5-C ,  8-C ) :   0.9417
B(  5-C , 17-H ) :   0.9391 B(  6-C ,  7-C ) :   2.5602 B(  7-C , 18-H ) :   0.9017
B(  8-C , 19-H ) :   0.8978

MP2 TOTAL ENERGY:     -365.265809971 Eh
FINAL SINGLE POINT ENERGY      -365.265809971011

DIPOLE MOMENT
-------------
                                X             Y             Z
Electronic contribution:      7.60606      -1.24730       2.60759
Nuclear contribution   :     -8.01381       1.77445      -2.62933
                        -----------------------------------------
Total Dipole Moment    :     -0.40775       0.52715      -0.02174
                        -----------------------------------------
Magnitude (a.u.)       :      0.66680
Magnitude (Debye)      :      1.69488

                             ****ORCA TERMINATED NORMALLY****
TOTAL RUN TIME: 0 days 0 hours 23 minutes 28 seconds 507 msec
