                         Program Version 3.0.3 - RELEASE   -
|  1> ! RI-MP2 RIJK def2-TZVP def2-TZVP/C def2-TZVP/JK TIGHTSCF
|  2> % maxcore 2000
|  3> % mp2 density relaxed end
|  4> *xyz 0 1
|  5>  O       -0.2400959922     0.4841026129    -1.1457237337
|  6>  C       -0.1284939913     1.3457535285    -0.3225958718
|  7>  C       -1.1270236635     2.1911993972     0.4791410250
|  8>  C        0.0625590017     3.1515676739     0.8331681752
|  9>  C        1.0674911062     2.1069346315     0.2661466639
| 10>  C        0.0300510121     4.5298260646     0.1647057772
| 11>  C       -0.6245449242     5.3911470779     1.2524793517
| 12>  C       -0.0223415504     4.7780725988     2.5223407566
| 13>  O        0.2199500608     3.4002741850     2.2229511597
| 14>  H       -1.9898301452     2.5909231252    -0.0605702239
| 15>  H       -1.4734915873     1.6578364175     1.3705157994
| 16>  H        1.5424577124     1.5422043207     1.0753883449
| 17>  H        1.8357036663     2.4478714356    -0.4328725740
| 18>  H        1.0534888598     4.8723828261    -0.0269966140
| 19>  H       -0.5087122965     4.5310666674    -0.7857237382
| 20>  H       -0.4109063030     6.4578021304     1.1535712029
| 21>  H       -1.7119337281     5.2608511497     1.2418404603
| 22>  H        0.9280058109     5.2641047822     2.7863294125
| 23>  H       -0.6867967684     4.8403695250     3.3905333362
| 24> *
| 25>
| 26>                          ****END OF INPUT****

CARTESIAN COORDINATES (ANGSTROEM)
---------------------------------
  O     -0.240096    0.484103   -1.145724
  C     -0.128494    1.345754   -0.322596
  C     -1.127024    2.191199    0.479141
  C      0.062559    3.151568    0.833168
  C      1.067491    2.106935    0.266147
  C      0.030051    4.529826    0.164706
  C     -0.624545    5.391147    1.252479
  C     -0.022342    4.778073    2.522341
  O      0.219950    3.400274    2.222951
  H     -1.989830    2.590923   -0.060570
  H     -1.473492    1.657836    1.370516
  H      1.542458    1.542204    1.075388
  H      1.835704    2.447871   -0.432873
  H      1.053489    4.872383   -0.026997
  H     -0.508712    4.531067   -0.785724
  H     -0.410906    6.457802    1.153571
  H     -1.711934    5.260851    1.241840
  H      0.928006    5.264105    2.786329
  H     -0.686797    4.840370    3.390533

 Total Charge           Charge          ....    0
 Multiplicity           Mult            ....    1
 Number of Electrons    NEL             ....   68
 Basis Dimension        Dim             ....  339

ORBITAL ENERGIES
----------------

  NO   OCC          E(Eh)            E(eV)
   0   2.0000     -20.560151      -559.4702
   1   2.0000     -20.550162      -559.1983
   2   2.0000     -11.331475      -308.3451
   3   2.0000     -11.302172      -307.5477
   4   2.0000     -11.282895      -307.0232
   5   2.0000     -11.240080      -305.8581
   6   2.0000     -11.238717      -305.8210
   7   2.0000     -11.237082      -305.7765
   8   2.0000     -11.236517      -305.7612
   9   2.0000      -1.393929       -37.9307
  10   2.0000      -1.386157       -37.7192
  11   2.0000      -1.134094       -30.8603
  12   2.0000      -1.068514       -29.0757
  13   2.0000      -0.960381       -26.1333
  14   2.0000      -0.935660       -25.4606
  15   2.0000      -0.827667       -22.5220
  16   2.0000      -0.780000       -21.2249
  17   2.0000      -0.727143       -19.7866
  18   2.0000      -0.688991       -18.7484
  19   2.0000      -0.686553       -18.6821
  20   2.0000      -0.647860       -17.6292
  21   2.0000      -0.639609       -17.4047
  22   2.0000      -0.616893       -16.7865
  23   2.0000      -0.598200       -16.2778
  24   2.0000      -0.563875       -15.3438
  25   2.0000      -0.553218       -15.0538
  26   2.0000      -0.546713       -14.8768
  27   2.0000      -0.519033       -14.1236
  28   2.0000      -0.507301       -13.8044
  29   2.0000      -0.491343       -13.3701
  30   2.0000      -0.477629       -12.9969
  31   2.0000      -0.462323       -12.5804
  32   2.0000      -0.418229       -11.3806
  33   2.0000      -0.390546       -10.6273
  34   0.0000       0.123435         3.3588
  35   0.0000       0.130443         3.5495
  36   0.0000       0.149873         4.0783
  37   0.0000       0.155864         4.2413
  38   0.0000       0.176443         4.8012

MULLIKEN ATOMIC CHARGES
-----------------------
   0 O :   -0.250225
   1 C :    0.094437
   2 C :   -0.242059
   3 C :    0.223980
   4 C :   -0.219809
   5 C :   -0.287958
   6 C :   -0.241602
   7 C :   -0.035285
   8 O :   -0.316138
   9 H :    0.134028
  10 H :    0.140892
  11 H :    0.145814
  12 H :    0.136012
  13 H :    0.123281
  14 H :    0.135400
  15 H :    0.134978
  16 H :    0.116401
  17 H :    0.096380
  18 H :    0.111473
Sum of atomic charges:   -0.0000000

LOEWDIN ATOMIC CHARGES
----------------------
   0 O :    0.158721
   1 C :   -0.311513
   2 C :   -0.175315
   3 C :   -0.314415
   4 C :   -0.171233
   5 C :   -0.219990
   6 C :   -0.259673
   7 C :   -0.293193
   8 O :    0.183960
   9 H :    0.139241
  10 H :    0.155410
  11 H :    0.158145
  12 H :    0.141146
  13 H :    0.144300
  14 H :    0.143103
  15 H :    0.137940
  16 H :    0.138809
  17 H :    0.120963
  18 H :    0.123594

  Mayer bond orders larger than 0.1
B(  0-O ,  1-C ) :   2.0422 B(  1-C ,  2-C ) :   0.8986 B(  1-C ,  4-C ) :   0.9008
B(  2-C ,  3-C ) :   0.9136 B(  2-C ,  4-C ) :  -0.1195 B(  2-C ,  9-H ) :   0.8955
B(  2-C , 10-H ) :   0.8921 B(  3-C ,  4-C ) :   0.8828 B(  3-C ,  5-C ) :   0.9283
B(  3-C ,  8-O ) :   1.0067 B(  4-C , 11-H ) :   0.8942 B(  4-C , 12-H ) :   0.8957
B(  5-C ,  6-C ) :   0.9377 B(  5-C , 13-H ) :   0.9284 B(  5-C , 14-H ) :   0.9164
B(  6-C ,  7-C ) :   0.9476 B(  6-C , 15-H ) :   0.9267 B(  6-C , 16-H ) :   0.9247
B(  7-C ,  8-O ) :   0.9262 B(  7-C , 17-H ) :   0.9289 B(  7-C , 18-H ) :   0.9250

MP2 TOTAL ENERGY:     -422.331523077 Eh
FINAL SINGLE POINT ENERGY      -422.331523076869

DIPOLE MOMENT
-------------
                                X             Y             Z
Electronic contribution:      0.48467      -7.06521      -2.04932
Nuclear contribution   :     -0.53829       8.42709       2.45620
                        -----------------------------------------
Total Dipole Moment    :     -0.05362       1.36188       0.40689
                        -----------------------------------------
Magnitude (a.u.)       :      1.42237
Magnitude (Debye)      :      3.61538

                             ****ORCA TERMINATED NORMALLY****
TOTAL RUN TIME: 0 days 0 hours 17 minutes 41 seconds 942 msec
