                         Program Version 3.0.3 - RELEASE   -
|  1> ! RI-MP2 RIJK def2-TZVP def2-TZVP/C def2-TZVP/JK TIGHTSCF
|  2> % maxcore 2000
|  3> % mp2 density relaxed end
|  4> *xyz 0 1
|  5>  O        0.3976465179     0.9745134860    -1.3043726057
|  6>  C        0.2079956318     1.4481817540    -0.2026585720
|  7>  N        1.1175189176     1.4543790440     0.8046899927
|  8>  C        2.4557293092     0.9020338220     0.6483528166
|  9>  C        3.4330890409     1.8609354821    -0.0464188154
| 10>  C        4.8319984094     1.2775680365    -0.1146970063
| 11>  C        5.9994315290     2.2091805753    -0.5103787022
| 12>  C        6.5810713515     1.8298932125     0.8659217170
| 13>  O        5.4036953550     1.0676615781     1.2045731617
| 14>  H       -0.7485287121     1.9219210551     0.0974554115
| 15>  H        0.8748890303     1.9166025067     1.6657385801
| 16>  H        2.8391288510     0.6397153534     1.6376756846
| 17>  H        2.3656584551    -0.0179808702     0.0629547069
| 18>  H        3.0730101990     2.0664907741    -1.0609609028
| 19>  H        3.4660195802     2.8129499312     0.4978336990
| 20>  H        4.8186804279     0.3315512650    -0.6760217217
| 21>  H        6.5821407566     1.9080012992    -1.3816942763
| 22>  H        5.7153076063     3.2586735901    -0.6126985210
| 23>  H        7.4785187175     1.1990589607     0.8326132872
| 24>  H        6.7543460758     2.6520588440     1.5700399061
| 25> *
| 26>
| 27>                          ****END OF INPUT****

CARTESIAN COORDINATES (ANGSTROEM)
---------------------------------
  O      0.397647    0.974513   -1.304373
  C      0.207996    1.448182   -0.202659
  N      1.117519    1.454379    0.804690
  C      2.455729    0.902034    0.648353
  C      3.433089    1.860935   -0.046419
  C      4.831998    1.277568   -0.114697
  C      5.999432    2.209181   -0.510379
  C      6.581071    1.829893    0.865922
  O      5.403695    1.067662    1.204573
  H     -0.748529    1.921921    0.097455
  H      0.874889    1.916603    1.665739
  H      2.839129    0.639715    1.637676
  H      2.365658   -0.017981    0.062955
  H      3.073010    2.066491   -1.060961
  H      3.466020    2.812950    0.497834
  H      4.818680    0.331551   -0.676022
  H      6.582141    1.908001   -1.381694
  H      5.715308    3.258674   -0.612699
  H      7.478519    1.199059    0.832613
  H      6.754346    2.652059    1.570040

 Total Charge           Charge          ....    0
 Multiplicity           Mult            ....    1
 Number of Electrons    NEL             ....   70
 Basis Dimension        Dim             ....  345

ORBITAL ENERGIES
----------------

  NO   OCC          E(Eh)            E(eV)
   0   2.0000     -20.547076      -559.1144
   1   2.0000     -20.520007      -558.3778
   2   2.0000     -15.587398      -424.1547
   3   2.0000     -11.346094      -308.7429
   4   2.0000     -11.285112      -307.0835
   5   2.0000     -11.280669      -306.9626
   6   2.0000     -11.263671      -306.5001
   7   2.0000     -11.232176      -305.6430
   8   2.0000     -11.224573      -305.4362
   9   2.0000      -1.380476       -37.5647
  10   2.0000      -1.377485       -37.4833
  11   2.0000      -1.233934       -33.5771
  12   2.0000      -1.055483       -28.7211
  13   2.0000      -1.008893       -27.4534
  14   2.0000      -0.935675       -25.4610
  15   2.0000      -0.859182       -23.3795
  16   2.0000      -0.796106       -21.6631
  17   2.0000      -0.762166       -20.7396
  18   2.0000      -0.741448       -20.1758
  19   2.0000      -0.684437       -18.6245
  20   2.0000      -0.667097       -18.1526
  21   2.0000      -0.637558       -17.3488
  22   2.0000      -0.627248       -17.0683
  23   2.0000      -0.599216       -16.3055
  24   2.0000      -0.587236       -15.9795
  25   2.0000      -0.572364       -15.5748
  26   2.0000      -0.544579       -14.8187
  27   2.0000      -0.534520       -14.5450
  28   2.0000      -0.518641       -14.1129
  29   2.0000      -0.499462       -13.5910
  30   2.0000      -0.462603       -12.5881
  31   2.0000      -0.461497       -12.5580
  32   2.0000      -0.429565       -11.6891
  33   2.0000      -0.413534       -11.2528
  34   2.0000      -0.389804       -10.6071
  35   0.0000       0.129875         3.5341
  36   0.0000       0.144003         3.9185
  37   0.0000       0.161179         4.3859
  38   0.0000       0.168140         4.5753
  39   0.0000       0.174971         4.7612

MULLIKEN ATOMIC CHARGES
-----------------------
   0 O :   -0.373853
   1 C :    0.197046
   2 N :   -0.323589
   3 C :   -0.145937
   4 C :   -0.231014
   5 C :    0.118956
   6 C :   -0.292296
   7 C :   -0.009584
   8 O :   -0.347509
   9 H :    0.079673
  10 H :    0.242674
  11 H :    0.161880
  12 H :    0.135337
  13 H :    0.145151
  14 H :    0.099756
  15 H :    0.090032
  16 H :    0.133029
  17 H :    0.124749
  18 H :    0.096338
  19 H :    0.099161
Sum of atomic charges:    0.0000000

LOEWDIN ATOMIC CHARGES
----------------------
   0 O :    0.051000
   1 C :   -0.441317
   2 N :    0.081918
   3 C :   -0.271685
   4 C :   -0.255154
   5 C :   -0.280639
   6 C :   -0.228103
   7 C :   -0.275462
   8 O :    0.122115
   9 H :    0.108653
  10 H :    0.183664
  11 H :    0.140466
  12 H :    0.143856
  13 H :    0.150828
  14 H :    0.138376
  15 H :    0.137587
  16 H :    0.130014
  17 H :    0.133091
  18 H :    0.115989
  19 H :    0.114803

  Mayer bond orders larger than 0.1
B(  0-O ,  1-C ) :   1.8767 B(  1-C ,  2-N ) :   1.1667 B(  1-C ,  9-H ) :   0.9309
B(  2-N ,  3-C ) :   0.8563 B(  2-N , 10-H ) :   0.8731 B(  3-C ,  4-C ) :   0.9117
B(  3-C , 11-H ) :   0.9385 B(  3-C , 12-H ) :   0.9242 B(  4-C ,  5-C ) :   0.9412
B(  4-C , 13-H ) :   0.9252 B(  4-C , 14-H ) :   0.9177 B(  5-C ,  6-C ) :   0.9066
B(  5-C ,  8-O ) :   0.9172 B(  5-C , 15-H ) :   0.9137 B(  6-C ,  7-C ) :   0.9776
B(  6-C , 16-H ) :   0.9309 B(  6-C , 17-H ) :   0.9297 B(  7-C ,  8-O ) :   0.9440
B(  7-C , 18-H ) :   0.9189 B(  7-C , 19-H ) :   0.9177

MP2 TOTAL ENERGY:     -439.568811967 Eh
FINAL SINGLE POINT ENERGY      -439.568811966628

DIPOLE MOMENT
-------------
                                X             Y             Z
Electronic contribution:     -5.23853      -1.82804      -0.08240
Nuclear contribution   :      5.81181       2.63396       0.86829
                        -----------------------------------------
Total Dipole Moment    :      0.57329       0.80592       0.78589
                        -----------------------------------------
Magnitude (a.u.)       :      1.26325
Magnitude (Debye)      :      3.21092

                             ****ORCA TERMINATED NORMALLY****
TOTAL RUN TIME: 0 days 0 hours 15 minutes 9 seconds 511 msec
