                         Program Version 3.0.3 - RELEASE   -
|  1> ! RI-MP2 RIJK def2-TZVP def2-TZVP/C def2-TZVP/JK TIGHTSCF
|  2> % maxcore 2000
|  3> % mp2 density relaxed end
|  4> *xyz 0 1
|  5>  C       -0.0701268583     1.5818611522     0.0078815047
|  6>  C       -0.0208507492     0.0517279175     0.0228861190
|  7>  C        0.7920461531    -0.5041940617     1.1951759244
|  8>  C        0.8469243994    -2.0319194946     1.2394398880
|  9>  C        1.6669941394    -2.5571082244     2.4261592506
| 10>  O        1.0559899631    -2.2175280098     3.6557142828
| 11>  O       -0.4966181142    -2.5112155636     1.3705825643
| 12>  C       -0.7381762102    -3.7952072274     0.8171833689
| 13>  C       -2.1983846126    -4.1477715260     1.0459263143
| 14>  H        0.9347273397     2.0126786210    -0.0687637070
| 15>  H       -0.6566142807     1.9544003181    -0.8379273944
| 16>  H       -0.5250845316     1.9713082765     0.9254218849
| 17>  H       -1.0363112961    -0.3544208210     0.0744892156
| 18>  H        0.4085284131    -0.3099657069    -0.9217297164
| 19>  H        1.8232808672    -0.1305681518     1.1447006307
| 20>  H        0.3811272538    -0.1470159398     2.1463428530
| 21>  H        1.2820495536    -2.4120636428     0.3008333878
| 22>  H        1.7949803764    -3.6484503404     2.3347465447
| 23>  H        2.6675914867    -2.1111892312     2.4213712066
| 24>  H        0.1156479088    -2.3991012476     3.5290101943
| 25>  H       -0.5071034054    -3.7829920871    -0.2598660235
| 26>  H       -0.0863578531    -4.5524658398     1.2792944092
| 27>  H       -2.4247915188    -4.1828790066     2.1156300738
| 28>  H       -2.8502313068    -3.4014611005     0.5830850430
| 29>  H       -2.4261197574    -5.1262133225     0.6125793708
| 30> *
| 31>
| 32>                          ****END OF INPUT****

CARTESIAN COORDINATES (ANGSTROEM)
---------------------------------
  C     -0.070127    1.581861    0.007882
  C     -0.020851    0.051728    0.022886
  C      0.792046   -0.504194    1.195176
  C      0.846924   -2.031919    1.239440
  C      1.666994   -2.557108    2.426159
  O      1.055990   -2.217528    3.655714
  O     -0.496618   -2.511216    1.370583
  C     -0.738176   -3.795207    0.817183
  C     -2.198385   -4.147772    1.045926
  H      0.934727    2.012679   -0.068764
  H     -0.656614    1.954400   -0.837927
  H     -0.525085    1.971308    0.925422
  H     -1.036311   -0.354421    0.074489
  H      0.408528   -0.309966   -0.921730
  H      1.823281   -0.130568    1.144701
  H      0.381127   -0.147016    2.146343
  H      1.282050   -2.412064    0.300833
  H      1.794980   -3.648450    2.334747
  H      2.667591   -2.111189    2.421371
  H      0.115648   -2.399101    3.529010
  H     -0.507103   -3.782992   -0.259866
  H     -0.086358   -4.552466    1.279294
  H     -2.424792   -4.182879    2.115630
  H     -2.850231   -3.401461    0.583085
  H     -2.426120   -5.126213    0.612579

 Total Charge           Charge          ....    0
 Multiplicity           Mult            ....    1
 Number of Electrons    NEL             ....   74
 Basis Dimension        Dim             ....  375

ORBITAL ENERGIES
----------------

  NO   OCC          E(Eh)            E(eV)
   0   2.0000     -20.558805      -559.4335
   1   2.0000     -20.546124      -559.0885
   2   2.0000     -11.281564      -306.9870
   3   2.0000     -11.280790      -306.9659
   4   2.0000     -11.270587      -306.6883
   5   2.0000     -11.220482      -305.3248
   6   2.0000     -11.215503      -305.1894
   7   2.0000     -11.214679      -305.1669
   8   2.0000     -11.209702      -305.0315
   9   2.0000      -1.384059       -37.6622
  10   2.0000      -1.347533       -36.6682
  11   2.0000      -1.077742       -29.3268
  12   2.0000      -1.027013       -27.9464
  13   2.0000      -0.985744       -26.8235
  14   2.0000      -0.918121       -24.9834
  15   2.0000      -0.849694       -23.1213
  16   2.0000      -0.816135       -22.2082
  17   2.0000      -0.786730       -21.4080
  18   2.0000      -0.698791       -19.0151
  19   2.0000      -0.678811       -18.4714
  20   2.0000      -0.645463       -17.5639
  21   2.0000      -0.637908       -17.3584
  22   2.0000      -0.612140       -16.6572
  23   2.0000      -0.600798       -16.3485
  24   2.0000      -0.585986       -15.9455
  25   2.0000      -0.564082       -15.3495
  26   2.0000      -0.544889       -14.8272
  27   2.0000      -0.536957       -14.6113
  28   2.0000      -0.524196       -14.2641
  29   2.0000      -0.519364       -14.1326
  30   2.0000      -0.488756       -13.2997
  31   2.0000      -0.484988       -13.1972
  32   2.0000      -0.474090       -12.9006
  33   2.0000      -0.466443       -12.6925
  34   2.0000      -0.463671       -12.6171
  35   2.0000      -0.449659       -12.2358
  36   2.0000      -0.409348       -11.1389
  37   0.0000       0.130696         3.5564
  38   0.0000       0.146460         3.9854
  39   0.0000       0.150812         4.1038
  40   0.0000       0.164587         4.4786
  41   0.0000       0.183833         5.0023

MULLIKEN ATOMIC CHARGES
-----------------------
   0 C :   -0.382938
   1 C :   -0.193188
   2 C :   -0.201880
   3 C :   -0.016307
   4 C :    0.014746
   5 O :   -0.480804
   6 O :   -0.334891
   7 C :   -0.047967
   8 C :   -0.371475
   9 H :    0.119181
  10 H :    0.131810
  11 H :    0.124881
  12 H :    0.123729
  13 H :    0.093801
  14 H :    0.104081
  15 H :    0.118968
  16 H :    0.080293
  17 H :    0.100589
  18 H :    0.107894
  19 H :    0.323716
  20 H :    0.101051
  21 H :    0.097429
  22 H :    0.127589
  23 H :    0.133727
  24 H :    0.125966
Sum of atomic charges:   -0.0000000

LOEWDIN ATOMIC CHARGES
----------------------
   0 C :   -0.321604
   1 C :   -0.296133
   2 C :   -0.249933
   3 C :   -0.334445
   4 C :   -0.334958
   5 O :   -0.045975
   6 O :    0.166545
   7 C :   -0.354035
   8 C :   -0.316961
   9 H :    0.119085
  10 H :    0.119770
  11 H :    0.121023
  12 H :    0.137430
  13 H :    0.132267
  14 H :    0.143068
  15 H :    0.145228
  16 H :    0.139847
  17 H :    0.114858
  18 H :    0.130353
  19 H :    0.175060
  20 H :    0.118789
  21 H :    0.117785
  22 H :    0.122883
  23 H :    0.124605
  24 H :    0.125448

  Mayer bond orders larger than 0.1
B(  0-C ,  1-C ) :   0.9185 B(  0-C ,  9-H ) :   0.9387 B(  0-C , 10-H ) :   0.9438
B(  0-C , 11-H ) :   0.9406 B(  1-C ,  2-C ) :   0.9226 B(  1-C , 12-H ) :   0.9354
B(  1-C , 13-H ) :   0.9295 B(  2-C ,  3-C ) :   0.9366 B(  2-C , 14-H ) :   0.9264
B(  2-C , 15-H ) :   0.9145 B(  3-C ,  4-C ) :   0.9542 B(  3-C ,  6-O ) :   0.8802
B(  3-C , 16-H ) :   0.9252 B(  4-C ,  5-O ) :   0.9204 B(  4-C , 17-H ) :   0.9203
B(  4-C , 18-H ) :   0.9329 B(  5-O , 19-H ) :   0.8262 B(  6-O ,  7-C ) :   0.8923
B(  7-C ,  8-C ) :   0.9558 B(  7-C , 20-H ) :   0.9246 B(  7-C , 21-H ) :   0.9202
B(  8-C , 22-H ) :   0.9359 B(  8-C , 23-H ) :   0.9364 B(  8-C , 24-H ) :   0.9333

MP2 TOTAL ENERGY:     -425.923115064 Eh
FINAL SINGLE POINT ENERGY      -425.923115063600

DIPOLE MOMENT
-------------
                                X             Y             Z
Electronic contribution:      2.19683      -2.67304       4.82397
Nuclear contribution   :     -2.30004       2.19652      -5.63956
                        -----------------------------------------
Total Dipole Moment    :     -0.10321      -0.47652      -0.81559
                        -----------------------------------------
Magnitude (a.u.)       :      0.95022
Magnitude (Debye)      :      2.41526

                             ****ORCA TERMINATED NORMALLY****
TOTAL RUN TIME: 0 days 0 hours 18 minutes 27 seconds 592 msec
