                         Program Version 3.0.3 - RELEASE   -
|  1> ! RI-MP2 RIJK def2-TZVP def2-TZVP/C def2-TZVP/JK TIGHTSCF
|  2> % maxcore 2000
|  3> % mp2 density relaxed end
|  4> *xyz 0 1
|  5>  C       -0.1097434566     1.5569799020     0.0038816141
|  6>  C       -0.0195812719     0.0303725950     0.0047337902
|  7>  C        0.7833850365    -0.5126383268     1.2039910045
|  8>  O        0.2305773748    -0.0807600613     2.4492923829
|  9>  C        0.9107366663    -1.9713860069     1.1473711356
| 10>  C        0.9645157696    -3.1743071378     1.1060803859
| 11>  C        1.0527981526    -4.6267400887     1.0616013729
| 12>  H        0.8826918420     2.0108323180    -0.0961022689
| 13>  H       -0.7251042991     1.9138472732    -0.8272350371
| 14>  H       -0.5469088512     1.9161070949     0.9388385968
| 15>  H       -1.0229527028    -0.4137465943     0.0351340951
| 16>  H        0.4509932572    -0.3315652780    -0.9167903680
| 17>  H        1.7842362005    -0.0613819981     1.1816056692
| 18>  H       -0.5531712352    -0.6174817149     2.6115934981
| 19>  H        0.9500376837    -5.0601260942     2.0625577426
| 20>  H        0.2684378324    -5.0581018224     0.4300171261
| 21>  H        2.0188852012    -4.9513180296     0.6596006099
| 22> *
| 23>
| 24>                          ****END OF INPUT****

CARTESIAN COORDINATES (ANGSTROEM)
---------------------------------
  C     -0.109743    1.556980    0.003882
  C     -0.019581    0.030373    0.004734
  C      0.783385   -0.512638    1.203991
  O      0.230577   -0.080760    2.449292
  C      0.910737   -1.971386    1.147371
  C      0.964516   -3.174307    1.106080
  C      1.052798   -4.626740    1.061601
  H      0.882692    2.010832   -0.096102
  H     -0.725104    1.913847   -0.827235
  H     -0.546909    1.916107    0.938839
  H     -1.022953   -0.413747    0.035134
  H      0.450993   -0.331565   -0.916790
  H      1.784236   -0.061382    1.181606
  H     -0.553171   -0.617482    2.611593
  H      0.950038   -5.060126    2.062558
  H      0.268438   -5.058102    0.430017
  H      2.018885   -4.951318    0.659601

 Total Charge           Charge          ....    0
 Multiplicity           Mult            ....    1
 Number of Electrons    NEL             ....   54
 Basis Dimension        Dim             ....  277

ORBITAL ENERGIES
----------------

  NO   OCC          E(Eh)            E(eV)
   0   2.0000     -20.557252      -559.3913
   1   2.0000     -11.302061      -307.5447
   2   2.0000     -11.250174      -306.1328
   3   2.0000     -11.230423      -305.5953
   4   2.0000     -11.226545      -305.4898
   5   2.0000     -11.218320      -305.2660
   6   2.0000     -11.211413      -305.0780
   7   2.0000      -1.363610       -37.1057
   8   2.0000      -1.075582       -29.2681
   9   2.0000      -1.044349       -28.4182
  10   2.0000      -0.976438       -26.5702
  11   2.0000      -0.911509       -24.8034
  12   2.0000      -0.819410       -22.2973
  13   2.0000      -0.721545       -19.6342
  14   2.0000      -0.646994       -17.6056
  15   2.0000      -0.636495       -17.3199
  16   2.0000      -0.623975       -16.9792
  17   2.0000      -0.590416       -16.0660
  18   2.0000      -0.590024       -16.0554
  19   2.0000      -0.573024       -15.5928
  20   2.0000      -0.543681       -14.7943
  21   2.0000      -0.529063       -14.3965
  22   2.0000      -0.492302       -13.3962
  23   2.0000      -0.485775       -13.2186
  24   2.0000      -0.454399       -12.3648
  25   2.0000      -0.378939       -10.3114
  26   2.0000      -0.370488       -10.0815
  27   0.0000       0.128264         3.4902
  28   0.0000       0.145967         3.9720
  29   0.0000       0.164586         4.4786
  30   0.0000       0.178081         4.8458
  31   0.0000       0.183613         4.9964

MULLIKEN ATOMIC CHARGES
-----------------------
   0 C :   -0.401380
   1 C :   -0.140887
   2 C :   -0.033736
   3 O :   -0.464507
   4 C :   -0.065793
   5 C :    0.064820
   6 C :   -0.479347
   7 H :    0.118503
   8 H :    0.132549
   9 H :    0.142467
  10 H :    0.097946
  11 H :    0.113083
  12 H :    0.109505
  13 H :    0.316445
  14 H :    0.164150
  15 H :    0.161868
  16 H :    0.164315
Sum of atomic charges:    0.0000000

LOEWDIN ATOMIC CHARGES
----------------------
   0 C :   -0.319103
   1 C :   -0.270276
   2 C :   -0.338354
   3 O :   -0.013689
   4 C :   -0.074703
   5 C :   -0.097440
   6 C :   -0.293933
   7 H :    0.121190
   8 H :    0.120836
   9 H :    0.124982
  10 H :    0.136972
  11 H :    0.142161
  12 H :    0.159217
  13 H :    0.177270
  14 H :    0.142143
  15 H :    0.140369
  16 H :    0.142359

  Mayer bond orders larger than 0.1
B(  0-C ,  1-C ) :   0.9180 B(  0-C ,  7-H ) :   0.9365 B(  0-C ,  8-H ) :   0.9405
B(  0-C ,  9-H ) :   0.9365 B(  1-C ,  2-C ) :   0.9641 B(  1-C , 10-H ) :   0.9122
B(  1-C , 11-H ) :   0.9271 B(  2-C ,  3-O ) :   0.9031 B(  2-C ,  4-C ) :   1.0695
B(  2-C , 12-H ) :   0.9059 B(  3-O , 13-H ) :   0.8409 B(  4-C ,  5-C ) :   2.6774
B(  5-C ,  6-C ) :   0.8445 B(  6-C , 14-H ) :   0.9452 B(  6-C , 15-H ) :   0.9463
B(  6-C , 16-H ) :   0.9492

MP2 TOTAL ENERGY:     -309.155032476 Eh
FINAL SINGLE POINT ENERGY      -309.155032476121

DIPOLE MOMENT
-------------
                                X             Y             Z
Electronic contribution:      1.26308      -1.80312       3.39705
Nuclear contribution   :     -1.51718       1.15822      -3.80543
                        -----------------------------------------
Total Dipole Moment    :     -0.25410      -0.64489      -0.40838
                        -----------------------------------------
Magnitude (a.u.)       :      0.80451
Magnitude (Debye)      :      2.04489

                             ****ORCA TERMINATED NORMALLY****
TOTAL RUN TIME: 0 days 0 hours 8 minutes 13 seconds 664 msec
