                         Program Version 3.0.3 - RELEASE   -
|  1> ! RI-MP2 RIJK def2-TZVP def2-TZVP/C def2-TZVP/JK TIGHTSCF
|  2> % maxcore 2000
|  3> % mp2 density relaxed end
|  4> *xyz 0 1
|  5>  C       -0.0296556438     1.5684959373    -0.0080550139
|  6>  C       -0.0014487842     0.0390416905    -0.0042151398
|  7>  C        0.7338947778    -0.5280754922     1.2296431128
|  8>  C        0.7736043420    -1.9818717011     1.2554761606
|  9>  C        0.7959233678    -3.1927531356     1.2587415356
| 10>  C        0.8218820896    -4.5521143141     1.2642936755
| 11>  C        0.8469924954    -5.7619590680     1.2723699745
| 12>  C        0.8557882070    -7.2163556811     1.2457926267
| 13>  O        1.5426341491    -7.7155157039     2.3869843305
| 14>  H        0.9835463789     1.9853679948    -0.0174709317
| 15>  H       -0.5541996159     1.9493129137    -0.8892914522
| 16>  H       -0.5407702506     1.9595154799     0.8786877194
| 17>  H       -1.0220993624    -0.3584650688    -0.0204817857
| 18>  H        0.4900198397    -0.3328032545    -0.9098626853
| 19>  H        1.7593761778    -0.1341078998     1.2540925745
| 20>  H        0.2474826332    -0.1595981518     2.1434561222
| 21>  H       -0.1854090262    -7.5787513753     1.2157083729
| 22>  H        1.3355317962    -7.5530833641     0.3115395820
| 23>  H        1.5239877985    -8.6766968157     2.3337273613
| 24> *
| 25>
| 26>                          ****END OF INPUT****

CARTESIAN COORDINATES (ANGSTROEM)
---------------------------------
  C     -0.029656    1.568496   -0.008055
  C     -0.001449    0.039042   -0.004215
  C      0.733895   -0.528075    1.229643
  C      0.773604   -1.981872    1.255476
  C      0.795923   -3.192753    1.258742
  C      0.821882   -4.552114    1.264294
  C      0.846992   -5.761959    1.272370
  C      0.855788   -7.216356    1.245793
  O      1.542634   -7.715516    2.386984
  H      0.983546    1.985368   -0.017471
  H     -0.554200    1.949313   -0.889291
  H     -0.540770    1.959515    0.878688
  H     -1.022099   -0.358465   -0.020482
  H      0.490020   -0.332803   -0.909863
  H      1.759376   -0.134108    1.254093
  H      0.247483   -0.159598    2.143456
  H     -0.185409   -7.578751    1.215708
  H      1.335532   -7.553083    0.311540
  H      1.523988   -8.676697    2.333727

 Total Charge           Charge          ....    0
 Multiplicity           Mult            ....    1
 Number of Electrons    NEL             ....   66
 Basis Dimension        Dim             ....  339

ORBITAL ENERGIES
----------------

  NO   OCC          E(Eh)            E(eV)
   0   2.0000     -20.570306      -559.7465
   1   2.0000     -11.313083      -307.8446
   2   2.0000     -11.254627      -306.2540
   3   2.0000     -11.244961      -305.9910
   4   2.0000     -11.244246      -305.9715
   5   2.0000     -11.239983      -305.8555
   6   2.0000     -11.236863      -305.7706
   7   2.0000     -11.233963      -305.6917
   8   2.0000     -11.221769      -305.3599
   9   2.0000      -1.374242       -37.3950
  10   2.0000      -1.100224       -29.9386
  11   2.0000      -1.071365       -29.1533
  12   2.0000      -1.024489       -27.8778
  13   2.0000      -0.968640       -26.3580
  14   2.0000      -0.930570       -25.3221
  15   2.0000      -0.829104       -22.5611
  16   2.0000      -0.794957       -21.6319
  17   2.0000      -0.716510       -19.4972
  18   2.0000      -0.656956       -17.8767
  19   2.0000      -0.651282       -17.7223
  20   2.0000      -0.647043       -17.6069
  21   2.0000      -0.646312       -17.5870
  22   2.0000      -0.581366       -15.8198
  23   2.0000      -0.561917       -15.2905
  24   2.0000      -0.540547       -14.7090
  25   2.0000      -0.518637       -14.1128
  26   2.0000      -0.500079       -13.6078
  27   2.0000      -0.489986       -13.3332
  28   2.0000      -0.481769       -13.1096
  29   2.0000      -0.461360       -12.5542
  30   2.0000      -0.451885       -12.2964
  31   2.0000      -0.340832        -9.2745
  32   2.0000      -0.334362        -9.0985
  33   0.0000       0.108147         2.9428
  34   0.0000       0.129925         3.5354
  35   0.0000       0.132605         3.6084
  36   0.0000       0.145432         3.9574
  37   0.0000       0.169115         4.6018

MULLIKEN ATOMIC CHARGES
-----------------------
   0 C :   -0.397332
   1 C :   -0.158355
   2 C :   -0.388361
   3 C :   -0.007731
   4 C :    0.036905
   5 C :    0.022278
   6 C :    0.018529
   7 C :   -0.181800
   8 O :   -0.441390
   9 H :    0.125169
  10 H :    0.138789
  11 H :    0.125172
  12 H :    0.118231
  13 H :    0.118239
  14 H :    0.146543
  15 H :    0.146532
  16 H :    0.130832
  17 H :    0.130772
  18 H :    0.316979
Sum of atomic charges:   -0.0000000

LOEWDIN ATOMIC CHARGES
----------------------
   0 C :   -0.319330
   1 C :   -0.277296
   2 C :   -0.251705
   3 C :   -0.025636
   4 C :   -0.067168
   5 C :   -0.058520
   6 C :   -0.028922
   7 C :   -0.337893
   8 O :   -0.039663
   9 H :    0.121363
  10 H :    0.123399
  11 H :    0.121361
  12 H :    0.138974
  13 H :    0.138976
  14 H :    0.157846
  15 H :    0.157842
  16 H :    0.135701
  17 H :    0.135697
  18 H :    0.174975

  Mayer bond orders larger than 0.1
B(  0-C ,  1-C ) :   0.9178 B(  0-C ,  9-H ) :   0.9378 B(  0-C , 10-H ) :   0.9422
B(  0-C , 11-H ) :   0.9378 B(  1-C ,  2-C ) :   0.9465 B(  1-C , 12-H ) :   0.9308
B(  1-C , 13-H ) :   0.9308 B(  2-C ,  3-C ) :   0.9804 B(  2-C ,  4-C ) :  -0.1111
B(  2-C , 14-H ) :   0.9246 B(  2-C , 15-H ) :   0.9246 B(  3-C ,  4-C ) :   2.5391
B(  3-C ,  6-C ) :   0.1169 B(  4-C ,  5-C ) :   1.2782 B(  5-C ,  6-C ) :   2.6012
B(  6-C ,  7-C ) :   0.8591 B(  7-C ,  8-O ) :   1.1321 B(  7-C , 16-H ) :   0.9526
B(  7-C , 17-H ) :   0.9528 B(  8-O , 18-H ) :   0.8463

MP2 TOTAL ENERGY:     -385.142895912 Eh
FINAL SINGLE POINT ENERGY      -385.142895912311

DIPOLE MOMENT
-------------
                                X             Y             Z
Electronic contribution:      2.50852     -13.20253       3.87639
Nuclear contribution   :     -2.83230      13.09325      -4.42163
                        -----------------------------------------
Total Dipole Moment    :     -0.32378      -0.10928      -0.54524
                        -----------------------------------------
Magnitude (a.u.)       :      0.64348
Magnitude (Debye)      :      1.63559

                             ****ORCA TERMINATED NORMALLY****
TOTAL RUN TIME: 0 days 0 hours 12 minutes 2 seconds 374 msec
