                         Program Version 3.0.3 - RELEASE   -
|  1> ! RI-MP2 RIJK def2-TZVP def2-TZVP/C def2-TZVP/JK TIGHTSCF
|  2> % maxcore 2000
|  3> % mp2 density relaxed end
|  4> *xyz 0 1
|  5>  C       -0.1739602713     1.5758856181     0.0045572756
|  6>  C        0.0068278513     0.0525435327    -0.0361583243
|  7>  C        0.7958578296    -0.4213903664    -1.2652575182
|  8>  O        2.1996373293    -0.3173801351    -1.0612833692
|  9>  C        2.6014325842    -0.7703788243     0.2038927982
| 10>  C        1.6697281483    -1.7185433026     1.0313745190
| 11>  C        2.4427042797    -1.2343358249     2.2834744115
| 12>  C        2.1901767496     0.0533547899     1.4596553388
| 13>  C        0.7363253725    -0.4682272725     1.2066474620
| 14>  H        0.7920507880     2.0852907826    -0.0699911410
| 15>  H       -0.7986402166     1.9198457435    -0.8264264546
| 16>  H       -0.6513675840     1.8956917570     0.9370035691
| 17>  H       -0.9853920575    -0.4156655526    -0.0813708979
| 18>  H        0.5383240583    -1.4694052026    -1.4820618853
| 19>  H        0.5672406671     0.1716879374    -2.1559344692
| 20>  H        3.6552947392    -1.0524068238     0.1294678512
| 21>  H        1.3741045256    -2.7426627363     0.7970752535
| 22>  H        1.9069766101    -1.3099038584     3.2327374918
| 23>  H        3.4813814982    -1.5635893365     2.3816778046
| 24>  H        2.4942469471     1.0705707296     1.7098502231
| 25>  H        0.0963340015    -0.4840344848     2.0954255114
| 26> *
| 27>
| 28>                          ****END OF INPUT****

CARTESIAN COORDINATES (ANGSTROEM)
---------------------------------
  C     -0.173960    1.575886    0.004557
  C      0.006828    0.052544   -0.036158
  C      0.795858   -0.421390   -1.265258
  O      2.199637   -0.317380   -1.061283
  C      2.601433   -0.770379    0.203893
  C      1.669728   -1.718543    1.031375
  C      2.442704   -1.234336    2.283474
  C      2.190177    0.053355    1.459655
  C      0.736325   -0.468227    1.206647
  H      0.792051    2.085291   -0.069991
  H     -0.798640    1.919846   -0.826426
  H     -0.651368    1.895692    0.937004
  H     -0.985392   -0.415666   -0.081371
  H      0.538324   -1.469405   -1.482062
  H      0.567241    0.171688   -2.155934
  H      3.655295   -1.052407    0.129468
  H      1.374105   -2.742663    0.797075
  H      1.906977   -1.309904    3.232737
  H      3.481381   -1.563589    2.381678
  H      2.494247    1.070571    1.709850
  H      0.096334   -0.484034    2.095426

 Total Charge           Charge          ....    0
 Multiplicity           Mult            ....    1
 Number of Electrons    NEL             ....   68
 Basis Dimension        Dim             ....  351

ORBITAL ENERGIES
----------------

  NO   OCC          E(Eh)            E(eV)
   0   2.0000     -20.548690      -559.1583
   1   2.0000     -11.281774      -306.9927
   2   2.0000     -11.268470      -306.6307
   3   2.0000     -11.241209      -305.8888
   4   2.0000     -11.236334      -305.7562
   5   2.0000     -11.235535      -305.7344
   6   2.0000     -11.229169      -305.5612
   7   2.0000     -11.227025      -305.5029
   8   2.0000     -11.213102      -305.1240
   9   2.0000      -1.376885       -37.4669
  10   2.0000      -1.201812       -32.7030
  11   2.0000      -1.067800       -29.0563
  12   2.0000      -0.936993       -25.4969
  13   2.0000      -0.908165       -24.7124
  14   2.0000      -0.865987       -23.5647
  15   2.0000      -0.854039       -23.2396
  16   2.0000      -0.806129       -21.9359
  17   2.0000      -0.693328       -18.8664
  18   2.0000      -0.678887       -18.4735
  19   2.0000      -0.661126       -17.9901
  20   2.0000      -0.640879       -17.4392
  21   2.0000      -0.633645       -17.2424
  22   2.0000      -0.564080       -15.3494
  23   2.0000      -0.556518       -15.1436
  24   2.0000      -0.549247       -14.9458
  25   2.0000      -0.532996       -14.5036
  26   2.0000      -0.520822       -14.1723
  27   2.0000      -0.494500       -13.4560
  28   2.0000      -0.481439       -13.1006
  29   2.0000      -0.451169       -12.2769
  30   2.0000      -0.432380       -11.7656
  31   2.0000      -0.429932       -11.6990
  32   2.0000      -0.417574       -11.3628
  33   2.0000      -0.386159       -10.5079
  34   0.0000       0.137906         3.7526
  35   0.0000       0.156364         4.2549
  36   0.0000       0.160241         4.3604
  37   0.0000       0.171217         4.6591
  38   0.0000       0.190174         5.1749

MULLIKEN ATOMIC CHARGES
-----------------------
   0 C :   -0.447335
   1 C :   -0.044006
   2 C :   -0.046942
   3 O :   -0.320759
   4 C :    0.058811
   5 C :   -0.154222
   6 C :   -0.221126
   7 C :   -0.152355
   8 C :   -0.085558
   9 H :    0.141012
  10 H :    0.132114
  11 H :    0.130966
  12 H :    0.091008
  13 H :    0.093676
  14 H :    0.118646
  15 H :    0.104704
  16 H :    0.130960
  17 H :    0.113838
  18 H :    0.115962
  19 H :    0.136043
  20 H :    0.104563
Sum of atomic charges:   -0.0000000

LOEWDIN ATOMIC CHARGES
----------------------
   0 C :   -0.289946
   1 C :   -0.267733
   2 C :   -0.279203
   3 O :    0.178543
   4 C :   -0.255590
   5 C :   -0.152334
   6 C :   -0.197962
   7 C :   -0.153456
   8 C :   -0.157904
   9 H :    0.128058
  10 H :    0.122059
  11 H :    0.124401
  12 H :    0.154455
  13 H :    0.123657
  14 H :    0.130276
  15 H :    0.138369
  16 H :    0.124621
  17 H :    0.130918
  18 H :    0.128948
  19 H :    0.125385
  20 H :    0.144439

  Mayer bond orders larger than 0.1
B(  0-C ,  1-C ) :   0.8804 B(  0-C ,  9-H ) :   0.9353 B(  0-C , 10-H ) :   0.9382
B(  0-C , 11-H ) :   0.9409 B(  1-C ,  2-C ) :   0.9369 B(  1-C ,  8-C ) :   0.9162
B(  1-C , 12-H ) :   0.9191 B(  2-C ,  3-O ) :   0.9201 B(  2-C , 13-H ) :   0.9201
B(  2-C , 14-H ) :   0.9316 B(  3-O ,  4-C ) :   0.9811 B(  4-C ,  5-C ) :   0.8872
B(  4-C ,  7-C ) :   0.8495 B(  4-C , 15-H ) :   0.9628 B(  5-C ,  6-C ) :   0.9122
B(  5-C ,  8-C ) :   0.8868 B(  5-C , 16-H ) :   0.8961 B(  6-C ,  7-C ) :   0.8996
B(  6-C , 17-H ) :   0.9225 B(  6-C , 18-H ) :   0.9275 B(  7-C ,  8-C ) :   0.8762
B(  7-C , 19-H ) :   0.8915 B(  8-C , 20-H ) :   0.9204

MP2 TOTAL ENERGY:     -386.379557272 Eh
FINAL SINGLE POINT ENERGY      -386.379557272344

DIPOLE MOMENT
-------------
                                X             Y             Z
Electronic contribution:      3.36340      -2.18527      -1.49301
Nuclear contribution   :     -3.80016       2.04798       1.84113
                        -----------------------------------------
Total Dipole Moment    :     -0.43676      -0.13729       0.34812
                        -----------------------------------------
Magnitude (a.u.)       :      0.57515
Magnitude (Debye)      :      1.46191

                             ****ORCA TERMINATED NORMALLY****
TOTAL RUN TIME: 0 days 0 hours 20 minutes 27 seconds 457 msec
