                         Program Version 3.0.3 - RELEASE   -
|  1> ! RI-MP2 RIJK def2-TZVP def2-TZVP/C def2-TZVP/JK TIGHTSCF
|  2> % maxcore 2000
|  3> % mp2 density relaxed end
|  4> *xyz 0 1
|  5>  C        0.3348974046     1.3963463815    -0.0533532190
|  6>  C        0.0552108226    -0.0682345054    -0.0295061041
|  7>  C       -0.1467562795    -0.9604271406    -1.0534716221
|  8>  O       -0.3862739086    -2.1658680865    -0.5460322774
|  9>  N       -0.3301038652    -2.0049914571     0.9010976524
| 10>  N       -0.0745907062    -0.7968291315     1.1254782287
| 11>  N       -0.2215844134    -0.7880298978    -2.4193131348
| 12>  C        0.9628699565    -0.3968839460    -3.1893650109
| 13>  C        0.3847987846    -1.7643230705    -3.3192302097
| 14>  H        1.3855330385     1.6214821843     0.1630061699
| 15>  H        0.0941039179     1.8151162107    -1.0338455148
| 16>  H       -0.2714662561     1.9143636027     0.6949283470
| 17>  H        0.7845188295     0.3495648087    -3.9564831474
| 18>  H        1.8998706841    -0.2972473787    -2.6482710510
| 19>  H        0.9275011758    -2.5894471404    -2.8679141094
| 20>  H       -0.2168932051    -2.0214696033    -4.1847609574
| 21> *
| 22>
| 23>                          ****END OF INPUT****

CARTESIAN COORDINATES (ANGSTROEM)
---------------------------------
  C      0.334897    1.396346   -0.053353
  C      0.055211   -0.068235   -0.029506
  C     -0.146756   -0.960427   -1.053472
  O     -0.386274   -2.165868   -0.546032
  N     -0.330104   -2.004991    0.901098
  N     -0.074591   -0.796829    1.125478
  N     -0.221584   -0.788030   -2.419313
  C      0.962870   -0.396884   -3.189365
  C      0.384799   -1.764323   -3.319230
  H      1.385533    1.621482    0.163006
  H      0.094104    1.815116   -1.033846
  H     -0.271466    1.914364    0.694928
  H      0.784519    0.349565   -3.956483
  H      1.899871   -0.297247   -2.648271
  H      0.927501   -2.589447   -2.867914
  H     -0.216893   -2.021470   -4.184761

 Total Charge           Charge          ....    0
 Multiplicity           Mult            ....    1
 Number of Electrons    NEL             ....   66
 Basis Dimension        Dim             ....  321

ORBITAL ENERGIES
----------------

  NO   OCC          E(Eh)            E(eV)
   0   2.0000     -20.645072      -561.7810
   1   2.0000     -15.673391      -426.4947
   2   2.0000     -15.630105      -425.3168
   3   2.0000     -15.606582      -424.6767
   4   2.0000     -11.353274      -308.9383
   5   2.0000     -11.294627      -307.3424
   6   2.0000     -11.290828      -307.2390
   7   2.0000     -11.260467      -306.4129
   8   2.0000     -11.238565      -305.8169
   9   2.0000      -1.513303       -41.1791
  10   2.0000      -1.333289       -36.2806
  11   2.0000      -1.295157       -35.2430
  12   2.0000      -1.110285       -30.2124
  13   2.0000      -0.997044       -27.1310
  14   2.0000      -0.948004       -25.7965
  15   2.0000      -0.884988       -24.0817
  16   2.0000      -0.841596       -22.9010
  17   2.0000      -0.804922       -21.9030
  18   2.0000      -0.738009       -20.0822
  19   2.0000      -0.707226       -19.2446
  20   2.0000      -0.666701       -18.1419
  21   2.0000      -0.647701       -17.6248
  22   2.0000      -0.596786       -16.2394
  23   2.0000      -0.580881       -15.8066
  24   2.0000      -0.561341       -15.2749
  25   2.0000      -0.558107       -15.1869
  26   2.0000      -0.539084       -14.6692
  27   2.0000      -0.527617       -14.3572
  28   2.0000      -0.512723       -13.9519
  29   2.0000      -0.495220       -13.4756
  30   2.0000      -0.457786       -12.4570
  31   2.0000      -0.447190       -12.1687
  32   2.0000      -0.329953        -8.9785
  33   0.0000       0.113082         3.0771
  34   0.0000       0.132653         3.6097
  35   0.0000       0.152152         4.1403
  36   0.0000       0.169156         4.6030
  37   0.0000       0.175769         4.7829

MULLIKEN ATOMIC CHARGES
-----------------------
   0 C :   -0.425562
   1 C :   -0.040035
   2 C :    0.247573
   3 O :   -0.119390
   4 N :   -0.041821
   5 N :   -0.106205
   6 N :   -0.235380
   7 C :   -0.179359
   8 C :   -0.156541
   9 H :    0.151100
  10 H :    0.150124
  11 H :    0.162367
  12 H :    0.144327
  13 H :    0.149582
  14 H :    0.151890
  15 H :    0.147330
Sum of atomic charges:   -0.0000000

LOEWDIN ATOMIC CHARGES
----------------------
   0 C :   -0.270971
   1 C :   -0.287260
   2 C :   -0.362876
   3 O :    0.261018
   4 N :   -0.017539
   5 N :    0.037737
   6 N :    0.161892
   7 C :   -0.229140
   8 C :   -0.228309
   9 H :    0.134097
  10 H :    0.136143
  11 H :    0.140024
  12 H :    0.129679
  13 H :    0.130996
  14 H :    0.132887
  15 H :    0.131621

  Mayer bond orders larger than 0.1
B(  0-C ,  1-C ) :   0.8703 B(  0-C ,  9-H ) :   0.9287 B(  0-C , 10-H ) :   0.9478
B(  0-C , 11-H ) :   0.9358 B(  1-C ,  2-C ) :   1.4403 B(  1-C ,  5-N ) :   1.2713
B(  2-C ,  3-O ) :   1.1895 B(  2-C ,  6-N ) :   1.0386 B(  3-O ,  4-N ) :   0.8145
B(  4-N ,  5-N ) :   1.4362 B(  6-N ,  7-C ) :   0.8391 B(  6-N ,  8-C ) :   0.8595
B(  7-C ,  8-C ) :   0.9424 B(  7-C , 12-H ) :   0.9281 B(  7-C , 13-H ) :   0.9212
B(  8-C , 14-H ) :   0.9225 B(  8-C , 15-H ) :   0.9257

MP2 TOTAL ENERGY:     -433.287547218 Eh
FINAL SINGLE POINT ENERGY      -433.287547218055

DIPOLE MOMENT
-------------
                                X             Y             Z
Electronic contribution:     -3.11276      -5.51825       5.08215
Nuclear contribution   :      3.84551       6.26431      -6.66016
                        -----------------------------------------
Total Dipole Moment    :      0.73274       0.74605      -1.57801
                        -----------------------------------------
Magnitude (a.u.)       :      1.89305
Magnitude (Debye)      :      4.81174

                             ****ORCA TERMINATED NORMALLY****
TOTAL RUN TIME: 0 days 0 hours 16 minutes 8 seconds 80 msec
