                         Program Version 3.0.3 - RELEASE   -
|  1> ! RI-MP2 RIJK def2-TZVP def2-TZVP/C def2-TZVP/JK TIGHTSCF
|  2> % maxcore 2000
|  3> % mp2 density relaxed end
|  4> *xyz 0 1
|  5>  C        0.2396156328     0.5946797415     0.9535888574
|  6>  C        0.1635685543    -0.9230488992     0.6998650617
|  7>  C        1.1592089226    -1.6670573135     1.5994567122
|  8>  C       -1.2712948403    -1.3968784347     1.0051597292
|  9>  N        0.4101326313    -1.3743295205    -0.6908095167
| 10>  C        0.3138878454    -0.5702112712    -1.8696036324
| 11>  C        1.6249359275    -1.2242607455    -1.4922137864
| 12>  C        2.7668115414    -0.3311818067    -1.1568439817
| 13>  O        3.9178180210    -0.6254528415    -1.3729384878
| 14>  H        1.2532263557     0.9900681645     0.8541525401
| 15>  H       -0.4187232029     1.1510179561     0.2792521625
| 16>  H       -0.0914033769     0.8070204187     1.9750614310
| 17>  H        0.9302621321    -1.4854392781     2.6536926757
| 18>  H        1.1094592220    -2.7435533546     1.4143454968
| 19>  H        2.1872583735    -1.3375898152     1.4180179774
| 20>  H       -1.9906926334    -0.9043621297     0.3427085288
| 21>  H       -1.3561911693    -2.4755878495     0.8538805485
| 22>  H       -1.5457756622    -1.1617098280     2.0382260941
| 23>  H       -0.2568177083    -0.9778222051    -2.7014753579
| 24>  H        0.2743476309     0.5160065170    -1.7823598077
| 25>  H        1.9430118856    -2.1317678992    -2.0015545822
| 26>  H        2.5005314972     0.6518404247    -0.7141932325
| 27> *
| 28>
| 29>                          ****END OF INPUT****

CARTESIAN COORDINATES (ANGSTROEM)
---------------------------------
  C      0.239616    0.594680    0.953589
  C      0.163569   -0.923049    0.699865
  C      1.159209   -1.667057    1.599457
  C     -1.271295   -1.396878    1.005160
  N      0.410133   -1.374330   -0.690810
  C      0.313888   -0.570211   -1.869604
  C      1.624936   -1.224261   -1.492214
  C      2.766812   -0.331182   -1.156844
  O      3.917818   -0.625453   -1.372938
  H      1.253226    0.990068    0.854153
  H     -0.418723    1.151018    0.279252
  H     -0.091403    0.807020    1.975061
  H      0.930262   -1.485439    2.653693
  H      1.109459   -2.743553    1.414345
  H      2.187258   -1.337590    1.418018
  H     -1.990693   -0.904362    0.342709
  H     -1.356191   -2.475588    0.853881
  H     -1.545776   -1.161710    2.038226
  H     -0.256818   -0.977822   -2.701475
  H      0.274348    0.516007   -1.782360
  H      1.943012   -2.131768   -2.001555
  H      2.500531    0.651840   -0.714193

 Total Charge           Charge          ....    0
 Multiplicity           Mult            ....    1
 Number of Electrons    NEL             ....   70
 Basis Dimension        Dim             ....  357

ORBITAL ENERGIES
----------------

  NO   OCC          E(Eh)            E(eV)
   0   2.0000     -20.556199      -559.3626
   1   2.0000     -15.575000      -423.8173
   2   2.0000     -11.333760      -308.4073
   3   2.0000     -11.281810      -306.9936
   4   2.0000     -11.276452      -306.8479
   5   2.0000     -11.274030      -306.7819
   6   2.0000     -11.227593      -305.5183
   7   2.0000     -11.220849      -305.3348
   8   2.0000     -11.217834      -305.2528
   9   2.0000      -1.394835       -37.9554
  10   2.0000      -1.291281       -35.1375
  11   2.0000      -1.103310       -30.0226
  12   2.0000      -0.957624       -26.0583
  13   2.0000      -0.948455       -25.8088
  14   2.0000      -0.933977       -25.4148
  15   2.0000      -0.885649       -24.0997
  16   2.0000      -0.810491       -22.0546
  17   2.0000      -0.750602       -20.4249
  18   2.0000      -0.680074       -18.5058
  19   2.0000      -0.678486       -18.4625
  20   2.0000      -0.645028       -17.5521
  21   2.0000      -0.613304       -16.6889
  22   2.0000      -0.607395       -16.5280
  23   2.0000      -0.588533       -16.0148
  24   2.0000      -0.568447       -15.4682
  25   2.0000      -0.552421       -15.0322
  26   2.0000      -0.547918       -14.9096
  27   2.0000      -0.536175       -14.5901
  28   2.0000      -0.524334       -14.2678
  29   2.0000      -0.510490       -13.8911
  30   2.0000      -0.486584       -13.2406
  31   2.0000      -0.470263       -12.7965
  32   2.0000      -0.452316       -12.3081
  33   2.0000      -0.422175       -11.4880
  34   2.0000      -0.377425       -10.2702
  35   0.0000       0.121442         3.3046
  36   0.0000       0.128581         3.4989
  37   0.0000       0.161867         4.4046
  38   0.0000       0.171444         4.6652
  39   0.0000       0.174066         4.7366

MULLIKEN ATOMIC CHARGES
-----------------------
   0 C :   -0.434357
   1 C :    0.132320
   2 C :   -0.403528
   3 C :   -0.383697
   4 N :   -0.187896
   5 C :   -0.201600
   6 C :   -0.020398
   7 C :    0.052951
   8 O :   -0.266534
   9 H :    0.133696
  10 H :    0.138884
  11 H :    0.139971
  12 H :    0.131591
  13 H :    0.144065
  14 H :    0.138831
  15 H :    0.128608
  16 H :    0.138202
  17 H :    0.124044
  18 H :    0.140354
  19 H :    0.133520
  20 H :    0.135821
  21 H :    0.085153
Sum of atomic charges:    0.0000000

LOEWDIN ATOMIC CHARGES
----------------------
   0 C :   -0.279662
   1 C :   -0.379126
   2 C :   -0.263326
   3 C :   -0.267864
   4 N :    0.176194
   5 C :   -0.232382
   6 C :   -0.243963
   7 C :   -0.303471
   8 O :    0.130157
   9 H :    0.119444
  10 H :    0.125623
  11 H :    0.132747
  12 H :    0.129109
  13 H :    0.131907
  14 H :    0.127655
  15 H :    0.125529
  16 H :    0.127985
  17 H :    0.124596
  18 H :    0.128727
  19 H :    0.126755
  20 H :    0.149667
  21 H :    0.113699

  Mayer bond orders larger than 0.1
B(  0-C ,  1-C ) :   0.9068 B(  0-C ,  9-H ) :   0.9350 B(  0-C , 10-H ) :   0.9336
B(  0-C , 11-H ) :   0.9315 B(  1-C ,  2-C ) :   0.9248 B(  1-C ,  3-C ) :   0.9153
B(  1-C ,  4-N ) :   0.8444 B(  2-C , 12-H ) :   0.9326 B(  2-C , 13-H ) :   0.9342
B(  2-C , 14-H ) :   0.9273 B(  3-C , 15-H ) :   0.9287 B(  3-C , 16-H ) :   0.9365
B(  3-C , 17-H ) :   0.9365 B(  4-N ,  5-C ) :   0.9143 B(  4-N ,  6-C ) :   0.8671
B(  5-C ,  6-C ) :   0.8536 B(  5-C , 18-H ) :   0.9177 B(  5-C , 19-H ) :   0.9248
B(  6-C ,  7-C ) :   0.8760 B(  6-C , 20-H ) :   0.9166 B(  7-C ,  8-O ) :   1.9758
B(  7-C , 21-H ) :   0.9507

MP2 TOTAL ENERGY:     -403.634553169 Eh
FINAL SINGLE POINT ENERGY      -403.634553169334

DIPOLE MOMENT
-------------
                                X             Y             Z
Electronic contribution:      7.35830      -1.06367      -6.89583
Nuclear contribution   :     -8.45841       1.50142       7.21107
                        -----------------------------------------
Total Dipole Moment    :     -1.10012       0.43776       0.31523
                        -----------------------------------------
Magnitude (a.u.)       :      1.22526
Magnitude (Debye)      :      3.11436

                             ****ORCA TERMINATED NORMALLY****
TOTAL RUN TIME: 0 days 0 hours 24 minutes 32 seconds 746 msec
