                         Program Version 3.0.3 - RELEASE   -
|  1> ! RI-MP2 RIJK def2-TZVP def2-TZVP/C def2-TZVP/JK TIGHTSCF
|  2> % maxcore 2000
|  3> % mp2 density relaxed end
|  4> *xyz 0 1
|  5>  C       -0.0694312079     1.5604564272     0.0533454279
|  6>  C        1.4888441171     1.5426813799    -0.0025051832
|  7>  C        2.0950355000     1.3014099188     1.3711848194
|  8>  C        1.3748268652     0.2420961747     2.1962818323
|  9>  C        2.6736900928    -0.0807236745     1.4771830847
| 10>  N        1.9501936374    -0.8705061227     0.4426609767
| 11>  C        0.6478781709    -0.6640525419     1.1940080594
| 12>  C       -0.0276783459     0.0240577591    -0.0384338981
| 13>  C        1.4254980572     0.0852633883    -0.5951988821
| 14>  H       -0.5290420884     2.0164688112     0.9358736858
| 15>  H       -0.5090811604     1.9958944508    -0.8483101698
| 16>  H        1.9944037059     2.3259629233    -0.5697108721
| 17>  H        2.5596624230     2.1111205143     1.9223250590
| 18>  H        1.1705869656     0.3555037965     3.2537410438
| 19>  H        3.6617736373    -0.3428094515     1.8343434708
| 20>  H        0.1829105319    -1.5625330926     1.6058674532
| 21>  H       -0.8424403266    -0.5283900985    -0.5057021536
| 22>  H        1.7240272449    -0.0877994625    -1.6296550040
| 23> *
| 24>
| 25>                          ****END OF INPUT****

CARTESIAN COORDINATES (ANGSTROEM)
---------------------------------
  C     -0.069431    1.560456    0.053345
  C      1.488844    1.542681   -0.002505
  C      2.095035    1.301410    1.371185
  C      1.374827    0.242096    2.196282
  C      2.673690   -0.080724    1.477183
  N      1.950194   -0.870506    0.442661
  C      0.647878   -0.664053    1.194008
  C     -0.027678    0.024058   -0.038434
  C      1.425498    0.085263   -0.595199
  H     -0.529042    2.016469    0.935874
  H     -0.509081    1.995894   -0.848310
  H      1.994404    2.325963   -0.569711
  H      2.559662    2.111121    1.922325
  H      1.170587    0.355504    3.253741
  H      3.661774   -0.342809    1.834343
  H      0.182911   -1.562533    1.605867
  H     -0.842440   -0.528390   -0.505702
  H      1.724027   -0.087799   -1.629655

 Total Charge           Charge          ....    0
 Multiplicity           Mult            ....    1
 Number of Electrons    NEL             ....   64
 Basis Dimension        Dim             ....  333

ORBITAL ENERGIES
----------------

  NO   OCC          E(Eh)            E(eV)
   0   2.0000     -15.542863      -422.9428
   1   2.0000     -11.259548      -306.3879
   2   2.0000     -11.253397      -306.2205
   3   2.0000     -11.250349      -306.1376
   4   2.0000     -11.234230      -305.6989
   5   2.0000     -11.233374      -305.6756
   6   2.0000     -11.230627      -305.6009
   7   2.0000     -11.227387      -305.5127
   8   2.0000     -11.221625      -305.3559
   9   2.0000      -1.300641       -35.3922
  10   2.0000      -1.109639       -30.1948
  11   2.0000      -1.075440       -29.2642
  12   2.0000      -0.964995       -26.2589
  13   2.0000      -0.876527       -23.8515
  14   2.0000      -0.845928       -23.0189
  15   2.0000      -0.794659       -21.6238
  16   2.0000      -0.754107       -20.5203
  17   2.0000      -0.719593       -19.5811
  18   2.0000      -0.666577       -18.1385
  19   2.0000      -0.647841       -17.6287
  20   2.0000      -0.621080       -16.9005
  21   2.0000      -0.591543       -16.0967
  22   2.0000      -0.566860       -15.4251
  23   2.0000      -0.543736       -14.7958
  24   2.0000      -0.507758       -13.8168
  25   2.0000      -0.495088       -13.4720
  26   2.0000      -0.460939       -12.5428
  27   2.0000      -0.440215       -11.9789
  28   2.0000      -0.422133       -11.4868
  29   2.0000      -0.394955       -10.7473
  30   2.0000      -0.378143       -10.2898
  31   2.0000      -0.352011        -9.5787
  32   0.0000       0.143992         3.9182
  33   0.0000       0.155733         4.2377
  34   0.0000       0.168518         4.5856
  35   0.0000       0.174944         4.7605
  36   0.0000       0.193324         5.2606

MULLIKEN ATOMIC CHARGES
-----------------------
   0 C :   -0.308804
   1 C :    0.057993
   2 C :   -0.215276
   3 C :   -0.185437
   4 C :   -0.079757
   5 N :   -0.188621
   6 C :   -0.009198
   7 C :   -0.108709
   8 C :   -0.068826
   9 H :    0.109930
  10 H :    0.119769
  11 H :    0.125444
  12 H :    0.126135
  13 H :    0.132106
  14 H :    0.131217
  15 H :    0.122196
  16 H :    0.122908
  17 H :    0.116930
Sum of atomic charges:    0.0000000

LOEWDIN ATOMIC CHARGES
----------------------
   0 C :   -0.200504
   1 C :   -0.172705
   2 C :   -0.168238
   3 C :   -0.147309
   4 C :   -0.183808
   5 N :    0.144189
   6 C :   -0.156936
   7 C :   -0.171282
   8 C :   -0.160724
   9 H :    0.127856
  10 H :    0.136354
  11 H :    0.140094
  12 H :    0.151634
  13 H :    0.134656
  14 H :    0.130556
  15 H :    0.135346
  16 H :    0.133060
  17 H :    0.127760

  Mayer bond orders larger than 0.1
B(  0-C ,  1-C ) :   0.8960 B(  0-C ,  7-C ) :   0.9374 B(  0-C ,  9-H ) :   0.9084
B(  0-C , 10-H ) :   0.9220 B(  1-C ,  2-C ) :   0.9046 B(  1-C ,  8-C ) :   0.9138
B(  1-C , 11-H ) :   0.9133 B(  2-C ,  3-C ) :   0.8778 B(  2-C ,  4-C ) :   0.8759
B(  2-C , 12-H ) :   0.9282 B(  3-C ,  4-C ) :   0.8551 B(  3-C ,  6-C ) :   0.9508
B(  3-C , 13-H ) :   0.9207 B(  4-C ,  5-N ) :   0.9706 B(  4-C , 14-H ) :   0.9246
B(  5-N ,  6-C ) :   0.9560 B(  5-N ,  8-C ) :   0.9177 B(  6-C ,  7-C ) :   0.9301
B(  6-C , 15-H ) :   0.8933 B(  7-C ,  8-C ) :   0.8990 B(  7-C , 16-H ) :   0.9162
B(  8-C , 17-H ) :   0.9211

MP2 TOTAL ENERGY:     -364.081016271 Eh
FINAL SINGLE POINT ENERGY      -364.081016270693

DIPOLE MOMENT
-------------
                                X             Y             Z
Electronic contribution:      1.73420      -2.29674       0.24960
Nuclear contribution   :     -1.95057       2.88970      -0.05450
                        -----------------------------------------
Total Dipole Moment    :     -0.21637       0.59295       0.19510
                        -----------------------------------------
Magnitude (a.u.)       :      0.66066
Magnitude (Debye)      :      1.67927

                             ****ORCA TERMINATED NORMALLY****
TOTAL RUN TIME: 0 days 0 hours 20 minutes 52 seconds 160 msec
