                         Program Version 3.0.3 - RELEASE   -
|  1> ! RI-MP2 RIJK def2-TZVP def2-TZVP/C def2-TZVP/JK TIGHTSCF
|  2> % maxcore 2000
|  3> % mp2 density relaxed end
|  4> *xyz 0 1
|  5>  C       -0.0105170894     1.5577324074     0.0121863806
|  6>  C        0.1072057089     0.0500246771    -0.0775775910
|  7>  C        0.6890359841    -0.7290621342    -1.2066638791
|  8>  C       -0.0328945254    -1.8550374377    -1.8927424123
|  9>  C        1.9234403942    -0.0303419858    -1.8011488022
| 10>  C        2.6135912659    -0.0142703710    -0.4026211376
| 11>  C        1.3972127462    -0.7090994011     0.2073044445
| 12>  C        1.4573839929    -1.8024327090     1.1761948386
| 13>  O        2.4725251353    -2.2013057319     1.7029638434
| 14>  H        0.8494101288     2.0719871344    -0.4224743176
| 15>  H       -0.9051109550     1.9023462555    -0.5177140149
| 16>  H       -0.0962078849     1.8774101917     1.0558194009
| 17>  H       -0.7497576102    -0.4657727620     0.3569233131
| 18>  H       -0.5920745374    -1.4764705032    -2.7578564885
| 19>  H        0.6647130998    -2.6157096771    -2.2596319893
| 20>  H       -0.7507889433    -2.3447708371    -1.2280314118
| 21>  H        2.4492248182    -0.6693236892    -2.5142900203
| 22>  H        1.7397400867     0.9371119886    -2.2790433454
| 23>  H        3.4981077532    -0.6507957421    -0.3571835767
| 24>  H        2.8701013045     0.9643847664     0.0127215287
| 25>  H        0.4723502670    -2.2774269298     1.3989313569
| 26> *
| 27>
| 28>                          ****END OF INPUT****

CARTESIAN COORDINATES (ANGSTROEM)
---------------------------------
  C     -0.010517    1.557732    0.012186
  C      0.107206    0.050025   -0.077578
  C      0.689036   -0.729062   -1.206664
  C     -0.032895   -1.855037   -1.892742
  C      1.923440   -0.030342   -1.801149
  C      2.613591   -0.014270   -0.402621
  C      1.397213   -0.709099    0.207304
  C      1.457384   -1.802433    1.176195
  O      2.472525   -2.201306    1.702964
  H      0.849410    2.071987   -0.422474
  H     -0.905111    1.902346   -0.517714
  H     -0.096208    1.877410    1.055819
  H     -0.749758   -0.465773    0.356923
  H     -0.592075   -1.476471   -2.757856
  H      0.664713   -2.615710   -2.259632
  H     -0.750789   -2.344771   -1.228031
  H      2.449225   -0.669324   -2.514290
  H      1.739740    0.937112   -2.279043
  H      3.498108   -0.650796   -0.357184
  H      2.870101    0.964385    0.012722
  H      0.472350   -2.277427    1.398931

 Total Charge           Charge          ....    0
 Multiplicity           Mult            ....    1
 Number of Electrons    NEL             ....   68
 Basis Dimension        Dim             ....  351

ORBITAL ENERGIES
----------------

  NO   OCC          E(Eh)            E(eV)
   0   2.0000     -20.540095      -558.9244
   1   2.0000     -11.322831      -308.1099
   2   2.0000     -11.260743      -306.4204
   3   2.0000     -11.253658      -306.2276
   4   2.0000     -11.242032      -305.9113
   5   2.0000     -11.234168      -305.6973
   6   2.0000     -11.232692      -305.6571
   7   2.0000     -11.229442      -305.5687
   8   2.0000     -11.228021      -305.5300
   9   2.0000      -1.378458       -37.5098
  10   2.0000      -1.209027       -32.8993
  11   2.0000      -1.023249       -27.8440
  12   2.0000      -1.002025       -27.2665
  13   2.0000      -0.966224       -26.2923
  14   2.0000      -0.896675       -24.3998
  15   2.0000      -0.843857       -22.9625
  16   2.0000      -0.761413       -20.7191
  17   2.0000      -0.707241       -19.2450
  18   2.0000      -0.677678       -18.4405
  19   2.0000      -0.647713       -17.6252
  20   2.0000      -0.635537       -17.2938
  21   2.0000      -0.604628       -16.4528
  22   2.0000      -0.588804       -16.0222
  23   2.0000      -0.569707       -15.5025
  24   2.0000      -0.567301       -15.4371
  25   2.0000      -0.549898       -14.9635
  26   2.0000      -0.533001       -14.5037
  27   2.0000      -0.518735       -14.1155
  28   2.0000      -0.512907       -13.9569
  29   2.0000      -0.496970       -13.5232
  30   2.0000      -0.468545       -12.7497
  31   2.0000      -0.422775       -11.5043
  32   2.0000      -0.402980       -10.9656
  33   2.0000      -0.363787        -9.8991
  34   0.0000       0.123982         3.3737
  35   0.0000       0.126134         3.4323
  36   0.0000       0.152594         4.1523
  37   0.0000       0.161928         4.4063
  38   0.0000       0.174698         4.7538

MULLIKEN ATOMIC CHARGES
-----------------------
   0 C :   -0.404354
   1 C :   -0.143523
   2 C :    0.069678
   3 C :   -0.399770
   4 C :   -0.259485
   5 C :   -0.248657
   6 C :    0.109477
   7 C :    0.041515
   8 O :   -0.288474
   9 H :    0.136509
  10 H :    0.137725
  11 H :    0.140393
  12 H :    0.126403
  13 H :    0.140933
  14 H :    0.138942
  15 H :    0.131054
  16 H :    0.119917
  17 H :    0.126808
  18 H :    0.134179
  19 H :    0.128032
  20 H :    0.062699
Sum of atomic charges:    0.0000000

LOEWDIN ATOMIC CHARGES
----------------------
   0 C :   -0.281062
   1 C :   -0.171579
   2 C :   -0.172244
   3 C :   -0.270303
   4 C :   -0.187179
   5 C :   -0.182818
   6 C :   -0.164797
   7 C :   -0.285248
   8 O :    0.115625
   9 H :    0.128929
  10 H :    0.128592
  11 H :    0.129551
  12 H :    0.162360
  13 H :    0.133172
  14 H :    0.130059
  15 H :    0.129901
  16 H :    0.138695
  17 H :    0.129184
  18 H :    0.144795
  19 H :    0.130087
  20 H :    0.114282

  Mayer bond orders larger than 0.1
B(  0-C ,  1-C ) :   0.8972 B(  0-C ,  9-H ) :   0.9387 B(  0-C , 10-H ) :   0.9356
B(  0-C , 11-H ) :   0.9362 B(  1-C ,  2-C ) :   0.8996 B(  1-C ,  6-C ) :   0.8160
B(  1-C , 12-H ) :   0.9375 B(  2-C ,  3-C ) :   0.8821 B(  2-C ,  4-C ) :   0.9333
B(  2-C ,  6-C ) :   0.7072 B(  3-C , 13-H ) :   0.9338 B(  3-C , 14-H ) :   0.9393
B(  3-C , 15-H ) :   0.9356 B(  4-C ,  5-C ) :   0.9866 B(  4-C , 16-H ) :   0.9121
B(  4-C , 17-H ) :   0.9286 B(  5-C ,  6-C ) :   0.9058 B(  5-C , 18-H ) :   0.9029
B(  5-C , 19-H ) :   0.9317 B(  6-C ,  7-C ) :   0.9011 B(  6-C ,  8-O ) :  -0.1011
B(  7-C ,  8-O ) :   1.9869 B(  7-C , 20-H ) :   0.9647

MP2 TOTAL ENERGY:     -386.405476294 Eh
FINAL SINGLE POINT ENERGY      -386.405476293991

DIPOLE MOMENT
-------------
                                X             Y             Z
Electronic contribution:      3.54479      -4.10220       5.26783
Nuclear contribution   :     -4.43359       4.69017      -6.15651
                        -----------------------------------------
Total Dipole Moment    :     -0.88880       0.58797      -0.88869
                        -----------------------------------------
Magnitude (a.u.)       :      1.38761
Magnitude (Debye)      :      3.52701

                             ****ORCA TERMINATED NORMALLY****
TOTAL RUN TIME: 0 days 0 hours 20 minutes 20 seconds 531 msec
