                         Program Version 3.0.3 - RELEASE   -
|  1> ! RI-MP2 RIJK def2-TZVP def2-TZVP/C def2-TZVP/JK TIGHTSCF
|  2> % maxcore 2000
|  3> % mp2 density relaxed end
|  4> *xyz 0 1
|  5>  O       -0.6176879231     1.5193853446    -0.6818270104
|  6>  C       -0.5139222445     0.1184237888    -0.8787882470
|  7>  C       -1.5325441296    -0.5394052250     0.0500667029
|  8>  C       -1.5903238684    -2.0493981635    -0.0826966423
|  9>  C       -0.3713282593    -2.8178346490     0.4167259498
| 10>  C       -0.4332452024    -4.3167211481     0.1963620461
| 11>  O       -0.1269857978    -5.1325197371     1.0281871667
| 12>  C       -2.9010479072    -2.7154210555    -0.1346245861
| 13>  O       -2.1349424535    -2.5182984854    -1.3284901023
| 14>  H       -0.0123148565     1.9548173898    -1.2888843657
| 15>  H       -0.7399793149    -0.1641087829    -1.9177470438
| 16>  H        0.5042531224    -0.2359379420    -0.6519534634
| 17>  H       -1.3011695224    -0.2668014724     1.0866406800
| 18>  H       -2.5161783795    -0.1198429636    -0.1821303026
| 19>  H        0.5168022894    -2.4615302876    -0.1257908473
| 20>  H       -0.2009367212    -2.6252008313     1.4803347570
| 21>  H       -0.7653848209    -4.6188209474    -0.8190756740
| 22>  H       -3.0011232499    -3.7511145889     0.1900033437
| 23>  H       -3.8106076807    -2.1217927034    -0.0611812512
| 24> *
| 25>
| 26>                          ****END OF INPUT****

CARTESIAN COORDINATES (ANGSTROEM)
---------------------------------
  O     -0.617688    1.519385   -0.681827
  C     -0.513922    0.118424   -0.878788
  C     -1.532544   -0.539405    0.050067
  C     -1.590324   -2.049398   -0.082697
  C     -0.371328   -2.817835    0.416726
  C     -0.433245   -4.316721    0.196362
  O     -0.126986   -5.132520    1.028187
  C     -2.901048   -2.715421   -0.134625
  O     -2.134942   -2.518298   -1.328490
  H     -0.012315    1.954817   -1.288884
  H     -0.739979   -0.164109   -1.917747
  H      0.504253   -0.235938   -0.651953
  H     -1.301170   -0.266801    1.086641
  H     -2.516178   -0.119843   -0.182130
  H      0.516802   -2.461530   -0.125791
  H     -0.200937   -2.625201    1.480335
  H     -0.765385   -4.618821   -0.819076
  H     -3.001123   -3.751115    0.190003
  H     -3.810608   -2.121793   -0.061181

 Total Charge           Charge          ....    0
 Multiplicity           Mult            ....    1
 Number of Electrons    NEL             ....   70
 Basis Dimension        Dim             ....  339

ORBITAL ENERGIES
----------------

  NO   OCC          E(Eh)            E(eV)
   0   2.0000     -20.581958      -560.0635
   1   2.0000     -20.565664      -559.6202
   2   2.0000     -20.561162      -559.4977
   3   2.0000     -11.335662      -308.4590
   4   2.0000     -11.314243      -307.8762
   5   2.0000     -11.296340      -307.3890
   6   2.0000     -11.287812      -307.1570
   7   2.0000     -11.254354      -306.2465
   8   2.0000     -11.239913      -305.8536
   9   2.0000      -1.427307       -38.8390
  10   2.0000      -1.399357       -38.0784
  11   2.0000      -1.370192       -37.2848
  12   2.0000      -1.082617       -29.4595
  13   2.0000      -1.023343       -27.8466
  14   2.0000      -0.935896       -25.4670
  15   2.0000      -0.879371       -23.9289
  16   2.0000      -0.817950       -22.2575
  17   2.0000      -0.780909       -21.2496
  18   2.0000      -0.719702       -19.5841
  19   2.0000      -0.705121       -19.1873
  20   2.0000      -0.668647       -18.1948
  21   2.0000      -0.661098       -17.9894
  22   2.0000      -0.644579       -17.5399
  23   2.0000      -0.617386       -16.7999
  24   2.0000      -0.612628       -16.6705
  25   2.0000      -0.580594       -15.7988
  26   2.0000      -0.555002       -15.1024
  27   2.0000      -0.539733       -14.6869
  28   2.0000      -0.526182       -14.3182
  29   2.0000      -0.517788       -14.0897
  30   2.0000      -0.508384       -13.8338
  31   2.0000      -0.467396       -12.7185
  32   2.0000      -0.455103       -12.3840
  33   2.0000      -0.439150       -11.9499
  34   2.0000      -0.419521       -11.4158
  35   0.0000       0.127646         3.4734
  36   0.0000       0.131339         3.5739
  37   0.0000       0.145640         3.9631
  38   0.0000       0.159368         4.3366
  39   0.0000       0.166218         4.5230

MULLIKEN ATOMIC CHARGES
-----------------------
   0 O :   -0.462201
   1 C :   -0.115006
   2 C :   -0.145706
   3 C :    0.116428
   4 C :   -0.166930
   5 C :    0.048654
   6 O :   -0.261728
   7 C :   -0.073087
   8 O :   -0.348734
   9 H :    0.318441
  10 H :    0.121673
  11 H :    0.094003
  12 H :    0.121210
  13 H :    0.120415
  14 H :    0.133838
  15 H :    0.134109
  16 H :    0.112691
  17 H :    0.127791
  18 H :    0.124139
Sum of atomic charges:   -0.0000000

LOEWDIN ATOMIC CHARGES
----------------------
   0 O :   -0.047626
   1 C :   -0.344888
   2 C :   -0.223999
   3 C :   -0.323842
   4 C :   -0.219476
   5 C :   -0.291166
   6 O :    0.131646
   7 C :   -0.237479
   8 O :    0.161501
   9 H :    0.173975
  10 H :    0.121536
  11 H :    0.112607
  12 H :    0.149982
  13 H :    0.152175
  14 H :    0.159936
  15 H :    0.156302
  16 H :    0.119643
  17 H :    0.125152
  18 H :    0.124022

  Mayer bond orders larger than 0.1
B(  0-O ,  1-C ) :   1.0195 B(  0-O ,  9-H ) :   0.8474 B(  1-C ,  2-C ) :   0.9186
B(  1-C , 10-H ) :   0.9295 B(  1-C , 11-H ) :   0.9313 B(  2-C ,  3-C ) :   0.8944
B(  2-C , 12-H ) :   0.9263 B(  2-C , 13-H ) :   0.9182 B(  3-C ,  4-C ) :   0.8907
B(  3-C ,  7-C ) :   0.9844 B(  3-C ,  8-O ) :   0.8282 B(  4-C ,  5-C ) :   0.8852
B(  4-C , 14-H ) :   0.9090 B(  4-C , 15-H ) :   0.8973 B(  5-C ,  6-O ) :   1.9948
B(  5-C , 16-H ) :   0.9345 B(  7-C ,  8-O ) :   0.8894 B(  7-C , 17-H ) :   0.9110
B(  7-C , 18-H ) :   0.9042

MP2 TOTAL ENERGY:     -459.406499731 Eh
FINAL SINGLE POINT ENERGY      -459.406499731249

DIPOLE MOMENT
-------------
                                X             Y             Z
Electronic contribution:      0.19756      -4.51203       0.14420
Nuclear contribution   :     -0.11766       5.26505      -0.48084
                        -----------------------------------------
Total Dipole Moment    :      0.07990       0.75302      -0.33664
                        -----------------------------------------
Magnitude (a.u.)       :      0.82871
Magnitude (Debye)      :      2.10640

                             ****ORCA TERMINATED NORMALLY****
TOTAL RUN TIME: 0 days 0 hours 16 minutes 43 seconds 149 msec
