                         Program Version 3.0.3 - RELEASE   -
|  1> ! RI-MP2 RIJK def2-TZVP def2-TZVP/C def2-TZVP/JK TIGHTSCF
|  2> % maxcore 2000
|  3> % mp2 density relaxed end
|  4> *xyz 0 1
|  5>  C       -0.0009537722     1.4731577828    -0.2870543800
|  6>  C        0.0830443557    -0.0049916877     0.1243263953
|  7>  C        0.7390289202    -0.1695255525     1.5019519771
|  8>  C       -1.3102755134    -0.6174826756     0.1074817066
|  9>  C       -1.9238019525    -1.1610385793    -1.1281495843
| 10>  O       -1.1405297816    -1.1220820073    -2.2816920397
| 11>  C       -1.5656234621    -2.1359679724     0.0064210226
| 12>  C       -0.4554048721    -3.0958220899    -0.1638024064
| 13>  O       -0.4311726685    -4.1900294992     0.3524569102
| 14>  H        0.9924732503     1.9331249878    -0.2868703131
| 15>  H       -0.4247247060     1.5768323081    -1.2899023972
| 16>  H       -0.6296047837     2.0412517931     0.4093799584
| 17>  H        0.7004338735    -0.5161577158    -0.6203240964
| 18>  H        0.8284186675    -1.2237418768     1.7823197932
| 19>  H        1.7421814619     0.2687439928     1.5100181756
| 20>  H        0.1510700804     0.3326038527     2.2795267943
| 21>  H       -2.0032091160    -0.1226774577     0.7852771079
| 22>  H       -2.9891692830    -1.0011769800    -1.2917686825
| 23>  H       -1.4056824051    -1.8479037106    -2.8564533236
| 24>  H       -2.3863887847    -2.5329356542     0.5947846943
| 25>  H        0.3728048316    -2.7602560885    -0.8216195722
| 26> *
| 27>
| 28>                          ****END OF INPUT****

CARTESIAN COORDINATES (ANGSTROEM)
---------------------------------
  C     -0.000954    1.473158   -0.287054
  C      0.083044   -0.004992    0.124326
  C      0.739029   -0.169526    1.501952
  C     -1.310276   -0.617483    0.107482
  C     -1.923802   -1.161039   -1.128150
  O     -1.140530   -1.122082   -2.281692
  C     -1.565623   -2.135968    0.006421
  C     -0.455405   -3.095822   -0.163802
  O     -0.431173   -4.190029    0.352457
  H      0.992473    1.933125   -0.286870
  H     -0.424725    1.576832   -1.289902
  H     -0.629605    2.041252    0.409380
  H      0.700434   -0.516158   -0.620324
  H      0.828419   -1.223742    1.782320
  H      1.742181    0.268744    1.510018
  H      0.151070    0.332604    2.279527
  H     -2.003209   -0.122677    0.785277
  H     -2.989169   -1.001177   -1.291769
  H     -1.405682   -1.847904   -2.856453
  H     -2.386389   -2.532936    0.594785
  H      0.372805   -2.760256   -0.821620

 Total Charge           Charge          ....    0
 Multiplicity           Mult            ....    1
 Number of Electrons    NEL             ....   70
 Basis Dimension        Dim             ....  351

ORBITAL ENERGIES
----------------

  NO   OCC          E(Eh)            E(eV)
   0   2.0000     -20.585181      -560.1512
   1   2.0000     -20.546674      -559.1034
   2   2.0000     -11.327596      -308.2396
   3   2.0000     -11.308277      -307.7139
   4   2.0000     -11.253476      -306.2227
   5   2.0000     -11.245530      -306.0064
   6   2.0000     -11.239948      -305.8545
   7   2.0000     -11.218235      -305.2637
   8   2.0000     -11.216903      -305.2274
   9   2.0000      -1.396900       -38.0116
  10   2.0000      -1.384158       -37.6648
  11   2.0000      -1.162063       -31.6213
  12   2.0000      -1.063599       -28.9420
  13   2.0000      -0.936710       -25.4892
  14   2.0000      -0.918570       -24.9956
  15   2.0000      -0.854355       -23.2482
  16   2.0000      -0.803370       -21.8608
  17   2.0000      -0.753155       -20.4944
  18   2.0000      -0.719006       -19.5652
  19   2.0000      -0.705144       -19.1879
  20   2.0000      -0.644408       -17.5352
  21   2.0000      -0.623102       -16.9555
  22   2.0000      -0.612774       -16.6744
  23   2.0000      -0.590083       -16.0570
  24   2.0000      -0.580976       -15.8092
  25   2.0000      -0.571486       -15.5509
  26   2.0000      -0.544710       -14.8223
  27   2.0000      -0.539323       -14.6757
  28   2.0000      -0.521140       -14.1809
  29   2.0000      -0.494938       -13.4679
  30   2.0000      -0.489682       -13.3249
  31   2.0000      -0.476005       -12.9527
  32   2.0000      -0.439827       -11.9683
  33   2.0000      -0.409434       -11.1413
  34   2.0000      -0.399745       -10.8776
  35   0.0000       0.117844         3.2067
  36   0.0000       0.130337         3.5466
  37   0.0000       0.144719         3.9380
  38   0.0000       0.157561         4.2875
  39   0.0000       0.175992         4.7890

MULLIKEN ATOMIC CHARGES
-----------------------
   0 C :   -0.412056
   1 C :   -0.038172
   2 C :   -0.387425
   3 C :   -0.119565
   4 C :    0.009987
   5 O :   -0.462430
   6 C :   -0.060240
   7 C :    0.022001
   8 O :   -0.277508
   9 H :    0.133162
  10 H :    0.148668
  11 H :    0.118294
  12 H :    0.101028
  13 H :    0.143121
  14 H :    0.134169
  15 H :    0.119438
  16 H :    0.132225
  17 H :    0.124765
  18 H :    0.329317
  19 H :    0.136989
  20 H :    0.104230
Sum of atomic charges:   -0.0000000

LOEWDIN ATOMIC CHARGES
----------------------
   0 C :   -0.285361
   1 C :   -0.287838
   2 C :   -0.286433
   3 C :   -0.159471
   4 C :   -0.289897
   5 O :    0.011448
   6 C :   -0.184378
   7 C :   -0.296639
   8 O :    0.118470
   9 H :    0.124162
  10 H :    0.128237
  11 H :    0.122592
  12 H :    0.156146
  13 H :    0.126309
  14 H :    0.124518
  15 H :    0.124026
  16 H :    0.159780
  17 H :    0.135555
  18 H :    0.185657
  19 H :    0.155675
  20 H :    0.117441

  Mayer bond orders larger than 0.1
B(  0-C ,  1-C ) :   0.9112 B(  0-C ,  9-H ) :   0.9383 B(  0-C , 10-H ) :   0.9400
B(  0-C , 11-H ) :   0.9312 B(  1-C ,  2-C ) :   0.9165 B(  1-C ,  3-C ) :   0.9393
B(  1-C , 12-H ) :   0.9238 B(  2-C , 13-H ) :   0.9382 B(  2-C , 14-H ) :   0.9405
B(  2-C , 15-H ) :   0.9272 B(  3-C ,  4-C ) :   0.8784 B(  3-C ,  6-C ) :   0.7968
B(  3-C , 16-H ) :   0.9098 B(  4-C ,  5-O ) :   1.0493 B(  4-C ,  6-C ) :   0.8063
B(  4-C , 17-H ) :   0.9492 B(  5-O , 18-H ) :   0.8372 B(  6-C ,  7-C ) :   0.8944
B(  6-C , 19-H ) :   0.9160 B(  7-C ,  8-O ) :   1.9670 B(  7-C , 20-H ) :   0.9574

MP2 TOTAL ENERGY:     -423.516324337 Eh
FINAL SINGLE POINT ENERGY      -423.516324336810

DIPOLE MOMENT
-------------
                                X             Y             Z
Electronic contribution:     -3.12829      -9.33594      -3.12711
Nuclear contribution   :      2.59077      10.17568       2.68435
                        -----------------------------------------
Total Dipole Moment    :     -0.53753       0.83975      -0.44276
                        -----------------------------------------
Magnitude (a.u.)       :      1.09094
Magnitude (Debye)      :      2.77295

                             ****ORCA TERMINATED NORMALLY****
TOTAL RUN TIME: 0 days 0 hours 20 minutes 59 seconds 400 msec
