                         Program Version 3.0.3 - RELEASE   -
|  1> ! RI-MP2 RIJK def2-TZVP def2-TZVP/C def2-TZVP/JK TIGHTSCF
|  2> % maxcore 2000
|  3> % mp2 density relaxed end
|  4> *xyz 0 1
|  5>  C       -0.0373077958     1.5125415630    -0.0775133834
|  6>  N       -0.0278964193     0.0808892431     0.1105049898
|  7>  C       -1.2476714170    -0.5761657987     0.6124710405
|  8>  C       -0.3418609330    -1.5551466124     1.4004562632
|  9>  C        0.7672973758    -0.4842186651     1.2148973394
| 10>  N       -0.7425725230    -1.9479962520     2.7217199989
| 11>  C       -0.5375686683    -3.2299699290     3.1888508274
| 12>  N       -0.8503185653    -3.3878096764     4.5362895392
| 13>  O       -0.1029014189    -4.1376477192     2.5060396741
| 14>  H        0.9600345053     1.8561252598    -0.3719597598
| 15>  H       -0.7335554903     1.7786835783    -0.8800155393
| 16>  H       -0.3358091640     2.0693672240     0.8327058445
| 17>  H       -1.8338826324     0.0621104098     1.2994748910
| 18>  H       -1.9176587897    -0.9787879611    -0.1543476980
| 19>  H       -0.1266874227    -2.4681321038     0.8483492638
| 20>  H        1.7778906706    -0.8119408107     0.9506447044
| 21>  H        0.8263045992     0.1839821128     2.0945820335
| 22>  H       -0.8821697474    -1.2156199462     3.4002306456
| 23>  H       -1.6032544520    -2.8274100215     4.9079592943
| 24>  H       -0.9041643418    -4.3606464148     4.7987958809
| 25> *
| 26>
| 27>                          ****END OF INPUT****

CARTESIAN COORDINATES (ANGSTROEM)
---------------------------------
  C     -0.037308    1.512542   -0.077513
  N     -0.027896    0.080889    0.110505
  C     -1.247671   -0.576166    0.612471
  C     -0.341861   -1.555147    1.400456
  C      0.767297   -0.484219    1.214897
  N     -0.742573   -1.947996    2.721720
  C     -0.537569   -3.229970    3.188851
  N     -0.850319   -3.387810    4.536290
  O     -0.102901   -4.137648    2.506040
  H      0.960035    1.856125   -0.371960
  H     -0.733555    1.778684   -0.880016
  H     -0.335809    2.069367    0.832706
  H     -1.833883    0.062110    1.299475
  H     -1.917659   -0.978788   -0.154348
  H     -0.126687   -2.468132    0.848349
  H      1.777891   -0.811941    0.950645
  H      0.826305    0.183982    2.094582
  H     -0.882170   -1.215620    3.400231
  H     -1.603254   -2.827410    4.907959
  H     -0.904164   -4.360646    4.798796

 Total Charge           Charge          ....    0
 Multiplicity           Mult            ....    1
 Number of Electrons    NEL             ....   70
 Basis Dimension        Dim             ....  345

ORBITAL ENERGIES
----------------

  NO   OCC          E(Eh)            E(eV)
   0   2.0000     -20.510198      -558.1108
   1   2.0000     -15.583280      -424.0426
   2   2.0000     -15.580082      -423.9556
   3   2.0000     -15.547760      -423.0761
   4   2.0000     -11.376433      -309.5685
   5   2.0000     -11.267325      -306.5995
   6   2.0000     -11.253667      -306.2279
   7   2.0000     -11.252845      -306.2055
   8   2.0000     -11.245394      -306.0027
   9   2.0000      -1.392559       -37.8934
  10   2.0000      -1.265345       -34.4318
  11   2.0000      -1.232472       -33.5373
  12   2.0000      -1.187939       -32.3255
  13   2.0000      -1.018990       -27.7281
  14   2.0000      -0.922770       -25.1098
  15   2.0000      -0.888239       -24.1702
  16   2.0000      -0.804807       -21.8999
  17   2.0000      -0.782071       -21.2812
  18   2.0000      -0.736584       -20.0435
  19   2.0000      -0.702467       -19.1151
  20   2.0000      -0.665544       -18.1104
  21   2.0000      -0.650114       -17.6905
  22   2.0000      -0.625670       -17.0253
  23   2.0000      -0.612981       -16.6801
  24   2.0000      -0.595969       -16.2171
  25   2.0000      -0.571468       -15.5504
  26   2.0000      -0.554472       -15.0879
  27   2.0000      -0.547566       -14.9000
  28   2.0000      -0.514155       -13.9909
  29   2.0000      -0.479493       -13.0477
  30   2.0000      -0.469633       -12.7794
  31   2.0000      -0.446301       -12.1445
  32   2.0000      -0.426013       -11.5924
  33   2.0000      -0.387327       -10.5397
  34   2.0000      -0.363143        -9.8816
  35   0.0000       0.117099         3.1864
  36   0.0000       0.138277         3.7627
  37   0.0000       0.161889         4.4052
  38   0.0000       0.177258         4.8234
  39   0.0000       0.180545         4.9129

MULLIKEN ATOMIC CHARGES
-----------------------
   0 C :   -0.311657
   1 N :   -0.128061
   2 C :   -0.168954
   3 C :    0.020665
   4 C :   -0.184840
   5 N :   -0.371486
   6 C :    0.400797
   7 N :   -0.532002
   8 O :   -0.395734
   9 H :    0.138135
  10 H :    0.137553
  11 H :    0.093773
  12 H :    0.081754
  13 H :    0.121256
  14 H :    0.153403
  15 H :    0.124942
  16 H :    0.083549
  17 H :    0.224679
  18 H :    0.246383
  19 H :    0.265846
Sum of atomic charges:    0.0000000

LOEWDIN ATOMIC CHARGES
----------------------
   0 C :   -0.342477
   1 N :    0.064470
   2 C :   -0.237893
   3 C :   -0.257565
   4 C :   -0.237809
   5 N :    0.100835
   6 C :   -0.567853
   7 N :   -0.074238
   8 O :    0.055560
   9 H :    0.119292
  10 H :    0.119037
  11 H :    0.097824
  12 H :    0.116846
  13 H :    0.121607
  14 H :    0.162345
  15 H :    0.122643
  16 H :    0.116378
  17 H :    0.181115
  18 H :    0.164145
  19 H :    0.175737

  Mayer bond orders larger than 0.1
B(  0-C ,  1-N ) :   0.9055 B(  0-C ,  9-H ) :   0.9386 B(  0-C , 10-H ) :   0.9382
B(  0-C , 11-H ) :   0.9237 B(  1-N ,  2-C ) :   0.9410 B(  1-N ,  4-C ) :   0.9420
B(  2-C ,  3-C ) :   0.9166 B(  2-C , 12-H ) :   0.9113 B(  2-C , 13-H ) :   0.9233
B(  3-C ,  4-C ) :   0.9459 B(  3-C ,  5-N ) :   0.8838 B(  3-C , 14-H ) :   0.9025
B(  4-C , 15-H ) :   0.9232 B(  4-C , 16-H ) :   0.9093 B(  5-N ,  6-C ) :   1.1042
B(  5-N , 17-H ) :   0.8684 B(  6-C ,  7-N ) :   1.0739 B(  6-C ,  8-O ) :   1.9188
B(  7-N , 18-H ) :   0.8729 B(  7-N , 19-H ) :   0.8697

MP2 TOTAL ENERGY:     -435.759731641 Eh
FINAL SINGLE POINT ENERGY      -435.759731640733

DIPOLE MOMENT
-------------
                                X             Y             Z
Electronic contribution:      0.01450      -8.39930       3.23363
Nuclear contribution   :     -0.80660       9.52962      -2.31034
                        -----------------------------------------
Total Dipole Moment    :     -0.79210       1.13032       0.92329
                        -----------------------------------------
Magnitude (a.u.)       :      1.66058
Magnitude (Debye)      :      4.22085

                             ****ORCA TERMINATED NORMALLY****
TOTAL RUN TIME: 0 days 0 hours 15 minutes 25 seconds 299 msec
