                         Program Version 3.0.3 - RELEASE   -
|  1> ! RI-MP2 RIJK def2-TZVP def2-TZVP/C def2-TZVP/JK TIGHTSCF
|  2> % maxcore 2000
|  3> % mp2 density relaxed end
|  4> *xyz 0 1
|  5>  C       -0.3742027839     1.1063846806    -0.1172898799
|  6>  C        1.1006668803     1.0332973089     0.2330696743
|  7>  C        0.3241961398    -0.2160167727    -0.0127423078
|  8>  O        0.0915848938    -1.0094842838     1.1303896497
|  9>  C       -0.9117502343    -1.8880685408     1.0393335751
| 10>  N       -1.6509693495    -2.0728927340    -0.0454013563
| 11>  N       -2.4898480977    -3.0630329984     0.3762070534
| 12>  C       -2.2139053863    -3.3993718634     1.6475210403
| 13>  N       -1.2133318492    -2.6738376950     2.1083337080
| 14>  H       -1.0587261767     1.3627495286     0.6828858552
| 15>  H       -0.6692911476     1.4536688628    -1.1008997798
| 16>  H        1.8357682511     1.3341562734    -0.5045073128
| 17>  H        1.3748354274     1.2384135381     1.2614618523
| 18>  H        0.4943878041    -0.7975217654    -0.9130723301
| 19>  H       -3.1903791151    -3.4228229706    -0.2495739857
| 20>  H       -2.7532795162    -4.1606444184     2.1910107341
| 21> *
| 22>
| 23>                          ****END OF INPUT****

CARTESIAN COORDINATES (ANGSTROEM)
---------------------------------
  C     -0.374203    1.106385   -0.117290
  C      1.100667    1.033297    0.233070
  C      0.324196   -0.216017   -0.012742
  O      0.091585   -1.009484    1.130390
  C     -0.911750   -1.888069    1.039334
  N     -1.650969   -2.072893   -0.045401
  N     -2.489848   -3.063033    0.376207
  C     -2.213905   -3.399372    1.647521
  N     -1.213332   -2.673838    2.108334
  H     -1.058726    1.362750    0.682886
  H     -0.669291    1.453669   -1.100900
  H      1.835768    1.334156   -0.504507
  H      1.374835    1.238414    1.261462
  H      0.494388   -0.797522   -0.913072
  H     -3.190379   -3.422823   -0.249574
  H     -2.753280   -4.160644    2.191011

 Total Charge           Charge          ....    0
 Multiplicity           Mult            ....    1
 Number of Electrons    NEL             ....   66
 Basis Dimension        Dim             ....  321

ORBITAL ENERGIES
----------------

  NO   OCC          E(Eh)            E(eV)
   0   2.0000     -20.594018      -560.3917
   1   2.0000     -15.648978      -425.8303
   2   2.0000     -15.583294      -424.0430
   3   2.0000     -15.555842      -423.2960
   4   2.0000     -11.347498      -308.7811
   5   2.0000     -11.325679      -308.1874
   6   2.0000     -11.288188      -307.1672
   7   2.0000     -11.227367      -305.5122
   8   2.0000     -11.226180      -305.4799
   9   2.0000      -1.448371       -39.4122
  10   2.0000      -1.392524       -37.8925
  11   2.0000      -1.200802       -32.6755
  12   2.0000      -1.139979       -31.0204
  13   2.0000      -1.101857       -29.9830
  14   2.0000      -0.892179       -24.2774
  15   2.0000      -0.851254       -23.1638
  16   2.0000      -0.827958       -22.5299
  17   2.0000      -0.781297       -21.2602
  18   2.0000      -0.773459       -21.0469
  19   2.0000      -0.699523       -19.0350
  20   2.0000      -0.673721       -18.3329
  21   2.0000      -0.650886       -17.7115
  22   2.0000      -0.631169       -17.1750
  23   2.0000      -0.603202       -16.4140
  24   2.0000      -0.573932       -15.6175
  25   2.0000      -0.536868       -14.6089
  26   2.0000      -0.517956       -14.0943
  27   2.0000      -0.508957       -13.8494
  28   2.0000      -0.451683       -12.2909
  29   2.0000      -0.430326       -11.7098
  30   2.0000      -0.424850       -11.5608
  31   2.0000      -0.404938       -11.0189
  32   2.0000      -0.354807        -9.6548
  33   0.0000       0.128556         3.4982
  34   0.0000       0.145953         3.9716
  35   0.0000       0.164148         4.4667
  36   0.0000       0.174932         4.7601
  37   0.0000       0.178429         4.8553

MULLIKEN ATOMIC CHARGES
-----------------------
   0 C :   -0.260267
   1 C :   -0.235272
   2 C :    0.032071
   3 O :   -0.245447
   4 C :    0.270064
   5 N :   -0.251949
   6 N :   -0.146648
   7 C :    0.045361
   8 N :   -0.290484
   9 H :    0.138704
  10 H :    0.128935
  11 H :    0.132317
  12 H :    0.142471
  13 H :    0.118795
  14 H :    0.262648
  15 H :    0.158702
Sum of atomic charges:   -0.0000000

LOEWDIN ATOMIC CHARGES
----------------------
   0 C :   -0.226062
   1 C :   -0.222937
   2 C :   -0.287839
   3 O :    0.295254
   4 C :   -0.480141
   5 N :    0.015004
   6 N :    0.119344
   7 C :   -0.321970
   8 N :    0.100692
   9 H :    0.139144
  10 H :    0.132351
  11 H :    0.132814
  12 H :    0.140782
  13 H :    0.138957
  14 H :    0.189767
  15 H :    0.134841

  Mayer bond orders larger than 0.1
B(  0-C ,  1-C ) :   0.9091 B(  0-C ,  2-C ) :   0.9082 B(  0-C ,  9-H ) :   0.9222
B(  0-C , 10-H ) :   0.9199 B(  1-C ,  2-C ) :   0.8860 B(  1-C , 11-H ) :   0.9266
B(  1-C , 12-H ) :   0.9209 B(  2-C ,  3-O ) :   0.8953 B(  2-C , 13-H ) :   0.9290
B(  3-O ,  4-C ) :   1.0944 B(  4-C ,  5-N ) :   1.5029 B(  4-C ,  8-N ) :   1.3551
B(  5-N ,  6-N ) :   1.0152 B(  6-N ,  7-C ) :   1.2374 B(  6-N , 14-H ) :   0.8671
B(  7-C ,  8-N ) :   1.4859 B(  7-C , 15-H ) :   0.9239

MP2 TOTAL ENERGY:     -433.340177570 Eh
FINAL SINGLE POINT ENERGY      -433.340177570149

DIPOLE MOMENT
-------------
                                X             Y             Z
Electronic contribution:     -2.58231      -6.44212       2.46929
Nuclear contribution   :      1.65300       6.04484      -3.28212
                        -----------------------------------------
Total Dipole Moment    :     -0.92931      -0.39728      -0.81283
                        -----------------------------------------
Magnitude (a.u.)       :      1.29697
Magnitude (Debye)      :      3.29664

                             ****ORCA TERMINATED NORMALLY****
TOTAL RUN TIME: 0 days 0 hours 13 minutes 56 seconds 299 msec
