                         Program Version 3.0.3 - RELEASE   -
|  1> ! RI-MP2 RIJK def2-TZVP def2-TZVP/C def2-TZVP/JK TIGHTSCF
|  2> % maxcore 2000
|  3> % mp2 density relaxed end
|  4> *xyz 0 1
|  5>  O        0.1928071306     1.4213138313    -0.1661190876
|  6>  C        0.0981482555     0.0324833717    -0.0925855162
|  7>  C        0.7479036667    -0.6163190888    -1.3242581497
|  8>  C        0.0298659918    -1.9653633558    -1.5154571779
|  9>  C       -1.4214637120    -1.6889933890    -1.0641052918
| 10>  C       -1.2636205003    -0.7197753292     0.0924199205
| 11>  O       -0.7119391595    -1.3768845677     1.2936587046
| 12>  C        0.4483772824    -0.6486677261     1.2451451299
| 13>  O        1.3244285717    -0.6119150843     2.0493840394
| 14>  H        0.0546692044     1.7986118878     0.7093899027
| 15>  H        0.5478203552     0.0569841250    -2.1656787762
| 16>  H        1.8316878043    -0.7041169070    -1.2190894788
| 17>  H        0.0906107404    -2.3286544416    -2.5435534142
| 18>  H        0.4788878739    -2.7301324525    -0.8739669466
| 19>  H       -1.9828145326    -1.1859490801    -1.8608486428
| 20>  H       -1.9743068861    -2.5897211260    -0.7846228531
| 21>  H       -2.1387027063    -0.1280586379     0.3635320677
| 22> *
| 23>
| 24>                          ****END OF INPUT****

CARTESIAN COORDINATES (ANGSTROEM)
---------------------------------
  O      0.192807    1.421314   -0.166119
  C      0.098148    0.032483   -0.092586
  C      0.747904   -0.616319   -1.324258
  C      0.029866   -1.965363   -1.515457
  C     -1.421464   -1.688993   -1.064105
  C     -1.263621   -0.719775    0.092420
  O     -0.711939   -1.376885    1.293659
  C      0.448377   -0.648668    1.245145
  O      1.324429   -0.611915    2.049384
  H      0.054669    1.798612    0.709390
  H      0.547820    0.056984   -2.165679
  H      1.831688   -0.704117   -1.219089
  H      0.090611   -2.328654   -2.543553
  H      0.478888   -2.730132   -0.873967
  H     -1.982815   -1.185949   -1.860849
  H     -1.974307   -2.589721   -0.784623
  H     -2.138703   -0.128059    0.363532

 Total Charge           Charge          ....    0
 Multiplicity           Mult            ....    1
 Number of Electrons    NEL             ....   68
 Basis Dimension        Dim             ....  327

ORBITAL ENERGIES
----------------

  NO   OCC          E(Eh)            E(eV)
   0   2.0000     -20.605568      -560.7060
   1   2.0000     -20.592694      -560.3557
   2   2.0000     -20.560839      -559.4889
   3   2.0000     -11.384772      -309.7954
   4   2.0000     -11.323037      -308.1155
   5   2.0000     -11.309989      -307.7605
   6   2.0000     -11.245512      -306.0059
   7   2.0000     -11.245308      -306.0004
   8   2.0000     -11.241662      -305.9012
   9   2.0000      -1.470874       -40.0245
  10   2.0000      -1.400081       -38.0981
  11   2.0000      -1.384511       -37.6745
  12   2.0000      -1.133502       -30.8442
  13   2.0000      -1.007293       -27.4098
  14   2.0000      -0.979224       -26.6460
  15   2.0000      -0.871841       -23.7240
  16   2.0000      -0.819812       -22.3082
  17   2.0000      -0.767264       -20.8783
  18   2.0000      -0.727630       -19.7998
  19   2.0000      -0.713718       -19.4213
  20   2.0000      -0.681695       -18.5499
  21   2.0000      -0.647692       -17.6246
  22   2.0000      -0.627600       -17.0779
  23   2.0000      -0.604221       -16.4417
  24   2.0000      -0.596677       -16.2364
  25   2.0000      -0.573032       -15.5930
  26   2.0000      -0.557916       -15.1817
  27   2.0000      -0.532912       -14.5013
  28   2.0000      -0.523039       -14.2326
  29   2.0000      -0.503386       -13.6978
  30   2.0000      -0.496666       -13.5150
  31   2.0000      -0.463658       -12.6168
  32   2.0000      -0.453694       -12.3456
  33   2.0000      -0.430110       -11.7039
  34   0.0000       0.124070         3.3761
  35   0.0000       0.129908         3.5350
  36   0.0000       0.156423         4.2565
  37   0.0000       0.167250         4.5511
  38   0.0000       0.179917         4.8958

MULLIKEN ATOMIC CHARGES
-----------------------
   0 O :   -0.436835
   1 C :    0.145262
   2 C :   -0.235228
   3 C :   -0.268092
   4 C :   -0.234106
   5 C :    0.074570
   6 O :   -0.244281
   7 C :    0.183578
   8 O :   -0.254296
   9 H :    0.330992
  10 H :    0.130598
  11 H :    0.146640
  12 H :    0.137220
  13 H :    0.137747
  14 H :    0.122468
  15 H :    0.138083
  16 H :    0.125681
Sum of atomic charges:   -0.0000000

LOEWDIN ATOMIC CHARGES
----------------------
   0 O :    0.042166
   1 C :   -0.323436
   2 C :   -0.202714
   3 C :   -0.246164
   4 C :   -0.238255
   5 C :   -0.200752
   6 O :    0.254490
   7 C :   -0.440322
   8 O :    0.159286
   9 H :    0.187751
  10 H :    0.151700
  11 H :    0.146254
  12 H :    0.136982
  13 H :    0.143036
  14 H :    0.148525
  15 H :    0.143712
  16 H :    0.137739

  Mayer bond orders larger than 0.1
B(  0-O ,  1-C ) :   1.0694 B(  0-O ,  9-H ) :   0.8333 B(  1-C ,  2-C ) :   0.8983
B(  1-C ,  5-C ) :   0.8484 B(  1-C ,  7-C ) :   0.9202 B(  2-C ,  3-C ) :   0.9287
B(  2-C , 10-H ) :   0.9221 B(  2-C , 11-H ) :   0.9223 B(  3-C ,  4-C ) :   0.9241
B(  3-C , 12-H ) :   0.9305 B(  3-C , 13-H ) :   0.9290 B(  4-C ,  5-C ) :   0.9287
B(  4-C , 14-H ) :   0.9175 B(  4-C , 15-H ) :   0.9138 B(  5-C ,  6-O ) :   0.8737
B(  5-C , 16-H ) :   0.9119 B(  6-O ,  7-C ) :   1.0928 B(  7-C ,  8-O ) :   2.0650

MP2 TOTAL ENERGY:     -458.275569802 Eh
FINAL SINGLE POINT ENERGY      -458.275569801901

DIPOLE MOMENT
-------------
                                X             Y             Z
Electronic contribution:      1.66647       2.47666       7.43781
Nuclear contribution   :     -2.50150      -2.36957      -8.42587
                        -----------------------------------------
Total Dipole Moment    :     -0.83504       0.10709      -0.98806
                        -----------------------------------------
Magnitude (a.u.)       :      1.29808
Magnitude (Debye)      :      3.29946

                             ****ORCA TERMINATED NORMALLY****
TOTAL RUN TIME: 0 days 0 hours 17 minutes 46 seconds 238 msec
