                         Program Version 3.0.3 - RELEASE   -
|  1> ! RI-MP2 RIJK def2-TZVP def2-TZVP/C def2-TZVP/JK TIGHTSCF
|  2> % maxcore 2000
|  3> % mp2 density relaxed end
|  4> *xyz 0 1
|  5>  C       -0.5038292848     1.2657396372     0.0167945871
|  6>  C        0.0887581278    -0.1134432126     0.0710304947
|  7>  O       -0.4672256378    -1.0266488270     1.0236238742
|  8>  C        0.9186244931    -0.6644378952     1.1516751005
|  9>  C        1.8650600282    -1.7160415749     0.6111684369
| 10>  C        1.2409042731    -2.1071844651    -0.7468593097
| 11>  C        0.5066441887    -0.8230637380    -1.2291981186
| 12>  C       -0.6070994319    -1.0887172848    -2.1360636953
| 13>  N       -1.4923748616    -1.2879934977    -2.8520153647
| 14>  H        0.1745978395     1.9634885300    -0.4855257504
| 15>  H       -1.4481155586     1.2552229380    -0.5372457403
| 16>  H       -0.7022225587     1.6333302891     1.0260377535
| 17>  H        1.1684570941    -0.0871581856     2.0385843863
| 18>  H        2.8604009119    -1.2722309644     0.4865970577
| 19>  H        1.9692512089    -2.5760406834     1.2790303600
| 20>  H        1.9757727642    -2.4525631145    -1.4758982613
| 21>  H        0.5070631032    -2.9012474128    -0.6053637652
| 22>  H        1.2097323008    -0.1621354884    -1.7531129753
| 23> *
| 24>
| 25>                          ****END OF INPUT****

CARTESIAN COORDINATES (ANGSTROEM)
---------------------------------
  C     -0.503829    1.265740    0.016795
  C      0.088758   -0.113443    0.071030
  O     -0.467226   -1.026649    1.023624
  C      0.918624   -0.664438    1.151675
  C      1.865060   -1.716042    0.611168
  C      1.240904   -2.107184   -0.746859
  C      0.506644   -0.823064   -1.229198
  C     -0.607099   -1.088717   -2.136064
  N     -1.492375   -1.287993   -2.852015
  H      0.174598    1.963489   -0.485526
  H     -1.448116    1.255223   -0.537246
  H     -0.702223    1.633330    1.026038
  H      1.168457   -0.087158    2.038584
  H      2.860401   -1.272231    0.486597
  H      1.969251   -2.576041    1.279030
  H      1.975773   -2.452563   -1.475898
  H      0.507063   -2.901247   -0.605364
  H      1.209732   -0.162135   -1.753113

 Total Charge           Charge          ....    0
 Multiplicity           Mult            ....    1
 Number of Electrons    NEL             ....   66
 Basis Dimension        Dim             ....  333

ORBITAL ENERGIES
----------------

  NO   OCC          E(Eh)            E(eV)
   0   2.0000     -20.579026      -559.9838
   1   2.0000     -15.567996      -423.6267
   2   2.0000     -11.312868      -307.8388
   3   2.0000     -11.299872      -307.4852
   4   2.0000     -11.290430      -307.2282
   5   2.0000     -11.271236      -306.7059
   6   2.0000     -11.253132      -306.2133
   7   2.0000     -11.249799      -306.1226
   8   2.0000     -11.239154      -305.8329
   9   2.0000      -1.430299       -38.9204
  10   2.0000      -1.218000       -33.1435
  11   2.0000      -1.125555       -30.6279
  12   2.0000      -1.043469       -28.3942
  13   2.0000      -0.997826       -27.1522
  14   2.0000      -0.915150       -24.9025
  15   2.0000      -0.833341       -22.6764
  16   2.0000      -0.799624       -21.7589
  17   2.0000      -0.712692       -19.3933
  18   2.0000      -0.704350       -19.1663
  19   2.0000      -0.651806       -17.7365
  20   2.0000      -0.627584       -17.0774
  21   2.0000      -0.592181       -16.1141
  22   2.0000      -0.587189       -15.9782
  23   2.0000      -0.565832       -15.3971
  24   2.0000      -0.546731       -14.8773
  25   2.0000      -0.542030       -14.7494
  26   2.0000      -0.535545       -14.5729
  27   2.0000      -0.525322       -14.2947
  28   2.0000      -0.509854       -13.8738
  29   2.0000      -0.467993       -12.7347
  30   2.0000      -0.454007       -12.3542
  31   2.0000      -0.449377       -12.2282
  32   2.0000      -0.423958       -11.5365
  33   0.0000       0.117259         3.1908
  34   0.0000       0.145927         3.9709
  35   0.0000       0.151583         4.1248
  36   0.0000       0.162668         4.4264
  37   0.0000       0.175096         4.7646

MULLIKEN ATOMIC CHARGES
-----------------------
   0 C :   -0.438316
   1 C :    0.164476
   2 O :   -0.322958
   3 C :   -0.016768
   4 C :   -0.170460
   5 C :   -0.269762
   6 C :    0.083317
   7 C :   -0.237033
   8 N :   -0.049173
   9 H :    0.135040
  10 H :    0.165044
  11 H :    0.148502
  12 H :    0.130347
  13 H :    0.117461
  14 H :    0.134516
  15 H :    0.142538
  16 H :    0.147038
  17 H :    0.136193
Sum of atomic charges:    0.0000000

LOEWDIN ATOMIC CHARGES
----------------------
   0 C :   -0.258713
   1 C :   -0.295530
   2 O :    0.197887
   3 C :   -0.232118
   4 C :   -0.231779
   5 C :   -0.199103
   6 C :   -0.191530
   7 C :   -0.164770
   8 N :    0.063971
   9 H :    0.133867
  10 H :    0.139840
  11 H :    0.136921
  12 H :    0.138780
  13 H :    0.145059
  14 H :    0.143838
  15 H :    0.139620
  16 H :    0.151642
  17 H :    0.182120

  Mayer bond orders larger than 0.1
B(  0-C ,  1-C ) :   0.8864 B(  0-C ,  9-H ) :   0.9296 B(  0-C , 10-H ) :   0.9374
B(  0-C , 11-H ) :   0.9375 B(  1-C ,  2-O ) :   0.9227 B(  1-C ,  3-C ) :   0.9300
B(  1-C ,  6-C ) :   0.8733 B(  2-O ,  3-C ) :   0.9113 B(  3-C ,  4-C ) :   0.9203
B(  3-C , 12-H ) :   0.9248 B(  4-C ,  5-C ) :   0.9460 B(  4-C , 13-H ) :   0.9141
B(  4-C , 14-H ) :   0.9158 B(  5-C ,  6-C ) :   0.9076 B(  5-C , 15-H ) :   0.9320
B(  5-C , 16-H ) :   0.9217 B(  6-C ,  7-C ) :   0.9184 B(  6-C , 17-H ) :   0.9001
B(  7-C ,  8-N ) :   2.8769

MP2 TOTAL ENERGY:     -401.280723197 Eh
FINAL SINGLE POINT ENERGY      -401.280723197499

DIPOLE MOMENT
-------------
                                X             Y             Z
Electronic contribution:     -4.01261      -2.06536      -2.64668
Nuclear contribution   :      5.74214       2.68139       3.46275
                        -----------------------------------------
Total Dipole Moment    :      1.72953       0.61603       0.81607
                        -----------------------------------------
Magnitude (a.u.)       :      2.00916
Magnitude (Debye)      :      5.10688

                             ****ORCA TERMINATED NORMALLY****
TOTAL RUN TIME: 0 days 0 hours 18 minutes 53 seconds 520 msec
