                         Program Version 3.0.3 - RELEASE   -
|  1> ! RI-MP2 RIJK def2-TZVP def2-TZVP/C def2-TZVP/JK TIGHTSCF
|  2> % maxcore 2000
|  3> % mp2 density relaxed end
|  4> *xyz 0 1
|  5>  C        0.1859642702     1.4925795188     0.1490119320
|  6>  C        0.0082787290     0.0037838216     0.0655369010
|  7>  C        1.0833167703    -0.9302574937    -0.3992390404
|  8>  C        0.5606497436    -1.1187023993     1.0022869148
|  9>  C        1.3837631408    -0.9504897178     2.2058726355
| 10>  O        2.3919861831    -0.2797784998     2.2499894726
| 11>  N       -0.7026632150    -1.8860777312     0.9716038183
| 12>  C       -1.7366398156    -0.9843885418     1.5256400861
| 13>  C       -1.2958010710    -0.7558804539     0.1321937970
| 14>  H        1.1915261385     1.7334175311     0.5064799228
| 15>  H        0.0551634037     1.9611453832    -0.8334683282
| 16>  H       -0.5361531360     1.9435519646     0.8369342384
| 17>  H        0.8663634252    -1.7152647812    -1.1180709265
| 18>  H        2.0807160919    -0.5056948637    -0.4489659086
| 19>  H        0.9951020203    -1.4780075537     3.1051603736
| 20>  H       -2.6906445560    -1.4804544888     1.6756698748
| 21>  H       -1.4586072465    -0.2779523669     2.3042593935
| 22>  H       -1.9359538263    -0.9759877776    -0.7170095067
| 23> *
| 24>
| 25>                          ****END OF INPUT****

CARTESIAN COORDINATES (ANGSTROEM)
---------------------------------
  C      0.185964    1.492580    0.149012
  C      0.008279    0.003784    0.065537
  C      1.083317   -0.930257   -0.399239
  C      0.560650   -1.118702    1.002287
  C      1.383763   -0.950490    2.205873
  O      2.391986   -0.279778    2.249989
  N     -0.702663   -1.886078    0.971604
  C     -1.736640   -0.984389    1.525640
  C     -1.295801   -0.755880    0.132194
  H      1.191526    1.733418    0.506480
  H      0.055163    1.961145   -0.833468
  H     -0.536153    1.943552    0.836934
  H      0.866363   -1.715265   -1.118071
  H      2.080716   -0.505695   -0.448966
  H      0.995102   -1.478008    3.105160
  H     -2.690645   -1.480454    1.675670
  H     -1.458607   -0.277952    2.304259
  H     -1.935954   -0.975988   -0.717010

 Total Charge           Charge          ....    0
 Multiplicity           Mult            ....    1
 Number of Electrons    NEL             ....   66
 Basis Dimension        Dim             ....  333

ORBITAL ENERGIES
----------------

  NO   OCC          E(Eh)            E(eV)
   0   2.0000     -20.552998      -559.2755
   1   2.0000     -15.581112      -423.9836
   2   2.0000     -11.335840      -308.4639
   3   2.0000     -11.281196      -306.9770
   4   2.0000     -11.277907      -306.8874
   5   2.0000     -11.273024      -306.7546
   6   2.0000     -11.269404      -306.6561
   7   2.0000     -11.246750      -306.0396
   8   2.0000     -11.231830      -305.6336
   9   2.0000      -1.391912       -37.8758
  10   2.0000      -1.324110       -36.0309
  11   2.0000      -1.132519       -30.8174
  12   2.0000      -1.007718       -27.4214
  13   2.0000      -0.943074       -25.6623
  14   2.0000      -0.885745       -24.1023
  15   2.0000      -0.867696       -23.6112
  16   2.0000      -0.790908       -21.5217
  17   2.0000      -0.727471       -19.7955
  18   2.0000      -0.688075       -18.7235
  19   2.0000      -0.665615       -18.1123
  20   2.0000      -0.651660       -17.7326
  21   2.0000      -0.635682       -17.2978
  22   2.0000      -0.586276       -15.9534
  23   2.0000      -0.578824       -15.7506
  24   2.0000      -0.566525       -15.4159
  25   2.0000      -0.540196       -14.6995
  26   2.0000      -0.526885       -14.3373
  27   2.0000      -0.518046       -14.0967
  28   2.0000      -0.476149       -12.9567
  29   2.0000      -0.447939       -12.1890
  30   2.0000      -0.427074       -11.6213
  31   2.0000      -0.405976       -11.0472
  32   2.0000      -0.366797        -9.9811
  33   0.0000       0.110913         3.0181
  34   0.0000       0.139605         3.7988
  35   0.0000       0.162199         4.4137
  36   0.0000       0.169702         4.6178
  37   0.0000       0.178581         4.8594

MULLIKEN ATOMIC CHARGES
-----------------------
   0 C :   -0.422185
   1 C :    0.044192
   2 C :   -0.259286
   3 C :    0.109235
   4 C :    0.061941
   5 O :   -0.292888
   6 N :   -0.236184
   7 C :   -0.157794
   8 C :   -0.099695
   9 H :    0.160815
  10 H :    0.142644
  11 H :    0.133788
  12 H :    0.152629
  13 H :    0.152918
  14 H :    0.098318
  15 H :    0.132971
  16 H :    0.139779
  17 H :    0.138802
Sum of atomic charges:   -0.0000000

LOEWDIN ATOMIC CHARGES
----------------------
   0 C :   -0.264667
   1 C :   -0.189798
   2 C :   -0.134751
   3 C :   -0.237898
   4 C :   -0.270343
   5 O :    0.121636
   6 N :    0.150009
   7 C :   -0.228745
   8 C :   -0.168874
   9 H :    0.140095
  10 H :    0.132172
  11 H :    0.129768
  12 H :    0.143740
  13 H :    0.152926
  14 H :    0.121476
  15 H :    0.133975
  16 H :    0.130257
  17 H :    0.139022

  Mayer bond orders larger than 0.1
B(  0-C ,  1-C ) :   0.8896 B(  0-C ,  9-H ) :   0.9239 B(  0-C , 10-H ) :   0.9320
B(  0-C , 11-H ) :   0.9379 B(  1-C ,  2-C ) :   0.9252 B(  1-C ,  3-C ) :   0.7877
B(  1-C ,  8-C ) :   0.9648 B(  2-C ,  3-C ) :   0.8261 B(  2-C , 12-H ) :   0.9073
B(  2-C , 13-H ) :   0.9216 B(  3-C ,  4-C ) :   0.9108 B(  3-C ,  6-N ) :   0.9434
B(  4-C ,  5-O ) :   1.9359 B(  4-C , 14-H ) :   0.9525 B(  6-N ,  7-C ) :   0.8627
B(  6-N ,  8-C ) :   0.8873 B(  7-C ,  8-C ) :   0.9280 B(  7-C , 15-H ) :   0.9314
B(  7-C , 16-H ) :   0.9067 B(  8-C , 17-H ) :   0.9003

MP2 TOTAL ENERGY:     -401.204511905 Eh
FINAL SINGLE POINT ENERGY      -401.204511905111

DIPOLE MOMENT
-------------
                                X             Y             Z
Electronic contribution:      2.39966      -3.72261       2.21002
Nuclear contribution   :     -3.32331       4.09499      -2.62014
                        -----------------------------------------
Total Dipole Moment    :     -0.92365       0.37238      -0.41011
                        -----------------------------------------
Magnitude (a.u.)       :      1.07703
Magnitude (Debye)      :      2.73759

                             ****ORCA TERMINATED NORMALLY****
TOTAL RUN TIME: 0 days 0 hours 19 minutes 34 seconds 788 msec
