                         Program Version 3.0.3 - RELEASE   -
|  1> ! RI-MP2 RIJK def2-TZVP def2-TZVP/C def2-TZVP/JK TIGHTSCF
|  2> % maxcore 2000
|  3> % mp2 density relaxed end
|  4> *xyz 0 1
|  5>  C       -0.1197559758     1.5886856590    -0.0881701327
|  6>  C       -0.0130738253     0.0864909143    -0.0305333635
|  7>  O       -1.1518579383    -0.6188558532    -0.4482003137
|  8>  C        1.3086578978    -0.6031987698    -0.2485630184
|  9>  O        2.4591102918     0.1489798801    -0.4500447192
| 10>  C        0.6597189294    -0.6180216648     1.1443806405
| 11>  C        1.3145512906     0.1072287969     2.1870561051
| 12>  C        1.9366945691     0.7064385358     3.0269646378
| 13>  H        0.8113860174     2.0615505691     0.2254820204
| 14>  H       -0.3279183643     1.9088273886    -1.1160781732
| 15>  H       -0.9338835700     1.9392094602     0.5526279998
| 16>  H       -1.2619977784    -0.4633427005    -1.3936596692
| 17>  H        1.2825918744    -1.5472557219    -0.7902171270
| 18>  H        2.9244729129     0.2220760862     0.3935492513
| 19>  H        0.1851798094    -1.5508630781     1.4312959912
| 20>  H        2.4421332892     1.2417216379     3.7923468107
| 21> *
| 22>
| 23>                          ****END OF INPUT****

CARTESIAN COORDINATES (ANGSTROEM)
---------------------------------
  C     -0.119756    1.588686   -0.088170
  C     -0.013074    0.086491   -0.030533
  O     -1.151858   -0.618856   -0.448200
  C      1.308658   -0.603199   -0.248563
  O      2.459110    0.148980   -0.450045
  C      0.659719   -0.618022    1.144381
  C      1.314551    0.107229    2.187056
  C      1.936695    0.706439    3.026965
  H      0.811386    2.061551    0.225482
  H     -0.327918    1.908827   -1.116078
  H     -0.933884    1.939209    0.552628
  H     -1.261998   -0.463343   -1.393660
  H      1.282592   -1.547256   -0.790217
  H      2.924473    0.222076    0.393549
  H      0.185180   -1.550863    1.431296
  H      2.442133    1.241722    3.792347

 Total Charge           Charge          ....    0
 Multiplicity           Mult            ....    1
 Number of Electrons    NEL             ....   60
 Basis Dimension        Dim             ....  296

ORBITAL ENERGIES
----------------

  NO   OCC          E(Eh)            E(eV)
   0   2.0000     -20.573006      -559.8199
   1   2.0000     -20.569340      -559.7202
   2   2.0000     -11.303613      -307.5869
   3   2.0000     -11.296429      -307.3915
   4   2.0000     -11.259638      -306.3903
   5   2.0000     -11.247695      -306.0653
   6   2.0000     -11.233970      -305.6919
   7   2.0000     -11.223159      -305.3977
   8   2.0000      -1.392633       -37.8955
   9   2.0000      -1.375329       -37.4246
  10   2.0000      -1.145189       -31.1622
  11   2.0000      -1.035574       -28.1794
  12   2.0000      -0.979040       -26.6410
  13   2.0000      -0.875416       -23.8213
  14   2.0000      -0.804587       -21.8939
  15   2.0000      -0.727951       -19.8085
  16   2.0000      -0.724323       -19.7098
  17   2.0000      -0.696712       -18.9585
  18   2.0000      -0.649883       -17.6842
  19   2.0000      -0.642277       -17.4772
  20   2.0000      -0.596295       -16.2260
  21   2.0000      -0.591045       -16.0831
  22   2.0000      -0.554930       -15.1004
  23   2.0000      -0.546112       -14.8605
  24   2.0000      -0.517126       -14.0717
  25   2.0000      -0.503501       -13.7010
  26   2.0000      -0.464830       -12.6487
  27   2.0000      -0.423913       -11.5352
  28   2.0000      -0.379031       -10.3139
  29   2.0000      -0.367963       -10.0128
  30   0.0000       0.131130         3.5682
  31   0.0000       0.151884         4.1330
  32   0.0000       0.161608         4.3976
  33   0.0000       0.163518         4.4495
  34   0.0000       0.171452         4.6654

MULLIKEN ATOMIC CHARGES
-----------------------
   0 C :   -0.378418
   1 C :    0.206231
   2 O :   -0.457631
   3 C :    0.019071
   4 O :   -0.470665
   5 C :   -0.259221
   6 C :   -0.051785
   7 C :   -0.151861
   8 H :    0.140385
   9 H :    0.122261
  10 H :    0.145691
  11 H :    0.322766
  12 H :    0.129007
  13 H :    0.339738
  14 H :    0.151892
  15 H :    0.192540
Sum of atomic charges:    0.0000000

LOEWDIN ATOMIC CHARGES
----------------------
   0 C :   -0.264186
   1 C :   -0.348952
   2 O :    0.027431
   3 C :   -0.272120
   4 O :    0.013566
   5 C :   -0.167038
   6 C :   -0.104000
   7 C :   -0.098207
   8 H :    0.137540
   9 H :    0.128637
  10 H :    0.133334
  11 H :    0.183862
  12 H :    0.139920
  13 H :    0.188672
  14 H :    0.173000
  15 H :    0.128541

  Mayer bond orders larger than 0.1
B(  0-C ,  1-C ) :   0.9540 B(  0-C ,  8-H ) :   0.9172 B(  0-C ,  9-H ) :   0.9240
B(  0-C , 10-H ) :   0.9386 B(  1-C ,  2-O ) :   0.9918 B(  1-C ,  3-C ) :   0.8377
B(  1-C ,  5-C ) :   0.8146 B(  2-O , 11-H ) :   0.8380 B(  3-C ,  4-O ) :   1.0074
B(  3-C ,  5-C ) :   0.8606 B(  3-C , 12-H ) :   0.9509 B(  4-O , 13-H ) :   0.8201
B(  5-C ,  6-C ) :   1.1553 B(  5-C ,  7-C ) :  -0.1018 B(  5-C , 14-H ) :   0.9237
B(  6-C ,  7-C ) :   2.5436 B(  7-C , 15-H ) :   0.9079

MP2 TOTAL ENERGY:     -383.048858053 Eh
FINAL SINGLE POINT ENERGY      -383.048858053394

DIPOLE MOMENT
-------------
                                X             Y             Z
Electronic contribution:      1.11325      -2.64247       1.15337
Nuclear contribution   :     -1.03352       2.79313      -1.18891
                        -----------------------------------------
Total Dipole Moment    :      0.07973       0.15066      -0.03554
                        -----------------------------------------
Magnitude (a.u.)       :      0.17413
Magnitude (Debye)      :      0.44259

                             ****ORCA TERMINATED NORMALLY****
TOTAL RUN TIME: 0 days 0 hours 12 minutes 9 seconds 858 msec
