                         Program Version 3.0.3 - RELEASE   -
|  1> ! RI-MP2 RIJK def2-TZVP def2-TZVP/C def2-TZVP/JK TIGHTSCF
|  2> % maxcore 2000
|  3> % mp2 density relaxed end
|  4> *xyz 0 1
|  5>  C       -0.2562021001     1.5175923636     0.4080080190
|  6>  C        0.0043593401     0.0579992757     0.0767106001
|  7>  O        0.7129962216    -0.5279058634     1.1496019399
|  8>  C        1.0104298722    -1.8918904259     0.9413197768
|  9>  C        1.7558076646    -2.3886209856     2.1532163725
| 10>  N        0.9711523099    -3.0195747620     3.2274543312
| 11>  C        1.9674436838    -3.8216870261     2.4884127245
| 12>  C        1.3878460089    -4.9867397012     1.7175652449
| 13>  O        0.9131563463    -5.9868600730     2.6024701984
| 14>  H        0.6866667083     2.0512322659     0.5580308063
| 15>  H       -0.8041842749     2.0017896747    -0.4058081950
| 16>  H       -0.8472038367     1.6024040457     1.3242629669
| 17>  H       -0.9462125842    -0.4771406625    -0.0883470049
| 18>  H        0.5869896703    -0.0297379451    -0.8567744939
| 19>  H        0.0877813006    -2.4726273537     0.7963595437
| 20>  H        1.6319132849    -2.0150205606     0.0363808983
| 21>  H        2.5505886717    -1.7083308152     2.4552090038
| 22>  H        1.3299228048    -2.7474095848     4.1380447819
| 23>  H        2.8919134328    -4.0604115088     3.0121776463
| 24>  H        0.5906949353    -4.6418042430     1.0440904487
| 25>  H        2.1617828813    -5.4586365923     1.1028529396
| 26>  H        0.2874624087    -5.5419817123     3.1868919210
| 27> *
| 28>
| 29>                          ****END OF INPUT****

CARTESIAN COORDINATES (ANGSTROEM)
---------------------------------
  C     -0.256202    1.517592    0.408008
  C      0.004359    0.057999    0.076711
  O      0.712996   -0.527906    1.149602
  C      1.010430   -1.891890    0.941320
  C      1.755808   -2.388621    2.153216
  N      0.971152   -3.019575    3.227454
  C      1.967444   -3.821687    2.488413
  C      1.387846   -4.986740    1.717565
  O      0.913156   -5.986860    2.602470
  H      0.686667    2.051232    0.558031
  H     -0.804184    2.001790   -0.405808
  H     -0.847204    1.602404    1.324263
  H     -0.946213   -0.477141   -0.088347
  H      0.586990   -0.029738   -0.856774
  H      0.087781   -2.472627    0.796360
  H      1.631913   -2.015021    0.036381
  H      2.550589   -1.708331    2.455209
  H      1.329923   -2.747410    4.138045
  H      2.891913   -4.060412    3.012178
  H      0.590695   -4.641804    1.044090
  H      2.161783   -5.458637    1.102853
  H      0.287462   -5.541982    3.186892

 Total Charge           Charge          ....    0
 Multiplicity           Mult            ....    1
 Number of Electrons    NEL             ....   72
 Basis Dimension        Dim             ....  357

ORBITAL ENERGIES
----------------

  NO   OCC          E(Eh)            E(eV)
   0   2.0000     -20.556304      -559.3655
   1   2.0000     -20.550686      -559.2126
   2   2.0000     -15.563035      -423.4917
   3   2.0000     -11.280550      -306.9594
   4   2.0000     -11.276832      -306.8582
   5   2.0000     -11.276806      -306.8575
   6   2.0000     -11.267317      -306.5993
   7   2.0000     -11.264191      -306.5142
   8   2.0000     -11.215711      -305.1950
   9   2.0000      -1.379809       -37.5465
  10   2.0000      -1.357851       -36.9490
  11   2.0000      -1.266272       -34.4570
  12   2.0000      -1.034339       -28.1458
  13   2.0000      -0.972806       -26.4714
  14   2.0000      -0.957170       -26.0459
  15   2.0000      -0.846424       -23.0324
  16   2.0000      -0.833121       -22.6704
  17   2.0000      -0.785234       -21.3673
  18   2.0000      -0.730654       -19.8821
  19   2.0000      -0.680178       -18.5086
  20   2.0000      -0.670399       -18.2425
  21   2.0000      -0.658827       -17.9276
  22   2.0000      -0.636534       -17.3210
  23   2.0000      -0.604660       -16.4536
  24   2.0000      -0.586893       -15.9702
  25   2.0000      -0.578588       -15.7442
  26   2.0000      -0.537864       -14.6360
  27   2.0000      -0.522636       -14.2217
  28   2.0000      -0.515482       -14.0270
  29   2.0000      -0.501648       -13.6505
  30   2.0000      -0.484079       -13.1725
  31   2.0000      -0.471545       -12.8314
  32   2.0000      -0.462725       -12.5914
  33   2.0000      -0.448169       -12.1953
  34   2.0000      -0.423312       -11.5189
  35   2.0000      -0.400530       -10.8990
  36   0.0000       0.135986         3.7004
  37   0.0000       0.140986         3.8364
  38   0.0000       0.156937         4.2705
  39   0.0000       0.163417         4.4468
  40   0.0000       0.182397         4.9633

MULLIKEN ATOMIC CHARGES
-----------------------
   0 C :   -0.360277
   1 C :   -0.052104
   2 O :   -0.287578
   3 C :   -0.102475
   4 C :    0.019863
   5 N :   -0.423144
   6 C :   -0.096265
   7 C :    0.005448
   8 O :   -0.479461
   9 H :    0.127304
  10 H :    0.121711
  11 H :    0.131455
  12 H :    0.092313
  13 H :    0.088923
  14 H :    0.109861
  15 H :    0.094330
  16 H :    0.130376
  17 H :    0.225741
  18 H :    0.125578
  19 H :    0.095042
  20 H :    0.108929
  21 H :    0.324431
Sum of atomic charges:    0.0000000

LOEWDIN ATOMIC CHARGES
----------------------
   0 C :   -0.316832
   1 C :   -0.354725
   2 O :    0.160147
   3 C :   -0.313803
   4 C :   -0.255141
   5 N :   -0.002811
   6 C :   -0.270070
   7 C :   -0.332613
   8 O :   -0.047423
   9 H :    0.123459
  10 H :    0.124276
  11 H :    0.124602
  12 H :    0.116689
  13 H :    0.115268
  14 H :    0.125327
  15 H :    0.122985
  16 H :    0.144743
  17 H :    0.167664
  18 H :    0.139590
  19 H :    0.119702
  20 H :    0.130839
  21 H :    0.178127

  Mayer bond orders larger than 0.1
B(  0-C ,  1-C ) :   0.9527 B(  0-C ,  9-H ) :   0.9358 B(  0-C , 10-H ) :   0.9327
B(  0-C , 11-H ) :   0.9365 B(  1-C ,  2-O ) :   0.9246 B(  1-C , 12-H ) :   0.9244
B(  1-C , 13-H ) :   0.9237 B(  2-O ,  3-C ) :   0.9488 B(  3-C ,  4-C ) :   0.9131
B(  3-C , 14-H ) :   0.9326 B(  3-C , 15-H ) :   0.9211 B(  4-C ,  5-N ) :   0.9038
B(  4-C ,  6-C ) :   0.8766 B(  4-C , 16-H ) :   0.9244 B(  5-N ,  6-C ) :   0.8681
B(  5-N , 17-H ) :   0.8678 B(  6-C ,  7-C ) :   0.9480 B(  6-C , 18-H ) :   0.9206
B(  7-C ,  8-O ) :   0.9101 B(  7-C , 19-H ) :   0.9165 B(  7-C , 20-H ) :   0.9322
B(  8-O , 21-H ) :   0.8362

MP2 TOTAL ENERGY:     -440.726981569 Eh
FINAL SINGLE POINT ENERGY      -440.726981569219

DIPOLE MOMENT
-------------
                                X             Y             Z
Electronic contribution:      1.92461      -5.96382       4.40082
Nuclear contribution   :     -1.62122       6.60782      -4.69557
                        -----------------------------------------
Total Dipole Moment    :      0.30340       0.64399      -0.29475
                        -----------------------------------------
Magnitude (a.u.)       :      0.77049
Magnitude (Debye)      :      1.95843

                             ****ORCA TERMINATED NORMALLY****
TOTAL RUN TIME: 0 days 0 hours 14 minutes 42 seconds 886 msec
