                         Program Version 3.0.3 - RELEASE   -
|  1> ! RI-MP2 RIJK def2-TZVP def2-TZVP/C def2-TZVP/JK TIGHTSCF
|  2> % maxcore 2000
|  3> % mp2 density relaxed end
|  4> *xyz 0 1
|  5>  C       -0.1863780226     1.3656614848     0.0738840810
|  6>  O       -0.1140627339    -0.0374891779    -0.0067486471
|  7>  C        0.6734808764    -0.4861022538    -1.0867796311
|  8>  C        0.6979884195    -2.0108087555    -1.0430063377
|  9>  C        1.3757538171    -2.6589743894    -2.2698468211
| 10>  C        2.8870560298    -2.3320961941    -2.3687425385
| 11>  O        3.5000813524    -2.9385905300    -3.4834670154
| 12>  C        1.2072114916    -4.1117687775    -2.2525322597
| 13>  C        1.1249337706    -5.3121226695    -2.2321338425
| 14>  H        0.8076610386     1.8195144080     0.2145121881
| 15>  H       -0.6374919430     1.8053103165    -0.8300657399
| 16>  H       -0.8116104278     1.6120933837     0.9353912582
| 17>  H        0.2489544004    -0.1371227367    -2.0454992873
| 18>  H        1.6895838246    -0.0637283585    -1.0139622226
| 19>  H        1.1987475979    -2.3417145860    -0.1265042729
| 20>  H       -0.3363015750    -2.3620331419    -0.9790567550
| 21>  H        0.9022986524    -2.2739730661    -3.1838301419
| 22>  H        3.0221009221    -1.2546069966    -2.4978021265
| 23>  H        3.3729618591    -2.6222126433    -1.4229733716
| 24>  H        3.3268444064    -3.8860053697    -3.4199222749
| 25>  H        1.0193289534    -6.3688815366    -2.2151679217
| 26> *
| 27>
| 28>                          ****END OF INPUT****

CARTESIAN COORDINATES (ANGSTROEM)
---------------------------------
  C     -0.186378    1.365661    0.073884
  O     -0.114063   -0.037489   -0.006749
  C      0.673481   -0.486102   -1.086780
  C      0.697988   -2.010809   -1.043006
  C      1.375754   -2.658974   -2.269847
  C      2.887056   -2.332096   -2.368743
  O      3.500081   -2.938591   -3.483467
  C      1.207211   -4.111769   -2.252532
  C      1.124934   -5.312123   -2.232134
  H      0.807661    1.819514    0.214512
  H     -0.637492    1.805310   -0.830066
  H     -0.811610    1.612093    0.935391
  H      0.248954   -0.137123   -2.045499
  H      1.689584   -0.063728   -1.013962
  H      1.198748   -2.341715   -0.126504
  H     -0.336302   -2.362033   -0.979057
  H      0.902299   -2.273973   -3.183830
  H      3.022101   -1.254607   -2.497802
  H      3.372962   -2.622213   -1.422973
  H      3.326844   -3.886005   -3.419922
  H      1.019329   -6.368882   -2.215168

 Total Charge           Charge          ....    0
 Multiplicity           Mult            ....    1
 Number of Electrons    NEL             ....   70
 Basis Dimension        Dim             ....  351

ORBITAL ENERGIES
----------------

  NO   OCC          E(Eh)            E(eV)
   0   2.0000     -20.560895      -559.4904
   1   2.0000     -20.556241      -559.3638
   2   2.0000     -11.285192      -307.0857
   3   2.0000     -11.283247      -307.0328
   4   2.0000     -11.274859      -306.8045
   5   2.0000     -11.263650      -306.4995
   6   2.0000     -11.242067      -305.9122
   7   2.0000     -11.235013      -305.7203
   8   2.0000     -11.231063      -305.6128
   9   2.0000      -1.382478       -37.6191
  10   2.0000      -1.365016       -37.1440
  11   2.0000      -1.111374       -30.2420
  12   2.0000      -1.029676       -28.0189
  13   2.0000      -0.982303       -26.7298
  14   2.0000      -0.915250       -24.9052
  15   2.0000      -0.876342       -23.8465
  16   2.0000      -0.822453       -22.3801
  17   2.0000      -0.728059       -19.8115
  18   2.0000      -0.705855       -19.2073
  19   2.0000      -0.675829       -18.3903
  20   2.0000      -0.671786       -18.2802
  21   2.0000      -0.652376       -17.7520
  22   2.0000      -0.626982       -17.0610
  23   2.0000      -0.610197       -16.6043
  24   2.0000      -0.599897       -16.3240
  25   2.0000      -0.561975       -15.2921
  26   2.0000      -0.552411       -15.0319
  27   2.0000      -0.514276       -13.9942
  28   2.0000      -0.506974       -13.7955
  29   2.0000      -0.492561       -13.4033
  30   2.0000      -0.479295       -13.0423
  31   2.0000      -0.451123       -12.2757
  32   2.0000      -0.429423       -11.6852
  33   2.0000      -0.396600       -10.7920
  34   2.0000      -0.393054       -10.6955
  35   0.0000       0.132468         3.6046
  36   0.0000       0.145368         3.9557
  37   0.0000       0.160472         4.3667
  38   0.0000       0.163817         4.4577
  39   0.0000       0.165897         4.5143

MULLIKEN ATOMIC CHARGES
-----------------------
   0 C :   -0.217634
   1 O :   -0.298310
   2 C :   -0.093804
   3 C :   -0.152335
   4 C :   -0.177827
   5 C :   -0.032057
   6 O :   -0.471245
   7 C :   -0.102367
   8 C :   -0.123015
   9 H :    0.111957
  10 H :    0.112085
  11 H :    0.140941
  12 H :    0.093614
  13 H :    0.097773
  14 H :    0.125787
  15 H :    0.134820
  16 H :    0.113274
  17 H :    0.117745
  18 H :    0.102005
  19 H :    0.324770
  20 H :    0.193823
Sum of atomic charges:    0.0000000

LOEWDIN ATOMIC CHARGES
----------------------
   0 C :   -0.361096
   1 O :    0.136173
   2 C :   -0.330062
   3 C :   -0.225886
   4 C :   -0.253295
   5 C :   -0.315687
   6 O :   -0.034755
   7 C :   -0.099130
   8 C :   -0.101160
   9 H :    0.101281
  10 H :    0.101500
  11 H :    0.114116
  12 H :    0.120233
  13 H :    0.118162
  14 H :    0.146162
  15 H :    0.151240
  16 H :    0.172056
  17 H :    0.129275
  18 H :    0.122628
  19 H :    0.179990
  20 H :    0.128255

  Mayer bond orders larger than 0.1
B(  0-C ,  1-O ) :   0.9185 B(  0-C ,  9-H ) :   0.9376 B(  0-C , 10-H ) :   0.9367
B(  0-C , 11-H ) :   0.9392 B(  1-O ,  2-C ) :   0.9750 B(  2-C ,  3-C ) :   0.9262
B(  2-C , 12-H ) :   0.9198 B(  2-C , 13-H ) :   0.9317 B(  3-C ,  4-C ) :   0.9285
B(  3-C , 14-H ) :   0.9137 B(  3-C , 15-H ) :   0.9230 B(  4-C ,  5-C ) :   0.8952
B(  4-C ,  7-C ) :   1.1321 B(  4-C , 16-H ) :   0.8989 B(  5-C ,  6-O ) :   0.9533
B(  5-C , 17-H ) :   0.9288 B(  5-C , 18-H ) :   0.9160 B(  6-O , 19-H ) :   0.8340
B(  7-C ,  8-C ) :   2.6013 B(  8-C , 20-H ) :   0.8897

MP2 TOTAL ENERGY:     -423.465474430 Eh
FINAL SINGLE POINT ENERGY      -423.465474430053

DIPOLE MOMENT
-------------
                                X             Y             Z
Electronic contribution:      1.01935      -6.74112      -2.38950
Nuclear contribution   :     -1.22596       6.94092       2.60387
                        -----------------------------------------
Total Dipole Moment    :     -0.20662       0.19980       0.21436
                        -----------------------------------------
Magnitude (a.u.)       :      0.35855
Magnitude (Debye)      :      0.91137

                             ****ORCA TERMINATED NORMALLY****
TOTAL RUN TIME: 0 days 0 hours 16 minutes 16 seconds 370 msec
