                         Program Version 3.0.3 - RELEASE   -
|  1> ! RI-MP2 RIJK def2-TZVP def2-TZVP/C def2-TZVP/JK TIGHTSCF
|  2> % maxcore 2000
|  3> % mp2 density relaxed end
|  4> *xyz 0 1
|  5>  C       -0.2154697542     1.5361796382     0.1095872280
|  6>  C       -0.1439319362     0.0434703795     0.0573764432
|  7>  C       -0.2252650863    -0.7560110673    -1.0114617348
|  8>  C       -0.0851625795    -2.1950475136    -0.6716838490
|  9>  C       -0.7369088580    -3.2805525608    -1.4961981485
| 10>  C        0.7600284427    -3.1213317061    -1.5275529703
| 11>  C       -0.0702668785    -2.2361843083     0.8617891974
| 12>  C        0.1526621730    -0.7670822997     1.3080412380
| 13>  O        1.4698631892    -0.4978993164     1.7991176284
| 14>  H        0.6762424552     1.9449622566     0.5985114787
| 15>  H       -0.3004116659     1.9771976446    -0.8873692073
| 16>  H       -1.0764172948     1.8704690142     0.7031882026
| 17>  H       -0.3696493777    -0.4170661802    -2.0335426330
| 18>  H       -1.1500400274    -4.1328261588    -0.9659102925
| 19>  H       -1.3030818547    -2.9863954223    -2.3741844519
| 20>  H        1.2154677389    -2.7176628736    -2.4261446587
| 21>  H        1.3643196289    -3.8638175332    -1.0161727590
| 22>  H       -1.0355319837    -2.5940128173     1.2358311380
| 23>  H        0.7054405991    -2.8841438785     1.2791545149
| 24>  H       -0.4966699361    -0.4984293166     2.1483815607
| 25>  H        2.0762863260    -0.6222461603     1.0598357950
| 26> *
| 27>
| 28>                          ****END OF INPUT****

CARTESIAN COORDINATES (ANGSTROEM)
---------------------------------
  C     -0.215470    1.536180    0.109587
  C     -0.143932    0.043470    0.057376
  C     -0.225265   -0.756011   -1.011462
  C     -0.085163   -2.195048   -0.671684
  C     -0.736909   -3.280553   -1.496198
  C      0.760028   -3.121332   -1.527553
  C     -0.070267   -2.236184    0.861789
  C      0.152662   -0.767082    1.308041
  O      1.469863   -0.497899    1.799118
  H      0.676242    1.944962    0.598511
  H     -0.300412    1.977198   -0.887369
  H     -1.076417    1.870469    0.703188
  H     -0.369649   -0.417066   -2.033543
  H     -1.150040   -4.132826   -0.965910
  H     -1.303082   -2.986395   -2.374184
  H      1.215468   -2.717663   -2.426145
  H      1.364320   -3.863818   -1.016173
  H     -1.035532   -2.594013    1.235831
  H      0.705441   -2.884144    1.279155
  H     -0.496670   -0.498429    2.148382
  H      2.076286   -0.622246    1.059836

 Total Charge           Charge          ....    0
 Multiplicity           Mult            ....    1
 Number of Electrons    NEL             ....   68
 Basis Dimension        Dim             ....  351

ORBITAL ENERGIES
----------------

  NO   OCC          E(Eh)            E(eV)
   0   2.0000     -20.549377      -559.1770
   1   2.0000     -11.278141      -306.8938
   2   2.0000     -11.240574      -305.8716
   3   2.0000     -11.228163      -305.5339
   4   2.0000     -11.226950      -305.5008
   5   2.0000     -11.226221      -305.4810
   6   2.0000     -11.225926      -305.4730
   7   2.0000     -11.221056      -305.3404
   8   2.0000     -11.220573      -305.3273
   9   2.0000      -1.353970       -36.8434
  10   2.0000      -1.167569       -31.7712
  11   2.0000      -1.089303       -29.6415
  12   2.0000      -0.993936       -27.0464
  13   2.0000      -0.939929       -25.5768
  14   2.0000      -0.870890       -23.6981
  15   2.0000      -0.825852       -22.4726
  16   2.0000      -0.763716       -20.7818
  17   2.0000      -0.734530       -19.9876
  18   2.0000      -0.673934       -18.3387
  19   2.0000      -0.642432       -17.4815
  20   2.0000      -0.629698       -17.1350
  21   2.0000      -0.610533       -16.6135
  22   2.0000      -0.603111       -16.4115
  23   2.0000      -0.567262       -15.4360
  24   2.0000      -0.547825       -14.9071
  25   2.0000      -0.541969       -14.7477
  26   2.0000      -0.524518       -14.2729
  27   2.0000      -0.514823       -14.0090
  28   2.0000      -0.492391       -13.3986
  29   2.0000      -0.473098       -12.8737
  30   2.0000      -0.445470       -12.1218
  31   2.0000      -0.430518       -11.7150
  32   2.0000      -0.411938       -11.2094
  33   2.0000      -0.327369        -8.9082
  34   0.0000       0.138785         3.7765
  35   0.0000       0.149570         4.0700
  36   0.0000       0.154104         4.1934
  37   0.0000       0.160597         4.3701
  38   0.0000       0.168476         4.5845

MULLIKEN ATOMIC CHARGES
-----------------------
   0 C :   -0.437593
   1 C :   -0.028740
   2 C :   -0.224683
   3 C :    0.177678
   4 C :   -0.309401
   5 C :   -0.298639
   6 C :   -0.259404
   7 C :    0.127861
   8 O :   -0.466728
   9 H :    0.148845
  10 H :    0.134577
  11 H :    0.139339
  12 H :    0.124574
  13 H :    0.130293
  14 H :    0.128145
  15 H :    0.128980
  16 H :    0.128676
  17 H :    0.116113
  18 H :    0.129282
  19 H :    0.100713
  20 H :    0.310111
Sum of atomic charges:   -0.0000000

LOEWDIN ATOMIC CHARGES
----------------------
   0 C :   -0.275089
   1 C :   -0.178741
   2 C :   -0.093607
   3 C :   -0.227234
   4 C :   -0.205831
   5 C :   -0.206537
   6 C :   -0.178794
   7 C :   -0.282268
   8 O :   -0.028692
   9 H :    0.134555
  10 H :    0.128754
  11 H :    0.132038
  12 H :    0.143347
  13 H :    0.134387
  14 H :    0.133339
  15 H :    0.132311
  16 H :    0.133123
  17 H :    0.144286
  18 H :    0.141560
  19 H :    0.143510
  20 H :    0.175585

  Mayer bond orders larger than 0.1
B(  0-C ,  1-C ) :   0.8936 B(  0-C ,  9-H ) :   0.9271 B(  0-C , 10-H ) :   0.9499
B(  0-C , 11-H ) :   0.9329 B(  1-C ,  2-C ) :   1.7354 B(  1-C ,  7-C ) :   0.9498
B(  2-C ,  3-C ) :   0.9530 B(  2-C , 12-H ) :   0.9055 B(  3-C ,  4-C ) :   0.8425
B(  3-C ,  5-C ) :   0.8213 B(  3-C ,  6-C ) :   0.8975 B(  4-C ,  5-C ) :   0.9269
B(  4-C , 13-H ) :   0.9239 B(  4-C , 14-H ) :   0.9281 B(  5-C , 15-H ) :   0.9279
B(  5-C , 16-H ) :   0.9226 B(  6-C ,  7-C ) :   0.9476 B(  6-C , 17-H ) :   0.9121
B(  6-C , 18-H ) :   0.9257 B(  7-C ,  8-O ) :   0.9052 B(  7-C , 19-H ) :   0.9277
B(  8-O , 20-H ) :   0.8436

MP2 TOTAL ENERGY:     -386.414619346 Eh
FINAL SINGLE POINT ENERGY      -386.414619345664

DIPOLE MOMENT
-------------
                                X             Y             Z
Electronic contribution:      1.07102       0.03007       1.67541
Nuclear contribution   :     -1.23867      -0.17011      -2.26990
                        -----------------------------------------
Total Dipole Moment    :     -0.16764      -0.14004      -0.59449
                        -----------------------------------------
Magnitude (a.u.)       :      0.63335
Magnitude (Debye)      :      1.60985

                             ****ORCA TERMINATED NORMALLY****
TOTAL RUN TIME: 0 days 0 hours 19 minutes 37 seconds 327 msec
