                         Program Version 3.0.3 - RELEASE   -
|  1> ! RI-MP2 RIJK def2-TZVP def2-TZVP/C def2-TZVP/JK TIGHTSCF
|  2> % maxcore 2000
|  3> % mp2 density relaxed end
|  4> *xyz 0 1
|  5>  C       -0.2808252585     1.3772600411    -0.3441595187
|  6>  C       -0.0826756534    -0.1277675008    -0.5367265792
|  7>  C        1.2870975953    -0.4842913030    -1.1179370058
|  8>  O        2.3605272319    -0.0587854877    -0.2830247155
|  9>  C        1.4309724999    -1.9801191915    -1.4088960821
| 10>  O        0.4662472996    -2.3600922595    -2.3637477890
| 11>  C        0.5277949326    -3.7257483219    -2.6973661274
| 12>  H        0.5087883900     1.7961301604     0.2859200604
| 13>  H       -0.2502710235     1.9025032556    -1.3050926967
| 14>  H       -1.2458214375     1.5941566900     0.1236283084
| 15>  H       -0.1959161131    -0.6492149795     0.4266846282
| 16>  H       -0.8506857853    -0.5404885449    -1.1987734627
| 17>  H        1.4305579624     0.0575005558    -2.0607952883
| 18>  H        2.2177392257    -0.4388331353     0.5913012977
| 19>  H        2.4510526073    -2.1782471542    -1.7746721499
| 20>  H        1.2997359646    -2.5565554544    -0.4731861657
| 21>  H        1.5048365555    -3.9972047064    -3.1273292720
| 22>  H        0.3498876612    -4.3687262251    -1.8205635576
| 23>  H       -0.2506078746    -3.9178774386    -3.4398505442
| 24> *
| 25>
| 26>                          ****END OF INPUT****

CARTESIAN COORDINATES (ANGSTROEM)
---------------------------------
  C     -0.280825    1.377260   -0.344160
  C     -0.082676   -0.127768   -0.536727
  C      1.287098   -0.484291   -1.117937
  O      2.360527   -0.058785   -0.283025
  C      1.430972   -1.980119   -1.408896
  O      0.466247   -2.360092   -2.363748
  C      0.527795   -3.725748   -2.697366
  H      0.508788    1.796130    0.285920
  H     -0.250271    1.902503   -1.305093
  H     -1.245821    1.594157    0.123628
  H     -0.195916   -0.649215    0.426685
  H     -0.850686   -0.540489   -1.198773
  H      1.430558    0.057501   -2.060795
  H      2.217739   -0.438833    0.591301
  H      2.451053   -2.178247   -1.774672
  H      1.299736   -2.556555   -0.473186
  H      1.504837   -3.997205   -3.127329
  H      0.349888   -4.368726   -1.820564
  H     -0.250608   -3.917877   -3.439851

 Total Charge           Charge          ....    0
 Multiplicity           Mult            ....    1
 Number of Electrons    NEL             ....   58
 Basis Dimension        Dim             ....  289

ORBITAL ENERGIES
----------------

  NO   OCC          E(Eh)            E(eV)
   0   2.0000     -20.559482      -559.4520
   1   2.0000     -20.554776      -559.3239
   2   2.0000     -11.275356      -306.8180
   3   2.0000     -11.274120      -306.7844
   4   2.0000     -11.274097      -306.7838
   5   2.0000     -11.217992      -305.2571
   6   2.0000     -11.208825      -305.0076
   7   2.0000      -1.382618       -37.6229
   8   2.0000      -1.359115       -36.9834
   9   2.0000      -1.055739       -28.7281
  10   2.0000      -0.989878       -26.9359
  11   2.0000      -0.909400       -24.7460
  12   2.0000      -0.856700       -23.3120
  13   2.0000      -0.803601       -21.8671
  14   2.0000      -0.675668       -18.3859
  15   2.0000      -0.669726       -18.2242
  16   2.0000      -0.659909       -17.9570
  17   2.0000      -0.638308       -17.3692
  18   2.0000      -0.615665       -16.7531
  19   2.0000      -0.580025       -15.7833
  20   2.0000      -0.568862       -15.4795
  21   2.0000      -0.547197       -14.8900
  22   2.0000      -0.527072       -14.3424
  23   2.0000      -0.506370       -13.7790
  24   2.0000      -0.491880       -13.3847
  25   2.0000      -0.479230       -13.0405
  26   2.0000      -0.463425       -12.6104
  27   2.0000      -0.433041       -11.7836
  28   2.0000      -0.425101       -11.5676
  29   0.0000       0.133409         3.6303
  30   0.0000       0.149207         4.0601
  31   0.0000       0.161535         4.3956
  32   0.0000       0.185612         5.0508
  33   0.0000       0.188873         5.1395

MULLIKEN ATOMIC CHARGES
-----------------------
   0 C :   -0.370605
   1 C :   -0.250352
   2 C :    0.118701
   3 O :   -0.475483
   4 C :   -0.057322
   5 O :   -0.311641
   6 C :   -0.215297
   7 H :    0.128740
   8 H :    0.122326
   9 H :    0.130809
  10 H :    0.092837
  11 H :    0.131395
  12 H :    0.091696
  13 H :    0.310510
  14 H :    0.114443
  15 H :    0.075433
  16 H :    0.113853
  17 H :    0.110905
  18 H :    0.139053
Sum of atomic charges:    0.0000000

LOEWDIN ATOMIC CHARGES
----------------------
   0 C :   -0.319289
   1 C :   -0.286725
   2 C :   -0.351422
   3 O :   -0.018673
   4 C :   -0.322070
   5 O :    0.136825
   6 C :   -0.360312
   7 H :    0.122080
   8 H :    0.122094
   9 H :    0.119786
  10 H :    0.133232
  11 H :    0.145325
  12 H :    0.148129
  13 H :    0.174206
  14 H :    0.123737
  15 H :    0.116043
  16 H :    0.102462
  17 H :    0.101114
  18 H :    0.113459

  Mayer bond orders larger than 0.1
B(  0-C ,  1-C ) :   0.9240 B(  0-C ,  7-H ) :   0.9354 B(  0-C ,  8-H ) :   0.9382
B(  0-C ,  9-H ) :   0.9421 B(  1-C ,  2-C ) :   0.9514 B(  1-C , 10-H ) :   0.9151
B(  1-C , 11-H ) :   0.9246 B(  2-C ,  3-O ) :   0.8784 B(  2-C ,  4-C ) :   0.9642
B(  2-C , 12-H ) :   0.9112 B(  3-O , 13-H ) :   0.8429 B(  4-C ,  5-O ) :   0.9360
B(  4-C , 14-H ) :   0.9266 B(  4-C , 15-H ) :   0.9061 B(  5-O ,  6-C ) :   0.9204
B(  6-C , 16-H ) :   0.9374 B(  6-C , 17-H ) :   0.9372 B(  6-C , 18-H ) :   0.9393

MP2 TOTAL ENERGY:     -347.483659718 Eh
FINAL SINGLE POINT ENERGY      -347.483659718280

DIPOLE MOMENT
-------------
                                X             Y             Z
Electronic contribution:      2.60831      -0.25989      -0.78368
Nuclear contribution   :     -2.83483      -0.43211       1.08101
                        -----------------------------------------
Total Dipole Moment    :     -0.22652      -0.69200       0.29732
                        -----------------------------------------
Magnitude (a.u.)       :      0.78650
Magnitude (Debye)      :      1.99912

                             ****ORCA TERMINATED NORMALLY****
TOTAL RUN TIME: 0 days 0 hours 8 minutes 5 seconds 774 msec
