                         Program Version 3.0.3 - RELEASE   -
|  1> ! RI-MP2 RIJK def2-TZVP def2-TZVP/C def2-TZVP/JK TIGHTSCF
|  2> % maxcore 2000
|  3> % mp2 density relaxed end
|  4> *xyz 0 1
|  5>  C       -0.0884847128     1.4407250932    -0.0144711272
|  6>  C       -0.0024668678    -0.0542112082     0.0066956073
|  7>  O       -0.3020914419    -0.6826130567    -1.2150251210
|  8>  C       -0.1386560504    -2.0306347931    -0.8840035575
|  9>  C       -0.5315104022    -2.3174071444     0.5562650435
| 10>  C       -0.4319328916    -0.9171431131     1.1839782662
| 11>  C        1.0413179922    -0.8400333639     0.7813737194
| 12>  C        0.9455630082    -2.2501525168     0.1543428833
| 13>  C        2.0168492869    -3.2955237973     0.1213034685
| 14>  H        0.6155689629     1.8611876725    -0.7392868312
| 15>  H       -1.0970835273     1.7675993782    -0.2857990609
| 16>  H        0.1503582500     1.8478515775     0.9717163664
| 17>  H       -0.3235973376    -2.7208155442    -1.6967395815
| 18>  H       -1.1401543506    -3.1493076240     0.8838316814
| 19>  H       -0.9418715497    -0.5507822247     2.0644060588
| 20>  H        1.8931538106    -0.4088579248     1.2908035438
| 21>  H        2.3639859139    -3.5519472522     1.1288217336
| 22>  H        1.6503067075    -4.2161441170    -0.3452877857
| 23>  H        2.8856621198    -2.9546009211    -0.4549388573
| 24> *
| 25>
| 26>                          ****END OF INPUT****

CARTESIAN COORDINATES (ANGSTROEM)
---------------------------------
  C     -0.088485    1.440725   -0.014471
  C     -0.002467   -0.054211    0.006696
  O     -0.302091   -0.682613   -1.215025
  C     -0.138656   -2.030635   -0.884004
  C     -0.531510   -2.317407    0.556265
  C     -0.431933   -0.917143    1.183978
  C      1.041318   -0.840033    0.781374
  C      0.945563   -2.250153    0.154343
  C      2.016849   -3.295524    0.121303
  H      0.615569    1.861188   -0.739287
  H     -1.097084    1.767599   -0.285799
  H      0.150358    1.847852    0.971716
  H     -0.323597   -2.720816   -1.696740
  H     -1.140154   -3.149308    0.883832
  H     -0.941872   -0.550782    2.064406
  H      1.893154   -0.408858    1.290804
  H      2.363986   -3.551947    1.128822
  H      1.650307   -4.216144   -0.345288
  H      2.885662   -2.954601   -0.454939

 Total Charge           Charge          ....    0
 Multiplicity           Mult            ....    1
 Number of Electrons    NEL             ....   66
 Basis Dimension        Dim             ....  339

ORBITAL ENERGIES
----------------

  NO   OCC          E(Eh)            E(eV)
   0   2.0000     -20.558373      -559.4218
   1   2.0000     -11.285751      -307.1009
   2   2.0000     -11.277682      -306.8813
   3   2.0000     -11.238758      -305.8222
   4   2.0000     -11.231504      -305.6248
   5   2.0000     -11.229518      -305.5707
   6   2.0000     -11.229389      -305.5672
   7   2.0000     -11.223459      -305.4058
   8   2.0000     -11.221457      -305.3514
   9   2.0000      -1.407029       -38.2872
  10   2.0000      -1.193972       -32.4896
  11   2.0000      -1.080518       -29.4024
  12   2.0000      -0.984184       -26.7810
  13   2.0000      -0.950191       -25.8560
  14   2.0000      -0.860907       -23.4265
  15   2.0000      -0.806804       -21.9543
  16   2.0000      -0.769104       -20.9284
  17   2.0000      -0.717428       -19.5222
  18   2.0000      -0.686885       -18.6911
  19   2.0000      -0.619222       -16.8499
  20   2.0000      -0.610118       -16.6021
  21   2.0000      -0.597979       -16.2718
  22   2.0000      -0.587421       -15.9845
  23   2.0000      -0.565471       -15.3873
  24   2.0000      -0.559131       -15.2147
  25   2.0000      -0.549548       -14.9540
  26   2.0000      -0.531413       -14.4605
  27   2.0000      -0.517454       -14.0806
  28   2.0000      -0.472868       -12.8674
  29   2.0000      -0.449528       -12.2323
  30   2.0000      -0.389084       -10.5875
  31   2.0000      -0.363624        -9.8947
  32   2.0000      -0.340960        -9.2780
  33   0.0000       0.142402         3.8750
  34   0.0000       0.149521         4.0687
  35   0.0000       0.172868         4.7040
  36   0.0000       0.186861         5.0847
  37   0.0000       0.189536         5.1575

MULLIKEN ATOMIC CHARGES
-----------------------
   0 C :   -0.447119
   1 C :    0.270111
   2 O :   -0.301204
   3 C :   -0.019072
   4 C :   -0.139853
   5 C :   -0.178983
   6 C :   -0.196534
   7 C :    0.055575
   8 C :   -0.414909
   9 H :    0.142518
  10 H :    0.143772
  11 H :    0.135399
  12 H :    0.133073
  13 H :    0.139546
  14 H :    0.137549
  15 H :    0.135492
  16 H :    0.136121
  17 H :    0.130554
  18 H :    0.137963
Sum of atomic charges:    0.0000000

LOEWDIN ATOMIC CHARGES
----------------------
   0 C :   -0.259875
   1 C :   -0.302703
   2 O :    0.250546
   3 C :   -0.229178
   4 C :   -0.126137
   5 C :   -0.121758
   6 C :   -0.102473
   7 C :   -0.183009
   8 C :   -0.274790
   9 H :    0.132293
  10 H :    0.132688
  11 H :    0.134873
  12 H :    0.143768
  13 H :    0.137553
  14 H :    0.138364
  15 H :    0.139867
  16 H :    0.128202
  17 H :    0.131043
  18 H :    0.130726

  Mayer bond orders larger than 0.1
B(  0-C ,  1-C ) :   0.8703 B(  0-C ,  9-H ) :   0.9397 B(  0-C , 10-H ) :   0.9412
B(  0-C , 11-H ) :   0.9416 B(  1-C ,  2-O ) :   0.9624 B(  1-C ,  5-C ) :   0.8672
B(  1-C ,  6-C ) :   0.8591 B(  2-O ,  3-C ) :   0.9885 B(  3-C ,  4-C ) :   0.8435
B(  3-C ,  7-C ) :   0.8851 B(  3-C , 12-H ) :   0.9417 B(  4-C ,  5-C ) :   0.9429
B(  4-C ,  7-C ) :   0.8416 B(  4-C , 13-H ) :   0.9209 B(  5-C ,  6-C ) :   0.8835
B(  5-C , 14-H ) :   0.9270 B(  6-C ,  7-C ) :   0.9298 B(  6-C , 15-H ) :   0.9246
B(  7-C ,  8-C ) :   0.8562 B(  8-C , 16-H ) :   0.9448 B(  8-C , 17-H ) :   0.9447
B(  8-C , 18-H ) :   0.9392

MP2 TOTAL ENERGY:     -385.163185357 Eh
FINAL SINGLE POINT ENERGY      -385.163185357203

DIPOLE MOMENT
-------------
                                X             Y             Z
Electronic contribution:     -2.76973      -0.09956      -1.67225
Nuclear contribution   :      2.98303      -0.08050       2.14175
                        -----------------------------------------
Total Dipole Moment    :      0.21330      -0.18007       0.46950
                        -----------------------------------------
Magnitude (a.u.)       :      0.54622
Magnitude (Debye)      :      1.38838

                             ****ORCA TERMINATED NORMALLY****
TOTAL RUN TIME: 0 days 0 hours 17 minutes 59 seconds 79 msec
