                         Program Version 3.0.3 - RELEASE   -
|  1> ! RI-MP2 RIJK def2-TZVP def2-TZVP/C def2-TZVP/JK TIGHTSCF
|  2> % maxcore 2000
|  3> % mp2 density relaxed end
|  4> *xyz 0 1
|  5>  C        0.1044216497     1.4503162234     0.1565826781
|  6>  C        0.0175322900    -0.0263802562    -0.0453639600
|  7>  C       -0.1746904108    -0.7775909199    -1.1829361135
|  8>  C       -0.1907314316    -2.1499484838    -0.8032770892
|  9>  C       -0.0077929989    -2.2138745167     0.5598481810
| 10>  C        0.0958995977    -3.3796458615     1.4890113786
| 11>  C        1.5393666321    -3.7254275783     1.8695742377
| 12>  O        1.4972439489    -4.8184809400     2.7731667418
| 13>  N        0.1212526809    -0.9131963510     1.0031382584
| 14>  H        1.0637278411     1.7558416793     0.5940534012
| 15>  H        0.0041793618     1.9614035863    -0.8037098828
| 16>  H       -0.6878939286     1.8286517860     0.8154517141
| 17>  H       -0.2974227628    -0.3791896298    -2.1790975149
| 18>  H       -0.3243240493    -3.0010156783    -1.4544398344
| 19>  H       -0.4663000132    -3.2001771749     2.4148883372
| 20>  H       -0.3551560470    -4.2580122287     1.0178201282
| 21>  H        2.1046775437    -3.9709320905     0.9578509005
| 22>  H        2.0248736154    -2.8469224771     2.3257816882
| 23>  H        2.4006714809    -5.0792306485     2.9737635623
| 24>  H        0.2442490799    -0.6484971599     1.9657865376
| 25> *
| 26>
| 27>                          ****END OF INPUT****

CARTESIAN COORDINATES (ANGSTROEM)
---------------------------------
  C      0.104422    1.450316    0.156583
  C      0.017532   -0.026380   -0.045364
  C     -0.174690   -0.777591   -1.182936
  C     -0.190731   -2.149948   -0.803277
  C     -0.007793   -2.213875    0.559848
  C      0.095900   -3.379646    1.489011
  C      1.539367   -3.725428    1.869574
  O      1.497244   -4.818481    2.773167
  N      0.121253   -0.913196    1.003138
  H      1.063728    1.755842    0.594053
  H      0.004179    1.961404   -0.803710
  H     -0.687894    1.828652    0.815452
  H     -0.297423   -0.379190   -2.179098
  H     -0.324324   -3.001016   -1.454440
  H     -0.466300   -3.200177    2.414888
  H     -0.355156   -4.258012    1.017820
  H      2.104678   -3.970932    0.957851
  H      2.024874   -2.846922    2.325782
  H      2.400671   -5.079231    2.973764
  H      0.244249   -0.648497    1.965787

 Total Charge           Charge          ....    0
 Multiplicity           Mult            ....    1
 Number of Electrons    NEL             ....   68
 Basis Dimension        Dim             ....  345

ORBITAL ENERGIES
----------------

  NO   OCC          E(Eh)            E(eV)
   0   2.0000     -20.557316      -559.3930
   1   2.0000     -15.592495      -424.2934
   2   2.0000     -11.277917      -306.8877
   3   2.0000     -11.251129      -306.1588
   4   2.0000     -11.248944      -306.0993
   5   2.0000     -11.229319      -305.5653
   6   2.0000     -11.229292      -305.5646
   7   2.0000     -11.198925      -304.7382
   8   2.0000     -11.197565      -304.7012
   9   2.0000      -1.361604       -37.0511
  10   2.0000      -1.284813       -34.9615
  11   2.0000      -1.058958       -28.8157
  12   2.0000      -1.035150       -28.1679
  13   2.0000      -1.000571       -27.2269
  14   2.0000      -0.906905       -24.6781
  15   2.0000      -0.834599       -22.7106
  16   2.0000      -0.779237       -21.2041
  17   2.0000      -0.758952       -20.6521
  18   2.0000      -0.707942       -19.2641
  19   2.0000      -0.651979       -17.7413
  20   2.0000      -0.645940       -17.5769
  21   2.0000      -0.602189       -16.3864
  22   2.0000      -0.585410       -15.9298
  23   2.0000      -0.578072       -15.7301
  24   2.0000      -0.574633       -15.6366
  25   2.0000      -0.551083       -14.9957
  26   2.0000      -0.530992       -14.4490
  27   2.0000      -0.527828       -14.3629
  28   2.0000      -0.510873       -13.9016
  29   2.0000      -0.499724       -13.5982
  30   2.0000      -0.487966       -13.2782
  31   2.0000      -0.445883       -12.1331
  32   2.0000      -0.342176        -9.3111
  33   2.0000      -0.278556        -7.5799
  34   0.0000       0.125221         3.4074
  35   0.0000       0.140420         3.8210
  36   0.0000       0.155955         4.2437
  37   0.0000       0.171760         4.6738
  38   0.0000       0.177770         4.8374

MULLIKEN ATOMIC CHARGES
-----------------------
   0 C :   -0.455875
   1 C :    0.132801
   2 C :   -0.192044
   3 C :   -0.232339
   4 C :    0.135943
   5 C :   -0.232889
   6 C :   -0.053655
   7 O :   -0.464277
   8 N :   -0.300323
   9 H :    0.139341
  10 H :    0.147907
  11 H :    0.140594
  12 H :    0.120456
  13 H :    0.121207
  14 H :    0.123555
  15 H :    0.131651
  16 H :    0.105248
  17 H :    0.081120
  18 H :    0.316578
  19 H :    0.234999
Sum of atomic charges:   -0.0000000

LOEWDIN ATOMIC CHARGES
----------------------
   0 C :   -0.284525
   1 C :   -0.257931
   2 C :   -0.182570
   3 C :   -0.177312
   4 C :   -0.231638
   5 C :   -0.240413
   6 C :   -0.347830
   7 O :   -0.052638
   8 N :    0.214990
   9 H :    0.127441
  10 H :    0.137570
  11 H :    0.127837
  12 H :    0.137827
  13 H :    0.138759
  14 H :    0.145540
  15 H :    0.153503
  16 H :    0.117486
  17 H :    0.110182
  18 H :    0.172562
  19 H :    0.191160

  Mayer bond orders larger than 0.1
B(  0-C ,  1-C ) :   0.8567 B(  0-C ,  9-H ) :   0.9382 B(  0-C , 10-H ) :   0.9529
B(  0-C , 11-H ) :   0.9366 B(  1-C ,  2-C ) :   1.4677 B(  1-C ,  8-N ) :   1.1322
B(  2-C ,  3-C ) :   1.2536 B(  2-C , 12-H ) :   0.9413 B(  3-C ,  4-C ) :   1.4681
B(  3-C , 13-H ) :   0.9452 B(  4-C ,  5-C ) :   0.8699 B(  4-C ,  8-N ) :   1.0840
B(  5-C ,  6-C ) :   0.9212 B(  5-C ,  7-O ) :  -0.1017 B(  5-C , 14-H ) :   0.9312
B(  5-C , 15-H ) :   0.9384 B(  6-C ,  7-O ) :   1.0103 B(  6-C , 16-H ) :   0.9306
B(  6-C , 17-H ) :   0.9309 B(  7-O , 18-H ) :   0.8479 B(  8-N , 19-H ) :   0.8750

MP2 TOTAL ENERGY:     -402.496886497 Eh
FINAL SINGLE POINT ENERGY      -402.496886496654

DIPOLE MOMENT
-------------
                                X             Y             Z
Electronic contribution:     -0.77988      -2.35174      -0.07767
Nuclear contribution   :      1.41304       2.83717       0.56935
                        -----------------------------------------
Total Dipole Moment    :      0.63316       0.48543       0.49168
                        -----------------------------------------
Magnitude (a.u.)       :      0.93717
Magnitude (Debye)      :      2.38209

                             ****ORCA TERMINATED NORMALLY****
TOTAL RUN TIME: 0 days 0 hours 15 minutes 53 seconds 786 msec
