                         Program Version 3.0.3 - RELEASE   -
|  1> ! RI-MP2 RIJK def2-TZVP def2-TZVP/C def2-TZVP/JK TIGHTSCF
|  2> % maxcore 2000
|  3> % mp2 density relaxed end
|  4> *xyz 0 1
|  5>  C       -0.0834225912     1.5940310693     0.1499396625
|  6>  C        0.0058292061     0.0776729498     0.0672800445
|  7>  C        0.9816415080    -0.5660688760    -0.9913069665
|  8>  C        1.6942684978    -1.2864785740     0.1612608747
|  9>  C        2.3122471328    -2.6600344310     0.1313170236
| 10>  C        3.5761008938    -2.7032429529    -0.6121781705
| 11>  N        4.5682713855    -2.7320794015    -1.2030966696
| 12>  N        2.2072072541    -0.2145487790     1.0444555848
| 13>  C        0.7931490398    -0.6596719978     1.1651439244
| 14>  H        0.9093582398     2.0254564029     0.3009966841
| 15>  H       -0.5053895965     2.0117722155    -0.7703262390
| 16>  H       -0.7243488725     1.9066167071     0.9818473875
| 17>  H       -0.9900061853    -0.3641330938    -0.0363070125
| 18>  H        0.4693789403    -1.2424665037    -1.6797141386
| 19>  H        1.6106350467     0.1258801592    -1.5557087406
| 20>  H        2.4975206021    -3.0147116495     1.1528246221
| 21>  H        1.6206949705    -3.3756455363    -0.3299269073
| 22>  H        2.7279964959    -0.6567439429     1.8023660237
| 23>  H        0.4213799122    -1.0474887954     2.1070595927
| 24> *
| 25>
| 26>                          ****END OF INPUT****

CARTESIAN COORDINATES (ANGSTROEM)
---------------------------------
  C     -0.083423    1.594031    0.149940
  C      0.005829    0.077673    0.067280
  C      0.981642   -0.566069   -0.991307
  C      1.694268   -1.286479    0.161261
  C      2.312247   -2.660034    0.131317
  C      3.576101   -2.703243   -0.612178
  N      4.568271   -2.732079   -1.203097
  N      2.207207   -0.214549    1.044456
  C      0.793149   -0.659672    1.165144
  H      0.909358    2.025456    0.300997
  H     -0.505390    2.011772   -0.770326
  H     -0.724349    1.906617    0.981847
  H     -0.990006   -0.364133   -0.036307
  H      0.469379   -1.242467   -1.679714
  H      1.610635    0.125880   -1.555709
  H      2.497521   -3.014712    1.152825
  H      1.620695   -3.375646   -0.329927
  H      2.727996   -0.656744    1.802366
  H      0.421380   -1.047489    2.107060

 Total Charge           Charge          ....    0
 Multiplicity           Mult            ....    1
 Number of Electrons    NEL             ....   66
 Basis Dimension        Dim             ....  339

ORBITAL ENERGIES
----------------

  NO   OCC          E(Eh)            E(eV)
   0   2.0000     -15.572679      -423.7541
   1   2.0000     -15.571460      -423.7210
   2   2.0000     -11.296449      -307.3920
   3   2.0000     -11.287995      -307.1620
   4   2.0000     -11.275803      -306.8302
   5   2.0000     -11.273292      -306.7619
   6   2.0000     -11.244753      -305.9853
   7   2.0000     -11.236520      -305.7613
   8   2.0000     -11.213865      -305.1448
   9   2.0000      -1.298547       -35.3353
  10   2.0000      -1.220159       -33.2022
  11   2.0000      -1.074732       -29.2449
  12   2.0000      -1.064565       -28.9683
  13   2.0000      -0.965116       -26.2621
  14   2.0000      -0.887491       -24.1499
  15   2.0000      -0.818142       -22.2628
  16   2.0000      -0.742245       -20.1975
  17   2.0000      -0.735289       -20.0082
  18   2.0000      -0.685446       -18.6519
  19   2.0000      -0.652790       -17.7633
  20   2.0000      -0.620208       -16.8767
  21   2.0000      -0.598791       -16.2939
  22   2.0000      -0.580032       -15.7835
  23   2.0000      -0.558327       -15.1928
  24   2.0000      -0.556528       -15.1439
  25   2.0000      -0.522426       -14.2159
  26   2.0000      -0.512684       -13.9508
  27   2.0000      -0.491147       -13.3648
  28   2.0000      -0.463172       -12.6036
  29   2.0000      -0.460794       -12.5389
  30   2.0000      -0.449314       -12.2265
  31   2.0000      -0.442304       -12.0357
  32   2.0000      -0.375208       -10.2099
  33   0.0000       0.110157         2.9975
  34   0.0000       0.141993         3.8638
  35   0.0000       0.146789         3.9943
  36   0.0000       0.159336         4.3357
  37   0.0000       0.176345         4.7986

MULLIKEN ATOMIC CHARGES
-----------------------
   0 C :   -0.450588
   1 C :    0.040036
   2 C :   -0.268007
   3 C :    0.126947
   4 C :   -0.157658
   5 C :   -0.157443
   6 N :   -0.057144
   7 N :   -0.383508
   8 C :   -0.135821
   9 H :    0.155622
  10 H :    0.130426
  11 H :    0.125786
  12 H :    0.101777
  13 H :    0.124202
  14 H :    0.127007
  15 H :    0.160456
  16 H :    0.162831
  17 H :    0.212765
  18 H :    0.142317
Sum of atomic charges:   -0.0000000

LOEWDIN ATOMIC CHARGES
----------------------
   0 C :   -0.298257
   1 C :   -0.227197
   2 C :   -0.162624
   3 C :   -0.260687
   4 C :   -0.218176
   5 C :   -0.182059
   6 N :    0.062360
   7 N :    0.031475
   8 C :   -0.193719
   9 H :    0.131119
  10 H :    0.124400
  11 H :    0.123765
  12 H :    0.149228
  13 H :    0.136286
  14 H :    0.139107
  15 H :    0.169709
  16 H :    0.172415
  17 H :    0.172546
  18 H :    0.130309

  Mayer bond orders larger than 0.1
B(  0-C ,  1-C ) :   0.8843 B(  0-C ,  9-H ) :   0.9374 B(  0-C , 10-H ) :   0.9377
B(  0-C , 11-H ) :   0.9376 B(  1-C ,  2-C ) :   0.9795 B(  1-C ,  8-C ) :   0.8971
B(  1-C , 12-H ) :   0.9234 B(  2-C ,  3-C ) :   0.9523 B(  2-C , 13-H ) :   0.9328
B(  2-C , 14-H ) :   0.8993 B(  3-C ,  4-C ) :   0.9103 B(  3-C ,  7-N ) :   0.8876
B(  3-C ,  8-C ) :   0.8412 B(  4-C ,  5-C ) :   0.9371 B(  4-C , 15-H ) :   0.9125
B(  4-C , 16-H ) :   0.8989 B(  5-C ,  6-N ) :   2.8602 B(  7-N ,  8-C ) :   0.9746
B(  7-N , 17-H ) :   0.8657 B(  8-C , 18-H ) :   0.9111

MP2 TOTAL ENERGY:     -381.368281337 Eh
FINAL SINGLE POINT ENERGY      -381.368281337034

DIPOLE MOMENT
-------------
                                X             Y             Z
Electronic contribution:      7.32278      -6.14706      -0.88392
Nuclear contribution   :     -8.91094       5.76022       1.80220
                        -----------------------------------------
Total Dipole Moment    :     -1.58816      -0.38684       0.91828
                        -----------------------------------------
Magnitude (a.u.)       :      1.87487
Magnitude (Debye)      :      4.76554

                             ****ORCA TERMINATED NORMALLY****
TOTAL RUN TIME: 0 days 0 hours 16 minutes 35 seconds 392 msec
