                         Program Version 3.0.3 - RELEASE   -
|  1> ! RI-MP2 RIJK def2-TZVP def2-TZVP/C def2-TZVP/JK TIGHTSCF
|  2> % maxcore 2000
|  3> % mp2 density relaxed end
|  4> *xyz 0 1
|  5>  C       -0.0021404907     1.5730137230     0.1188251953
|  6>  C       -0.0140095864     0.0398114491     0.0137127757
|  7>  C        0.7542949465    -0.6486786582     1.1611758764
|  8>  N        2.1555765669    -0.2454331761     1.1897440648
|  9>  C        2.5399206901     0.7640245213     2.1739875341
| 10>  C        2.9113010930    -0.6628743274     2.3667418059
| 11>  C       -1.4453424857    -0.4619376427     0.0300581306
| 12>  O       -1.9360734484    -1.1938422849    -0.7896741115
| 13>  H        1.0224397779     1.9486163202     0.0855639744
| 14>  H       -0.5560402133     2.0260339939    -0.7091033205
| 15>  H       -0.4602538208     1.9122267651     1.0554288908
| 16>  H        0.4319655284    -0.2755444215    -0.9342239063
| 17>  H        0.2469357540    -0.4499379236     2.1247936685
| 18>  H        0.7240464008    -1.7325490026     0.9999906598
| 19>  H        3.2784778276     1.4894189065     1.8450501275
| 20>  H        1.7633684175     1.1664351694     2.8227681981
| 21>  H        2.3820498118    -1.2120935505     3.1441452792
| 22>  H        3.9256083893    -1.0029623872     2.1792978760
| 23>  H       -2.0451708884    -0.0939420439     0.8985053713
| 24> *
| 25>
| 26>                          ****END OF INPUT****

CARTESIAN COORDINATES (ANGSTROEM)
---------------------------------
  C     -0.002140    1.573014    0.118825
  C     -0.014010    0.039811    0.013713
  C      0.754295   -0.648679    1.161176
  N      2.155577   -0.245433    1.189744
  C      2.539921    0.764025    2.173988
  C      2.911301   -0.662874    2.366742
  C     -1.445342   -0.461938    0.030058
  O     -1.936073   -1.193842   -0.789674
  H      1.022440    1.948616    0.085564
  H     -0.556040    2.026034   -0.709103
  H     -0.460254    1.912227    1.055429
  H      0.431966   -0.275544   -0.934224
  H      0.246936   -0.449938    2.124794
  H      0.724046   -1.732549    0.999991
  H      3.278478    1.489419    1.845050
  H      1.763368    1.166435    2.822768
  H      2.382050   -1.212094    3.144145
  H      3.925608   -1.002962    2.179298
  H     -2.045171   -0.093942    0.898505

 Total Charge           Charge          ....    0
 Multiplicity           Mult            ....    1
 Number of Electrons    NEL             ....   62
 Basis Dimension        Dim             ....  314

ORBITAL ENERGIES
----------------

  NO   OCC          E(Eh)            E(eV)
   0   2.0000     -20.556568      -559.3726
   1   2.0000     -15.570083      -423.6835
   2   2.0000     -11.328583      -308.2664
   3   2.0000     -11.269369      -306.6551
   4   2.0000     -11.263925      -306.5070
   5   2.0000     -11.262488      -306.4679
   6   2.0000     -11.243381      -305.9479
   7   2.0000     -11.230504      -305.5975
   8   2.0000      -1.394987       -37.9595
   9   2.0000      -1.283980       -34.9389
  10   2.0000      -1.094478       -29.7822
  11   2.0000      -0.979895       -26.6643
  12   2.0000      -0.900280       -24.4979
  13   2.0000      -0.852394       -23.1948
  14   2.0000      -0.820744       -22.3336
  15   2.0000      -0.783214       -21.3123
  16   2.0000      -0.684284       -18.6203
  17   2.0000      -0.671474       -18.2717
  18   2.0000      -0.663145       -18.0451
  19   2.0000      -0.627171       -17.0662
  20   2.0000      -0.615480       -16.7481
  21   2.0000      -0.581279       -15.8174
  22   2.0000      -0.554343       -15.0844
  23   2.0000      -0.537922       -14.6376
  24   2.0000      -0.532664       -14.4945
  25   2.0000      -0.509014       -13.8510
  26   2.0000      -0.497390       -13.5347
  27   2.0000      -0.475966       -12.9517
  28   2.0000      -0.454001       -12.3540
  29   2.0000      -0.414989       -11.2924
  30   2.0000      -0.385195       -10.4817
  31   0.0000       0.128875         3.5069
  32   0.0000       0.134410         3.6575
  33   0.0000       0.159029         4.3274
  34   0.0000       0.165356         4.4996
  35   0.0000       0.167479         4.5573

MULLIKEN ATOMIC CHARGES
-----------------------
   0 C :   -0.448611
   1 C :    0.080621
   2 C :   -0.217306
   3 N :   -0.226624
   4 C :   -0.189273
   5 C :   -0.163070
   6 C :    0.075073
   7 O :   -0.256626
   8 H :    0.157018
   9 H :    0.148831
  10 H :    0.121981
  11 H :    0.097519
  12 H :    0.098258
  13 H :    0.140961
  14 H :    0.133844
  15 H :    0.124267
  16 H :    0.120648
  17 H :    0.134484
  18 H :    0.068006
Sum of atomic charges:   -0.0000000

LOEWDIN ATOMIC CHARGES
----------------------
   0 C :   -0.286344
   1 C :   -0.276865
   2 C :   -0.271518
   3 N :    0.093478
   4 C :   -0.273141
   5 C :   -0.266594
   6 C :   -0.275752
   7 O :    0.137221
   8 H :    0.132081
   9 H :    0.128315
  10 H :    0.124008
  11 H :    0.160732
  12 H :    0.125698
  13 H :    0.142006
  14 H :    0.124752
  15 H :    0.121384
  16 H :    0.123644
  17 H :    0.125860
  18 H :    0.111034

  Mayer bond orders larger than 0.1
B(  0-C ,  1-C ) :   0.8968 B(  0-C ,  8-H ) :   0.9319 B(  0-C ,  9-H ) :   0.9362
B(  0-C , 10-H ) :   0.9266 B(  1-C ,  2-C ) :   0.9166 B(  1-C ,  6-C ) :   0.8541
B(  1-C , 11-H ) :   0.8971 B(  2-C ,  3-N ) :   0.8906 B(  2-C , 12-H ) :   0.9160
B(  2-C , 13-H ) :   0.9242 B(  3-N ,  4-C ) :   0.8819 B(  3-N ,  5-C ) :   0.8847
B(  4-C ,  5-C ) :   0.9443 B(  4-C , 14-H ) :   0.9288 B(  4-C , 15-H ) :   0.9250
B(  5-C , 16-H ) :   0.9231 B(  5-C , 17-H ) :   0.9262 B(  6-C ,  7-O ) :   2.0020
B(  6-C , 18-H ) :   0.9259

MP2 TOTAL ENERGY:     -364.412689644 Eh
FINAL SINGLE POINT ENERGY      -364.412689644412

DIPOLE MOMENT
-------------
                                X             Y             Z
Electronic contribution:     -3.39921      -3.95266      -3.58567
Nuclear contribution   :      3.91228       4.57275       4.62234
                        -----------------------------------------
Total Dipole Moment    :      0.51307       0.62009       1.03668
                        -----------------------------------------
Magnitude (a.u.)       :      1.31242
Magnitude (Debye)      :      3.33591

                             ****ORCA TERMINATED NORMALLY****
TOTAL RUN TIME: 0 days 0 hours 12 minutes 25 seconds 748 msec
