                         Program Version 3.0.3 - RELEASE   -
|  1> ! RI-MP2 RIJK def2-TZVP def2-TZVP/C def2-TZVP/JK TIGHTSCF
|  2> % maxcore 2000
|  3> % mp2 density relaxed end
|  4> *xyz 0 1
|  5>  C       -0.0713742573     1.5807540733     0.2338985513
|  6>  C       -0.0993488461     0.0719372559     0.2564553773
|  7>  N        1.1071498272    -0.6211842047    -0.2414120395
|  8>  C        0.7482484259    -0.7306680325     1.1696351219
|  9>  C        1.6697347291    -0.3253228886     2.3263062604
| 10>  N        1.2830278781    -1.5556862094     3.0913140977
| 11>  C        0.0635125094    -1.3555005928     3.9426887523
| 12>  C       -0.8609506328    -1.9610545603     2.8520904722
| 13>  C        0.3884780918    -2.0010949353     1.9450022606
| 14>  H        0.9224368883     1.9499729226     0.5006112875
| 15>  H       -0.3139619177     1.9604351221    -0.7642923748
| 16>  H       -0.7983063545     1.9972380695     0.9399982262
| 17>  H       -1.0608704450    -0.3724984720    -0.0032527412
| 18>  H        0.8549148219    -1.4727542616    -0.7386653341
| 19>  H        2.7316454836    -0.3261859615     2.0613607079
| 20>  H        1.4344873552     0.6143484876     2.8402748073
| 21>  H        0.1157896084    -1.9197950076     4.8782661007
| 22>  H       -0.1313689699    -0.3046355277     4.1872216984
| 23>  H       -1.2491543470    -2.9504375513     3.1035467865
| 24>  H       -1.6884818728    -1.3383906873     2.5040915563
| 25>  H        0.6291911442    -2.9498010284     1.4518863450
| 26> *
| 27>
| 28>                          ****END OF INPUT****

CARTESIAN COORDINATES (ANGSTROEM)
---------------------------------
  C     -0.071374    1.580754    0.233899
  C     -0.099349    0.071937    0.256455
  N      1.107150   -0.621184   -0.241412
  C      0.748248   -0.730668    1.169635
  C      1.669735   -0.325323    2.326306
  N      1.283028   -1.555686    3.091314
  C      0.063513   -1.355501    3.942689
  C     -0.860951   -1.961055    2.852090
  C      0.388478   -2.001095    1.945002
  H      0.922437    1.949973    0.500611
  H     -0.313962    1.960435   -0.764292
  H     -0.798306    1.997238    0.939998
  H     -1.060870   -0.372498   -0.003253
  H      0.854915   -1.472754   -0.738665
  H      2.731645   -0.326186    2.061361
  H      1.434487    0.614348    2.840275
  H      0.115790   -1.919795    4.878266
  H     -0.131369   -0.304636    4.187222
  H     -1.249154   -2.950438    3.103547
  H     -1.688482   -1.338391    2.504092
  H      0.629191   -2.949801    1.451886

 Total Charge           Charge          ....    0
 Multiplicity           Mult            ....    1
 Number of Electrons    NEL             ....   68
 Basis Dimension        Dim             ....  351

ORBITAL ENERGIES
----------------

  NO   OCC          E(Eh)            E(eV)
   0   2.0000     -15.555356      -423.2828
   1   2.0000     -15.541652      -422.9099
   2   2.0000     -11.262165      -306.4591
   3   2.0000     -11.261410      -306.4385
   4   2.0000     -11.259641      -306.3904
   5   2.0000     -11.251403      -306.1662
   6   2.0000     -11.247425      -306.0580
   7   2.0000     -11.229002      -305.5567
   8   2.0000     -11.219900      -305.3090
   9   2.0000      -1.282198       -34.8904
  10   2.0000      -1.236929       -33.6585
  11   2.0000      -1.020909       -27.7804
  12   2.0000      -0.992211       -26.9994
  13   2.0000      -0.950226       -25.8570
  14   2.0000      -0.880896       -23.9704
  15   2.0000      -0.835654       -22.7393
  16   2.0000      -0.786728       -21.4079
  17   2.0000      -0.724184       -19.7060
  18   2.0000      -0.693711       -18.8768
  19   2.0000      -0.653902       -17.7936
  20   2.0000      -0.628188       -17.0939
  21   2.0000      -0.614422       -16.7193
  22   2.0000      -0.582563       -15.8523
  23   2.0000      -0.567822       -15.4512
  24   2.0000      -0.551602       -15.0098
  25   2.0000      -0.534715       -14.5503
  26   2.0000      -0.505055       -13.7432
  27   2.0000      -0.499643       -13.5960
  28   2.0000      -0.478849       -13.0301
  29   2.0000      -0.453971       -12.3532
  30   2.0000      -0.438074       -11.9206
  31   2.0000      -0.431610       -11.7447
  32   2.0000      -0.390229       -10.6187
  33   2.0000      -0.350908        -9.5487
  34   0.0000       0.131612         3.5813
  35   0.0000       0.145682         3.9642
  36   0.0000       0.156753         4.2655
  37   0.0000       0.162865         4.4318
  38   0.0000       0.180604         4.9145

MULLIKEN ATOMIC CHARGES
-----------------------
   0 C :   -0.405446
   1 C :   -0.044297
   2 N :   -0.372088
   3 C :    0.019632
   4 C :   -0.169115
   5 N :   -0.173665
   6 C :   -0.139434
   7 C :   -0.278479
   8 C :    0.021883
   9 H :    0.141150
  10 H :    0.134607
  11 H :    0.123076
  12 H :    0.121276
  13 H :    0.217643
  14 H :    0.117604
  15 H :    0.117076
  16 H :    0.116767
  17 H :    0.101088
  18 H :    0.125616
  19 H :    0.116054
  20 H :    0.109055
Sum of atomic charges:    0.0000000

LOEWDIN ATOMIC CHARGES
----------------------
   0 C :   -0.294102
   1 C :   -0.267435
   2 N :    0.027276
   3 C :   -0.264002
   4 C :   -0.211231
   5 N :    0.093184
   6 C :   -0.248882
   7 C :   -0.229287
   8 C :   -0.183267
   9 H :    0.131154
  10 H :    0.127221
  11 H :    0.125201
  12 H :    0.138417
  13 H :    0.166901
  14 H :    0.131854
  15 H :    0.123465
  16 H :    0.121829
  17 H :    0.119335
  18 H :    0.132178
  19 H :    0.128062
  20 H :    0.132129

  Mayer bond orders larger than 0.1
B(  0-C ,  1-C ) :   0.8723 B(  0-C ,  9-H ) :   0.9442 B(  0-C , 10-H ) :   0.9348
B(  0-C , 11-H ) :   0.9361 B(  1-C ,  2-N ) :   0.9811 B(  1-C ,  3-C ) :   0.8516
B(  1-C , 12-H ) :   0.9260 B(  2-N ,  3-C ) :   0.9233 B(  2-N , 13-H ) :   0.8688
B(  3-C ,  4-C ) :   0.9418 B(  3-C ,  8-C ) :   0.9467 B(  4-C ,  5-N ) :   0.9386
B(  4-C , 14-H ) :   0.8988 B(  4-C , 15-H ) :   0.9409 B(  5-N ,  6-C ) :   0.9092
B(  5-N ,  8-C ) :   0.9691 B(  6-C ,  7-C ) :   0.9701 B(  6-C , 16-H ) :   0.9230
B(  6-C , 17-H ) :   0.9242 B(  7-C ,  8-C ) :   0.9332 B(  7-C , 18-H ) :   0.9191
B(  7-C , 19-H ) :   0.9164 B(  8-C , 20-H ) :   0.8833

MP2 TOTAL ENERGY:     -382.518301661 Eh
FINAL SINGLE POINT ENERGY      -382.518301660501

DIPOLE MOMENT
-------------
                                X             Y             Z
Electronic contribution:      2.79807      -3.52384      -0.32617
Nuclear contribution   :     -3.80383       3.57155       0.27086
                        -----------------------------------------
Total Dipole Moment    :     -1.00576       0.04771      -0.05531
                        -----------------------------------------
Magnitude (a.u.)       :      1.00841
Magnitude (Debye)      :      2.56317

                             ****ORCA TERMINATED NORMALLY****
TOTAL RUN TIME: 0 days 0 hours 21 minutes 13 seconds 359 msec
