                         Program Version 3.0.3 - RELEASE   -
|  1> ! RI-MP2 RIJK def2-TZVP def2-TZVP/C def2-TZVP/JK TIGHTSCF
|  2> % maxcore 2000
|  3> % mp2 density relaxed end
|  4> *xyz 0 1
|  5>  O       -0.0295858283     1.3760156530    -0.0474822744
|  6>  C        0.0162056520    -0.0206490272    -0.0039143639
|  7>  C       -0.4321863382    -0.8032302246    -1.2177585084
|  8>  C       -1.2984867800    -0.7188622118     0.0373408900
|  9>  N       -1.4281530632    -1.8257905004     0.9400217792
| 10>  C       -0.3506201475    -2.5783700574     1.3712417294
| 11>  O       -0.4767689715    -3.6782366510     1.8779694557
| 12>  N        0.8840553273    -1.9948703982     1.1540975564
| 13>  C        1.0846496430    -0.5743243756     0.9240564320
| 14>  H        0.6732926494     1.6785559896    -0.6338783056
| 15>  H       -0.7554329349    -0.2262531181    -2.0771823488
| 16>  H        0.0574804924    -1.7457692525    -1.4355999714
| 17>  H       -2.1824356854    -0.0935764039    -0.0113544987
| 18>  H       -2.2716290439    -2.3768212774     0.8819860636
| 19>  H        1.6279106351    -2.5051647057     1.6041827957
| 20>  H        2.0837718137    -0.4297318573     0.4936265447
| 21>  H        1.0383557699     0.0154574886     1.8523173943
| 22> *
| 23>
| 24>                          ****END OF INPUT****

CARTESIAN COORDINATES (ANGSTROEM)
---------------------------------
  O     -0.029586    1.376016   -0.047482
  C      0.016206   -0.020649   -0.003914
  C     -0.432186   -0.803230   -1.217759
  C     -1.298487   -0.718862    0.037341
  N     -1.428153   -1.825791    0.940022
  C     -0.350620   -2.578370    1.371242
  O     -0.476769   -3.678237    1.877969
  N      0.884055   -1.994870    1.154098
  C      1.084650   -0.574324    0.924056
  H      0.673293    1.678556   -0.633878
  H     -0.755433   -0.226253   -2.077182
  H      0.057480   -1.745769   -1.435600
  H     -2.182436   -0.093576   -0.011354
  H     -2.271629   -2.376821    0.881986
  H      1.627911   -2.505165    1.604183
  H      2.083772   -0.429732    0.493627
  H      1.038356    0.015457    1.852317

 Total Charge           Charge          ....    0
 Multiplicity           Mult            ....    1
 Number of Electrons    NEL             ....   68
 Basis Dimension        Dim             ....  327

ORBITAL ENERGIES
----------------

  NO   OCC          E(Eh)            E(eV)
   0   2.0000     -20.582611      -560.0813
   1   2.0000     -20.504219      -557.9482
   2   2.0000     -15.583209      -424.0407
   3   2.0000     -15.582564      -424.0231
   4   2.0000     -11.372365      -309.4578
   5   2.0000     -11.307245      -307.6858
   6   2.0000     -11.284061      -307.0549
   7   2.0000     -11.283509      -307.0399
   8   2.0000     -11.239640      -305.8461
   9   2.0000      -1.397483       -38.0275
  10   2.0000      -1.387585       -37.7581
  11   2.0000      -1.265075       -34.4244
  12   2.0000      -1.208639       -32.8887
  13   2.0000      -1.124659       -30.6035
  14   2.0000      -0.973426       -26.4883
  15   2.0000      -0.873310       -23.7640
  16   2.0000      -0.844163       -22.9708
  17   2.0000      -0.774413       -21.0728
  18   2.0000      -0.714842       -19.4518
  19   2.0000      -0.711386       -19.3578
  20   2.0000      -0.679858       -18.4999
  21   2.0000      -0.652500       -17.7554
  22   2.0000      -0.637103       -17.3365
  23   2.0000      -0.633556       -17.2399
  24   2.0000      -0.603759       -16.4291
  25   2.0000      -0.586562       -15.9612
  26   2.0000      -0.572522       -15.5791
  27   2.0000      -0.552297       -15.0288
  28   2.0000      -0.526337       -14.3223
  29   2.0000      -0.468998       -12.7621
  30   2.0000      -0.435073       -11.8389
  31   2.0000      -0.428438       -11.6584
  32   2.0000      -0.396395       -10.7864
  33   2.0000      -0.372221       -10.1286
  34   0.0000       0.122029         3.3206
  35   0.0000       0.138897         3.7796
  36   0.0000       0.154586         4.2065
  37   0.0000       0.179755         4.8914
  38   0.0000       0.184659         5.0248

MULLIKEN ATOMIC CHARGES
-----------------------
   0 O :   -0.449833
   1 C :    0.164869
   2 C :   -0.334253
   3 C :   -0.006029
   4 N :   -0.335292
   5 C :    0.311094
   6 O :   -0.381569
   7 N :   -0.356846
   8 C :   -0.120763
   9 H :    0.325996
  10 H :    0.144272
  11 H :    0.152983
  12 H :    0.142836
  13 H :    0.248416
  14 H :    0.245875
  15 H :    0.116007
  16 H :    0.132237
Sum of atomic charges:   -0.0000000

LOEWDIN ATOMIC CHARGES
----------------------
   0 O :    0.032805
   1 C :   -0.361808
   2 C :   -0.192049
   3 C :   -0.223410
   4 N :    0.117260
   5 C :   -0.549385
   6 O :    0.047282
   7 N :    0.089647
   8 C :   -0.244696
   9 H :    0.184823
  10 H :    0.138661
  11 H :    0.142920
  12 H :    0.153778
  13 H :    0.196435
  14 H :    0.192219
  15 H :    0.136277
  16 H :    0.139240

  Mayer bond orders larger than 0.1
B(  0-O ,  1-C ) :   1.0325 B(  0-O ,  9-H ) :   0.8370 B(  1-C ,  2-C ) :   0.8764
B(  1-C ,  3-C ) :   0.8891 B(  1-C ,  8-C ) :   0.9478 B(  2-C ,  3-C ) :   0.8750
B(  2-C , 10-H ) :   0.9174 B(  2-C , 11-H ) :   0.9011 B(  3-C ,  4-N ) :   0.9168
B(  3-C , 12-H ) :   0.9193 B(  4-N ,  5-C ) :   1.1177 B(  4-N , 13-H ) :   0.8633
B(  5-C ,  6-O ) :   1.9795 B(  5-C ,  7-N ) :   1.1013 B(  7-N ,  8-C ) :   0.8781
B(  7-N , 14-H ) :   0.8675 B(  8-C , 15-H ) :   0.9150 B(  8-C , 16-H ) :   0.9315

MP2 TOTAL ENERGY:     -454.444007805 Eh
FINAL SINGLE POINT ENERGY      -454.444007805216

DIPOLE MOMENT
-------------
                                X             Y             Z
Electronic contribution:     -1.23888      -2.45637       2.58831
Nuclear contribution   :      1.84741       3.59266      -3.60705
                        -----------------------------------------
Total Dipole Moment    :      0.60853       1.13629      -1.01873
                        -----------------------------------------
Magnitude (a.u.)       :      1.64295
Magnitude (Debye)      :      4.17603

                             ****ORCA TERMINATED NORMALLY****
TOTAL RUN TIME: 0 days 0 hours 16 minutes 28 seconds 820 msec
