                         Program Version 3.0.3 - RELEASE   -
|  1> ! RI-MP2 RIJK def2-TZVP def2-TZVP/C def2-TZVP/JK TIGHTSCF
|  2> % maxcore 2000
|  3> % mp2 density relaxed end
|  4> *xyz 0 1
|  5>  C        0.1369456974     1.5964778061    -0.0240215165
|  6>  C        0.0583236935     0.0795839757     0.0443306257
|  7>  C        0.9016382777    -0.7641515069    -0.9677240858
|  8>  C        1.4143401179    -1.6362397807     0.2089309992
|  9>  O        2.8124995481    -1.5708302181     0.4640524460
| 10>  C        3.0661937681    -0.5203090063     1.3019052662
| 11>  N        4.1927722512    -0.0976551787     1.6633224194
| 12>  O        1.9108288204     0.0483044924     1.7325347775
| 13>  C        0.7802977334    -0.6485872904     1.2137130452
| 14>  H        1.1720829826     1.9399009860     0.0527115658
| 15>  H       -0.2762735811     1.9590035850    -0.9709113156
| 16>  H       -0.4291336131     2.0606118917     0.7901251546
| 17>  H       -0.9875333837    -0.2452435535     0.0286842824
| 18>  H        0.3456627261    -1.2870889385    -1.7480566419
| 19>  H        1.7163339861    -0.2020524499    -1.4315183379
| 20>  H        1.1003179290    -2.6797022932     0.2257239049
| 21>  H        4.9274977267    -0.6466217947     1.2238264038
| 22>  H        0.1762305598    -1.0089705762     2.0492937768
| 23> *
| 24>
| 25>                          ****END OF INPUT****

CARTESIAN COORDINATES (ANGSTROEM)
---------------------------------
  C      0.136946    1.596478   -0.024022
  C      0.058324    0.079584    0.044331
  C      0.901638   -0.764152   -0.967724
  C      1.414340   -1.636240    0.208931
  O      2.812500   -1.570830    0.464052
  C      3.066194   -0.520309    1.301905
  N      4.192772   -0.097655    1.663322
  O      1.910829    0.048304    1.732535
  C      0.780298   -0.648587    1.213713
  H      1.172083    1.939901    0.052712
  H     -0.276274    1.959004   -0.970911
  H     -0.429134    2.060612    0.790125
  H     -0.987533   -0.245244    0.028684
  H      0.345663   -1.287089   -1.748057
  H      1.716334   -0.202052   -1.431518
  H      1.100318   -2.679702    0.225724
  H      4.927498   -0.646622    1.223826
  H      0.176231   -1.008971    2.049294

 Total Charge           Charge          ....    0
 Multiplicity           Mult            ....    1
 Number of Electrons    NEL             ....   68
 Basis Dimension        Dim             ....  333

ORBITAL ENERGIES
----------------

  NO   OCC          E(Eh)            E(eV)
   0   2.0000     -20.610315      -560.8352
   1   2.0000     -20.605376      -560.7008
   2   2.0000     -15.523241      -422.4089
   3   2.0000     -11.390220      -309.9436
   4   2.0000     -11.311173      -307.7927
   5   2.0000     -11.306638      -307.6692
   6   2.0000     -11.251917      -306.1802
   7   2.0000     -11.243464      -305.9502
   8   2.0000     -11.224870      -305.4442
   9   2.0000      -1.496132       -40.7118
  10   2.0000      -1.382826       -37.6286
  11   2.0000      -1.207093       -32.8467
  12   2.0000      -1.136226       -30.9183
  13   2.0000      -0.998357       -27.1667
  14   2.0000      -0.934548       -25.4303
  15   2.0000      -0.883853       -24.0509
  16   2.0000      -0.822878       -22.3916
  17   2.0000      -0.786872       -21.4119
  18   2.0000      -0.735929       -20.0256
  19   2.0000      -0.695724       -18.9316
  20   2.0000      -0.673430       -18.3250
  21   2.0000      -0.637897       -17.3580
  22   2.0000      -0.619132       -16.8474
  23   2.0000      -0.601270       -16.3614
  24   2.0000      -0.585725       -15.9384
  25   2.0000      -0.577750       -15.7214
  26   2.0000      -0.557137       -15.1605
  27   2.0000      -0.541980       -14.7480
  28   2.0000      -0.498703       -13.5704
  29   2.0000      -0.490206       -13.3392
  30   2.0000      -0.457560       -12.4508
  31   2.0000      -0.443881       -12.0786
  32   2.0000      -0.438900       -11.9431
  33   2.0000      -0.390388       -10.6230
  34   0.0000       0.124807         3.3962
  35   0.0000       0.148359         4.0371
  36   0.0000       0.159545         4.3414
  37   0.0000       0.168122         4.5748
  38   0.0000       0.187431         5.1003

MULLIKEN ATOMIC CHARGES
-----------------------
   0 C :   -0.424671
   1 C :   -0.039082
   2 C :   -0.287406
   3 C :    0.040812
   4 O :   -0.272987
   5 C :    0.261254
   6 N :   -0.386066
   7 O :   -0.253754
   8 C :    0.077722
   9 H :    0.149525
  10 H :    0.135854
  11 H :    0.134856
  12 H :    0.106782
  13 H :    0.132582
  14 H :    0.136496
  15 H :    0.124378
  16 H :    0.232940
  17 H :    0.130766
Sum of atomic charges:   -0.0000000

LOEWDIN ATOMIC CHARGES
----------------------
   0 C :   -0.294336
   1 C :   -0.236164
   2 C :   -0.193315
   3 C :   -0.243462
   4 O :    0.250571
   5 C :   -0.530396
   6 N :   -0.078026
   7 O :    0.284666
   8 C :   -0.223624
   9 H :    0.130742
  10 H :    0.126878
  11 H :    0.128163
  12 H :    0.152835
  13 H :    0.131456
  14 H :    0.145306
  15 H :    0.139711
  16 H :    0.174210
  17 H :    0.134789

  Mayer bond orders larger than 0.1
B(  0-C ,  1-C ) :   0.8844 B(  0-C ,  9-H ) :   0.9329 B(  0-C , 10-H ) :   0.9369
B(  0-C , 11-H ) :   0.9358 B(  1-C ,  2-C ) :   0.9192 B(  1-C ,  8-C ) :   0.9058
B(  1-C , 12-H ) :   0.9151 B(  2-C ,  3-C ) :   0.9013 B(  2-C , 13-H ) :   0.9195
B(  2-C , 14-H ) :   0.9075 B(  3-C ,  4-O ) :   0.9170 B(  3-C ,  8-C ) :   0.9103
B(  3-C , 15-H ) :   0.9357 B(  4-O ,  5-C ) :   1.0657 B(  5-C ,  6-N ) :   2.0170
B(  5-C ,  7-O ) :   1.0689 B(  6-N , 16-H ) :   0.8478 B(  7-O ,  8-C ) :   0.9053
B(  8-C , 17-H ) :   0.9459

MP2 TOTAL ENERGY:     -438.375519038 Eh
FINAL SINGLE POINT ENERGY      -438.375519038129

DIPOLE MOMENT
-------------
                                X             Y             Z
Electronic contribution:      5.87021      -3.82373       4.19965
Nuclear contribution   :     -7.20940       3.11303      -5.08750
                        -----------------------------------------
Total Dipole Moment    :     -1.33919      -0.71070      -0.88785
                        -----------------------------------------
Magnitude (a.u.)       :      1.75693
Magnitude (Debye)      :      4.46576

                             ****ORCA TERMINATED NORMALLY****
TOTAL RUN TIME: 0 days 0 hours 15 minutes 25 seconds 517 msec
