                         Program Version 3.0.3 - RELEASE   -
|  1> ! RI-MP2 RIJK def2-TZVP def2-TZVP/C def2-TZVP/JK TIGHTSCF
|  2> % maxcore 2000
|  3> % mp2 density relaxed end
|  4> *xyz 0 1
|  5>  C       -0.0745358244     1.5273664918    -0.0653015194
|  6>  C        0.0824554589     0.0223439599    -0.0680232046
|  7>  C        1.4593179726    -0.6171923888    -0.1388407512
|  8>  O        2.6071955141     0.1817466007    -0.0805082182
|  9>  C        0.6699316169    -0.6937630618     1.1220665561
| 10>  C        1.0612017537    -0.1215770810     2.4774840715
| 11>  O        0.5302062019    -1.2896227052     3.1446950897
| 12>  C        0.1647667103    -1.9182366567     1.8887896876
| 13>  C       -1.3109980681    -2.2609769548     1.8246983654
| 14>  H        0.8011079115     2.0111885901     0.3752668345
| 15>  H       -0.1918146298     1.9124323846    -1.0845182936
| 16>  H       -0.9561340633     1.8352875823     0.5067456321
| 17>  H       -0.6994144444    -0.5191825842    -0.5973439357
| 18>  H        1.5652659021    -1.5288396439    -0.7295827612
| 19>  H        2.7352066185     0.5890337792    -0.9439502809
| 20>  H        2.1391383930    -0.0028770983     2.6384625763
| 21>  H        0.5474505652     0.7966626373     2.7896585845
| 22>  H        0.7726895938    -2.8200638617     1.7209915566
| 23>  H       -1.9253139216    -1.3654709531     1.9566760480
| 24>  H       -1.5617259218    -2.7198374904     0.8615549380
| 25>  H       -1.5640097490    -2.9743966260     2.6151755245
| 26> *
| 27>
| 28>                          ****END OF INPUT****

CARTESIAN COORDINATES (ANGSTROEM)
---------------------------------
  C     -0.074536    1.527366   -0.065302
  C      0.082455    0.022344   -0.068023
  C      1.459318   -0.617192   -0.138841
  O      2.607196    0.181747   -0.080508
  C      0.669932   -0.693763    1.122067
  C      1.061202   -0.121577    2.477484
  O      0.530206   -1.289623    3.144695
  C      0.164767   -1.918237    1.888790
  C     -1.310998   -2.260977    1.824698
  H      0.801108    2.011189    0.375267
  H     -0.191815    1.912432   -1.084518
  H     -0.956134    1.835288    0.506746
  H     -0.699414   -0.519183   -0.597344
  H      1.565266   -1.528840   -0.729583
  H      2.735207    0.589034   -0.943950
  H      2.139138   -0.002877    2.638463
  H      0.547451    0.796663    2.789659
  H      0.772690   -2.820064    1.720992
  H     -1.925314   -1.365471    1.956676
  H     -1.561726   -2.719837    0.861555
  H     -1.564010   -2.974397    2.615176

 Total Charge           Charge          ....    0
 Multiplicity           Mult            ....    1
 Number of Electrons    NEL             ....   70
 Basis Dimension        Dim             ....  351

ORBITAL ENERGIES
----------------

  NO   OCC          E(Eh)            E(eV)
   0   2.0000     -20.570000      -559.7382
   1   2.0000     -20.539787      -558.9160
   2   2.0000     -11.285459      -307.0930
   3   2.0000     -11.280840      -306.9673
   4   2.0000     -11.271613      -306.7162
   5   2.0000     -11.238025      -305.8022
   6   2.0000     -11.234228      -305.6989
   7   2.0000     -11.224334      -305.4297
   8   2.0000     -11.215653      -305.1934
   9   2.0000      -1.379993       -37.5515
  10   2.0000      -1.368582       -37.2410
  11   2.0000      -1.143596       -31.1188
  12   2.0000      -1.013375       -27.5753
  13   2.0000      -0.975834       -26.5538
  14   2.0000      -0.922490       -25.1022
  15   2.0000      -0.858366       -23.3573
  16   2.0000      -0.802323       -21.8323
  17   2.0000      -0.726150       -19.7595
  18   2.0000      -0.698118       -18.9968
  19   2.0000      -0.682146       -18.5621
  20   2.0000      -0.653335       -17.7782
  21   2.0000      -0.631378       -17.1807
  22   2.0000      -0.601750       -16.3744
  23   2.0000      -0.583143       -15.8681
  24   2.0000      -0.565164       -15.3789
  25   2.0000      -0.553101       -15.0507
  26   2.0000      -0.535941       -14.5837
  27   2.0000      -0.530295       -14.4301
  28   2.0000      -0.522046       -14.2056
  29   2.0000      -0.510489       -13.8911
  30   2.0000      -0.488533       -13.2937
  31   2.0000      -0.447957       -12.1895
  32   2.0000      -0.435949       -11.8628
  33   2.0000      -0.390058       -10.6140
  34   2.0000      -0.383431       -10.4337
  35   0.0000       0.122654         3.3376
  36   0.0000       0.143239         3.8977
  37   0.0000       0.158627         4.3165
  38   0.0000       0.171993         4.6802
  39   0.0000       0.181036         4.9262

MULLIKEN ATOMIC CHARGES
-----------------------
   0 C :   -0.468867
   1 C :   -0.056967
   2 C :   -0.028920
   3 O :   -0.466266
   4 C :   -0.041754
   5 C :   -0.021189
   6 O :   -0.333426
   7 C :    0.160500
   8 C :   -0.417777
   9 H :    0.156999
  10 H :    0.134518
  11 H :    0.141211
  12 H :    0.119191
  13 H :    0.110589
  14 H :    0.324753
  15 H :    0.113886
  16 H :    0.095739
  17 H :    0.082799
  18 H :    0.132041
  19 H :    0.118946
  20 H :    0.143992
Sum of atomic charges:   -0.0000000

LOEWDIN ATOMIC CHARGES
----------------------
   0 C :   -0.295814
   1 C :   -0.204853
   2 C :   -0.285442
   3 O :    0.003733
   4 C :   -0.187692
   5 C :   -0.220123
   6 O :    0.134703
   7 C :   -0.265270
   8 C :   -0.293617
   9 H :    0.130976
  10 H :    0.125147
  11 H :    0.127848
  12 H :    0.151031
  13 H :    0.132938
  14 H :    0.182176
  15 H :    0.125163
  16 H :    0.120007
  17 H :    0.136715
  18 H :    0.127114
  19 H :    0.125444
  20 H :    0.129815

  Mayer bond orders larger than 0.1
B(  0-C ,  1-C ) :   0.8710 B(  0-C ,  9-H ) :   0.9378 B(  0-C , 10-H ) :   0.9373
B(  0-C , 11-H ) :   0.9405 B(  1-C ,  2-C ) :   0.9064 B(  1-C ,  4-C ) :   0.8474
B(  1-C , 12-H ) :   0.9118 B(  2-C ,  3-O ) :   1.0692 B(  2-C ,  4-C ) :   0.8198
B(  2-C , 13-H ) :   0.9575 B(  3-O ,  4-C ) :  -0.1133 B(  3-O , 14-H ) :   0.8416
B(  4-C ,  5-C ) :   0.9837 B(  4-C ,  7-C ) :   0.9153 B(  5-C ,  6-O ) :   0.9559
B(  5-C , 15-H ) :   0.9098 B(  5-C , 16-H ) :   0.9100 B(  6-O ,  7-C ) :   0.9710
B(  7-C ,  8-C ) :   0.8914 B(  7-C , 17-H ) :   0.9151 B(  8-C , 18-H ) :   0.9406
B(  8-C , 19-H ) :   0.9276 B(  8-C , 20-H ) :   0.9344

MP2 TOTAL ENERGY:     -423.482672699 Eh
FINAL SINGLE POINT ENERGY      -423.482672699204

DIPOLE MOMENT
-------------
                                X             Y             Z
Electronic contribution:      4.84057      -1.54521       1.91301
Nuclear contribution   :     -5.13279       1.77603      -3.13303
                        -----------------------------------------
Total Dipole Moment    :     -0.29222       0.23083      -1.22002
                        -----------------------------------------
Magnitude (a.u.)       :      1.27559
Magnitude (Debye)      :      3.24229

                             ****ORCA TERMINATED NORMALLY****
TOTAL RUN TIME: 0 days 0 hours 17 minutes 42 seconds 673 msec
