                         Program Version 3.0.3 - RELEASE   -
|  1> ! RI-MP2 RIJK def2-TZVP def2-TZVP/C def2-TZVP/JK TIGHTSCF
|  2> % maxcore 2000
|  3> % mp2 density relaxed end
|  4> *xyz 0 1
|  5>  C       -0.1604935582     1.4013652844    -0.0001228729
|  6>  C       -0.0477751914    -0.0469225293     0.0072199259
|  7>  C        0.0532249571    -1.2491646529     0.0119443604
|  8>  C        0.1722663076    -2.6489443007     0.0176452158
|  9>  N        1.2285516694    -3.3924308399     0.1506207175
| 10>  C        0.7717122793    -4.6960983843     0.0937869696
| 11>  C       -0.5819516315    -4.6793233254    -0.0807824321
| 12>  N       -1.5535533042    -5.6387491578    -0.2833186438
| 13>  O       -0.9896099011    -3.3907440160    -0.1332837414
| 14>  H        0.7520288874     1.8622090855    -0.3937445711
| 15>  H       -0.9966060912     1.7277840201    -0.6282215999
| 16>  H       -0.3257391058     1.7968343548     1.0086368303
| 17>  H        1.4336831438    -5.5421834111     0.1795870229
| 18>  H       -1.2846250070    -6.5549748489     0.0462303815
| 19>  H       -2.4627690842    -5.3714190085     0.0709111473
| 20> *
| 21>
| 22>                          ****END OF INPUT****

CARTESIAN COORDINATES (ANGSTROEM)
---------------------------------
  C     -0.160494    1.401365   -0.000123
  C     -0.047775   -0.046923    0.007220
  C      0.053225   -1.249165    0.011944
  C      0.172266   -2.648944    0.017645
  N      1.228552   -3.392431    0.150621
  C      0.771712   -4.696098    0.093787
  C     -0.581952   -4.679323   -0.080782
  N     -1.553553   -5.638749   -0.283319
  O     -0.989610   -3.390744   -0.133284
  H      0.752029    1.862209   -0.393745
  H     -0.996606    1.727784   -0.628222
  H     -0.325739    1.796834    1.008637
  H      1.433683   -5.542183    0.179587
  H     -1.284625   -6.554975    0.046230
  H     -2.462769   -5.371419    0.070911

 Total Charge           Charge          ....    0
 Multiplicity           Mult            ....    1
 Number of Electrons    NEL             ....   64
 Basis Dimension        Dim             ....  315

ORBITAL ENERGIES
----------------

  NO   OCC          E(Eh)            E(eV)
   0   2.0000     -20.635756      -561.5275
   1   2.0000     -15.588942      -424.1967
   2   2.0000     -15.567875      -423.6234
   3   2.0000     -11.339479      -308.5629
   4   2.0000     -11.339332      -308.5589
   5   2.0000     -11.255733      -306.2841
   6   2.0000     -11.248432      -306.0854
   7   2.0000     -11.241139      -305.8869
   8   2.0000     -11.232769      -305.6592
   9   2.0000      -1.487527       -40.4777
  10   2.0000      -1.240857       -33.7654
  11   2.0000      -1.222201       -33.2578
  12   2.0000      -1.079801       -29.3829
  13   2.0000      -1.023539       -27.8519
  14   2.0000      -0.957397       -26.0521
  15   2.0000      -0.858510       -23.3612
  16   2.0000      -0.822181       -22.3727
  17   2.0000      -0.760738       -20.7007
  18   2.0000      -0.702504       -19.1161
  19   2.0000      -0.670947       -18.2574
  20   2.0000      -0.663292       -18.0491
  21   2.0000      -0.639688       -17.4068
  22   2.0000      -0.607632       -16.5345
  23   2.0000      -0.596074       -16.2200
  24   2.0000      -0.594909       -16.1883
  25   2.0000      -0.576475       -15.6867
  26   2.0000      -0.507344       -13.8055
  27   2.0000      -0.463022       -12.5995
  28   2.0000      -0.458390       -12.4734
  29   2.0000      -0.405298       -11.0287
  30   2.0000      -0.394472       -10.7341
  31   2.0000      -0.288048        -7.8382
  32   0.0000       0.112655         3.0655
  33   0.0000       0.124836         3.3969
  34   0.0000       0.135788         3.6950
  35   0.0000       0.174304         4.7430
  36   0.0000       0.178861         4.8671

MULLIKEN ATOMIC CHARGES
-----------------------
   0 C :   -0.465419
   1 C :    0.064811
   2 C :    0.107531
   3 C :    0.053769
   4 N :   -0.269980
   5 C :   -0.173330
   6 C :    0.254676
   7 N :   -0.513817
   8 O :   -0.224646
   9 H :    0.169220
  10 H :    0.166189
  11 H :    0.165535
  12 H :    0.138711
  13 H :    0.260903
  14 H :    0.265848
Sum of atomic charges:   -0.0000000

LOEWDIN ATOMIC CHARGES
----------------------
   0 C :   -0.288591
   1 C :   -0.061432
   2 C :   -0.050067
   3 C :   -0.329680
   4 N :    0.139033
   5 C :   -0.260008
   6 C :   -0.366812
   7 N :   -0.068145
   8 O :    0.361533
   9 H :    0.145603
  10 H :    0.144413
  11 H :    0.143339
  12 H :    0.135027
  13 H :    0.178274
  14 H :    0.177512

  Mayer bond orders larger than 0.1
B(  0-C ,  1-C ) :   0.8602 B(  0-C ,  9-H ) :   0.9405 B(  0-C , 10-H ) :   0.9423
B(  0-C , 11-H ) :   0.9413 B(  1-C ,  2-C ) :   2.6601 B(  1-C ,  3-C ) :  -0.1313
B(  2-C ,  3-C ) :   1.1312 B(  3-C ,  4-N ) :   1.6084 B(  3-C ,  8-O ) :   1.0141
B(  4-N ,  5-C ) :   1.2163 B(  5-C ,  6-C ) :   1.5238 B(  5-C , 12-H ) :   0.9351
B(  6-C ,  7-N ) :   1.0622 B(  6-C ,  8-O ) :   1.0751 B(  7-N , 13-H ) :   0.8743
B(  7-N , 14-H ) :   0.8663

MP2 TOTAL ENERGY:     -416.093920104 Eh
FINAL SINGLE POINT ENERGY      -416.093920103583

DIPOLE MOMENT
-------------
                                X             Y             Z
Electronic contribution:      0.79423      -4.41507      -0.08489
Nuclear contribution   :     -1.75876       4.12718       0.40711
                        -----------------------------------------
Total Dipole Moment    :     -0.96454      -0.28790       0.32223
                        -----------------------------------------
Magnitude (a.u.)       :      1.05690
Magnitude (Debye)      :      2.68643

                             ****ORCA TERMINATED NORMALLY****
TOTAL RUN TIME: 0 days 0 hours 13 minutes 14 seconds 903 msec
