                         Program Version 3.0.3 - RELEASE   -
|  1> ! RI-MP2 RIJK def2-TZVP def2-TZVP/C def2-TZVP/JK TIGHTSCF
|  2> % maxcore 2000
|  3> % mp2 density relaxed end
|  4> *xyz 0 1
|  5>  O        0.0736985927    -0.0235929972     0.2181491417
|  6>  C       -0.0030977951     1.1803493988     0.1046240898
|  7>  N       -1.1276459821     1.9586281571    -0.1569159398
|  8>  C       -0.8127429865     3.3124003592    -0.1780161997
|  9>  C        0.5131850489     3.4235992118     0.0462099668
| 10>  C        1.3826907949     4.6394582930     0.0746791562
| 11>  C        2.1529658896     4.7686950240     1.3184343392
| 12>  N        2.7712936264     4.8457333552     2.2910246187
| 13>  N        1.0128002148     2.1300782449     0.1994772924
| 14>  H       -2.0393750072     1.5512053372    -0.2644351400
| 15>  H       -1.5485633774     4.0755339669    -0.3650922578
| 16>  H        2.0965339117     4.6383773648    -0.7607462897
| 17>  H        0.7573571010     5.5291981097    -0.0483538727
| 18>  H        1.9438226083     1.8794800547     0.4856269250
| 19> *
| 20>
| 21>                          ****END OF INPUT****

CARTESIAN COORDINATES (ANGSTROEM)
---------------------------------
  O      0.073699   -0.023593    0.218149
  C     -0.003098    1.180349    0.104624
  N     -1.127646    1.958628   -0.156916
  C     -0.812743    3.312400   -0.178016
  C      0.513185    3.423599    0.046210
  C      1.382691    4.639458    0.074679
  C      2.152966    4.768695    1.318434
  N      2.771294    4.845733    2.291025
  N      1.012800    2.130078    0.199477
  H     -2.039375    1.551205   -0.264435
  H     -1.548563    4.075534   -0.365092
  H      2.096534    4.638377   -0.760746
  H      0.757357    5.529198   -0.048354
  H      1.943823    1.879480    0.485627

 Total Charge           Charge          ....    0
 Multiplicity           Mult            ....    1
 Number of Electrons    NEL             ....   64
 Basis Dimension        Dim             ....  309

ORBITAL ENERGIES
----------------

  NO   OCC          E(Eh)            E(eV)
   0   2.0000     -20.518525      -558.3375
   1   2.0000     -15.617598      -424.9765
   2   2.0000     -15.617067      -424.9620
   3   2.0000     -15.587297      -424.1519
   4   2.0000     -11.388419      -309.8946
   5   2.0000     -11.317574      -307.9668
   6   2.0000     -11.306012      -307.6522
   7   2.0000     -11.294128      -307.3288
   8   2.0000     -11.291040      -307.2448
   9   2.0000      -1.410897       -38.3924
  10   2.0000      -1.323154       -36.0048
  11   2.0000      -1.237295       -33.6685
  12   2.0000      -1.215254       -33.0687
  13   2.0000      -1.101306       -29.9681
  14   2.0000      -1.000933       -27.2368
  15   2.0000      -0.874985       -23.8096
  16   2.0000      -0.838453       -22.8155
  17   2.0000      -0.755958       -20.5707
  18   2.0000      -0.709047       -19.2942
  19   2.0000      -0.684564       -18.6279
  20   2.0000      -0.668251       -18.1840
  21   2.0000      -0.645849       -17.5744
  22   2.0000      -0.639518       -17.4022
  23   2.0000      -0.625182       -17.0121
  24   2.0000      -0.612192       -16.6586
  25   2.0000      -0.571164       -15.5422
  26   2.0000      -0.498309       -13.5597
  27   2.0000      -0.483453       -13.1554
  28   2.0000      -0.478012       -13.0074
  29   2.0000      -0.468927       -12.7602
  30   2.0000      -0.447760       -12.1842
  31   2.0000      -0.322258        -8.7691
  32   0.0000       0.107447         2.9238
  33   0.0000       0.130695         3.5564
  34   0.0000       0.141480         3.8499
  35   0.0000       0.145942         3.9713
  36   0.0000       0.159214         4.3324

MULLIKEN ATOMIC CHARGES
-----------------------
   0 O :   -0.365428
   1 C :    0.285426
   2 N :   -0.282516
   3 C :   -0.100155
   4 C :    0.112617
   5 C :   -0.156623
   6 C :   -0.165462
   7 N :   -0.055799
   8 N :   -0.309749
   9 H :    0.258943
  10 H :    0.163833
  11 H :    0.177884
  12 H :    0.172352
  13 H :    0.264677
Sum of atomic charges:   -0.0000000

LOEWDIN ATOMIC CHARGES
----------------------
   0 O :    0.050642
   1 C :   -0.511002
   2 N :    0.160963
   3 C :   -0.208770
   4 C :   -0.239253
   5 C :   -0.209899
   6 C :   -0.185763
   7 N :    0.067197
   8 N :    0.184375
   9 H :    0.195584
  10 H :    0.142551
  11 H :    0.174126
  12 H :    0.178845
  13 H :    0.200404

  Mayer bond orders larger than 0.1
B(  0-O ,  1-C ) :   1.9959 B(  1-C ,  2-N ) :   1.0869 B(  1-C ,  8-N ) :   1.0921
B(  2-N ,  3-C ) :   1.0710 B(  2-N ,  9-H ) :   0.8678 B(  3-C ,  4-C ) :   1.6394
B(  3-C , 10-H ) :   0.9069 B(  4-C ,  5-C ) :   0.9195 B(  4-C ,  8-N ) :   1.0591
B(  5-C ,  6-C ) :   0.9111 B(  5-C , 11-H ) :   0.9083 B(  5-C , 12-H ) :   0.9146
B(  6-C ,  7-N ) :   2.8460 B(  8-N , 13-H ) :   0.8613

MP2 TOTAL ENERGY:     -432.215122606 Eh
FINAL SINGLE POINT ENERGY      -432.215122606084

DIPOLE MOMENT
-------------
                                X             Y             Z
Electronic contribution:      0.90078      -1.88913       1.56747
Nuclear contribution   :     -1.85790       3.17983      -2.85803
                        -----------------------------------------
Total Dipole Moment    :     -0.95712       1.29070      -1.29056
                        -----------------------------------------
Magnitude (a.u.)       :      2.06095
Magnitude (Debye)      :      5.23852

                             ****ORCA TERMINATED NORMALLY****
TOTAL RUN TIME: 0 days 0 hours 13 minutes 6 seconds 242 msec
