                         Program Version 3.0.3 - RELEASE   -
|  1> ! RI-MP2 RIJK def2-TZVP def2-TZVP/C def2-TZVP/JK TIGHTSCF
|  2> % maxcore 2000
|  3> % mp2 density relaxed end
|  4> *xyz 0 1
|  5>  N       -0.1574719822     1.3356390772     0.0725582388
|  6>  C       -0.0312824724     0.0906860064    -0.0249238655
|  7>  O        1.2231946038    -0.5292098596    -0.0418897844
|  8>  N        1.6172883709    -1.5304369400    -1.0160779391
|  9>  N        0.8736710397    -1.8610789894    -1.9225212992
| 10>  C       -0.5206822958    -1.5500184805    -2.1473770270
| 11>  O       -0.9419899638    -1.3974688618    -3.2555494052
| 12>  C       -1.3683851588    -1.5637347351    -0.9052361776
| 13>  N       -1.1343236666    -0.7769368056     0.0610598289
| 14>  H        0.7471961676     1.7998969962    -0.0099504680
| 15>  H       -2.2356577124    -2.2230281377    -0.8797721517
| 16> *
| 17>
| 18>                          ****END OF INPUT****

CARTESIAN COORDINATES (ANGSTROEM)
---------------------------------
  N     -0.157472    1.335639    0.072558
  C     -0.031282    0.090686   -0.024924
  O      1.223195   -0.529210   -0.041890
  N      1.617288   -1.530437   -1.016078
  N      0.873671   -1.861079   -1.922521
  C     -0.520682   -1.550018   -2.147377
  O     -0.941990   -1.397469   -3.255549
  C     -1.368385   -1.563735   -0.905236
  N     -1.134324   -0.776937    0.061060
  H      0.747196    1.799897   -0.009950
  H     -2.235658   -2.223028   -0.879772

 Total Charge           Charge          ....    0
 Multiplicity           Mult            ....    1
 Number of Electrons    NEL             ....   64
 Basis Dimension        Dim             ....  291

ORBITAL ENERGIES
----------------

  NO   OCC          E(Eh)            E(eV)
   0   2.0000     -20.667047      -562.3789
   1   2.0000     -20.625480      -561.2478
   2   2.0000     -15.779574      -429.3840
   3   2.0000     -15.689153      -426.9236
   4   2.0000     -15.639951      -425.5847
   5   2.0000     -15.582251      -424.0146
   6   2.0000     -11.433476      -311.1207
   7   2.0000     -11.406563      -310.3884
   8   2.0000     -11.360220      -309.1273
   9   2.0000      -1.528945       -41.6047
  10   2.0000      -1.474222       -40.1156
  11   2.0000      -1.389460       -37.8091
  12   2.0000      -1.317208       -35.8431
  13   2.0000      -1.228092       -33.4181
  14   2.0000      -1.054397       -28.6916
  15   2.0000      -0.987955       -26.8836
  16   2.0000      -0.867799       -23.6140
  17   2.0000      -0.851940       -23.1825
  18   2.0000      -0.756563       -20.5871
  19   2.0000      -0.732768       -19.9396
  20   2.0000      -0.722983       -19.6734
  21   2.0000      -0.691090       -18.8055
  22   2.0000      -0.656363       -17.8605
  23   2.0000      -0.641861       -17.4659
  24   2.0000      -0.607583       -16.5332
  25   2.0000      -0.570590       -15.5266
  26   2.0000      -0.553764       -15.0687
  27   2.0000      -0.539248       -14.6737
  28   2.0000      -0.493454       -13.4276
  29   2.0000      -0.482504       -13.1296
  30   2.0000      -0.447034       -12.1644
  31   2.0000      -0.435140       -11.8408
  32   0.0000       0.014811         0.4030
  33   0.0000       0.069791         1.8991
  34   0.0000       0.118150         3.2150
  35   0.0000       0.148672         4.0456
  36   0.0000       0.157351         4.2817

MULLIKEN ATOMIC CHARGES
-----------------------
   0 N :   -0.302928
   1 C :    0.159350
   2 O :   -0.174529
   3 N :    0.064438
   4 N :   -0.053312
   5 C :    0.233760
   6 O :   -0.199961
   7 C :   -0.031241
   8 N :   -0.120628
   9 H :    0.248800
  10 H :    0.176251
Sum of atomic charges:    0.0000000

LOEWDIN ATOMIC CHARGES
----------------------
   0 N :    0.000977
   1 C :   -0.490016
   2 O :    0.146501
   3 N :    0.042330
   4 N :    0.089837
   5 C :   -0.399041
   6 O :    0.224148
   7 C :   -0.153537
   8 N :    0.201869
   9 H :    0.182816
  10 H :    0.154117

  Mayer bond orders larger than 0.1
B(  0-N ,  1-C ) :   2.0254 B(  0-N ,  9-H ) :   0.8389 B(  1-C ,  2-O ) :   1.0274
B(  1-C ,  8-N ) :   1.0029 B(  2-O ,  3-N ) :   0.7747 B(  3-N ,  4-N ) :   1.6508
B(  4-N ,  5-C ) :   0.9258 B(  5-C ,  6-O ) :   2.0087 B(  5-C ,  7-C ) :   0.9335
B(  7-C ,  8-N ) :   1.7780 B(  7-C , 10-H ) :   0.8979

MP2 TOTAL ENERGY:     -484.001445639 Eh
FINAL SINGLE POINT ENERGY      -484.001445639373

DIPOLE MOMENT
-------------
                                X             Y             Z
Electronic contribution:      1.22147      -1.63517      -1.05186
Nuclear contribution   :     -1.33567       1.19888       1.08762
                        -----------------------------------------
Total Dipole Moment    :     -0.11421      -0.43629       0.03576
                        -----------------------------------------
Magnitude (a.u.)       :      0.45240
Magnitude (Debye)      :      1.14992

                             ****ORCA TERMINATED NORMALLY****
TOTAL RUN TIME: 0 days 0 hours 15 minutes 11 seconds 820 msec
