                         Program Version 3.0.3 - RELEASE   -
|  1> ! RI-MP2 RIJK def2-TZVP def2-TZVP/C def2-TZVP/JK TIGHTSCF
|  2> % maxcore 2000
|  3> % mp2 density relaxed end
|  4> *xyz 0 1
|  5>  C       -0.4394895246     1.4751547917     0.4829925502
|  6>  O       -0.2530371678     0.0514877171     0.5577600299
|  7>  C       -0.9430673676    -0.6706136901    -0.3287630667
|  8>  O       -1.6807895279    -0.1909965613    -1.1641551516
|  9>  C       -0.7142642859    -2.1642840436    -0.1619824213
| 10>  O       -1.9124884795    -2.8001727090     0.3262906331
| 11>  C       -2.2047488807    -3.3875769577    -0.9657181413
| 12>  C       -0.8180020384    -2.9624171552    -1.5059993781
| 13>  O       -0.7206867951    -2.2976268474    -2.7213727356
| 14>  H        0.2048411414     1.8972422894     1.2532296322
| 15>  H       -0.1554414095     1.8450483371    -0.5048171419
| 16>  H       -1.4846022100     1.7312969256     0.6712184828
| 17>  H        0.1450877230    -2.3529254312     0.4870787837
| 18>  H       -2.4172755560    -4.4588189242    -0.8868591805
| 19>  H       -3.0367061068    -2.8790309814    -1.4677945417
| 20>  H       -0.1028163821    -3.7873512834    -1.5311736791
| 21>  H       -1.2635298024    -1.4978634464    -2.6477157541
| 22> *
| 23>
| 24>                          ****END OF INPUT****

CARTESIAN COORDINATES (ANGSTROEM)
---------------------------------
  C     -0.439490    1.475155    0.482993
  O     -0.253037    0.051488    0.557760
  C     -0.943067   -0.670614   -0.328763
  O     -1.680790   -0.190997   -1.164155
  C     -0.714264   -2.164284   -0.161982
  O     -1.912488   -2.800173    0.326291
  C     -2.204749   -3.387577   -0.965718
  C     -0.818002   -2.962417   -1.505999
  O     -0.720687   -2.297627   -2.721373
  H      0.204841    1.897242    1.253230
  H     -0.155441    1.845048   -0.504817
  H     -1.484602    1.731297    0.671218
  H      0.145088   -2.352925    0.487079
  H     -2.417276   -4.458819   -0.886859
  H     -3.036706   -2.879031   -1.467795
  H     -0.102816   -3.787351   -1.531174
  H     -1.263530   -1.497863   -2.647716

 Total Charge           Charge          ....    0
 Multiplicity           Mult            ....    1
 Number of Electrons    NEL             ....   70
 Basis Dimension        Dim             ....  327

ORBITAL ENERGIES
----------------

  NO   OCC          E(Eh)            E(eV)
   0   2.0000     -20.622091      -561.1556
   1   2.0000     -20.571283      -559.7731
   2   2.0000     -20.563088      -559.5501
   3   2.0000     -20.562689      -559.5392
   4   2.0000     -11.396168      -310.1055
   5   2.0000     -11.308046      -307.7076
   6   2.0000     -11.301922      -307.5409
   7   2.0000     -11.297318      -307.4157
   8   2.0000     -11.286290      -307.1156
   9   2.0000      -1.481612       -40.3167
  10   2.0000      -1.406988       -38.2861
  11   2.0000      -1.377149       -37.4741
  12   2.0000      -1.367818       -37.2202
  13   2.0000      -1.031596       -28.0711
  14   2.0000      -0.994144       -27.0520
  15   2.0000      -0.951052       -25.8795
  16   2.0000      -0.835366       -22.7315
  17   2.0000      -0.789530       -21.4842
  18   2.0000      -0.731574       -19.9071
  19   2.0000      -0.724391       -19.7117
  20   2.0000      -0.691293       -18.8110
  21   2.0000      -0.683999       -18.6126
  22   2.0000      -0.655087       -17.8258
  23   2.0000      -0.631149       -17.1744
  24   2.0000      -0.607275       -16.5248
  25   2.0000      -0.597425       -16.2568
  26   2.0000      -0.580427       -15.7942
  27   2.0000      -0.557846       -15.1798
  28   2.0000      -0.553253       -15.0548
  29   2.0000      -0.543137       -14.7795
  30   2.0000      -0.493137       -13.4189
  31   2.0000      -0.479799       -13.0560
  32   2.0000      -0.471990       -12.8435
  33   2.0000      -0.434981       -11.8364
  34   2.0000      -0.425028       -11.5656
  35   0.0000       0.129228         3.5165
  36   0.0000       0.145329         3.9546
  37   0.0000       0.155501         4.2314
  38   0.0000       0.176121         4.7925
  39   0.0000       0.185433         5.0459

MULLIKEN ATOMIC CHARGES
-----------------------
   0 C :   -0.224931
   1 O :   -0.240053
   2 C :    0.266063
   3 O :   -0.381694
   4 C :    0.155904
   5 O :   -0.331370
   6 C :   -0.034011
   7 C :    0.005293
   8 O :   -0.458767
   9 H :    0.151247
  10 H :    0.145179
  11 H :    0.147581
  12 H :    0.125959
  13 H :    0.108810
  14 H :    0.103859
  15 H :    0.117003
  16 H :    0.343929
Sum of atomic charges:    0.0000000

LOEWDIN ATOMIC CHARGES
----------------------
   0 C :   -0.298003
   1 O :    0.249481
   2 C :   -0.459641
   3 O :    0.109865
   4 C :   -0.237234
   5 O :    0.146014
   6 C :   -0.249335
   7 C :   -0.323132
   8 O :    0.004092
   9 H :    0.117119
  10 H :    0.116212
  11 H :    0.117035
  12 H :    0.142687
  13 H :    0.117539
  14 H :    0.122908
  15 H :    0.143055
  16 H :    0.181338

  Mayer bond orders larger than 0.1
B(  0-C ,  1-O ) :   0.8252 B(  0-C ,  9-H ) :   0.9328 B(  0-C , 10-H ) :   0.9357
B(  0-C , 11-H ) :   0.9375 B(  1-O ,  2-C ) :   1.1690 B(  2-C ,  3-O ) :   1.8032
B(  2-C ,  4-C ) :   0.8957 B(  4-C ,  5-O ) :   0.9054 B(  4-C ,  7-C ) :   0.8633
B(  4-C , 12-H ) :   0.9053 B(  5-O ,  6-C ) :   0.9304 B(  6-C ,  7-C ) :   0.9785
B(  6-C , 13-H ) :   0.9162 B(  6-C , 14-H ) :   0.9013 B(  7-C ,  8-O ) :   1.0489
B(  7-C , 15-H ) :   0.9315 B(  8-O , 16-H ) :   0.8041

MP2 TOTAL ENERGY:     -495.337013053 Eh
FINAL SINGLE POINT ENERGY      -495.337013052537

DIPOLE MOMENT
-------------
                                X             Y             Z
Electronic contribution:     -0.13091      -1.23824       0.05448
Nuclear contribution   :      0.49602       1.65588       0.33658
                        -----------------------------------------
Total Dipole Moment    :      0.36511       0.41764       0.39106
                        -----------------------------------------
Magnitude (a.u.)       :      0.67872
Magnitude (Debye)      :      1.72517

                             ****ORCA TERMINATED NORMALLY****
TOTAL RUN TIME: 0 days 0 hours 14 minutes 14 seconds 550 msec
