                         Program Version 3.0.3 - RELEASE   -
|  1> ! RI-MP2 RIJK def2-TZVP def2-TZVP/C def2-TZVP/JK TIGHTSCF
|  2> % maxcore 2000
|  3> % mp2 density relaxed end
|  4> *xyz 0 1
|  5>  C        0.1525769818     1.5623761477     0.2214488325
|  6>  O        0.6079410152     0.2614120130    -0.0807874726
|  7>  C        0.7731402836    -0.5482920498     1.0495542555
|  8>  C       -0.5006327884    -1.1885202944     1.6925261015
|  9>  C        0.0581767705    -2.6022376111     1.3885823006
| 10>  C       -0.3929976925    -3.1802486016     0.0188387332
| 11>  C        0.8427984211    -2.5216749195    -0.6285922255
| 12>  O        1.3021719319    -2.5400836554    -1.7312818905
| 13>  C        1.3349803120    -1.9558813480     0.7132142859
| 14>  H        0.8518973811     2.0886691839     0.8897802776
| 15>  H        0.0846867907     2.1079553334    -0.7221764061
| 16>  H       -0.8390472049     1.5531230808     0.6979633674
| 17>  H        1.3929806879    -0.0358200247     1.8007046263
| 18>  H       -0.6174408742    -0.9638738700     2.7551200735
| 19>  H       -1.4353909367    -0.9473219578     1.1784743995
| 20>  H        0.1307806662    -3.3053289414     2.2160380311
| 21>  H       -0.3342837027    -4.2721827387    -0.0487114995
| 22>  H       -1.3685878917    -2.8638545325    -0.3618481262
| 23>  H        2.3749285892    -2.1536847039     0.9750398757
| 24> *
| 25>
| 26>                          ****END OF INPUT****

CARTESIAN COORDINATES (ANGSTROEM)
---------------------------------
  C      0.152577    1.562376    0.221449
  O      0.607941    0.261412   -0.080787
  C      0.773140   -0.548292    1.049554
  C     -0.500633   -1.188520    1.692526
  C      0.058177   -2.602238    1.388582
  C     -0.392998   -3.180249    0.018839
  C      0.842798   -2.521675   -0.628592
  O      1.302172   -2.540084   -1.731282
  C      1.334980   -1.955881    0.713214
  H      0.851897    2.088669    0.889780
  H      0.084687    2.107955   -0.722176
  H     -0.839047    1.553123    0.697963
  H      1.392981   -0.035820    1.800705
  H     -0.617441   -0.963874    2.755120
  H     -1.435391   -0.947322    1.178474
  H      0.130781   -3.305329    2.216038
  H     -0.334284   -4.272183   -0.048711
  H     -1.368588   -2.863855   -0.361848
  H      2.374929   -2.153685    0.975040

 Total Charge           Charge          ....    0
 Multiplicity           Mult            ....    1
 Number of Electrons    NEL             ....   68
 Basis Dimension        Dim             ....  339

ORBITAL ENERGIES
----------------

  NO   OCC          E(Eh)            E(eV)
   0   2.0000     -20.564059      -559.5765
   1   2.0000     -20.544271      -559.0380
   2   2.0000     -11.326214      -308.2019
   3   2.0000     -11.297063      -307.4087
   4   2.0000     -11.277037      -306.8638
   5   2.0000     -11.247327      -306.0553
   6   2.0000     -11.239744      -305.8490
   7   2.0000     -11.237849      -305.7974
   8   2.0000     -11.234308      -305.7011
   9   2.0000      -1.391248       -37.8578
  10   2.0000      -1.384654       -37.6783
  11   2.0000      -1.171559       -31.8797
  12   2.0000      -1.017316       -27.6826
  13   2.0000      -0.953638       -25.9498
  14   2.0000      -0.917455       -24.9652
  15   2.0000      -0.841472       -22.8976
  16   2.0000      -0.791963       -21.5504
  17   2.0000      -0.708399       -19.2765
  18   2.0000      -0.699031       -19.0216
  19   2.0000      -0.671790       -18.2803
  20   2.0000      -0.654290       -17.8041
  21   2.0000      -0.643772       -17.5179
  22   2.0000      -0.615205       -16.7406
  23   2.0000      -0.597256       -16.2522
  24   2.0000      -0.579399       -15.7662
  25   2.0000      -0.567625       -15.4459
  26   2.0000      -0.519507       -14.1365
  27   2.0000      -0.516940       -14.0667
  28   2.0000      -0.489517       -13.3204
  29   2.0000      -0.481574       -13.1043
  30   2.0000      -0.453148       -12.3308
  31   2.0000      -0.445881       -12.1330
  32   2.0000      -0.409693       -11.1483
  33   2.0000      -0.388761       -10.5787
  34   0.0000       0.121013         3.2929
  35   0.0000       0.141271         3.8442
  36   0.0000       0.149259         4.0616
  37   0.0000       0.168972         4.5980
  38   0.0000       0.172462         4.6929

MULLIKEN ATOMIC CHARGES
-----------------------
   0 C :   -0.227777
   1 O :   -0.280071
   2 C :   -0.002463
   3 C :   -0.267715
   4 C :   -0.067769
   5 C :   -0.250931
   6 C :    0.084358
   7 O :   -0.244271
   8 C :    0.018219
   9 H :    0.114004
  10 H :    0.147316
  11 H :    0.114276
  12 H :    0.080610
  13 H :    0.124975
  14 H :    0.116095
  15 H :    0.127879
  16 H :    0.137555
  17 H :    0.130754
  18 H :    0.144956
Sum of atomic charges:    0.0000000

LOEWDIN ATOMIC CHARGES
----------------------
   0 C :   -0.350304
   1 O :    0.169001
   2 C :   -0.289090
   3 C :   -0.205098
   4 C :   -0.174248
   5 C :   -0.191086
   6 C :   -0.294561
   7 O :    0.173175
   8 C :   -0.127239
   9 H :    0.103111
  10 H :    0.116108
  11 H :    0.102293
  12 H :    0.133690
  13 H :    0.132382
  14 H :    0.135372
  15 H :    0.134193
  16 H :    0.148367
  17 H :    0.140331
  18 H :    0.143602

  Mayer bond orders larger than 0.1
B(  0-C ,  1-O ) :   0.9067 B(  0-C ,  9-H ) :   0.9355 B(  0-C , 10-H ) :   0.9398
B(  0-C , 11-H ) :   0.9327 B(  1-O ,  2-C ) :   1.0587 B(  2-C ,  3-C ) :   0.9506
B(  2-C ,  8-C ) :   0.8536 B(  2-C , 12-H ) :   0.9328 B(  3-C ,  4-C ) :   0.9564
B(  3-C , 13-H ) :   0.9172 B(  3-C , 14-H ) :   0.9055 B(  4-C ,  5-C ) :   0.9277
B(  4-C ,  8-C ) :   0.8875 B(  4-C , 15-H ) :   0.9178 B(  5-C ,  6-C ) :   0.9147
B(  5-C ,  8-C ) :  -0.1103 B(  5-C , 16-H ) :   0.8975 B(  5-C , 17-H ) :   0.8956
B(  6-C ,  7-O ) :   2.0433 B(  6-C ,  8-C ) :   0.8197 B(  8-C , 18-H ) :   0.8987

MP2 TOTAL ENERGY:     -422.288765869 Eh
FINAL SINGLE POINT ENERGY      -422.288765868511

DIPOLE MOMENT
-------------
                                X             Y             Z
Electronic contribution:      3.54364      -4.14830      -4.83173
Nuclear contribution   :     -4.07625       4.44811       6.23870
                        -----------------------------------------
Total Dipole Moment    :     -0.53260       0.29981       1.40697
                        -----------------------------------------
Magnitude (a.u.)       :      1.53399
Magnitude (Debye)      :      3.89908

                             ****ORCA TERMINATED NORMALLY****
TOTAL RUN TIME: 0 days 0 hours 31 minutes 5 seconds 275 msec
