                         Program Version 3.0.3 - RELEASE   -
|  1> ! RI-MP2 RIJK def2-TZVP def2-TZVP/C def2-TZVP/JK TIGHTSCF
|  2> % maxcore 2000
|  3> % mp2 density relaxed end
|  4> *xyz 0 1
|  5>  C       -0.0154227355     1.5218088636     0.1429733226
|  6>  C        1.3051186677     0.8068760343    -0.0258455053
|  7>  C        0.0013903156     0.0192893669    -0.0170680738
|  8>  C       -0.0370600024    -0.6536323996    -1.4190732794
|  9>  C        1.4731377455    -0.9618215755    -1.6110417944
| 10>  C        1.9048063984     0.5194579335    -1.4321485295
| 11>  C        1.0131349211     1.2112948513    -2.4692945120
| 12>  O        0.6342375160     0.4047546513    -3.5932095460
| 13>  C       -0.2448479772     0.4513412509    -2.4608242298
| 14>  H       -0.2280161074     1.8848799926     1.1440993469
| 15>  H       -0.4073577303     2.1619143329    -0.6361356585
| 16>  H        1.9853853768     0.7756051855     0.8176565456
| 17>  H       -0.2790805145    -0.5923626467     0.8329048273
| 18>  H       -0.7234855835    -1.4983325303    -1.4848377035
| 19>  H        1.8611188760    -1.5951380888    -0.8101943771
| 20>  H        1.7237991668    -1.3875798939    -2.5824631542
| 21>  H        2.9711730458     0.7336278806    -1.5097141398
| 22>  H        1.0719507095     2.2796147350    -2.6526362671
| 23>  H       -1.2196337086     0.8952569263    -2.6372108422
| 24> *
| 25>
| 26>                          ****END OF INPUT****

CARTESIAN COORDINATES (ANGSTROEM)
---------------------------------
  C     -0.015423    1.521809    0.142973
  C      1.305119    0.806876   -0.025846
  C      0.001390    0.019289   -0.017068
  C     -0.037060   -0.653632   -1.419073
  C      1.473138   -0.961822   -1.611042
  C      1.904806    0.519458   -1.432149
  C      1.013135    1.211295   -2.469295
  O      0.634238    0.404755   -3.593210
  C     -0.244848    0.451341   -2.460824
  H     -0.228016    1.884880    1.144099
  H     -0.407358    2.161914   -0.636136
  H      1.985385    0.775605    0.817657
  H     -0.279081   -0.592363    0.832905
  H     -0.723486   -1.498333   -1.484838
  H      1.861119   -1.595138   -0.810194
  H      1.723799   -1.387580   -2.582463
  H      2.971173    0.733628   -1.509714
  H      1.071951    2.279615   -2.652636
  H     -1.219634    0.895257   -2.637211

 Total Charge           Charge          ....    0
 Multiplicity           Mult            ....    1
 Number of Electrons    NEL             ....   66
 Basis Dimension        Dim             ....  339

ORBITAL ENERGIES
----------------

  NO   OCC          E(Eh)            E(eV)
   0   2.0000     -20.561317      -559.5019
   1   2.0000     -11.278622      -306.9069
   2   2.0000     -11.277813      -306.8849
   3   2.0000     -11.239011      -305.8290
   4   2.0000     -11.239006      -305.8289
   5   2.0000     -11.233445      -305.6776
   6   2.0000     -11.232565      -305.6536
   7   2.0000     -11.232256      -305.6452
   8   2.0000     -11.217855      -305.2534
   9   2.0000      -1.408686       -38.3323
  10   2.0000      -1.186779       -32.2939
  11   2.0000      -1.055456       -28.7204
  12   2.0000      -0.981943       -26.7200
  13   2.0000      -0.926565       -25.2131
  14   2.0000      -0.832421       -22.6513
  15   2.0000      -0.817322       -22.2405
  16   2.0000      -0.762662       -20.7531
  17   2.0000      -0.727007       -19.7829
  18   2.0000      -0.721412       -19.6306
  19   2.0000      -0.681549       -18.5459
  20   2.0000      -0.644096       -17.5268
  21   2.0000      -0.590616       -16.0715
  22   2.0000      -0.571948       -15.5635
  23   2.0000      -0.567946       -15.4546
  24   2.0000      -0.530690       -14.4408
  25   2.0000      -0.516731       -14.0610
  26   2.0000      -0.483128       -13.1466
  27   2.0000      -0.478847       -13.0301
  28   2.0000      -0.457981       -12.4623
  29   2.0000      -0.455083       -12.3834
  30   2.0000      -0.417875       -11.3710
  31   2.0000      -0.402893       -10.9633
  32   2.0000      -0.383643       -10.4395
  33   0.0000       0.141415         3.8481
  34   0.0000       0.151345         4.1183
  35   0.0000       0.165096         4.4925
  36   0.0000       0.172212         4.6861
  37   0.0000       0.193002         5.2519

MULLIKEN ATOMIC CHARGES
-----------------------
   0 C :   -0.237808
   1 C :   -0.237847
   2 C :   -0.237848
   3 C :    0.110087
   4 C :   -0.327970
   5 C :    0.110086
   6 C :   -0.073880
   7 O :   -0.326256
   8 C :   -0.073880
   9 H :    0.126816
  10 H :    0.135099
  11 H :    0.123663
  12 H :    0.123663
  13 H :    0.136664
  14 H :    0.121175
  15 H :    0.136449
  16 H :    0.136664
  17 H :    0.127562
  18 H :    0.127562
Sum of atomic charges:    0.0000000

LOEWDIN ATOMIC CHARGES
----------------------
   0 C :   -0.203452
   1 C :   -0.164837
   2 C :   -0.164837
   3 C :   -0.188376
   4 C :   -0.190968
   5 C :   -0.188375
   6 C :   -0.235330
   7 O :    0.173944
   8 C :   -0.235329
   9 H :    0.136614
  10 H :    0.135209
  11 H :    0.141804
  12 H :    0.141804
  13 H :    0.145702
  14 H :    0.140023
  15 H :    0.138233
  16 H :    0.145702
  17 H :    0.136234
  18 H :    0.136234

  Mayer bond orders larger than 0.1
B(  0-C ,  1-C ) :   0.9070 B(  0-C ,  2-C ) :   0.9070 B(  0-C ,  9-H ) :   0.9291
B(  0-C , 10-H ) :   0.9115 B(  1-C ,  2-C ) :   0.9075 B(  1-C ,  5-C ) :   0.8491
B(  1-C , 11-H ) :   0.9235 B(  2-C ,  3-C ) :   0.8491 B(  2-C , 12-H ) :   0.9235
B(  3-C ,  4-C ) :   0.9199 B(  3-C ,  8-C ) :   0.8063 B(  3-C , 13-H ) :   0.9077
B(  4-C ,  5-C ) :   0.9199 B(  4-C , 14-H ) :   0.9300 B(  4-C , 15-H ) :   0.9002
B(  5-C ,  6-C ) :   0.8063 B(  5-C , 16-H ) :   0.9077 B(  6-C ,  7-O ) :   0.9523
B(  6-C ,  8-C ) :   0.9892 B(  6-C , 17-H ) :   0.9483 B(  7-O ,  8-C ) :   0.9523
B(  8-C , 18-H ) :   0.9483

MP2 TOTAL ENERGY:     -385.186362784 Eh
FINAL SINGLE POINT ENERGY      -385.186362783995

DIPOLE MOMENT
-------------
                                X             Y             Z
Electronic contribution:     -0.13185       0.17380      -3.98838
Nuclear contribution   :      0.05436      -0.03691       4.76105
                        -----------------------------------------
Total Dipole Moment    :     -0.07749       0.13688       0.77267
                        -----------------------------------------
Magnitude (a.u.)       :      0.78852
Magnitude (Debye)      :      2.00426

                             ****ORCA TERMINATED NORMALLY****
TOTAL RUN TIME: 0 days 0 hours 21 minutes 39 seconds 594 msec
