                         Program Version 3.0.3 - RELEASE   -
|  1> ! RI-MP2 RIJK def2-TZVP def2-TZVP/C def2-TZVP/JK TIGHTSCF
|  2> % maxcore 2000
|  3> % mp2 density relaxed end
|  4> *xyz 0 1
|  5>  C        0.3696166968     0.8308361134    -0.6868742709
|  6>  N       -0.0735372545     0.0207235436     0.4503678351
|  7>  C       -1.0476668430     0.6450547868     1.3393435739
|  8>  C       -1.4548386992    -0.4432748853     0.4076066518
|  9>  C        1.5487231814     1.6729628999    -0.3134213117
| 10>  C        1.7100503943     2.9855488384    -0.4544838583
| 11>  C        3.0714672328     3.3946585135     0.0295303122
| 12>  O        3.6813610086     2.1924196944     0.4901149718
| 13>  C        2.7999920799     1.0895915153     0.2932969148
| 14>  H        0.6501437909     0.1314625930    -1.4870097721
| 15>  H       -0.4360412809     1.4726069947    -1.0852477976
| 16>  H       -0.9181223899     0.4471295176     2.3992986105
| 17>  H       -1.3792738761     1.6546395990     1.1015239537
| 18>  H       -2.0621091355    -0.1604260699    -0.4511615756
| 19>  H       -1.6269174494    -1.4515415496     0.7733470639
| 20>  H        0.9897609192     3.6838560514    -0.8633754308
| 21>  H        3.6830792195     3.8471074397    -0.7685780012
| 22>  H        3.0246819556     4.1282243349     0.8506523447
| 23>  H        2.5998876241     0.5881367360     1.2505485457
| 24>  H        3.2690255553     0.3433315732    -0.3694626098
| 25> *
| 26>
| 27>                          ****END OF INPUT****

CARTESIAN COORDINATES (ANGSTROEM)
---------------------------------
  C      0.369617    0.830836   -0.686874
  N     -0.073537    0.020724    0.450368
  C     -1.047667    0.645055    1.339344
  C     -1.454839   -0.443275    0.407607
  C      1.548723    1.672963   -0.313421
  C      1.710050    2.985549   -0.454484
  C      3.071467    3.394659    0.029530
  O      3.681361    2.192420    0.490115
  C      2.799992    1.089592    0.293297
  H      0.650144    0.131463   -1.487010
  H     -0.436041    1.472607   -1.085248
  H     -0.918122    0.447130    2.399299
  H     -1.379274    1.654640    1.101524
  H     -2.062109   -0.160426   -0.451162
  H     -1.626917   -1.451542    0.773347
  H      0.989761    3.683856   -0.863375
  H      3.683079    3.847107   -0.768578
  H      3.024682    4.128224    0.850652
  H      2.599888    0.588137    1.250549
  H      3.269026    0.343332   -0.369463

 Total Charge           Charge          ....    0
 Multiplicity           Mult            ....    1
 Number of Electrons    NEL             ....   68
 Basis Dimension        Dim             ....  345

ORBITAL ENERGIES
----------------

  NO   OCC          E(Eh)            E(eV)
   0   2.0000     -20.543776      -559.0246
   1   2.0000     -15.565731      -423.5651
   2   2.0000     -11.274024      -306.7818
   3   2.0000     -11.269332      -306.6541
   4   2.0000     -11.266374      -306.5736
   5   2.0000     -11.258973      -306.3722
   6   2.0000     -11.257583      -306.3344
   7   2.0000     -11.233963      -305.6917
   8   2.0000     -11.226143      -305.4789
   9   2.0000      -1.368757       -37.2458
  10   2.0000      -1.279764       -34.8242
  11   2.0000      -1.092444       -29.7269
  12   2.0000      -1.005883       -27.3715
  13   2.0000      -0.964784       -26.2531
  14   2.0000      -0.848145       -23.0792
  15   2.0000      -0.844793       -22.9880
  16   2.0000      -0.811832       -22.0911
  17   2.0000      -0.741890       -20.1878
  18   2.0000      -0.691527       -18.8174
  19   2.0000      -0.664916       -18.0933
  20   2.0000      -0.661250       -17.9935
  21   2.0000      -0.645976       -17.5779
  22   2.0000      -0.592413       -16.1204
  23   2.0000      -0.573673       -15.6104
  24   2.0000      -0.565431       -15.3862
  25   2.0000      -0.558445       -15.1961
  26   2.0000      -0.531173       -14.4540
  27   2.0000      -0.507218       -13.8021
  28   2.0000      -0.479356       -13.0439
  29   2.0000      -0.469696       -12.7811
  30   2.0000      -0.457541       -12.4503
  31   2.0000      -0.428074       -11.6485
  32   2.0000      -0.382941       -10.4204
  33   2.0000      -0.343856        -9.3568
  34   0.0000       0.139720         3.8020
  35   0.0000       0.150404         4.0927
  36   0.0000       0.159175         4.3314
  37   0.0000       0.171166         4.6577
  38   0.0000       0.180209         4.9037

MULLIKEN ATOMIC CHARGES
-----------------------
   0 C :   -0.145493
   1 N :   -0.228178
   2 C :   -0.179264
   3 C :   -0.176441
   4 C :   -0.005581
   5 C :   -0.224358
   6 C :    0.027489
   7 O :   -0.341309
   8 C :   -0.016261
   9 H :    0.129658
  10 H :    0.103793
  11 H :    0.132358
  12 H :    0.121874
  13 H :    0.119546
  14 H :    0.130853
  15 H :    0.132728
  16 H :    0.102682
  17 H :    0.103179
  18 H :    0.117182
  19 H :    0.095542
Sum of atomic charges:   -0.0000000

LOEWDIN ATOMIC CHARGES
----------------------
   0 C :   -0.255801
   1 N :    0.093499
   2 C :   -0.267029
   3 C :   -0.269749
   4 C :   -0.175104
   5 C :   -0.144124
   6 C :   -0.288982
   7 O :    0.144585
   8 C :   -0.256156
   9 H :    0.144380
  10 H :    0.131979
  11 H :    0.124990
  12 H :    0.123085
  13 H :    0.122034
  14 H :    0.124770
  15 H :    0.140725
  16 H :    0.124218
  17 H :    0.124851
  18 H :    0.130566
  19 H :    0.127264

  Mayer bond orders larger than 0.1
B(  0-C ,  1-N ) :   0.8865 B(  0-C ,  4-C ) :   0.9256 B(  0-C ,  9-H ) :   0.9007
B(  0-C , 10-H ) :   0.9307 B(  1-N ,  2-C ) :   0.8755 B(  1-N ,  3-C ) :   0.9041
B(  2-C ,  3-C ) :   0.9425 B(  2-C , 11-H ) :   0.9302 B(  2-C , 12-H ) :   0.9220
B(  3-C , 13-H ) :   0.9255 B(  3-C , 14-H ) :   0.9243 B(  4-C ,  5-C ) :   1.7389
B(  4-C ,  8-C ) :   0.9823 B(  5-C ,  6-C ) :   0.9801 B(  5-C , 15-H ) :   0.9127
B(  6-C ,  7-O ) :   0.9405 B(  6-C , 16-H ) :   0.9155 B(  6-C , 17-H ) :   0.9159
B(  7-O ,  8-C ) :   0.9385 B(  8-C , 18-H ) :   0.9156 B(  8-C , 19-H ) :   0.9014

MP2 TOTAL ENERGY:     -402.411273142 Eh
FINAL SINGLE POINT ENERGY      -402.411273141665

DIPOLE MOMENT
-------------
                                X             Y             Z
Electronic contribution:      3.99268       0.66574       0.21835
Nuclear contribution   :     -5.00601      -0.43134      -0.61479
                        -----------------------------------------
Total Dipole Moment    :     -1.01333       0.23441      -0.39644
                        -----------------------------------------
Magnitude (a.u.)       :      1.11308
Magnitude (Debye)      :      2.82922

                             ****ORCA TERMINATED NORMALLY****
TOTAL RUN TIME: 0 days 0 hours 16 minutes 31 seconds 424 msec
