                         Program Version 3.0.3 - RELEASE   -
|  1> ! RI-MP2 RIJK def2-TZVP def2-TZVP/C def2-TZVP/JK TIGHTSCF
|  2> % maxcore 2000
|  3> % mp2 density relaxed end
|  4> *xyz 0 1
|  5>  C       -0.0879020710     1.5039807264     0.0218094064
|  6>  C        0.0222178881    -0.0166729859    -0.0031102753
|  7>  C        1.0264258209    -0.5831088585    -1.0641019347
|  8>  C        1.9825673836    -1.3017199451    -0.0947936590
|  9>  C        1.0400429910    -2.0765469315     0.8501633446
| 10>  C        0.7504334044    -0.6072326491     1.2450136096
| 11>  O        2.1511653213    -0.2977749941     0.9658232018
| 12>  C        0.2774805829    -0.2269550826     2.5611446111
| 13>  N       -0.1386854130     0.0618479592     3.5997186630
| 14>  H        0.8961932833     1.9528010278     0.1852753123
| 15>  H       -0.4802664688     1.8770899839    -0.9291736714
| 16>  H       -0.7577084624     1.8419470383     0.8187792041
| 17>  H       -0.9697133467    -0.4677562426    -0.1029624636
| 18>  H        0.5619448665    -1.2607757646    -1.7848134372
| 19>  H        1.5366065002     0.2145120654    -1.6085615080
| 20>  H        2.9217489237    -1.7078684416    -0.4655387755
| 21>  H        0.2275206643    -2.6746047168     0.4323564569
| 22>  H        1.5791001319    -2.6060449088     1.6347517948
| 23> *
| 24>
| 25>                          ****END OF INPUT****

CARTESIAN COORDINATES (ANGSTROEM)
---------------------------------
  C     -0.087902    1.503981    0.021809
  C      0.022218   -0.016673   -0.003110
  C      1.026426   -0.583109   -1.064102
  C      1.982567   -1.301720   -0.094794
  C      1.040043   -2.076547    0.850163
  C      0.750433   -0.607233    1.245014
  O      2.151165   -0.297775    0.965823
  C      0.277481   -0.226955    2.561145
  N     -0.138685    0.061848    3.599719
  H      0.896193    1.952801    0.185275
  H     -0.480266    1.877090   -0.929174
  H     -0.757708    1.841947    0.818779
  H     -0.969713   -0.467756   -0.102962
  H      0.561945   -1.260776   -1.784813
  H      1.536607    0.214512   -1.608562
  H      2.921749   -1.707868   -0.465539
  H      0.227521   -2.674605    0.432356
  H      1.579100   -2.606045    1.634752

 Total Charge           Charge          ....    0
 Multiplicity           Mult            ....    1
 Number of Electrons    NEL             ....   66
 Basis Dimension        Dim             ....  333

ORBITAL ENERGIES
----------------

  NO   OCC          E(Eh)            E(eV)
   0   2.0000     -20.577545      -559.9435
   1   2.0000     -15.580617      -423.9701
   2   2.0000     -11.342092      -308.6340
   3   2.0000     -11.311202      -307.7934
   4   2.0000     -11.277468      -306.8755
   5   2.0000     -11.260536      -306.4148
   6   2.0000     -11.259614      -306.3897
   7   2.0000     -11.245975      -306.0185
   8   2.0000     -11.225464      -305.4604
   9   2.0000      -1.418660       -38.6037
  10   2.0000      -1.224278       -33.3143
  11   2.0000      -1.115640       -30.3581
  12   2.0000      -1.029872       -28.0242
  13   2.0000      -1.011513       -27.5247
  14   2.0000      -0.925509       -25.1844
  15   2.0000      -0.827157       -22.5081
  16   2.0000      -0.794844       -21.6288
  17   2.0000      -0.746560       -20.3149
  18   2.0000      -0.681285       -18.5387
  19   2.0000      -0.647504       -17.6195
  20   2.0000      -0.621995       -16.9253
  21   2.0000      -0.589396       -16.0383
  22   2.0000      -0.577090       -15.7034
  23   2.0000      -0.567892       -15.4531
  24   2.0000      -0.545398       -14.8410
  25   2.0000      -0.534839       -14.5537
  26   2.0000      -0.519984       -14.1495
  27   2.0000      -0.505093       -13.7443
  28   2.0000      -0.498781       -13.5725
  29   2.0000      -0.488789       -13.3006
  30   2.0000      -0.463393       -12.6096
  31   2.0000      -0.454648       -12.3716
  32   2.0000      -0.431372       -11.7382
  33   0.0000       0.126145         3.4326
  34   0.0000       0.139090         3.7848
  35   0.0000       0.146186         3.9779
  36   0.0000       0.163831         4.4581
  37   0.0000       0.165458         4.5024

MULLIKEN ATOMIC CHARGES
-----------------------
   0 C :   -0.461595
   1 C :   -0.039925
   2 C :   -0.235357
   3 C :   -0.015339
   4 C :   -0.191609
   5 C :    0.259005
   6 O :   -0.301360
   7 C :   -0.213894
   8 N :   -0.031173
   9 H :    0.152828
  10 H :    0.140509
  11 H :    0.148146
  12 H :    0.116898
  13 H :    0.123855
  14 H :    0.131418
  15 H :    0.143646
  16 H :    0.131348
  17 H :    0.142599
Sum of atomic charges:   -0.0000000

LOEWDIN ATOMIC CHARGES
----------------------
   0 C :   -0.288854
   1 C :   -0.206761
   2 C :   -0.202433
   3 C :   -0.241161
   4 C :   -0.156157
   5 C :   -0.290622
   6 O :    0.192763
   7 C :   -0.134658
   8 N :    0.086386
   9 H :    0.133066
  10 H :    0.127298
  11 H :    0.130156
  12 H :    0.153783
  13 H :    0.137826
  14 H :    0.142858
  15 H :    0.134041
  16 H :    0.135255
  17 H :    0.147214

  Mayer bond orders larger than 0.1
B(  0-C ,  1-C ) :   0.8942 B(  0-C ,  9-H ) :   0.9348 B(  0-C , 10-H ) :   0.9368
B(  0-C , 11-H ) :   0.9341 B(  1-C ,  2-C ) :   0.9469 B(  1-C ,  5-C ) :   0.9158
B(  1-C , 12-H ) :   0.9131 B(  2-C ,  3-C ) :   0.9472 B(  2-C , 13-H ) :   0.9141
B(  2-C , 14-H ) :   0.9201 B(  3-C ,  4-C ) :   0.9529 B(  3-C ,  6-O ) :   0.9103
B(  3-C , 15-H ) :   0.9070 B(  4-C ,  5-C ) :   0.8868 B(  4-C , 16-H ) :   0.9173
B(  4-C , 17-H ) :   0.9152 B(  5-C ,  6-O ) :   0.9222 B(  5-C ,  7-C ) :   0.8464
B(  7-C ,  8-N ) :   2.8732

MP2 TOTAL ENERGY:     -401.259443609 Eh
FINAL SINGLE POINT ENERGY      -401.259443608650

DIPOLE MOMENT
-------------
                                X             Y             Z
Electronic contribution:      1.52611      -1.30650       7.28944
Nuclear contribution   :     -1.54498       0.53505      -8.97681
                        -----------------------------------------
Total Dipole Moment    :     -0.01887      -0.77145      -1.68736
                        -----------------------------------------
Magnitude (a.u.)       :      1.85545
Magnitude (Debye)      :      4.71617

                             ****ORCA TERMINATED NORMALLY****
TOTAL RUN TIME: 0 days 0 hours 19 minutes 19 seconds 840 msec
