                         Program Version 3.0.3 - RELEASE   -
|  1> ! RI-MP2 RIJK def2-TZVP def2-TZVP/C def2-TZVP/JK TIGHTSCF
|  2> % maxcore 2000
|  3> % mp2 density relaxed end
|  4> *xyz 0 1
|  5>  C       -0.0016431834     1.5579427642     0.1748390301
|  6>  C        0.0181987983     0.0357379663    -0.0199194789
|  7>  C       -1.3605250402    -0.5583659367    -0.0253217216
|  8>  C       -2.1213342434    -1.0016361707     1.1963636122
|  9>  C       -1.8616371914    -1.9917893245     0.0854261196
| 10>  C       -2.8231418388    -1.6834884507    -1.0717238765
| 11>  N       -2.2643651732    -0.3010066235    -1.1642243407
| 12>  C       -2.5976376367    -2.4609768325    -2.2927843179
| 13>  N       -2.4241791245    -3.1003422738    -3.2394318310
| 14>  H        1.0122026614     1.9678674767     0.1583873203
| 15>  H       -0.5692280024     2.0439591406    -0.6254201347
| 16>  H       -0.4616270240     1.8304240944     1.1305431865
| 17>  H        0.5099623366    -0.2075619524    -0.9687125731
| 18>  H        0.6036825403    -0.4372658191     0.7773386198
| 19>  H       -1.5253667699    -1.1629150095     2.0896432161
| 20>  H       -3.1314323101    -0.6444113319     1.3887587506
| 21>  H       -1.3149194746    -2.9157310979     0.2146440240
| 22>  H       -3.8883109718    -1.7455031735    -0.8150472632
| 23>  H       -2.9565742022     0.4265543546    -1.0020144317
| 24> *
| 25>
| 26>                          ****END OF INPUT****

CARTESIAN COORDINATES (ANGSTROEM)
---------------------------------
  C     -0.001643    1.557943    0.174839
  C      0.018199    0.035738   -0.019919
  C     -1.360525   -0.558366   -0.025322
  C     -2.121334   -1.001636    1.196364
  C     -1.861637   -1.991789    0.085426
  C     -2.823142   -1.683488   -1.071724
  N     -2.264365   -0.301007   -1.164224
  C     -2.597638   -2.460977   -2.292784
  N     -2.424179   -3.100342   -3.239432
  H      1.012203    1.967867    0.158387
  H     -0.569228    2.043959   -0.625420
  H     -0.461627    1.830424    1.130543
  H      0.509962   -0.207562   -0.968713
  H      0.603683   -0.437266    0.777339
  H     -1.525367   -1.162915    2.089643
  H     -3.131432   -0.644411    1.388759
  H     -1.314919   -2.915731    0.214644
  H     -3.888311   -1.745503   -0.815047
  H     -2.956574    0.426554   -1.002014

 Total Charge           Charge          ....    0
 Multiplicity           Mult            ....    1
 Number of Electrons    NEL             ....   66
 Basis Dimension        Dim             ....  339

ORBITAL ENERGIES
----------------

  NO   OCC          E(Eh)            E(eV)
   0   2.0000     -15.575242      -423.8239
   1   2.0000     -15.567185      -423.6046
   2   2.0000     -11.318076      -307.9805
   3   2.0000     -11.286129      -307.1112
   4   2.0000     -11.267578      -306.6064
   5   2.0000     -11.260500      -306.4138
   6   2.0000     -11.250656      -306.1459
   7   2.0000     -11.236130      -305.7506
   8   2.0000     -11.224192      -305.4258
   9   2.0000      -1.295000       -35.2387
  10   2.0000      -1.211685       -32.9716
  11   2.0000      -1.096165       -29.8282
  12   2.0000      -1.050052       -28.5734
  13   2.0000      -0.985910       -26.8280
  14   2.0000      -0.883724       -24.0474
  15   2.0000      -0.839411       -22.8415
  16   2.0000      -0.759456       -20.6659
  17   2.0000      -0.721932       -19.6448
  18   2.0000      -0.687949       -18.7200
  19   2.0000      -0.663072       -18.0431
  20   2.0000      -0.622153       -16.9297
  21   2.0000      -0.612797       -16.6750
  22   2.0000      -0.565849       -15.3975
  23   2.0000      -0.553655       -15.0657
  24   2.0000      -0.545508       -14.8440
  25   2.0000      -0.535814       -14.5803
  26   2.0000      -0.518845       -14.1185
  27   2.0000      -0.496369       -13.5069
  28   2.0000      -0.478568       -13.0225
  29   2.0000      -0.459411       -12.5012
  30   2.0000      -0.452881       -12.3235
  31   2.0000      -0.407043       -11.0762
  32   2.0000      -0.391194       -10.6449
  33   0.0000       0.117761         3.2044
  34   0.0000       0.140355         3.8193
  35   0.0000       0.145541         3.9604
  36   0.0000       0.162174         4.4130
  37   0.0000       0.171258         4.6602

MULLIKEN ATOMIC CHARGES
-----------------------
   0 C :   -0.420677
   1 C :   -0.182203
   2 C :    0.048857
   3 C :   -0.225907
   4 C :   -0.186960
   5 C :    0.149172
   6 N :   -0.333560
   7 C :   -0.212132
   8 N :   -0.053842
   9 H :    0.139686
  10 H :    0.137274
  11 H :    0.127012
  12 H :    0.125328
  13 H :    0.107079
  14 H :    0.137112
  15 H :    0.129360
  16 H :    0.159856
  17 H :    0.142720
  18 H :    0.211826
Sum of atomic charges:   -0.0000000

LOEWDIN ATOMIC CHARGES
----------------------
   0 C :   -0.309774
   1 C :   -0.252534
   2 C :   -0.261801
   3 C :   -0.188007
   4 C :   -0.137931
   5 C :   -0.235147
   6 N :    0.070457
   7 C :   -0.159819
   8 N :    0.067187
   9 H :    0.123259
  10 H :    0.124153
  11 H :    0.121272
  12 H :    0.147509
  13 H :    0.144453
  14 H :    0.145730
  15 H :    0.132580
  16 H :    0.145331
  17 H :    0.159238
  18 H :    0.163842

  Mayer bond orders larger than 0.1
B(  0-C ,  1-C ) :   0.9129 B(  0-C ,  9-H ) :   0.9385 B(  0-C , 10-H ) :   0.9398
B(  0-C , 11-H ) :   0.9364 B(  1-C ,  2-C ) :   0.9441 B(  1-C , 12-H ) :   0.9345
B(  1-C , 13-H ) :   0.9231 B(  2-C ,  3-C ) :   0.8816 B(  2-C ,  4-C ) :   0.8337
B(  2-C ,  6-N ) :   0.9822 B(  3-C ,  4-C ) :   0.8805 B(  3-C , 14-H ) :   0.9264
B(  3-C , 15-H ) :   0.9118 B(  4-C ,  5-C ) :   0.8725 B(  4-C , 16-H ) :   0.9136
B(  5-C ,  6-N ) :   0.9787 B(  5-C ,  7-C ) :   0.9142 B(  5-C , 17-H ) :   0.9003
B(  6-N , 18-H ) :   0.8657 B(  7-C ,  8-N ) :   2.8755

MP2 TOTAL ENERGY:     -381.365743544 Eh
FINAL SINGLE POINT ENERGY      -381.365743544470

DIPOLE MOMENT
-------------
                                X             Y             Z
Electronic contribution:     -5.01596      -7.70330      -6.80949
Nuclear contribution   :      4.85947       8.55255       8.54255
                        -----------------------------------------
Total Dipole Moment    :     -0.15649       0.84925       1.73306
                        -----------------------------------------
Magnitude (a.u.)       :      1.93629
Magnitude (Debye)      :      4.92165

                             ****ORCA TERMINATED NORMALLY****
TOTAL RUN TIME: 0 days 0 hours 18 minutes 21 seconds 15 msec
