                         Program Version 3.0.3 - RELEASE   -
|  1> ! RI-MP2 RIJK def2-TZVP def2-TZVP/C def2-TZVP/JK TIGHTSCF
|  2> % maxcore 2000
|  3> % mp2 density relaxed end
|  4> *xyz 0 1
|  5>  C        0.1061779946     1.4843718014     0.0049724271
|  6>  C       -0.0385925138    -0.0010485593     0.0102540465
|  7>  C       -1.1680727844    -0.7563462608     0.0353900922
|  8>  C       -2.5970764762    -0.3307349073     0.1334071248
|  9>  C       -0.7571342183    -2.1483673901    -0.0045660325
| 10>  C        0.7544333173    -2.1833078620    -0.1029685474
| 11>  N        1.1272870504    -0.7722958037     0.0504730103
| 12>  N       -1.5587132366    -3.1480645195     0.0542990370
| 13>  O       -0.8227685869    -4.3561876400    -0.0331920656
| 14>  H        0.6451735917     1.8246863122     0.8965812817
| 15>  H        0.6847818638     1.8186657378    -0.8661585065
| 16>  H       -0.8636391870     1.9824008219    -0.0252122245
| 17>  H       -3.1818117733    -0.7311930410    -0.7026809337
| 18>  H       -3.0623384700    -0.7187994525     1.0474876538
| 19>  H       -2.7051473830     0.7569080032     0.1346211149
| 20>  H        1.1907467011    -2.8126597602     0.6798804301
| 21>  H        1.0723079238    -2.5978560405    -1.0682642596
| 22>  H        1.8971560241    -0.4461132279    -0.5175980235
| 23>  H       -1.5163554672    -5.0189934717     0.0433067350
| 24> *
| 25>
| 26>                          ****END OF INPUT****

CARTESIAN COORDINATES (ANGSTROEM)
---------------------------------
  C      0.106178    1.484372    0.004972
  C     -0.038593   -0.001049    0.010254
  C     -1.168073   -0.756346    0.035390
  C     -2.597076   -0.330735    0.133407
  C     -0.757134   -2.148367   -0.004566
  C      0.754433   -2.183308   -0.102969
  N      1.127287   -0.772296    0.050473
  N     -1.558713   -3.148065    0.054299
  O     -0.822769   -4.356188   -0.033192
  H      0.645174    1.824686    0.896581
  H      0.684782    1.818666   -0.866159
  H     -0.863639    1.982401   -0.025212
  H     -3.181812   -0.731193   -0.702681
  H     -3.062338   -0.718799    1.047488
  H     -2.705147    0.756908    0.134621
  H      1.190747   -2.812660    0.679880
  H      1.072308   -2.597856   -1.068264
  H      1.897156   -0.446113   -0.517598
  H     -1.516355   -5.018993    0.043307

 Total Charge           Charge          ....    0
 Multiplicity           Mult            ....    1
 Number of Electrons    NEL             ....   68
 Basis Dimension        Dim             ....  339

ORBITAL ENERGIES
----------------

  NO   OCC          E(Eh)            E(eV)
   0   2.0000     -20.574457      -559.8594
   1   2.0000     -15.589212      -424.2040
   2   2.0000     -15.569717      -423.6735
   3   2.0000     -11.284966      -307.0795
   4   2.0000     -11.268467      -306.6306
   5   2.0000     -11.264614      -306.5257
   6   2.0000     -11.239998      -305.8559
   7   2.0000     -11.218311      -305.2658
   8   2.0000     -11.216871      -305.2266
   9   2.0000      -1.396117       -37.9903
  10   2.0000      -1.266271       -34.4570
  11   2.0000      -1.141202       -31.0537
  12   2.0000      -1.059622       -28.8338
  13   2.0000      -1.002665       -27.2839
  14   2.0000      -0.938655       -25.5421
  15   2.0000      -0.912916       -24.8417
  16   2.0000      -0.768040       -20.8994
  17   2.0000      -0.717719       -19.5301
  18   2.0000      -0.686918       -18.6920
  19   2.0000      -0.663508       -18.0550
  20   2.0000      -0.644431       -17.5359
  21   2.0000      -0.617618       -16.8063
  22   2.0000      -0.591716       -16.1014
  23   2.0000      -0.586263       -15.9530
  24   2.0000      -0.563606       -15.3365
  25   2.0000      -0.553400       -15.0588
  26   2.0000      -0.552858       -15.0440
  27   2.0000      -0.539076       -14.6690
  28   2.0000      -0.533993       -14.5307
  29   2.0000      -0.501711       -13.6522
  30   2.0000      -0.450151       -12.2492
  31   2.0000      -0.419372       -11.4117
  32   2.0000      -0.406639       -11.0652
  33   2.0000      -0.288322        -7.8457
  34   0.0000       0.125901         3.4260
  35   0.0000       0.129022         3.5109
  36   0.0000       0.152572         4.1517
  37   0.0000       0.157836         4.2949
  38   0.0000       0.176156         4.7934

MULLIKEN ATOMIC CHARGES
-----------------------
   0 C :   -0.443794
   1 C :    0.135878
   2 C :   -0.016492
   3 C :   -0.407644
   4 C :   -0.002866
   5 C :   -0.114747
   6 N :   -0.324043
   7 N :   -0.121224
   8 O :   -0.383062
   9 H :    0.155817
  10 H :    0.137900
  11 H :    0.139788
  12 H :    0.145752
  13 H :    0.145189
  14 H :    0.119442
  15 H :    0.139365
  16 H :    0.136221
  17 H :    0.226449
  18 H :    0.332071
Sum of atomic charges:    0.0000000

LOEWDIN ATOMIC CHARGES
----------------------
   0 C :   -0.267151
   1 C :   -0.219444
   2 C :   -0.166391
   3 C :   -0.268806
   4 C :   -0.267643
   5 C :   -0.226586
   6 N :    0.071989
   7 N :    0.007324
   8 O :   -0.086273
   9 H :    0.136828
  10 H :    0.132577
  11 H :    0.132825
  12 H :    0.134349
  13 H :    0.133895
  14 H :    0.124573
  15 H :    0.143575
  16 H :    0.142474
  17 H :    0.175834
  18 H :    0.166050

  Mayer bond orders larger than 0.1
B(  0-C ,  1-C ) :   0.8658 B(  0-C ,  9-H ) :   0.9331 B(  0-C , 10-H ) :   0.9253
B(  0-C , 11-H ) :   0.9534 B(  1-C ,  2-C ) :   1.5689 B(  1-C ,  6-N ) :   1.1119
B(  2-C ,  3-C ) :   0.8957 B(  2-C ,  4-C ) :   1.0628 B(  3-C , 12-H ) :   0.9367
B(  3-C , 13-H ) :   0.9271 B(  3-C , 14-H ) :   0.9488 B(  4-C ,  5-C ) :   1.0115
B(  4-C ,  7-N ) :   1.8480 B(  5-C ,  6-N ) :   0.9127 B(  5-C , 15-H ) :   0.9019
B(  5-C , 16-H ) :   0.9154 B(  6-N , 17-H ) :   0.8695 B(  7-N ,  8-O ) :   0.7832
B(  8-O , 18-H ) :   0.8473

MP2 TOTAL ENERGY:     -418.479002640 Eh
FINAL SINGLE POINT ENERGY      -418.479002639828

DIPOLE MOMENT
-------------
                                X             Y             Z
Electronic contribution:      0.78779      -7.03559       0.13390
Nuclear contribution   :     -0.30742       7.60177      -0.46451
                        -----------------------------------------
Total Dipole Moment    :      0.48037       0.56617      -0.33061
                        -----------------------------------------
Magnitude (a.u.)       :      0.81278
Magnitude (Debye)      :      2.06592

                             ****ORCA TERMINATED NORMALLY****
TOTAL RUN TIME: 0 days 0 hours 18 minutes 25 seconds 866 msec
