                         Program Version 3.0.3 - RELEASE   -
|  1> ! RI-MP2 RIJK def2-TZVP def2-TZVP/C def2-TZVP/JK TIGHTSCF
|  2> % maxcore 2000
|  3> % mp2 density relaxed end
|  4> *xyz 0 1
|  5>  C       -0.1150036504     1.6227875059     0.0908720530
|  6>  C       -0.0060906370     0.1080508473     0.0219101031
|  7>  C        1.0720396212    -0.5275823047    -0.9025030830
|  8>  C        1.3494537903    -1.5818350114     0.1988191961
|  9>  C        0.8593935900    -3.0289068213    -0.0131808809
| 10>  O        2.1980596584    -3.5486380334     0.0931221545
| 11>  C        2.7253564698    -2.2431930405     0.4387554411
| 12>  C        3.9055915383    -1.8509538148    -0.4264400320
| 13>  C        0.6379196629    -0.6582076441     1.2129293729
| 14>  H        0.8574582745     2.0750185606     0.3180755584
| 15>  H       -0.4626419103     2.0417557774    -0.8602047522
| 16>  H       -0.8186394745     1.9374908109     0.8698344658
| 17>  H       -0.9870242998    -0.3246752794    -0.2052647030
| 18>  H        0.7576317290    -0.8938468651    -1.8840293046
| 19>  H        1.9239542633     0.1473359209    -1.0407417761
| 20>  H        0.2045009365    -3.4147619038     0.7813575284
| 21>  H        0.4070257492    -3.2561138931    -0.9874675278
| 22>  H        3.0136864417    -2.2193375709     1.5016984080
| 23>  H        3.6288568688    -1.8344121830    -1.4847445710
| 24>  H        4.2810775824    -0.8606023895    -0.1457605431
| 25>  H        4.7196441959    -2.5709747371    -0.2959542891
| 26>  H        1.3560401095    -0.0284729170     1.7516883645
| 27>  H       -0.0261457699    -1.1290847540     1.9438599971
| 28> *
| 29>
| 30>                          ****END OF INPUT****

CARTESIAN COORDINATES (ANGSTROEM)
---------------------------------
  C     -0.115004    1.622788    0.090872
  C     -0.006091    0.108051    0.021910
  C      1.072040   -0.527582   -0.902503
  C      1.349454   -1.581835    0.198819
  C      0.859394   -3.028907   -0.013181
  O      2.198060   -3.548638    0.093122
  C      2.725356   -2.243193    0.438755
  C      3.905592   -1.850954   -0.426440
  C      0.637920   -0.658208    1.212929
  H      0.857458    2.075019    0.318076
  H     -0.462642    2.041756   -0.860205
  H     -0.818639    1.937491    0.869834
  H     -0.987024   -0.324675   -0.205265
  H      0.757632   -0.893847   -1.884029
  H      1.923954    0.147336   -1.040742
  H      0.204501   -3.414762    0.781358
  H      0.407026   -3.256114   -0.987468
  H      3.013686   -2.219338    1.501698
  H      3.628857   -1.834412   -1.484745
  H      4.281078   -0.860602   -0.145761
  H      4.719644   -2.570975   -0.295954
  H      1.356040   -0.028473    1.751688
  H     -0.026146   -1.129085    1.943860

 Total Charge           Charge          ....    0
 Multiplicity           Mult            ....    1
 Number of Electrons    NEL             ....   70
 Basis Dimension        Dim             ....  363

ORBITAL ENERGIES
----------------

  NO   OCC          E(Eh)            E(eV)
   0   2.0000     -20.538554      -558.8825
   1   2.0000     -11.275246      -306.8150
   2   2.0000     -11.270303      -306.6805
   3   2.0000     -11.233886      -305.6896
   4   2.0000     -11.231143      -305.6149
   5   2.0000     -11.222587      -305.3821
   6   2.0000     -11.222299      -305.3743
   7   2.0000     -11.216267      -305.2101
   8   2.0000     -11.214093      -305.1510
   9   2.0000      -1.370039       -37.2807
  10   2.0000      -1.139380       -31.0041
  11   2.0000      -1.017170       -27.6786
  12   2.0000      -0.991034       -26.9674
  13   2.0000      -0.915835       -24.9211
  14   2.0000      -0.905930       -24.6516
  15   2.0000      -0.862229       -23.4624
  16   2.0000      -0.773001       -21.0344
  17   2.0000      -0.713428       -19.4134
  18   2.0000      -0.667209       -18.1557
  19   2.0000      -0.648444       -17.6451
  20   2.0000      -0.646091       -17.5810
  21   2.0000      -0.607751       -16.5377
  22   2.0000      -0.577950       -15.7268
  23   2.0000      -0.572420       -15.5764
  24   2.0000      -0.552687       -15.0394
  25   2.0000      -0.538174       -14.6445
  26   2.0000      -0.533046       -14.5049
  27   2.0000      -0.520037       -14.1509
  28   2.0000      -0.517578       -14.0840
  29   2.0000      -0.480389       -13.0721
  30   2.0000      -0.473151       -12.8751
  31   2.0000      -0.437049       -11.8927
  32   2.0000      -0.427862       -11.6427
  33   2.0000      -0.410372       -11.1668
  34   2.0000      -0.398847       -10.8532
  35   0.0000       0.128083         3.4853
  36   0.0000       0.148071         4.0292
  37   0.0000       0.156432         4.2567
  38   0.0000       0.166948         4.5429
  39   0.0000       0.181499         4.9388

MULLIKEN ATOMIC CHARGES
-----------------------
   0 C :   -0.426370
   1 C :    0.018000
   2 C :   -0.303563
   3 C :    0.066808
   4 C :   -0.041783
   5 O :   -0.328049
   6 C :    0.097280
   7 C :   -0.408899
   8 C :   -0.280073
   9 H :    0.119070
  10 H :    0.131918
  11 H :    0.132063
  12 H :    0.100082
  13 H :    0.123886
  14 H :    0.116032
  15 H :    0.087066
  16 H :    0.091139
  17 H :    0.075718
  18 H :    0.132279
  19 H :    0.123644
  20 H :    0.143742
  21 H :    0.108898
  22 H :    0.121110
Sum of atomic charges:   -0.0000000

LOEWDIN ATOMIC CHARGES
----------------------
   0 C :   -0.304315
   1 C :   -0.251976
   2 C :   -0.181430
   3 C :   -0.216366
   4 C :   -0.233195
   5 O :    0.131924
   6 C :   -0.273322
   7 C :   -0.295772
   8 C :   -0.183246
   9 H :    0.121941
  10 H :    0.124370
  11 H :    0.124286
  12 H :    0.149078
  13 H :    0.127688
  14 H :    0.140055
  15 H :    0.117247
  16 H :    0.117370
  17 H :    0.135924
  18 H :    0.126767
  19 H :    0.126554
  20 H :    0.130024
  21 H :    0.139137
  22 H :    0.127257

  Mayer bond orders larger than 0.1
B(  0-C ,  1-C ) :   0.8749 B(  0-C ,  9-H ) :   0.9400 B(  0-C , 10-H ) :   0.9418
B(  0-C , 11-H ) :   0.9415 B(  1-C ,  2-C ) :   0.9437 B(  1-C ,  8-C ) :   0.9455
B(  1-C , 12-H ) :   0.9250 B(  2-C ,  3-C ) :   0.9066 B(  2-C , 13-H ) :   0.9240
B(  2-C , 14-H ) :   0.9146 B(  3-C ,  4-C ) :   0.9646 B(  3-C ,  6-C ) :   0.9299
B(  3-C ,  8-C ) :   0.9027 B(  4-C ,  5-O ) :   0.9659 B(  4-C , 15-H ) :   0.9045
B(  4-C , 16-H ) :   0.9065 B(  5-O ,  6-C ) :   0.9804 B(  6-C ,  7-C ) :   0.8913
B(  6-C , 17-H ) :   0.9117 B(  7-C , 18-H ) :   0.9386 B(  7-C , 19-H ) :   0.9302
B(  7-C , 20-H ) :   0.9338 B(  8-C , 21-H ) :   0.9121 B(  8-C , 22-H ) :   0.9221

MP2 TOTAL ENERGY:     -387.589325660 Eh
FINAL SINGLE POINT ENERGY      -387.589325660329

DIPOLE MOMENT
-------------
                                X             Y             Z
Electronic contribution:      0.68176      -6.71641       0.75354
Nuclear contribution   :     -0.97359       7.46804      -0.71266
                        -----------------------------------------
Total Dipole Moment    :     -0.29183       0.75162       0.04089
                        -----------------------------------------
Magnitude (a.u.)       :      0.80733
Magnitude (Debye)      :      2.05206

                             ****ORCA TERMINATED NORMALLY****
TOTAL RUN TIME: 0 days 0 hours 19 minutes 41 seconds 972 msec
