                         Program Version 3.0.3 - RELEASE   -
|  1> ! RI-MP2 RIJK def2-TZVP def2-TZVP/C def2-TZVP/JK TIGHTSCF
|  2> % maxcore 2000
|  3> % mp2 density relaxed end
|  4> *xyz 0 1
|  5>  C       -0.0247883197     1.5912499368     0.2407447371
|  6>  C       -0.0379474024     0.0687806633     0.0144088106
|  7>  C        0.8706019133    -0.6545596714     1.0246515244
|  8>  C       -1.4482768587    -0.4878552967     0.0301772137
|  9>  N       -1.8998972972    -1.0584690905    -1.0924546814
| 10>  C       -3.1429072638    -1.5453668368    -1.0684063614
| 11>  C       -3.9448156310    -1.4706863913     0.0643445321
| 12>  N       -3.5096987783    -0.9043846370     1.1934208269
| 13>  C       -2.2701037645    -0.4203035630     1.1651795919
| 14>  H        0.9955552069     1.9788970932     0.1569406774
| 15>  H       -0.6460352651     2.1078565363    -0.4968829370
| 16>  H       -0.3972335955     1.8528674209     1.2372251978
| 17>  H        0.3395465403    -0.1324637059    -0.9933744094
| 18>  H        0.5370210173    -0.4901523242     2.0550977265
| 19>  H        0.8854644855    -1.7334801506     0.8439982811
| 20>  H        1.8972297845    -0.2826896583     0.9462888726
| 21>  H       -3.5074203384    -2.0086191873    -1.9821846560
| 22>  H       -4.9546298677    -1.8722829071     0.0666032316
| 23>  H       -1.9108349554     0.0417913796     2.0815247016
| 24> *
| 25>
| 26>                          ****END OF INPUT****

CARTESIAN COORDINATES (ANGSTROEM)
---------------------------------
  C     -0.024788    1.591250    0.240745
  C     -0.037947    0.068781    0.014409
  C      0.870602   -0.654560    1.024652
  C     -1.448277   -0.487855    0.030177
  N     -1.899897   -1.058469   -1.092455
  C     -3.142907   -1.545367   -1.068406
  C     -3.944816   -1.470686    0.064345
  N     -3.509699   -0.904385    1.193421
  C     -2.270104   -0.420304    1.165180
  H      0.995555    1.978897    0.156941
  H     -0.646035    2.107857   -0.496883
  H     -0.397234    1.852867    1.237225
  H      0.339547   -0.132464   -0.993374
  H      0.537021   -0.490152    2.055098
  H      0.885464   -1.733480    0.843998
  H      1.897230   -0.282690    0.946289
  H     -3.507420   -2.008619   -1.982185
  H     -4.954630   -1.872283    0.066603
  H     -1.910835    0.041791    2.081525

 Total Charge           Charge          ....    0
 Multiplicity           Mult            ....    1
 Number of Electrons    NEL             ....   66
 Basis Dimension        Dim             ....  339

ORBITAL ENERGIES
----------------

  NO   OCC          E(Eh)            E(eV)
   0   2.0000     -15.587509      -424.1577
   1   2.0000     -15.582397      -424.0186
   2   2.0000     -11.282197      -307.0042
   3   2.0000     -11.277329      -306.8717
   4   2.0000     -11.275175      -306.8131
   5   2.0000     -11.273446      -306.7661
   6   2.0000     -11.241096      -305.8858
   7   2.0000     -11.223131      -305.3969
   8   2.0000     -11.223111      -305.3964
   9   2.0000      -1.302756       -35.4498
  10   2.0000      -1.214684       -33.0532
  11   2.0000      -1.098484       -29.8913
  12   2.0000      -1.023977       -27.8638
  13   2.0000      -0.938194       -25.5295
  14   2.0000      -0.893859       -24.3231
  15   2.0000      -0.892692       -24.2914
  16   2.0000      -0.800006       -21.7693
  17   2.0000      -0.710175       -19.3248
  18   2.0000      -0.705538       -19.1987
  19   2.0000      -0.651658       -17.7325
  20   2.0000      -0.620220       -16.8771
  21   2.0000      -0.604025       -16.4364
  22   2.0000      -0.590511       -16.0686
  23   2.0000      -0.565418       -15.3858
  24   2.0000      -0.554119       -15.0783
  25   2.0000      -0.541578       -14.7371
  26   2.0000      -0.499611       -13.5951
  27   2.0000      -0.497063       -13.5258
  28   2.0000      -0.490727       -13.3534
  29   2.0000      -0.475247       -12.9321
  30   2.0000      -0.428886       -11.6706
  31   2.0000      -0.402526       -10.9533
  32   2.0000      -0.344966        -9.3870
  33   0.0000       0.087337         2.3766
  34   0.0000       0.117132         3.1873
  35   0.0000       0.133801         3.6409
  36   0.0000       0.169882         4.6227
  37   0.0000       0.171866         4.6767

MULLIKEN ATOMIC CHARGES
-----------------------
   0 C :   -0.405502
   1 C :   -0.034925
   2 C :   -0.405491
   3 C :    0.165498
   4 N :   -0.245876
   5 C :   -0.030270
   6 C :   -0.013025
   7 N :   -0.240736
   8 C :   -0.099532
   9 H :    0.134679
  10 H :    0.142540
  11 H :    0.121266
  12 H :    0.102850
  13 H :    0.121249
  14 H :    0.142536
  15 H :    0.134691
  16 H :    0.133762
  17 H :    0.137410
  18 H :    0.138876
Sum of atomic charges:    0.0000000

LOEWDIN ATOMIC CHARGES
----------------------
   0 C :   -0.284192
   1 C :   -0.267874
   2 C :   -0.284205
   3 C :   -0.201082
   4 N :    0.171078
   5 C :   -0.215666
   6 C :   -0.216707
   7 N :    0.139131
   8 C :   -0.177344
   9 H :    0.125389
  10 H :    0.127157
  11 H :    0.122450
  12 H :    0.160928
  13 H :    0.122442
  14 H :    0.127154
  15 H :    0.125393
  16 H :    0.141070
  17 H :    0.141053
  18 H :    0.143826

  Mayer bond orders larger than 0.1
B(  0-C ,  1-C ) :   0.9202 B(  0-C ,  9-H ) :   0.9364 B(  0-C , 10-H ) :   0.9382
B(  0-C , 11-H ) :   0.9276 B(  1-C ,  2-C ) :   0.9203 B(  1-C ,  3-C ) :   0.8769
B(  1-C , 12-H ) :   0.9293 B(  2-C , 13-H ) :   0.9276 B(  2-C , 14-H ) :   0.9382
B(  2-C , 15-H ) :   0.9364 B(  3-C ,  4-N ) :   1.4046 B(  3-C ,  8-C ) :   1.2664
B(  4-N ,  5-C ) :   1.3857 B(  5-C ,  6-C ) :   1.3181 B(  5-C , 16-H ) :   0.9323
B(  6-C ,  7-N ) :   1.3588 B(  6-C , 17-H ) :   0.9298 B(  7-N ,  8-C ) :   1.4295
B(  8-C , 18-H ) :   0.9338

MP2 TOTAL ENERGY:     -381.440668347 Eh
FINAL SINGLE POINT ENERGY      -381.440668347223

DIPOLE MOMENT
-------------
                                X             Y             Z
Electronic contribution:     -8.95395      -4.25238      -1.95820
Nuclear contribution   :      9.20910       4.33494       1.90313
                        -----------------------------------------
Total Dipole Moment    :      0.25515       0.08257      -0.05507
                        -----------------------------------------
Magnitude (a.u.)       :      0.27377
Magnitude (Debye)      :      0.69587

                             ****ORCA TERMINATED NORMALLY****
TOTAL RUN TIME: 0 days 0 hours 18 minutes 35 seconds 324 msec
