                         Program Version 3.0.3 - RELEASE   -
|  1> ! RI-MP2 RIJK def2-TZVP def2-TZVP/C def2-TZVP/JK TIGHTSCF
|  2> % maxcore 2000
|  3> % mp2 density relaxed end
|  4> *xyz 0 1
|  5>  C        0.1652820353     0.9904260146     0.5148161908
|  6>  C       -0.2975348893    -0.3380627667    -0.0365172357
|  7>  O       -1.1169695513    -1.0220866395     0.5399516937
|  8>  C        0.3048603645    -0.7580232821    -1.3765935569
|  9>  C        0.6996551168    -2.2305637226    -1.5505912032
| 10>  O        1.6853766496    -2.5378342895    -2.1882037153
| 11>  N       -0.1596781271    -3.1381702435    -0.9824281731
| 12>  C        0.0118373582    -4.5107419070    -1.0834359316
| 13>  N       -0.7949904881    -5.3003389742    -0.5017874317
| 14>  H        0.0429998041     1.7794538535    -0.2357132045
| 15>  H       -0.3942633896     1.2389579805     1.4168853387
| 16>  H        1.2361624664     0.9385405838     0.7446763279
| 17>  H       -0.4598479938    -0.5385845524    -2.1356580145
| 18>  H        1.1826198593    -0.1624868316    -1.6306189184
| 19>  H       -0.9074181821    -2.7838446256    -0.3920308960
| 20>  H        0.8761308671    -4.7753239490    -1.6958420399
| 21>  H       -0.5288707799    -6.2670638487    -0.6811287804
| 22> *
| 23>
| 24>                          ****END OF INPUT****

CARTESIAN COORDINATES (ANGSTROEM)
---------------------------------
  C      0.165282    0.990426    0.514816
  C     -0.297535   -0.338063   -0.036517
  O     -1.116970   -1.022087    0.539952
  C      0.304860   -0.758023   -1.376594
  C      0.699655   -2.230564   -1.550591
  O      1.685377   -2.537834   -2.188204
  N     -0.159678   -3.138170   -0.982428
  C      0.011837   -4.510742   -1.083436
  N     -0.794990   -5.300339   -0.501787
  H      0.043000    1.779454   -0.235713
  H     -0.394263    1.238958    1.416885
  H      1.236162    0.938541    0.744676
  H     -0.459848   -0.538585   -2.135658
  H      1.182620   -0.162487   -1.630619
  H     -0.907418   -2.783845   -0.392031
  H      0.876131   -4.775324   -1.695842
  H     -0.528871   -6.267064   -0.681129

 Total Charge           Charge          ....    0
 Multiplicity           Mult            ....    1
 Number of Electrons    NEL             ....   68
 Basis Dimension        Dim             ....  327

ORBITAL ENERGIES
----------------

  NO   OCC          E(Eh)            E(eV)
   0   2.0000     -20.575359      -559.8840
   1   2.0000     -20.541760      -558.9697
   2   2.0000     -15.600198      -424.5030
   3   2.0000     -15.542781      -422.9406
   4   2.0000     -11.378243      -309.6177
   5   2.0000     -11.366841      -309.3075
   6   2.0000     -11.319926      -308.0308
   7   2.0000     -11.274092      -306.7836
   8   2.0000     -11.257746      -306.3389
   9   2.0000      -1.422549       -38.7095
  10   2.0000      -1.407519       -38.3005
  11   2.0000      -1.279675       -34.8217
  12   2.0000      -1.177013       -32.0282
  13   2.0000      -1.078586       -29.3498
  14   2.0000      -1.010612       -27.5002
  15   2.0000      -0.878364       -23.9015
  16   2.0000      -0.811660       -22.0864
  17   2.0000      -0.785395       -21.3717
  18   2.0000      -0.712267       -19.3818
  19   2.0000      -0.684926       -18.6378
  20   2.0000      -0.673539       -18.3279
  21   2.0000      -0.663326       -18.0500
  22   2.0000      -0.644694       -17.5430
  23   2.0000      -0.626440       -17.0463
  24   2.0000      -0.609874       -16.5955
  25   2.0000      -0.591472       -16.0948
  26   2.0000      -0.584604       -15.9079
  27   2.0000      -0.560238       -15.2449
  28   2.0000      -0.525395       -14.2967
  29   2.0000      -0.496463       -13.5095
  30   2.0000      -0.463013       -12.5992
  31   2.0000      -0.447438       -12.1754
  32   2.0000      -0.423298       -11.5185
  33   2.0000      -0.382351       -10.4043
  34   0.0000       0.103050         2.8041
  35   0.0000       0.120862         3.2888
  36   0.0000       0.132673         3.6102
  37   0.0000       0.156813         4.2671
  38   0.0000       0.168386         4.5820

MULLIKEN ATOMIC CHARGES
-----------------------
   0 C :   -0.418356
   1 C :    0.254343
   2 O :   -0.319881
   3 C :   -0.281446
   4 C :    0.273505
   5 O :   -0.346574
   6 N :   -0.256040
   7 C :    0.031515
   8 N :   -0.374178
   9 H :    0.154379
  10 H :    0.159275
  11 H :    0.158080
  12 H :    0.162849
  13 H :    0.161552
  14 H :    0.274158
  15 H :    0.140221
  16 H :    0.226598
Sum of atomic charges:    0.0000000

LOEWDIN ATOMIC CHARGES
----------------------
   0 C :   -0.273059
   1 C :   -0.338554
   2 O :    0.142474
   3 C :   -0.198180
   4 C :   -0.429225
   5 O :    0.101160
   6 N :    0.145279
   7 C :   -0.322232
   8 N :   -0.083503
   9 H :    0.140569
  10 H :    0.136089
  11 H :    0.143617
  12 H :    0.175246
  13 H :    0.160378
  14 H :    0.203379
  15 H :    0.129944
  16 H :    0.166618

  Mayer bond orders larger than 0.1
B(  0-C ,  1-C ) :   0.9240 B(  0-C ,  9-H ) :   0.9144 B(  0-C , 10-H ) :   0.9357
B(  0-C , 11-H ) :   0.9108 B(  1-C ,  2-O ) :   1.8779 B(  1-C ,  3-C ) :   0.8716
B(  3-C ,  4-C ) :   0.9364 B(  3-C , 12-H ) :   0.8732 B(  3-C , 13-H ) :   0.9286
B(  4-C ,  5-O ) :   1.9355 B(  4-C ,  6-N ) :   1.1103 B(  6-N ,  7-C ) :   0.9891
B(  6-N , 14-H ) :   0.8192 B(  7-C ,  8-N ) :   1.9248 B(  7-C , 15-H ) :   0.9257
B(  8-N , 16-H ) :   0.8632

MP2 TOTAL ENERGY:     -454.460269141 Eh
FINAL SINGLE POINT ENERGY      -454.460269141481

DIPOLE MOMENT
-------------
                                X             Y             Z
Electronic contribution:     -0.32062      -4.64877      -1.32079
Nuclear contribution   :      0.55029       5.77010       1.19263
                        -----------------------------------------
Total Dipole Moment    :      0.22966       1.12133      -0.12816
                        -----------------------------------------
Magnitude (a.u.)       :      1.15176
Magnitude (Debye)      :      2.92754

                             ****ORCA TERMINATED NORMALLY****
TOTAL RUN TIME: 0 days 0 hours 15 minutes 7 seconds 319 msec
