                         Program Version 3.0.3 - RELEASE   -
|  1> ! RI-MP2 RIJK def2-TZVP def2-TZVP/C def2-TZVP/JK TIGHTSCF
|  2> % maxcore 2000
|  3> % mp2 density relaxed end
|  4> *xyz 0 1
|  5>  C       -0.0595391696     1.5774945611     0.1809015318
|  6>  C       -0.0618901940     0.0528262930     0.0248486267
|  7>  C        0.8354418619    -0.6428002870     1.0543492372
|  8>  N       -1.4251151020    -0.4803745051     0.0662564785
|  9>  C       -2.3174146926    -0.4378751276     1.0875083422
| 10>  C       -3.4623995869    -1.0721856962     0.6496835956
| 11>  C       -3.1579646276    -1.4681130050    -0.6670811947
| 12>  N       -1.9245522930    -1.1088889513    -1.0177110576
| 13>  H        0.9558200739     1.9657786284     0.0568919042
| 14>  H       -0.7034181671     2.0450625906    -0.5684778489
| 15>  H       -0.4126428359     1.8769513127     1.1732558174
| 16>  H        0.2811751287    -0.2042308372    -0.9801411887
| 17>  H        0.5138653889    -0.4213609697     2.0774370997
| 18>  H        0.8168987617    -1.7268254366     0.9153553077
| 19>  H        1.8678255129    -0.2967837221     0.9468472618
| 20>  H       -2.0778904445     0.0298041333     2.0292481187
| 21>  H       -4.3760042380    -1.2232621813     1.2014024262
| 22>  H       -3.7800944067    -1.9974229203    -1.3739286779
| 23> *
| 24>
| 25>                          ****END OF INPUT****

CARTESIAN COORDINATES (ANGSTROEM)
---------------------------------
  C     -0.059539    1.577495    0.180902
  C     -0.061890    0.052826    0.024849
  C      0.835442   -0.642800    1.054349
  N     -1.425115   -0.480375    0.066256
  C     -2.317415   -0.437875    1.087508
  C     -3.462400   -1.072186    0.649684
  C     -3.157965   -1.468113   -0.667081
  N     -1.924552   -1.108889   -1.017711
  H      0.955820    1.965779    0.056892
  H     -0.703418    2.045063   -0.568478
  H     -0.412643    1.876951    1.173256
  H      0.281175   -0.204231   -0.980141
  H      0.513865   -0.421361    2.077437
  H      0.816899   -1.726825    0.915355
  H      1.867826   -0.296784    0.946847
  H     -2.077890    0.029804    2.029248
  H     -4.376004   -1.223262    1.201402
  H     -3.780094   -1.997423   -1.373929

 Total Charge           Charge          ....    0
 Multiplicity           Mult            ....    1
 Number of Electrons    NEL             ....   60
 Basis Dimension        Dim             ....  308

ORBITAL ENERGIES
----------------

  NO   OCC          E(Eh)            E(eV)
   0   2.0000     -15.629668      -425.3049
   1   2.0000     -15.576379      -423.8548
   2   2.0000     -11.278939      -306.9155
   3   2.0000     -11.266123      -306.5668
   4   2.0000     -11.242770      -305.9313
   5   2.0000     -11.226664      -305.4931
   6   2.0000     -11.226646      -305.4926
   7   2.0000     -11.213624      -305.1382
   8   2.0000      -1.370548       -37.2945
   9   2.0000      -1.134834       -30.8804
  10   2.0000      -1.055173       -28.7127
  11   2.0000      -1.017258       -27.6810
  12   2.0000      -0.947008       -25.7694
  13   2.0000      -0.853686       -23.2300
  14   2.0000      -0.798469       -21.7274
  15   2.0000      -0.755351       -20.5541
  16   2.0000      -0.702952       -19.1283
  17   2.0000      -0.634203       -17.2575
  18   2.0000      -0.629489       -17.1293
  19   2.0000      -0.607259       -16.5243
  20   2.0000      -0.584578       -15.9072
  21   2.0000      -0.558021       -15.1845
  22   2.0000      -0.553139       -15.0517
  23   2.0000      -0.544396       -14.8138
  24   2.0000      -0.527908       -14.3651
  25   2.0000      -0.497126       -13.5275
  26   2.0000      -0.492019       -13.3885
  27   2.0000      -0.451142       -12.2762
  28   2.0000      -0.345629        -9.4050
  29   2.0000      -0.338483        -9.2106
  30   0.0000       0.130868         3.5611
  31   0.0000       0.154104         4.1934
  32   0.0000       0.166118         4.5203
  33   0.0000       0.177531         4.8309
  34   0.0000       0.186133         5.0649

MULLIKEN ATOMIC CHARGES
-----------------------
   0 C :   -0.385252
   1 C :   -0.056072
   2 C :   -0.385252
   3 N :    0.166009
   4 C :   -0.141219
   5 C :   -0.190068
   6 C :   -0.104887
   7 N :   -0.272718
   8 H :    0.134693
   9 H :    0.150400
  10 H :    0.123634
  11 H :    0.134994
  12 H :    0.123641
  13 H :    0.150405
  14 H :    0.134682
  15 H :    0.148617
  16 H :    0.136789
  17 H :    0.131605
Sum of atomic charges:   -0.0000000

LOEWDIN ATOMIC CHARGES
----------------------
   0 C :   -0.286210
   1 C :   -0.298455
   2 C :   -0.286210
   3 N :    0.215257
   4 C :   -0.226989
   5 C :   -0.211514
   6 C :   -0.279612
   7 N :    0.040513
   8 H :    0.128354
   9 H :    0.130212
  10 H :    0.123474
  11 H :    0.159318
  12 H :    0.123479
  13 H :    0.130215
  14 H :    0.128351
  15 H :    0.137846
  16 H :    0.139753
  17 H :    0.132217

  Mayer bond orders larger than 0.1
B(  0-C ,  1-C ) :   0.9328 B(  0-C ,  8-H ) :   0.9332 B(  0-C ,  9-H ) :   0.9368
B(  0-C , 10-H ) :   0.9240 B(  1-C ,  2-C ) :   0.9329 B(  1-C ,  3-N ) :   0.8450
B(  1-C , 11-H ) :   0.9234 B(  2-C , 12-H ) :   0.9240 B(  2-C , 13-H ) :   0.9368
B(  2-C , 14-H ) :   0.9332 B(  3-N ,  4-C ) :   1.1945 B(  3-N ,  7-N ) :   1.0198
B(  4-C ,  5-C ) :   1.4340 B(  4-C ,  7-N ) :   0.1012 B(  4-C , 15-H ) :   0.9096
B(  5-C ,  6-C ) :   1.3209 B(  5-C , 16-H ) :   0.9236 B(  6-C ,  7-N ) :   1.4708
B(  6-C , 17-H ) :   0.9364

MP2 TOTAL ENERGY:     -343.407747353 Eh
FINAL SINGLE POINT ENERGY      -343.407747353105

DIPOLE MOMENT
-------------
                                X             Y             Z
Electronic contribution:     -6.04721      -3.49929      -2.69688
Nuclear contribution   :      6.51146       3.96863       3.41310
                        -----------------------------------------
Total Dipole Moment    :      0.46425       0.46934       0.71622
                        -----------------------------------------
Magnitude (a.u.)       :      0.97406
Magnitude (Debye)      :      2.47585

                             ****ORCA TERMINATED NORMALLY****
TOTAL RUN TIME: 0 days 0 hours 12 minutes 34 seconds 606 msec
