                         Program Version 3.0.3 - RELEASE   -
|  1> ! RI-MP2 RIJK def2-TZVP def2-TZVP/C def2-TZVP/JK TIGHTSCF
|  2> % maxcore 2000
|  3> % mp2 density relaxed end
|  4> *xyz 0 1
|  5>  N       -0.0383752094    -1.1754940399     0.0113571304
|  6>  C       -0.0273830594    -0.0180546777     0.0165700050
|  7>  C       -0.0128931779     1.4188502101     0.0306618504
|  8>  C       -0.4016624806     2.2018367728    -1.2699092542
|  9>  N        0.8662050768     2.9887375434    -1.2136971610
| 10>  C        1.3186279463     2.2531391516    -0.0181090404
| 11>  C        0.9169287667     2.8975674353     1.3407094060
| 12>  O       -0.3656429188     3.5073074048     1.1685389513
| 13>  C       -0.3287950094     2.1099430243     1.3973428364
| 14>  H       -0.4877067026     1.5430399681    -2.1381957347
| 15>  H       -1.2958789280     2.8220136505    -1.1797412904
| 16>  H        1.4607461969     2.8227917010    -2.0167356563
| 17>  H        2.2946233355     1.7671081874    -0.0408078134
| 18>  H        1.5503187708     3.2954274507     2.1246226589
| 19>  H       -0.9009063669     1.7009378276     2.2213489523
| 20> *
| 21>
| 22>                          ****END OF INPUT****

CARTESIAN COORDINATES (ANGSTROEM)
---------------------------------
  N     -0.038375   -1.175494    0.011357
  C     -0.027383   -0.018055    0.016570
  C     -0.012893    1.418850    0.030662
  C     -0.401662    2.201837   -1.269909
  N      0.866205    2.988738   -1.213697
  C      1.318628    2.253139   -0.018109
  C      0.916929    2.897567    1.340709
  O     -0.365643    3.507307    1.168539
  C     -0.328795    2.109943    1.397343
  H     -0.487707    1.543040   -2.138196
  H     -1.295879    2.822014   -1.179741
  H      1.460746    2.822792   -2.016736
  H      2.294623    1.767108   -0.040808
  H      1.550319    3.295427    2.124623
  H     -0.900906    1.700938    2.221349

 Total Charge           Charge          ....    0
 Multiplicity           Mult            ....    1
 Number of Electrons    NEL             ....   64
 Basis Dimension        Dim             ....  315

ORBITAL ENERGIES
----------------

  NO   OCC          E(Eh)            E(eV)
   0   2.0000     -20.595466      -560.4311
   1   2.0000     -15.580222      -423.9594
   2   2.0000     -15.567124      -423.6030
   3   2.0000     -11.320872      -308.0566
   4   2.0000     -11.311652      -307.8057
   5   2.0000     -11.302410      -307.5542
   6   2.0000     -11.296012      -307.3801
   7   2.0000     -11.285155      -307.0847
   8   2.0000     -11.282541      -307.0136
   9   2.0000      -1.452466       -39.5236
  10   2.0000      -1.263564       -34.3833
  11   2.0000      -1.224096       -33.3093
  12   2.0000      -1.078722       -29.3535
  13   2.0000      -0.991434       -26.9783
  14   2.0000      -0.887732       -24.1564
  15   2.0000      -0.880313       -23.9545
  16   2.0000      -0.819216       -22.2920
  17   2.0000      -0.754902       -20.5419
  18   2.0000      -0.697338       -18.9755
  19   2.0000      -0.684386       -18.6231
  20   2.0000      -0.626907       -17.0590
  21   2.0000      -0.605820       -16.4852
  22   2.0000      -0.592639       -16.1265
  23   2.0000      -0.574246       -15.6260
  24   2.0000      -0.554160       -15.0795
  25   2.0000      -0.527389       -14.3510
  26   2.0000      -0.517728       -14.0881
  27   2.0000      -0.502792       -13.6817
  28   2.0000      -0.460540       -12.5319
  29   2.0000      -0.443225       -12.0608
  30   2.0000      -0.417148       -11.3512
  31   2.0000      -0.391939       -10.6652
  32   0.0000       0.122097         3.3224
  33   0.0000       0.126813         3.4508
  34   0.0000       0.143144         3.8951
  35   0.0000       0.157471         4.2850
  36   0.0000       0.172681         4.6989

MULLIKEN ATOMIC CHARGES
-----------------------
   0 N :   -0.043516
   1 C :   -0.279284
   2 C :    0.319726
   3 C :   -0.156946
   4 N :   -0.340266
   5 C :   -0.042525
   6 C :   -0.022703
   7 O :   -0.300174
   8 C :   -0.070228
   9 H :    0.143274
  10 H :    0.119508
  11 H :    0.214536
  12 H :    0.148817
  13 H :    0.149883
  14 H :    0.159900
Sum of atomic charges:   -0.0000000

LOEWDIN ATOMIC CHARGES
----------------------
   0 N :    0.071114
   1 C :   -0.160678
   2 C :   -0.190123
   3 C :   -0.194911
   4 N :   -0.002582
   5 C :   -0.176440
   6 C :   -0.204624
   7 O :    0.213415
   8 C :   -0.196132
   9 H :    0.130294
  10 H :    0.133092
  11 H :    0.164137
  12 H :    0.141604
  13 H :    0.132742
  14 H :    0.139093

  Mayer bond orders larger than 0.1
B(  0-N ,  1-C ) :   2.8754 B(  1-C ,  2-C ) :   0.8869 B(  2-C ,  3-C ) :   0.8780
B(  2-C ,  5-C ) :   0.9019 B(  2-C ,  8-C ) :   0.8233 B(  3-C ,  4-N ) :   0.9829
B(  3-C ,  9-H ) :   0.9122 B(  3-C , 10-H ) :   0.8990 B(  4-N ,  5-C ) :   1.0205
B(  4-N , 11-H ) :   0.8714 B(  5-C ,  6-C ) :   0.8776 B(  5-C , 12-H ) :   0.8841
B(  6-C ,  7-O ) :   0.9131 B(  6-C ,  8-C ) :   0.9417 B(  6-C , 13-H ) :   0.9137
B(  7-O ,  8-C ) :   0.9395 B(  8-C , 14-H ) :   0.9198

MP2 TOTAL ENERGY:     -416.026139025 Eh
FINAL SINGLE POINT ENERGY      -416.026139024857

DIPOLE MOMENT
-------------
                                X             Y             Z
Electronic contribution:     -0.70640      -2.10496       1.79845
Nuclear contribution   :      1.25526       2.68368      -1.82571
                        -----------------------------------------
Total Dipole Moment    :      0.54887       0.57872      -0.02726
                        -----------------------------------------
Magnitude (a.u.)       :      0.79807
Magnitude (Debye)      :      2.02853

                             ****ORCA TERMINATED NORMALLY****
TOTAL RUN TIME: 0 days 0 hours 16 minutes 16 seconds 519 msec
