                         Program Version 3.0.3 - RELEASE   -
|  1> ! RI-MP2 RIJK def2-TZVP def2-TZVP/C def2-TZVP/JK TIGHTSCF
|  2> % maxcore 2000
|  3> % mp2 density relaxed end
|  4> *xyz 0 1
|  5>  O       -0.0273426757    -0.0498464788     0.0041981129
|  6>  C       -0.0110935318     1.1592448734     0.0095995203
|  7>  N       -1.1388106928     2.0166632954     0.0290425472
|  8>  C       -0.7006277370     3.3216303102     0.0301571961
|  9>  C        0.6746309067     3.3453096642     0.0113244568
| 10>  N        1.0911338168     2.0117849254    -0.0016458344
| 11>  C        1.0204734794     4.7070505437     0.0133019906
| 12>  N       -0.0801759216     5.4682026412     0.0322579157
| 13>  N       -1.1335428038     4.5977526283     0.0424207485
| 14>  H       -2.0739412934     1.6511014263     0.0416149092
| 15>  H        2.0270751161     1.6488593779    -0.0148979048
| 16>  H        1.9907997802     5.1781223938     0.0023045610
| 17>  H       -2.0681522733     4.9645932991     0.0571454209
| 18> *
| 19>
| 20>                          ****END OF INPUT****

CARTESIAN COORDINATES (ANGSTROEM)
---------------------------------
  O     -0.027343   -0.049846    0.004198
  C     -0.011094    1.159245    0.009600
  N     -1.138811    2.016663    0.029043
  C     -0.700628    3.321630    0.030157
  C      0.674631    3.345310    0.011324
  N      1.091134    2.011785   -0.001646
  C      1.020473    4.707051    0.013302
  N     -0.080176    5.468203    0.032258
  N     -1.133543    4.597753    0.042421
  H     -2.073941    1.651101    0.041615
  H      2.027075    1.648859   -0.014898
  H      1.990800    5.178122    0.002305
  H     -2.068152    4.964593    0.057145

 Total Charge           Charge          ....    0
 Multiplicity           Mult            ....    1
 Number of Electrons    NEL             ....   64
 Basis Dimension        Dim             ....  303

ORBITAL ENERGIES
----------------

  NO   OCC          E(Eh)            E(eV)
   0   2.0000     -20.526993      -558.5679
   1   2.0000     -15.653221      -425.9458
   2   2.0000     -15.629409      -425.2978
   3   2.0000     -15.614078      -424.8807
   4   2.0000     -15.591173      -424.2574
   5   2.0000     -11.397977      -310.1547
   6   2.0000     -11.325605      -308.1854
   7   2.0000     -11.275358      -306.8181
   8   2.0000     -11.265157      -306.5405
   9   2.0000      -1.418895       -38.6101
  10   2.0000      -1.382593       -37.6223
  11   2.0000      -1.309745       -35.6400
  12   2.0000      -1.219783       -33.1920
  13   2.0000      -1.104640       -30.0588
  14   2.0000      -1.041092       -28.3296
  15   2.0000      -0.881136       -23.9769
  16   2.0000      -0.841583       -22.9006
  17   2.0000      -0.825602       -22.4658
  18   2.0000      -0.797579       -21.7032
  19   2.0000      -0.693336       -18.8666
  20   2.0000      -0.692250       -18.8371
  21   2.0000      -0.672942       -18.3117
  22   2.0000      -0.637779       -17.3549
  23   2.0000      -0.625305       -17.0154
  24   2.0000      -0.599332       -16.3087
  25   2.0000      -0.572531       -15.5794
  26   2.0000      -0.492209       -13.3937
  27   2.0000      -0.481104       -13.0915
  28   2.0000      -0.470931       -12.8147
  29   2.0000      -0.458011       -12.4631
  30   2.0000      -0.370161       -10.0726
  31   2.0000      -0.300134        -8.1671
  32   0.0000       0.112903         3.0722
  33   0.0000       0.137917         3.7529
  34   0.0000       0.151296         4.1170
  35   0.0000       0.151671         4.1272
  36   0.0000       0.181270         4.9326

MULLIKEN ATOMIC CHARGES
-----------------------
   0 O :   -0.350316
   1 C :    0.289031
   2 N :   -0.311371
   3 C :    0.160146
   4 C :    0.104031
   5 N :   -0.314292
   6 C :   -0.140860
   7 N :   -0.203390
   8 N :   -0.149324
   9 H :    0.257429
  10 H :    0.259720
  11 H :    0.138178
  12 H :    0.261019
Sum of atomic charges:    0.0000000

LOEWDIN ATOMIC CHARGES
----------------------
   0 O :    0.063560
   1 C :   -0.491961
   2 N :    0.166992
   3 C :   -0.291971
   4 C :   -0.227126
   5 N :    0.172384
   6 C :   -0.262895
   7 N :    0.017810
   8 N :    0.138078
   9 H :    0.194074
  10 H :    0.195918
  11 H :    0.136084
  12 H :    0.189054

  Mayer bond orders larger than 0.1
B(  0-O ,  1-C ) :   2.0076 B(  1-C ,  2-N ) :   1.0362 B(  1-C ,  5-N ) :   1.1166
B(  2-N ,  3-C ) :   1.0759 B(  2-N ,  9-H ) :   0.8631 B(  3-C ,  4-C ) :   1.3155
B(  3-C ,  7-N ) :   0.1190 B(  3-C ,  8-N ) :   1.2016 B(  4-C ,  5-N ) :   1.0242
B(  4-C ,  6-C ) :   1.2659 B(  5-N , 10-H ) :   0.8633 B(  6-C ,  7-N ) :   1.5317
B(  6-C , 11-H ) :   0.9447 B(  7-N ,  8-N ) :   1.0272 B(  8-N , 12-H ) :   0.8656

MP2 TOTAL ENERGY:     -448.235784311 Eh
FINAL SINGLE POINT ENERGY      -448.235784311415

DIPOLE MOMENT
-------------
                                X             Y             Z
Electronic contribution:     -0.63450      -1.15372       0.00231
Nuclear contribution   :      0.07214       1.67410       0.00949
                        -----------------------------------------
Total Dipole Moment    :     -0.56237       0.52038       0.01180
                        -----------------------------------------
Magnitude (a.u.)       :      0.76629
Magnitude (Debye)      :      1.94774

                             ****ORCA TERMINATED NORMALLY****
TOTAL RUN TIME: 0 days 0 hours 15 minutes 48 seconds 468 msec
