                         Program Version 3.0.3 - RELEASE   -
|  1> ! RI-MP2 RIJK def2-TZVP def2-TZVP/C def2-TZVP/JK TIGHTSCF
|  2> % maxcore 2000
|  3> % mp2 density relaxed end
|  4> *xyz 0 1
|  5>  C        0.6001050283     0.6006644098     1.0183643106
|  6>  O       -0.2200950718     0.2251156717    -0.0686063984
|  7>  C        0.4738375956    -0.4184992310    -1.1278834777
|  8>  C        1.0182613515    -1.7226749056    -0.7225098414
|  9>  C        1.4683976259    -2.7876543810    -0.3922263638
| 10>  C       -0.4973399817    -0.5381107616    -2.3216826113
| 11>  C       -1.7427875956    -1.3602134280    -1.9725964429
| 12>  C       -0.8559277796     0.8663189420    -2.8381365358
| 13>  O       -1.6131419099     0.8333807766    -4.0384817336
| 14>  H        1.0644407712    -0.2709942722     1.4982448326
| 15>  H        1.3967344955     1.2916843644     0.7014969104
| 16>  H       -0.0431114919     1.1083196415     1.7406117348
| 17>  H        1.3237334631     0.2163667756    -1.4371479858
| 18>  H        1.8671229957    -3.7288647481    -0.1032239266
| 19>  H        0.0523697922    -1.0490261725    -3.1214043274
| 20>  H       -2.3156631144    -0.8799224927    -1.1738974405
| 21>  H       -2.3852616437    -1.4730444483    -2.8511332897
| 22>  H       -1.4682455300    -2.3629280973    -1.6344885390
| 23>  H       -1.3720489585     1.4293302917    -2.0490730404
| 24>  H        0.0628810852     1.4118616548    -3.0830741562
| 25>  H       -2.5134175770     0.5821767202    -3.8135841281
| 26> *
| 27>
| 28>                          ****END OF INPUT****

CARTESIAN COORDINATES (ANGSTROEM)
---------------------------------
  C      0.600105    0.600664    1.018364
  O     -0.220095    0.225116   -0.068606
  C      0.473838   -0.418499   -1.127883
  C      1.018261   -1.722675   -0.722510
  C      1.468398   -2.787654   -0.392226
  C     -0.497340   -0.538111   -2.321683
  C     -1.742788   -1.360213   -1.972596
  C     -0.855928    0.866319   -2.838137
  O     -1.613142    0.833381   -4.038482
  H      1.064441   -0.270994    1.498245
  H      1.396734    1.291684    0.701497
  H     -0.043111    1.108320    1.740612
  H      1.323733    0.216367   -1.437148
  H      1.867123   -3.728865   -0.103224
  H      0.052370   -1.049026   -3.121404
  H     -2.315663   -0.879922   -1.173897
  H     -2.385262   -1.473044   -2.851133
  H     -1.468246   -2.362928   -1.634489
  H     -1.372049    1.429330   -2.049073
  H      0.062881    1.411862   -3.083074
  H     -2.513418    0.582177   -3.813584

 Total Charge           Charge          ....    0
 Multiplicity           Mult            ....    1
 Number of Electrons    NEL             ....   70
 Basis Dimension        Dim             ....  351

ORBITAL ENERGIES
----------------

  NO   OCC          E(Eh)            E(eV)
   0   2.0000     -20.567185      -559.6615
   1   2.0000     -20.553260      -559.2826
   2   2.0000     -11.313125      -307.8458
   3   2.0000     -11.274743      -306.8014
   4   2.0000     -11.271557      -306.7147
   5   2.0000     -11.238447      -305.8137
   6   2.0000     -11.235549      -305.7348
   7   2.0000     -11.231879      -305.6350
   8   2.0000     -11.213012      -305.1216
   9   2.0000      -1.388641       -37.7868
  10   2.0000      -1.357507       -36.9396
  11   2.0000      -1.096503       -29.8374
  12   2.0000      -1.032840       -28.1050
  13   2.0000      -0.960747       -26.1433
  14   2.0000      -0.925241       -25.1771
  15   2.0000      -0.898133       -24.4394
  16   2.0000      -0.791380       -21.5346
  17   2.0000      -0.733664       -19.9640
  18   2.0000      -0.701859       -19.0986
  19   2.0000      -0.684595       -18.6288
  20   2.0000      -0.667846       -18.1730
  21   2.0000      -0.657666       -17.8960
  22   2.0000      -0.609565       -16.5871
  23   2.0000      -0.600947       -16.3526
  24   2.0000      -0.571568       -15.5532
  25   2.0000      -0.568183       -15.4610
  26   2.0000      -0.536167       -14.5898
  27   2.0000      -0.517387       -14.0788
  28   2.0000      -0.500400       -13.6166
  29   2.0000      -0.490291       -13.3415
  30   2.0000      -0.469468       -12.7749
  31   2.0000      -0.447540       -12.1782
  32   2.0000      -0.433407       -11.7936
  33   2.0000      -0.402073       -10.9410
  34   2.0000      -0.392180       -10.6718
  35   0.0000       0.132277         3.5994
  36   0.0000       0.147749         4.0205
  37   0.0000       0.160102         4.3566
  38   0.0000       0.163456         4.4479
  39   0.0000       0.169124         4.6021

MULLIKEN ATOMIC CHARGES
-----------------------
   0 C :   -0.231680
   1 O :   -0.309289
   2 C :   -0.034495
   3 C :   -0.054164
   4 C :   -0.134979
   5 C :    0.036429
   6 C :   -0.483176
   7 C :   -0.077929
   8 O :   -0.473540
   9 H :    0.133151
  10 H :    0.110853
  11 H :    0.140195
  12 H :    0.107856
  13 H :    0.192992
  14 H :    0.099624
  15 H :    0.144823
  16 H :    0.125584
  17 H :    0.148598
  18 H :    0.131604
  19 H :    0.107722
  20 H :    0.319819
Sum of atomic charges:    0.0000000

LOEWDIN ATOMIC CHARGES
----------------------
   0 C :   -0.348430
   1 O :    0.169337
   2 C :   -0.300708
   3 C :   -0.086650
   4 C :   -0.089382
   5 C :   -0.260016
   6 C :   -0.293742
   7 C :   -0.323942
   8 O :   -0.044936
   9 H :    0.109440
  10 H :    0.103190
  11 H :    0.114395
  12 H :    0.157239
  13 H :    0.128105
  14 H :    0.162455
  15 H :    0.128470
  16 H :    0.119998
  17 H :    0.131732
  18 H :    0.122483
  19 H :    0.129475
  20 H :    0.171488

  Mayer bond orders larger than 0.1
B(  0-C ,  1-O ) :   0.9108 B(  0-C ,  9-H ) :   0.9334 B(  0-C , 10-H ) :   0.9317
B(  0-C , 11-H ) :   0.9392 B(  1-O ,  2-C ) :   0.9404 B(  2-C ,  3-C ) :   1.0873
B(  2-C ,  5-C ) :   0.8619 B(  2-C , 12-H ) :   0.9655 B(  3-C ,  4-C ) :   2.6243
B(  4-C , 13-H ) :   0.8881 B(  5-C ,  6-C ) :   0.8980 B(  5-C ,  7-C ) :   0.8799
B(  5-C , 14-H ) :   0.9131 B(  6-C , 15-H ) :   0.9307 B(  6-C , 16-H ) :   0.9416
B(  6-C , 17-H ) :   0.9340 B(  7-C ,  8-O ) :   0.9453 B(  7-C , 18-H ) :   0.9486
B(  7-C , 19-H ) :   0.9278 B(  8-O , 20-H ) :   0.8481

MP2 TOTAL ENERGY:     -423.467067545 Eh
FINAL SINGLE POINT ENERGY      -423.467067544759

DIPOLE MOMENT
-------------
                                X             Y             Z
Electronic contribution:      1.79470      -1.20910      -0.89717
Nuclear contribution   :     -1.61380       1.03005       1.54707
                        -----------------------------------------
Total Dipole Moment    :      0.18090      -0.17905       0.64990
                        -----------------------------------------
Magnitude (a.u.)       :      0.69797
Magnitude (Debye)      :      1.77409

                             ****ORCA TERMINATED NORMALLY****
TOTAL RUN TIME: 0 days 0 hours 19 minutes 18 seconds 43 msec
