                         Program Version 3.0.3 - RELEASE   -
|  1> ! RI-MP2 RIJK def2-TZVP def2-TZVP/C def2-TZVP/JK TIGHTSCF
|  2> % maxcore 2000
|  3> % mp2 density relaxed end
|  4> *xyz 0 1
|  5>  C       -1.4562345118    -0.6298111707     0.1601834587
|  6>  C       -0.0602819211    -0.0155723801    -0.0116755942
|  7>  C        0.7066525698    -0.5311590424    -1.2431131624
|  8>  C        0.1653937645     0.1309741863    -2.5133933325
|  9>  C        2.2872668430    -0.6265252810    -1.1249244477
| 10>  C        2.0825783071    -1.8821026202    -0.2068205083
| 11>  C        1.0168865343    -2.0853238433    -1.3379034856
| 12>  C        2.1768088962    -1.6628376842    -2.2537263057
| 13>  O        2.7246273469    -1.9946779560    -3.2592810209
| 14>  H       -2.0871577642    -0.4720024225    -0.7199107671
| 15>  H       -1.3936164301    -1.7088893108     0.3344453976
| 16>  H       -1.9711368407    -0.1841511740     1.0168946130
| 17>  H       -0.1541296069     1.0724033599    -0.1175136293
| 18>  H        0.5056312801    -0.1678097053     0.9106142508
| 19>  H        0.3114537622     1.2160270405    -2.4700343966
| 20>  H        0.6570319571    -0.2356236355    -3.4184996018
| 21>  H       -0.9082201624    -0.0496604524    -2.6263535337
| 22>  H        2.9977015751     0.1887191608    -0.9974192359
| 23>  H        2.9027101011    -2.6011756659    -0.1692333165
| 24>  H        1.6878584327    -1.6908317324     0.7884690056
| 25>  H        0.3110076573    -2.9060406809    -1.4518259575
| 26> *
| 27>
| 28>                          ****END OF INPUT****

CARTESIAN COORDINATES (ANGSTROEM)
---------------------------------
  C     -1.456235   -0.629811    0.160183
  C     -0.060282   -0.015572   -0.011676
  C      0.706653   -0.531159   -1.243113
  C      0.165394    0.130974   -2.513393
  C      2.287267   -0.626525   -1.124924
  C      2.082578   -1.882103   -0.206821
  C      1.016887   -2.085324   -1.337903
  C      2.176809   -1.662838   -2.253726
  O      2.724627   -1.994678   -3.259281
  H     -2.087158   -0.472002   -0.719911
  H     -1.393616   -1.708889    0.334445
  H     -1.971137   -0.184151    1.016895
  H     -0.154130    1.072403   -0.117514
  H      0.505631   -0.167810    0.910614
  H      0.311454    1.216027   -2.470034
  H      0.657032   -0.235624   -3.418500
  H     -0.908220   -0.049660   -2.626354
  H      2.997702    0.188719   -0.997419
  H      2.902710   -2.601176   -0.169233
  H      1.687858   -1.690832    0.788469
  H      0.311008   -2.906041   -1.451826

 Total Charge           Charge          ....    0
 Multiplicity           Mult            ....    1
 Number of Electrons    NEL             ....   68
 Basis Dimension        Dim             ....  351

ORBITAL ENERGIES
----------------

  NO   OCC          E(Eh)            E(eV)
   0   2.0000     -20.545153      -559.0620
   1   2.0000     -11.336624      -308.4852
   2   2.0000     -11.267122      -306.5940
   3   2.0000     -11.257565      -306.3339
   4   2.0000     -11.257156      -306.3228
   5   2.0000     -11.253060      -306.2113
   6   2.0000     -11.232870      -305.6619
   7   2.0000     -11.223802      -305.4152
   8   2.0000     -11.221420      -305.3504
   9   2.0000      -1.394082       -37.9349
  10   2.0000      -1.225428       -33.3456
  11   2.0000      -1.059907       -28.8415
  12   2.0000      -0.988447       -26.8970
  13   2.0000      -0.891784       -24.2667
  14   2.0000      -0.881426       -23.9848
  15   2.0000      -0.875323       -23.8188
  16   2.0000      -0.775537       -21.1034
  17   2.0000      -0.701235       -19.0816
  18   2.0000      -0.676744       -18.4151
  19   2.0000      -0.657880       -17.9018
  20   2.0000      -0.623911       -16.9775
  21   2.0000      -0.611017       -16.6266
  22   2.0000      -0.594346       -16.1730
  23   2.0000      -0.586307       -15.9542
  24   2.0000      -0.553981       -15.0746
  25   2.0000      -0.535855       -14.5813
  26   2.0000      -0.525599       -14.3023
  27   2.0000      -0.508680       -13.8419
  28   2.0000      -0.498390       -13.5619
  29   2.0000      -0.474184       -12.9032
  30   2.0000      -0.462024       -12.5723
  31   2.0000      -0.450526       -12.2594
  32   2.0000      -0.439057       -11.9474
  33   2.0000      -0.384992       -10.4762
  34   0.0000       0.131104         3.5675
  35   0.0000       0.150503         4.0954
  36   0.0000       0.156227         4.2511
  37   0.0000       0.171751         4.6736
  38   0.0000       0.183407         4.9907

MULLIKEN ATOMIC CHARGES
-----------------------
   0 C :   -0.408820
   1 C :   -0.216960
   2 C :    0.050244
   3 C :   -0.438572
   4 C :   -0.066257
   5 C :   -0.261210
   6 C :   -0.092011
   7 C :    0.076289
   8 O :   -0.254317
   9 H :    0.127685
  10 H :    0.130072
  11 H :    0.138749
  12 H :    0.115216
  13 H :    0.115426
  14 H :    0.136217
  15 H :    0.154512
  16 H :    0.131898
  17 H :    0.146459
  18 H :    0.133876
  19 H :    0.130465
  20 H :    0.151039
Sum of atomic charges:   -0.0000000

LOEWDIN ATOMIC CHARGES
----------------------
   0 C :   -0.311066
   1 C :   -0.250028
   2 C :   -0.212495
   3 C :   -0.260851
   4 C :   -0.108030
   5 C :   -0.179600
   6 C :   -0.111714
   7 C :   -0.293963
   8 O :    0.158004
   9 H :    0.120397
  10 H :    0.121993
  11 H :    0.122851
  12 H :    0.143604
  13 H :    0.138059
  14 H :    0.129308
  15 H :    0.136167
  16 H :    0.127421
  17 H :    0.131293
  18 H :    0.134470
  19 H :    0.132870
  20 H :    0.131311

  Mayer bond orders larger than 0.1
B(  0-C ,  1-C ) :   0.9164 B(  0-C ,  9-H ) :   0.9385 B(  0-C , 10-H ) :   0.9391
B(  0-C , 11-H ) :   0.9403 B(  1-C ,  2-C ) :   0.8801 B(  1-C , 12-H ) :   0.9339
B(  1-C , 13-H ) :   0.9294 B(  2-C ,  3-C ) :   0.9386 B(  2-C ,  4-C ) :   0.8687
B(  2-C ,  6-C ) :   0.8655 B(  3-C , 14-H ) :   0.9364 B(  3-C , 15-H ) :   0.9235
B(  3-C , 16-H ) :   0.9326 B(  4-C ,  5-C ) :   0.9001 B(  4-C ,  7-C ) :   0.8088
B(  4-C , 17-H ) :   0.8750 B(  5-C ,  6-C ) :   0.8951 B(  5-C , 18-H ) :   0.9227
B(  5-C , 19-H ) :   0.9273 B(  6-C ,  7-C ) :   0.7936 B(  6-C , 20-H ) :   0.8720
B(  7-C ,  8-O ) :   2.0733

MP2 TOTAL ENERGY:     -386.383270310 Eh
FINAL SINGLE POINT ENERGY      -386.383270310050

DIPOLE MOMENT
-------------
                                X             Y             Z
Electronic contribution:      8.39512      -4.03304      -5.41968
Nuclear contribution   :     -9.04000       4.44622       6.43463
                        -----------------------------------------
Total Dipole Moment    :     -0.64489       0.41319       1.01495
                        -----------------------------------------
Magnitude (a.u.)       :      1.27151
Magnitude (Debye)      :      3.23191

                             ****ORCA TERMINATED NORMALLY****
TOTAL RUN TIME: 0 days 0 hours 21 minutes 11 seconds 476 msec
