                         Program Version 3.0.3 - RELEASE   -
|  1> ! RI-MP2 RIJK def2-TZVP def2-TZVP/C def2-TZVP/JK TIGHTSCF
|  2> % maxcore 2000
|  3> % mp2 density relaxed end
|  4> *xyz 0 1
|  5>  C        0.1563587154     1.1302082982    -0.2998961751
|  6>  O       -0.1141402001    -0.1166951115     0.3152943549
|  7>  C       -1.4165358684    -0.6135132424     0.1271012098
|  8>  C       -2.4838728749     0.0476307951     0.9653888322
|  9>  C       -1.7339794501    -1.1739438277    -1.2502022762
| 10>  C       -1.3989982397    -2.1005347295    -0.0951605941
| 11>  O       -0.1790698144    -2.7675074344    -0.0687050001
| 12>  H        1.2148088876     1.3426468260    -0.1327253702
| 13>  H       -0.0402105253     1.0991300011    -1.3798337895
| 14>  H       -0.4390213658     1.9400049370     0.1417336898
| 15>  H       -2.6589545490     1.0855587908     0.6600121243
| 16>  H       -3.4327890263    -0.4868956477     0.8647654074
| 17>  H       -2.1971912389     0.0434381101     2.0220081826
| 18>  H       -2.7551243746    -1.1197018486    -1.6135462245
| 19>  H       -0.9682350656    -1.0770059905    -2.0126766529
| 20>  H       -2.2008703511    -2.6932957948     0.3367442851
| 21>  H        0.4859241213    -2.0883391512     0.1117330364
| 22> *
| 23>
| 24>                          ****END OF INPUT****

CARTESIAN COORDINATES (ANGSTROEM)
---------------------------------
  C      0.156359    1.130208   -0.299896
  O     -0.114140   -0.116695    0.315294
  C     -1.416536   -0.613513    0.127101
  C     -2.483873    0.047631    0.965389
  C     -1.733979   -1.173944   -1.250202
  C     -1.398998   -2.100535   -0.095161
  O     -0.179070   -2.767507   -0.068705
  H      1.214809    1.342647   -0.132725
  H     -0.040211    1.099130   -1.379834
  H     -0.439021    1.940005    0.141734
  H     -2.658955    1.085559    0.660012
  H     -3.432789   -0.486896    0.864765
  H     -2.197191    0.043438    2.022008
  H     -2.755124   -1.119702   -1.613546
  H     -0.968235   -1.077006   -2.012677
  H     -2.200870   -2.693296    0.336744
  H      0.485924   -2.088339    0.111733

 Total Charge           Charge          ....    0
 Multiplicity           Mult            ....    1
 Number of Electrons    NEL             ....   56
 Basis Dimension        Dim             ....  277

ORBITAL ENERGIES
----------------

  NO   OCC          E(Eh)            E(eV)
   0   2.0000     -20.572150      -559.7967
   1   2.0000     -20.548848      -559.1626
   2   2.0000     -11.290494      -307.2300
   3   2.0000     -11.279835      -306.9399
   4   2.0000     -11.279021      -306.9178
   5   2.0000     -11.226713      -305.4944
   6   2.0000     -11.223284      -305.4011
   7   2.0000      -1.400234       -38.1023
   8   2.0000      -1.355132       -36.8750
   9   2.0000      -1.124943       -30.6113
  10   2.0000      -0.975615       -26.5478
  11   2.0000      -0.941325       -25.6147
  12   2.0000      -0.826248       -22.4834
  13   2.0000      -0.776346       -21.1254
  14   2.0000      -0.708960       -19.2918
  15   2.0000      -0.677226       -18.4282
  16   2.0000      -0.645907       -17.5760
  17   2.0000      -0.625260       -17.0142
  18   2.0000      -0.600264       -16.3340
  19   2.0000      -0.573172       -15.5968
  20   2.0000      -0.565543       -15.3892
  21   2.0000      -0.556294       -15.1375
  22   2.0000      -0.539802       -14.6888
  23   2.0000      -0.527481       -14.3535
  24   2.0000      -0.500883       -13.6297
  25   2.0000      -0.459880       -12.5140
  26   2.0000      -0.395575       -10.7641
  27   2.0000      -0.381441       -10.3795
  28   0.0000       0.136179         3.7056
  29   0.0000       0.158906         4.3240
  30   0.0000       0.176172         4.7939
  31   0.0000       0.181917         4.9502
  32   0.0000       0.197567         5.3761

MULLIKEN ATOMIC CHARGES
-----------------------
   0 C :   -0.208994
   1 O :   -0.354274
   2 C :    0.218179
   3 C :   -0.416567
   4 C :   -0.301666
   5 C :    0.036604
   6 O :   -0.473981
   7 H :    0.142565
   8 H :    0.120144
   9 H :    0.120430
  10 H :    0.129832
  11 H :    0.130251
  12 H :    0.142136
  13 H :    0.126975
  14 H :    0.137538
  15 H :    0.116531
  16 H :    0.334298
Sum of atomic charges:    0.0000000

LOEWDIN ATOMIC CHARGES
----------------------
   0 C :   -0.340322
   1 O :    0.174645
   2 C :   -0.364834
   3 C :   -0.270981
   4 C :   -0.206636
   5 C :   -0.298998
   6 O :   -0.002110
   7 H :    0.114200
   8 H :    0.105033
   9 H :    0.105297
  10 H :    0.125218
  11 H :    0.133109
  12 H :    0.131744
  13 H :    0.133341
  14 H :    0.139975
  15 H :    0.138222
  16 H :    0.183096

  Mayer bond orders larger than 0.1
B(  0-C ,  1-O ) :   0.8885 B(  0-C ,  7-H ) :   0.9383 B(  0-C ,  8-H ) :   0.9350
B(  0-C ,  9-H ) :   0.9366 B(  1-O ,  2-C ) :   0.8912 B(  2-C ,  3-C ) :   0.9156
B(  2-C ,  4-C ) :   0.8898 B(  2-C ,  5-C ) :   0.8951 B(  3-C , 10-H ) :   0.9294
B(  3-C , 11-H ) :   0.9284 B(  3-C , 12-H ) :   0.9377 B(  4-C ,  5-C ) :   0.8415
B(  4-C , 13-H ) :   0.9079 B(  4-C , 14-H ) :   0.9144 B(  5-C ,  6-O ) :   1.0049
B(  5-C , 15-H ) :   0.9467 B(  6-O , 16-H ) :   0.8142

MP2 TOTAL ENERGY:     -346.261051693 Eh
FINAL SINGLE POINT ENERGY      -346.261051693460

DIPOLE MOMENT
-------------
                                X             Y             Z
Electronic contribution:      2.59871      -4.52323       0.47041
Nuclear contribution   :     -2.94239       5.55693      -0.59490
                        -----------------------------------------
Total Dipole Moment    :     -0.34368       1.03370      -0.12448
                        -----------------------------------------
Magnitude (a.u.)       :      1.09642
Magnitude (Debye)      :      2.78689

                             ****ORCA TERMINATED NORMALLY****
TOTAL RUN TIME: 0 days 0 hours 8 minutes 13 seconds 376 msec
