                         Program Version 3.0.3 - RELEASE   -
|  1> ! RI-MP2 RIJK def2-TZVP def2-TZVP/C def2-TZVP/JK TIGHTSCF
|  2> % maxcore 2000
|  3> % mp2 density relaxed end
|  4> *xyz 0 1
|  5>  N       -0.1039922795    -1.0743557393     0.5631529294
|  6>  C       -0.0572602724     0.0304616972     0.2279005486
|  7>  C        0.0252672681     1.4367914399    -0.1799765598
|  8>  C        1.4354747726     1.9656784844    -0.1443832809
|  9>  C        2.0812352987     2.5813315622    -1.1382336880
| 10>  C        3.4738197323     3.0232318359    -0.7387380058
| 11>  C        3.5512857513     2.6244010206     0.7323257059
| 12>  N        2.5665113064     3.3166316024     1.5909674359
| 13>  C        2.2804323114     1.9404224851     1.0903663573
| 14>  H       -0.3979054756     1.5367170801    -1.1847252061
| 15>  H       -0.6161824572     2.0176738207     0.4968549913
| 16>  H        1.6632557542     2.7854253712    -2.1183165872
| 17>  H        4.2436605395     2.5164759179    -1.3349188581
| 18>  H        3.6176204047     4.1013814406    -0.8763543959
| 19>  H        4.5008682153     2.3288562285     1.1642359838
| 20>  H        2.8859641539     3.2480002030     2.5562918933
| 21>  H        2.2184927263     1.1200452995     1.7972650264
| 22> *
| 23>
| 24>                          ****END OF INPUT****

CARTESIAN COORDINATES (ANGSTROEM)
---------------------------------
  N     -0.103992   -1.074356    0.563153
  C     -0.057260    0.030462    0.227901
  C      0.025267    1.436791   -0.179977
  C      1.435475    1.965678   -0.144383
  C      2.081235    2.581332   -1.138234
  C      3.473820    3.023232   -0.738738
  C      3.551286    2.624401    0.732326
  N      2.566511    3.316632    1.590967
  C      2.280432    1.940422    1.090366
  H     -0.397905    1.536717   -1.184725
  H     -0.616182    2.017674    0.496855
  H      1.663256    2.785425   -2.118317
  H      4.243661    2.516476   -1.334919
  H      3.617620    4.101381   -0.876354
  H      4.500868    2.328856    1.164236
  H      2.885964    3.248000    2.556292
  H      2.218493    1.120045    1.797265

 Total Charge           Charge          ....    0
 Multiplicity           Mult            ....    1
 Number of Electrons    NEL             ....   64
 Basis Dimension        Dim             ....  327

ORBITAL ENERGIES
----------------

  NO   OCC          E(Eh)            E(eV)
   0   2.0000     -15.569948      -423.6798
   1   2.0000     -15.569181      -423.6589
   2   2.0000     -11.290494      -307.2300
   3   2.0000     -11.275332      -306.8174
   4   2.0000     -11.271469      -306.7123
   5   2.0000     -11.270151      -306.6764
   6   2.0000     -11.254894      -306.2612
   7   2.0000     -11.243919      -305.9626
   8   2.0000     -11.241255      -305.8901
   9   2.0000      -1.281295       -34.8658
  10   2.0000      -1.220182       -33.2028
  11   2.0000      -1.119267       -30.4568
  12   2.0000      -1.048120       -28.5208
  13   2.0000      -0.951316       -25.8866
  14   2.0000      -0.900639       -24.5076
  15   2.0000      -0.797446       -21.6996
  16   2.0000      -0.743466       -20.2307
  17   2.0000      -0.729693       -19.8560
  18   2.0000      -0.695204       -18.9175
  19   2.0000      -0.644402       -17.5351
  20   2.0000      -0.637696       -17.3526
  21   2.0000      -0.588859       -16.0237
  22   2.0000      -0.564177       -15.3520
  23   2.0000      -0.552996       -15.0478
  24   2.0000      -0.544254       -14.8099
  25   2.0000      -0.529288       -14.4027
  26   2.0000      -0.494897       -13.4668
  27   2.0000      -0.478631       -13.0242
  28   2.0000      -0.461831       -12.5671
  29   2.0000      -0.459042       -12.4912
  30   2.0000      -0.393457       -10.7065
  31   2.0000      -0.356377        -9.6975
  32   0.0000       0.126645         3.4462
  33   0.0000       0.128280         3.4907
  34   0.0000       0.143054         3.8927
  35   0.0000       0.155971         4.2442
  36   0.0000       0.171371         4.6633

MULLIKEN ATOMIC CHARGES
-----------------------
   0 N :   -0.065330
   1 C :   -0.180165
   2 C :   -0.140998
   3 C :    0.078781
   4 C :   -0.248813
   5 C :   -0.097743
   6 C :   -0.091689
   7 N :   -0.381410
   8 C :   -0.099245
   9 H :    0.165193
  10 H :    0.172494
  11 H :    0.130760
  12 H :    0.119153
  13 H :    0.124650
  14 H :    0.139262
  15 H :    0.219059
  16 H :    0.156040
Sum of atomic charges:   -0.0000000

LOEWDIN ATOMIC CHARGES
----------------------
   0 N :    0.056013
   1 C :   -0.184760
   2 C :   -0.202400
   3 C :   -0.143613
   4 C :   -0.107601
   5 C :   -0.217175
   6 C :   -0.232050
   7 N :    0.005006
   8 C :   -0.203129
   9 H :    0.171515
  10 H :    0.175429
  11 H :    0.139937
  12 H :    0.144580
  13 H :    0.149142
  14 H :    0.135898
  15 H :    0.169275
  16 H :    0.143932

  Mayer bond orders larger than 0.1
B(  0-N ,  1-C ) :   2.8612 B(  1-C ,  2-C ) :   0.9255 B(  2-C ,  3-C ) :   0.9047
B(  2-C ,  9-H ) :   0.9167 B(  2-C , 10-H ) :   0.8986 B(  3-C ,  4-C ) :   1.7404
B(  3-C ,  8-C ) :   0.9048 B(  4-C ,  5-C ) :   0.9622 B(  4-C , 11-H ) :   0.9148
B(  5-C ,  6-C ) :   0.9587 B(  5-C , 12-H ) :   0.9095 B(  5-C , 13-H ) :   0.8992
B(  6-C ,  7-N ) :   0.9462 B(  6-C ,  8-C ) :   0.9274 B(  6-C , 14-H ) :   0.9226
B(  7-N ,  8-C ) :   0.9766 B(  7-N , 15-H ) :   0.8697 B(  8-C , 16-H ) :   0.9130

MP2 TOTAL ENERGY:     -380.187915963 Eh
FINAL SINGLE POINT ENERGY      -380.187915963355

DIPOLE MOMENT
-------------
                                X             Y             Z
Electronic contribution:     -3.47572      -4.00013       1.07558
Nuclear contribution   :      4.09922       5.02747      -1.32452
                        -----------------------------------------
Total Dipole Moment    :      0.62350       1.02735      -0.24893
                        -----------------------------------------
Magnitude (a.u.)       :      1.22726
Magnitude (Debye)      :      3.11944

                             ****ORCA TERMINATED NORMALLY****
TOTAL RUN TIME: 0 days 0 hours 16 minutes 16 seconds 98 msec
