                         Program Version 3.0.3 - RELEASE   -
|  1> ! RI-MP2 RIJK def2-TZVP def2-TZVP/C def2-TZVP/JK TIGHTSCF
|  2> % maxcore 2000
|  3> % mp2 density relaxed end
|  4> *xyz 0 1
|  5>  O        0.0173114665     1.3156863533     0.0077434461
|  6>  C       -0.0407497022    -0.0027862599     0.0014080437
|  7>  C       -1.2621717101    -0.6264984322     0.0051569252
|  8>  C       -1.5025577202    -2.0121362936    -0.0009374192
|  9>  C       -0.5922833845    -3.0391923513    -0.0110994325
| 10>  C        0.8216916702    -2.9353646448    -0.0174753422
| 11>  N        1.6492526222    -1.9249342680    -0.0170772451
| 12>  C        1.3447077225    -0.5956990024    -0.0098867192
| 13>  O        2.2350923037     0.2596113743    -0.0118240730
| 14>  H        1.0006843052     1.4790486524     0.0021073640
| 15>  H       -2.1232917511     0.0344745382     0.0133797923
| 16>  H       -2.5518681618    -2.2972619045     0.0030944793
| 17>  H       -0.9804983680    -4.0527878558    -0.0142899843
| 18>  H        1.3321755376    -3.9022915654    -0.0240690750
| 19> *
| 20>
| 21>                          ****END OF INPUT****

CARTESIAN COORDINATES (ANGSTROEM)
---------------------------------
  O      0.017311    1.315686    0.007743
  C     -0.040750   -0.002786    0.001408
  C     -1.262172   -0.626498    0.005157
  C     -1.502558   -2.012136   -0.000937
  C     -0.592283   -3.039192   -0.011099
  C      0.821692   -2.935365   -0.017475
  N      1.649253   -1.924934   -0.017077
  C      1.344708   -0.595699   -0.009887
  O      2.235092    0.259611   -0.011824
  H      1.000684    1.479049    0.002107
  H     -2.123292    0.034475    0.013380
  H     -2.551868   -2.297262    0.003094
  H     -0.980498   -4.052788   -0.014290
  H      1.332176   -3.902292   -0.024069

 Total Charge           Charge          ....    0
 Multiplicity           Mult            ....    1
 Number of Electrons    NEL             ....   64
 Basis Dimension        Dim             ....  309

ORBITAL ENERGIES
----------------

  NO   OCC          E(Eh)            E(eV)
   0   2.0000     -20.608247      -560.7789
   1   2.0000     -20.546908      -559.1098
   2   2.0000     -15.576731      -423.8644
   3   2.0000     -11.374587      -309.5183
   4   2.0000     -11.355699      -309.0043
   5   2.0000     -11.326998      -308.2233
   6   2.0000     -11.301363      -307.5257
   7   2.0000     -11.264360      -306.5188
   8   2.0000     -11.259371      -306.3831
   9   2.0000      -1.458571       -39.6897
  10   2.0000      -1.386451       -37.7272
  11   2.0000      -1.252127       -34.0721
  12   2.0000      -1.132576       -30.8190
  13   2.0000      -1.058296       -28.7977
  14   2.0000      -0.938936       -25.5498
  15   2.0000      -0.918682       -24.9986
  16   2.0000      -0.821715       -22.3600
  17   2.0000      -0.777784       -21.1646
  18   2.0000      -0.737049       -20.0561
  19   2.0000      -0.686317       -18.6756
  20   2.0000      -0.659417       -17.9436
  21   2.0000      -0.640389       -17.4259
  22   2.0000      -0.633782       -17.2461
  23   2.0000      -0.616365       -16.7722
  24   2.0000      -0.573269       -15.5994
  25   2.0000      -0.562537       -15.3074
  26   2.0000      -0.552080       -15.0229
  27   2.0000      -0.500541       -13.6204
  28   2.0000      -0.471736       -12.8366
  29   2.0000      -0.428144       -11.6504
  30   2.0000      -0.427065       -11.6210
  31   2.0000      -0.331933        -9.0324
  32   0.0000       0.028880         0.7859
  33   0.0000       0.062038         1.6881
  34   0.0000       0.132913         3.6167
  35   0.0000       0.163112         4.4385
  36   0.0000       0.177242         4.8230

MULLIKEN ATOMIC CHARGES
-----------------------
   0 O :   -0.375109
   1 C :    0.146112
   2 C :   -0.187518
   3 C :   -0.087312
   4 C :   -0.116942
   5 C :   -0.008529
   6 N :   -0.203786
   7 C :    0.273702
   8 O :   -0.372206
   9 H :    0.361786
  10 H :    0.149847
  11 H :    0.142057
  12 H :    0.142555
  13 H :    0.135345
Sum of atomic charges:    0.0000000

LOEWDIN ATOMIC CHARGES
----------------------
   0 O :    0.140255
   1 C :   -0.243825
   2 C :   -0.118998
   3 C :   -0.119817
   4 C :   -0.152281
   5 C :   -0.196787
   6 N :    0.169608
   7 C :   -0.411734
   8 O :    0.088764
   9 H :    0.211828
  10 H :    0.164811
  11 H :    0.160198
  12 H :    0.158125
  13 H :    0.149853

  Mayer bond orders larger than 0.1
B(  0-O ,  1-C ) :   1.1994 B(  0-O ,  9-H ) :   0.7235 B(  1-C ,  2-C ) :   1.4254
B(  1-C ,  7-C ) :   0.9696 B(  2-C ,  3-C ) :   1.2242 B(  2-C , 10-H ) :   0.9144
B(  3-C ,  4-C ) :   1.4649 B(  3-C , 11-H ) :   0.9237 B(  4-C ,  5-C ) :   1.1350
B(  4-C , 12-H ) :   0.9120 B(  5-C ,  6-N ) :   1.5611 B(  5-C , 13-H ) :   0.9504
B(  6-N ,  7-C ) :   1.2113 B(  7-C ,  8-O ) :   1.7007 B(  8-O ,  9-H ) :   0.1341

MP2 TOTAL ENERGY:     -435.993382668 Eh
FINAL SINGLE POINT ENERGY      -435.993382667981

DIPOLE MOMENT
-------------
                                X             Y             Z
Electronic contribution:      3.07066       2.65928      -0.00425
Nuclear contribution   :     -4.64880      -3.53288       0.00888
                        -----------------------------------------
Total Dipole Moment    :     -1.57814      -0.87361       0.00464
                        -----------------------------------------
Magnitude (a.u.)       :      1.80381
Magnitude (Debye)      :      4.58492

                             ****ORCA TERMINATED NORMALLY****
TOTAL RUN TIME: 0 days 0 hours 16 minutes 9 seconds 560 msec
