                         Program Version 3.0.3 - RELEASE   -
|  1> ! RI-MP2 RIJK def2-TZVP def2-TZVP/C def2-TZVP/JK TIGHTSCF
|  2> % maxcore 2000
|  3> % mp2 density relaxed end
|  4> *xyz 0 1
|  5>  N        0.0961674543     1.3345126323     0.1652838007
|  6>  C       -0.0691625799    -0.0186923873     0.0602580814
|  7>  C       -1.2328064697    -0.6989456604     0.0305532730
|  8>  C       -1.2313293561    -2.1397527773    -0.0033839925
|  9>  N       -2.2997856970    -2.8410229487    -0.0258483650
| 10>  N        0.0747707916    -2.6855620299    -0.0123954710
| 11>  C        1.2625020604    -2.0079987862    -0.0042602666
| 12>  O        2.3496524693    -2.5101852389    -0.0298128916
| 13>  O        1.1513235760    -0.6323280102     0.0373533151
| 14>  H        0.9840774809     1.6894314819    -0.1558311558
| 15>  H       -0.7007778145     1.9039152274    -0.0697938114
| 16>  H       -2.1840056115    -0.1882768427     0.0427128478
| 17>  H       -2.0986211952    -3.8412443341    -0.0507014111
| 18>  H        0.1776944714    -3.6895079960    -0.0422112128
| 19> *
| 20>
| 21>                          ****END OF INPUT****

CARTESIAN COORDINATES (ANGSTROEM)
---------------------------------
  N      0.096167    1.334513    0.165284
  C     -0.069163   -0.018692    0.060258
  C     -1.232806   -0.698946    0.030553
  C     -1.231329   -2.139753   -0.003384
  N     -2.299786   -2.841023   -0.025848
  N      0.074771   -2.685562   -0.012395
  C      1.262502   -2.007999   -0.004260
  O      2.349652   -2.510185   -0.029813
  O      1.151324   -0.632328    0.037353
  H      0.984077    1.689431   -0.155831
  H     -0.700778    1.903915   -0.069794
  H     -2.184006   -0.188277    0.042713
  H     -2.098621   -3.841244   -0.050701
  H      0.177694   -3.689508   -0.042211

 Total Charge           Charge          ....    0
 Multiplicity           Mult            ....    1
 Number of Electrons    NEL             ....   66
 Basis Dimension        Dim             ....  309

ORBITAL ENERGIES
----------------

  NO   OCC          E(Eh)            E(eV)
   0   2.0000     -20.653291      -562.0046
   1   2.0000     -20.553809      -559.2976
   2   2.0000     -15.629896      -425.3111
   3   2.0000     -15.608261      -424.7224
   4   2.0000     -15.536991      -422.7830
   5   2.0000     -11.440587      -311.3142
   6   2.0000     -11.388580      -309.8990
   7   2.0000     -11.344132      -308.6895
   8   2.0000     -11.232973      -305.6647
   9   2.0000      -1.514800       -41.2198
  10   2.0000      -1.407343       -38.2958
  11   2.0000      -1.302993       -35.4562
  12   2.0000      -1.257131       -34.2083
  13   2.0000      -1.182557       -32.1790
  14   2.0000      -1.062046       -28.8997
  15   2.0000      -0.933925       -25.4134
  16   2.0000      -0.882280       -24.0081
  17   2.0000      -0.802431       -21.8353
  18   2.0000      -0.771580       -20.9958
  19   2.0000      -0.738587       -20.0980
  20   2.0000      -0.706658       -19.2291
  21   2.0000      -0.702272       -19.1098
  22   2.0000      -0.668184       -18.1822
  23   2.0000      -0.655551       -17.8385
  24   2.0000      -0.593816       -16.1586
  25   2.0000      -0.585791       -15.9402
  26   2.0000      -0.582043       -15.8382
  27   2.0000      -0.548964       -14.9381
  28   2.0000      -0.498015       -13.5517
  29   2.0000      -0.490324       -13.3424
  30   2.0000      -0.440258       -11.9800
  31   2.0000      -0.411210       -11.1896
  32   2.0000      -0.336864        -9.1665
  33   0.0000       0.113702         3.0940
  34   0.0000       0.127130         3.4594
  35   0.0000       0.133294         3.6271
  36   0.0000       0.162038         4.4093
  37   0.0000       0.169633         4.6159

MULLIKEN ATOMIC CHARGES
-----------------------
   0 N :   -0.498014
   1 C :    0.369648
   2 C :   -0.286718
   3 C :    0.122599
   4 N :   -0.355327
   5 N :   -0.293347
   6 C :    0.328544
   7 O :   -0.301261
   8 O :   -0.221352
   9 H :    0.274808
  10 H :    0.266316
  11 H :    0.143848
  12 H :    0.197834
  13 H :    0.252423
Sum of atomic charges:    0.0000000

LOEWDIN ATOMIC CHARGES
----------------------
   0 N :   -0.024795
   1 C :   -0.339341
   2 C :   -0.167950
   3 C :   -0.363726
   4 N :   -0.069943
   5 N :    0.167684
   6 C :   -0.534906
   7 O :    0.121804
   8 O :    0.325854
   9 H :    0.181811
  10 H :    0.180591
  11 H :    0.161479
  12 H :    0.155256
  13 H :    0.206180

  Mayer bond orders larger than 0.1
B(  0-N ,  1-C ) :   1.1272 B(  0-N ,  9-H ) :   0.8571 B(  0-N , 10-H ) :   0.8706
B(  1-C ,  2-C ) :   1.5455 B(  1-C ,  8-O ) :   1.0111 B(  2-C ,  3-C ) :   1.0859
B(  2-C , 11-H ) :   0.9179 B(  3-C ,  4-N ) :   2.0324 B(  3-C ,  5-N ) :   0.9834
B(  4-N , 12-H ) :   0.8603 B(  5-N ,  6-C ) :   1.1331 B(  5-N , 13-H ) :   0.8561
B(  6-C ,  7-O ) :   2.0401 B(  6-C ,  8-O ) :   1.0133

MP2 TOTAL ENERGY:     -469.320219328 Eh
FINAL SINGLE POINT ENERGY      -469.320219328413

DIPOLE MOMENT
-------------
                                X             Y             Z
Electronic contribution:      3.57687      -1.52989       0.05890
Nuclear contribution   :     -3.80909       2.45487      -0.35564
                        -----------------------------------------
Total Dipole Moment    :     -0.23221       0.92498      -0.29674
                        -----------------------------------------
Magnitude (a.u.)       :      0.99878
Magnitude (Debye)      :      2.53869

                             ****ORCA TERMINATED NORMALLY****
TOTAL RUN TIME: 0 days 0 hours 13 minutes 33 seconds 956 msec
