                         Program Version 3.0.3 - RELEASE   -
|  1> ! RI-MP2 RIJK def2-TZVP def2-TZVP/C def2-TZVP/JK TIGHTSCF
|  2> % maxcore 2000
|  3> % mp2 density relaxed end
|  4> *xyz 0 1
|  5>  O        0.0831208237     1.5106451581     0.0576071234
|  6>  C       -0.0482308873     0.1259265930     0.3491654622
|  7>  C       -1.4504607281    -0.3681016983     0.0514404173
|  8>  C       -2.5711115390     0.5747022890    -0.2221681770
|  9>  N       -2.0778244263    -0.3178879115    -1.2662899651
| 10>  C       -1.3588397580     0.2590953211    -2.4028874114
| 11>  C       -2.3193900824     0.5779852333    -3.5250604964
| 12>  C       -2.9721270563     1.9352444791    -3.6118071544
| 13>  C       -1.9112272727     1.5410523738    -4.6099001041
| 14>  H        1.0141797071     1.7425202523     0.1237169008
| 15>  H        0.6790859430    -0.4673655589    -0.2287358345
| 16>  H        0.1533571176    -0.0688756679     1.4148870348
| 17>  H       -1.6684160055    -1.2910903410     0.5890912071
| 18>  H       -3.5716700673     0.3699021274     0.1506914666
| 19>  H       -2.3069572046     1.6271860038    -0.2849869717
| 20>  H       -0.7860161733     1.1588083665    -2.1340789279
| 21>  H       -0.6371034401    -0.4954448778    -2.7443273124
| 22>  H       -2.9304125567    -0.2662661293    -3.8309386263
| 23>  H       -4.0014951266     1.9935238101    -3.9478307015
| 24>  H       -2.7078522603     2.6743298495    -2.8625735283
| 25>  H       -0.9388722602     2.0165505340    -4.5274849276
| 26>  H       -2.2126931567     1.3270264036    -5.6293463732
| 27> *
| 28>
| 29>                          ****END OF INPUT****

CARTESIAN COORDINATES (ANGSTROEM)
---------------------------------
  O      0.083121    1.510645    0.057607
  C     -0.048231    0.125927    0.349165
  C     -1.450461   -0.368102    0.051440
  C     -2.571112    0.574702   -0.222168
  N     -2.077824   -0.317888   -1.266290
  C     -1.358840    0.259095   -2.402887
  C     -2.319390    0.577985   -3.525060
  C     -2.972127    1.935244   -3.611807
  C     -1.911227    1.541052   -4.609900
  H      1.014180    1.742520    0.123717
  H      0.679086   -0.467366   -0.228736
  H      0.153357   -0.068876    1.414887
  H     -1.668416   -1.291090    0.589091
  H     -3.571670    0.369902    0.150691
  H     -2.306957    1.627186   -0.284987
  H     -0.786016    1.158808   -2.134079
  H     -0.637103   -0.495445   -2.744327
  H     -2.930413   -0.266266   -3.830939
  H     -4.001495    1.993524   -3.947831
  H     -2.707852    2.674330   -2.862574
  H     -0.938872    2.016551   -4.527485
  H     -2.212693    1.327026   -5.629346

 Total Charge           Charge          ....    0
 Multiplicity           Mult            ....    1
 Number of Electrons    NEL             ....   70
 Basis Dimension        Dim             ....  357

ORBITAL ENERGIES
----------------

  NO   OCC          E(Eh)            E(eV)
   0   2.0000     -20.564215      -559.5807
   1   2.0000     -15.545244      -423.0076
   2   2.0000     -11.286051      -307.1091
   3   2.0000     -11.253142      -306.2136
   4   2.0000     -11.240496      -305.8694
   5   2.0000     -11.239735      -305.8487
   6   2.0000     -11.218522      -305.2715
   7   2.0000     -11.215628      -305.1928
   8   2.0000     -11.214463      -305.1610
   9   2.0000      -1.370191       -37.2848
  10   2.0000      -1.260504       -34.3001
  11   2.0000      -1.133100       -30.8332
  12   2.0000      -1.002127       -27.2693
  13   2.0000      -0.953722       -25.9521
  14   2.0000      -0.833105       -22.6699
  15   2.0000      -0.814057       -22.1516
  16   2.0000      -0.785978       -21.3876
  17   2.0000      -0.758130       -20.6298
  18   2.0000      -0.715074       -19.4581
  19   2.0000      -0.665015       -18.0960
  20   2.0000      -0.652310       -17.7503
  21   2.0000      -0.636777       -17.3276
  22   2.0000      -0.616786       -16.7836
  23   2.0000      -0.606750       -16.5105
  24   2.0000      -0.568245       -15.4627
  25   2.0000      -0.545544       -14.8450
  26   2.0000      -0.511108       -13.9080
  27   2.0000      -0.504647       -13.7322
  28   2.0000      -0.495316       -13.4782
  29   2.0000      -0.474190       -12.9034
  30   2.0000      -0.448464       -12.2033
  31   2.0000      -0.436399       -11.8750
  32   2.0000      -0.402399       -10.9498
  33   2.0000      -0.398829       -10.8527
  34   2.0000      -0.357995        -9.7416
  35   0.0000       0.127746         3.4761
  36   0.0000       0.160497         4.3673
  37   0.0000       0.166818         4.5393
  38   0.0000       0.175091         4.7645
  39   0.0000       0.181300         4.9334

MULLIKEN ATOMIC CHARGES
-----------------------
   0 O :   -0.474313
   1 C :   -0.059476
   2 C :   -0.052816
   3 C :   -0.187108
   4 N :   -0.219330
   5 C :   -0.162116
   6 C :   -0.069610
   7 C :   -0.266874
   8 C :   -0.268503
   9 H :    0.316434
  10 H :    0.107393
  11 H :    0.110099
  12 H :    0.118810
  13 H :    0.123676
  14 H :    0.135719
  15 H :    0.119944
  16 H :    0.111663
  17 H :    0.113900
  18 H :    0.126875
  19 H :    0.124661
  20 H :    0.123552
  21 H :    0.127421
Sum of atomic charges:    0.0000000

LOEWDIN ATOMIC CHARGES
----------------------
   0 O :   -0.046577
   1 C :   -0.336742
   2 C :   -0.271088
   3 C :   -0.239699
   4 N :    0.114833
   5 C :   -0.277441
   6 C :   -0.230295
   7 C :   -0.231955
   8 C :   -0.233769
   9 H :    0.173453
  10 H :    0.121961
  11 H :    0.123997
  12 H :    0.144668
  13 H :    0.121780
  14 H :    0.129191
  15 H :    0.133318
  16 H :    0.135294
  17 H :    0.147984
  18 H :    0.129556
  19 H :    0.131208
  20 H :    0.130791
  21 H :    0.129531

  Mayer bond orders larger than 0.1
B(  0-O ,  1-C ) :   0.9707 B(  0-O ,  9-H ) :   0.8452 B(  1-C ,  2-C ) :   0.9207
B(  1-C , 10-H ) :   0.9263 B(  1-C , 11-H ) :   0.9256 B(  2-C ,  3-C ) :   0.9522
B(  2-C ,  4-N ) :   0.9162 B(  2-C , 12-H ) :   0.9164 B(  3-C ,  4-N ) :   0.8904
B(  3-C , 13-H ) :   0.9202 B(  3-C , 14-H ) :   0.9136 B(  4-N ,  5-C ) :   0.8740
B(  5-C ,  6-C ) :   0.9384 B(  5-C , 15-H ) :   0.9094 B(  5-C , 16-H ) :   0.9224
B(  6-C ,  7-C ) :   0.8831 B(  6-C ,  8-C ) :   0.8763 B(  6-C , 17-H ) :   0.9323
B(  7-C ,  8-C ) :   0.9055 B(  7-C , 18-H ) :   0.9291 B(  7-C , 19-H ) :   0.9298
B(  8-C , 20-H ) :   0.9264 B(  8-C , 21-H ) :   0.9316

MP2 TOTAL ENERGY:     -403.598567436 Eh
FINAL SINGLE POINT ENERGY      -403.598567435718

DIPOLE MOMENT
-------------
                                X             Y             Z
Electronic contribution:      0.34777      -1.38860       2.73781
Nuclear contribution   :      0.47469       1.45038      -2.39105
                        -----------------------------------------
Total Dipole Moment    :      0.82246       0.06178       0.34676
                        -----------------------------------------
Magnitude (a.u.)       :      0.89471
Magnitude (Debye)      :      2.27416

                             ****ORCA TERMINATED NORMALLY****
TOTAL RUN TIME: 0 days 0 hours 27 minutes 29 seconds 679 msec
