                         Program Version 3.0.3 - RELEASE   -
|  1> ! RI-MP2 RIJK def2-TZVP def2-TZVP/C def2-TZVP/JK TIGHTSCF
|  2> % maxcore 2000
|  3> % mp2 density relaxed end
|  4> *xyz 0 1
|  5>  C        0.2232600529     1.5044440543    -0.3602252501
|  6>  C       -0.0992059500     0.1024516771     0.0765779609
|  7>  C       -0.2400917963    -0.1804188868     1.5513467706
|  8>  C        1.1282880611    -0.2248713177     2.2551124460
|  9>  N        1.9319433791    -1.2348949571     1.8149700547
| 10>  O        1.4475894266     0.5548484860     3.1289534323
| 11>  N       -0.2414932807    -0.9050719668    -0.6998502415
| 12>  O       -0.0702344619    -0.5660625523    -2.0513110098
| 13>  H        0.7766087358     2.0295830163     0.4226808876
| 14>  H        0.7963191721     1.5057791903    -1.2880416379
| 15>  H       -0.7029570101     2.0635148773    -0.5414081850
| 16>  H       -0.8184158271     0.6046115942     2.0431420016
| 17>  H       -0.7455349640    -1.1406100234     1.6855543623
| 18>  H        1.6902144063    -1.7581386634     0.9895528482
| 19>  H        2.8766970224    -1.2771644696     2.1601266831
| 20>  H       -0.2135114362    -1.4105815986    -2.4910955932
| 21> *
| 22>
| 23>                          ****END OF INPUT****

CARTESIAN COORDINATES (ANGSTROEM)
---------------------------------
  C      0.223260    1.504444   -0.360225
  C     -0.099206    0.102452    0.076578
  C     -0.240092   -0.180419    1.551347
  C      1.128288   -0.224871    2.255112
  N      1.931943   -1.234895    1.814970
  O      1.447589    0.554848    3.128953
  N     -0.241493   -0.905072   -0.699850
  O     -0.070234   -0.566063   -2.051311
  H      0.776609    2.029583    0.422681
  H      0.796319    1.505779   -1.288042
  H     -0.702957    2.063515   -0.541408
  H     -0.818416    0.604612    2.043142
  H     -0.745535   -1.140610    1.685554
  H      1.690214   -1.758139    0.989553
  H      2.876697   -1.277164    2.160127
  H     -0.213511   -1.410582   -2.491096

 Total Charge           Charge          ....    0
 Multiplicity           Mult            ....    1
 Number of Electrons    NEL             ....   62
 Basis Dimension        Dim             ....  296

ORBITAL ENERGIES
----------------

  NO   OCC          E(Eh)            E(eV)
   0   2.0000     -20.601192      -560.5869
   1   2.0000     -20.524338      -558.4956
   2   2.0000     -15.626563      -425.2204
   3   2.0000     -15.583775      -424.0561
   4   2.0000     -11.358030      -309.0677
   5   2.0000     -11.297642      -307.4245
   6   2.0000     -11.253414      -306.2210
   7   2.0000     -11.237806      -305.7962
   8   2.0000      -1.429272       -38.8925
   9   2.0000      -1.387752       -37.7626
  10   2.0000      -1.217677       -33.1347
  11   2.0000      -1.181540       -32.1514
  12   2.0000      -1.021792       -27.8044
  13   2.0000      -0.982906       -26.7462
  14   2.0000      -0.811849       -22.0915
  15   2.0000      -0.756457       -20.5842
  16   2.0000      -0.726585       -19.7714
  17   2.0000      -0.708260       -19.2727
  18   2.0000      -0.675214       -18.3735
  19   2.0000      -0.657906       -17.9025
  20   2.0000      -0.623919       -16.9777
  21   2.0000      -0.594474       -16.1764
  22   2.0000      -0.588776       -16.0214
  23   2.0000      -0.567335       -15.4380
  24   2.0000      -0.561659       -15.2835
  25   2.0000      -0.558632       -15.2011
  26   2.0000      -0.523084       -14.2338
  27   2.0000      -0.450141       -12.2490
  28   2.0000      -0.438515       -11.9326
  29   2.0000      -0.419292       -11.4095
  30   2.0000      -0.388860       -10.5814
  31   0.0000       0.126771         3.4496
  32   0.0000       0.132563         3.6072
  33   0.0000       0.149410         4.0656
  34   0.0000       0.163438         4.4474
  35   0.0000       0.184855         5.0302

MULLIKEN ATOMIC CHARGES
-----------------------
   0 C :   -0.435573
   1 C :    0.077573
   2 C :   -0.204376
   3 C :    0.234746
   4 N :   -0.472800
   5 O :   -0.338756
   6 N :   -0.130360
   7 O :   -0.371586
   8 H :    0.162221
   9 H :    0.163120
  10 H :    0.154462
  11 H :    0.144488
  12 H :    0.149967
  13 H :    0.271376
  14 H :    0.257987
  15 H :    0.337511
Sum of atomic charges:    0.0000000

LOEWDIN ATOMIC CHARGES
----------------------
   0 C :   -0.276482
   1 C :   -0.308527
   2 C :   -0.198301
   3 C :   -0.478652
   4 N :   -0.013048
   5 O :    0.085825
   6 N :    0.008814
   7 O :   -0.075101
   8 H :    0.140384
   9 H :    0.136821
  10 H :    0.143072
  11 H :    0.158452
  12 H :    0.158389
  13 H :    0.174733
  14 H :    0.173639
  15 H :    0.169981

  Mayer bond orders larger than 0.1
B(  0-C ,  1-C ) :   0.9252 B(  0-C ,  8-H ) :   0.9283 B(  0-C ,  9-H ) :   0.9256
B(  0-C , 10-H ) :   0.9158 B(  1-C ,  2-C ) :   0.9034 B(  1-C ,  6-N ) :   1.7984
B(  2-C ,  3-C ) :   0.8924 B(  2-C , 11-H ) :   0.9222 B(  2-C , 12-H ) :   0.9159
B(  3-C ,  4-N ) :   1.1555 B(  3-C ,  5-O ) :   1.9960 B(  4-N , 13-H ) :   0.8576
B(  4-N , 14-H ) :   0.8614 B(  6-N ,  7-O ) :   0.8150 B(  7-O , 15-H ) :   0.8439

MP2 TOTAL ENERGY:     -416.393986007 Eh
FINAL SINGLE POINT ENERGY      -416.393986007387

DIPOLE MOMENT
-------------
                                X             Y             Z
Electronic contribution:      0.54651      -2.25337       1.26426
Nuclear contribution   :     -0.53767       1.54813      -2.26201
                        -----------------------------------------
Total Dipole Moment    :      0.00884      -0.70524      -0.99775
                        -----------------------------------------
Magnitude (a.u.)       :      1.22186
Magnitude (Debye)      :      3.10571

                             ****ORCA TERMINATED NORMALLY****
TOTAL RUN TIME: 0 days 0 hours 10 minutes 58 seconds 150 msec
