                         Program Version 3.0.3 - RELEASE   -
|  1> ! RI-MP2 RIJK def2-TZVP def2-TZVP/C def2-TZVP/JK TIGHTSCF
|  2> % maxcore 2000
|  3> % mp2 density relaxed end
|  4> *xyz 0 1
|  5>  O        0.0932495007     1.3324200632     0.3139033583
|  6>  C       -0.0688677456    -0.0473156551     0.1490876902
|  7>  C       -1.4476808488    -0.3442783324    -0.4190897385
|  8>  O       -2.2633428579     0.5066026252    -0.6659098450
|  9>  C       -1.7532939116    -1.8284596006    -0.6331129305
| 10>  C       -3.0029564364    -2.2305090679     0.1397099421
| 11>  O       -3.0794439742    -3.2163774695     0.8223955880
| 12>  H        0.9690402445     1.4918018953     0.6776309510
| 13>  H        0.6712473462    -0.4926185784    -0.5405593677
| 14>  H        0.0176475135    -0.6123797317     1.0953700733
| 15>  H       -1.9800504956    -1.9533759684    -1.7001524323
| 16>  H       -0.9279659970    -2.4916264314    -0.3640189298
| 17>  H       -3.8490207278    -1.5231032883     0.0197544110
| 18> *
| 19>
| 20>                          ****END OF INPUT****

CARTESIAN COORDINATES (ANGSTROEM)
---------------------------------
  O      0.093250    1.332420    0.313903
  C     -0.068868   -0.047316    0.149088
  C     -1.447681   -0.344278   -0.419090
  O     -2.263343    0.506603   -0.665910
  C     -1.753294   -1.828460   -0.633113
  C     -3.002956   -2.230509    0.139710
  O     -3.079444   -3.216377    0.822396
  H      0.969040    1.491802    0.677631
  H      0.671247   -0.492619   -0.540559
  H      0.017648   -0.612380    1.095370
  H     -1.980050   -1.953376   -1.700152
  H     -0.927966   -2.491626   -0.364019
  H     -3.849021   -1.523103    0.019754

 Total Charge           Charge          ....    0
 Multiplicity           Mult            ....    1
 Number of Electrons    NEL             ....   54
 Basis Dimension        Dim             ....  253

ORBITAL ENERGIES
----------------

  NO   OCC          E(Eh)            E(eV)
   0   2.0000     -20.581284      -560.0452
   1   2.0000     -20.570872      -559.7619
   2   2.0000     -20.565535      -559.6167
   3   2.0000     -11.353569      -308.9463
   4   2.0000     -11.347732      -308.7875
   5   2.0000     -11.314102      -307.8724
   6   2.0000     -11.266520      -306.5776
   7   2.0000      -1.418866       -38.6093
   8   2.0000      -1.410100       -38.3708
   9   2.0000      -1.384117       -37.6637
  10   2.0000      -1.074964       -29.2512
  11   2.0000      -0.988252       -26.8917
  12   2.0000      -0.825800       -22.4712
  13   2.0000      -0.764794       -20.8111
  14   2.0000      -0.737826       -20.0773
  15   2.0000      -0.691878       -18.8270
  16   2.0000      -0.674687       -18.3592
  17   2.0000      -0.662491       -18.0273
  18   2.0000      -0.638143       -17.3648
  19   2.0000      -0.631738       -17.1905
  20   2.0000      -0.591565       -16.0973
  21   2.0000      -0.550438       -14.9782
  22   2.0000      -0.533205       -14.5093
  23   2.0000      -0.521388       -14.1877
  24   2.0000      -0.475359       -12.9352
  25   2.0000      -0.449719       -12.2375
  26   2.0000      -0.420349       -11.4383
  27   0.0000       0.103046         2.8040
  28   0.0000       0.119516         3.2522
  29   0.0000       0.136784         3.7221
  30   0.0000       0.144457         3.9309
  31   0.0000       0.173981         4.7343

MULLIKEN ATOMIC CHARGES
-----------------------
   0 O :   -0.433517
   1 C :   -0.113555
   2 C :    0.221652
   3 O :   -0.262476
   4 C :   -0.218511
   5 C :    0.085898
   6 O :   -0.258292
   7 H :    0.322703
   8 H :    0.124360
   9 H :    0.127399
  10 H :    0.155272
  11 H :    0.138278
  12 H :    0.110789
Sum of atomic charges:    0.0000000

LOEWDIN ATOMIC CHARGES
----------------------
   0 O :   -0.014021
   1 C :   -0.342346
   2 C :   -0.333252
   3 O :    0.177971
   4 C :   -0.232836
   5 C :   -0.283780
   6 O :    0.139156
   7 H :    0.180177
   8 H :    0.133530
   9 H :    0.135293
  10 H :    0.169919
  11 H :    0.149115
  12 H :    0.121074

  Mayer bond orders larger than 0.1
B(  0-O ,  1-C ) :   1.0470 B(  0-O ,  7-H ) :   0.8422 B(  1-C ,  2-C ) :   0.9052
B(  1-C ,  8-H ) :   0.9116 B(  1-C ,  9-H ) :   0.9094 B(  2-C ,  3-O ) :   1.9842
B(  2-C ,  4-C ) :   0.8449 B(  4-C ,  5-C ) :   0.8797 B(  4-C , 10-H ) :   0.8930
B(  4-C , 11-H ) :   0.9074 B(  5-C ,  6-O ) :   1.9894 B(  5-C , 12-H ) :   0.9257

MP2 TOTAL ENERGY:     -381.003908140 Eh
FINAL SINGLE POINT ENERGY      -381.003908139613

DIPOLE MOMENT
-------------
                                X             Y             Z
Electronic contribution:     -2.91416       0.49485       0.40444
Nuclear contribution   :      4.27864      -0.74862      -0.61800
                        -----------------------------------------
Total Dipole Moment    :      1.36448      -0.25377      -0.21356
                        -----------------------------------------
Magnitude (a.u.)       :      1.40421
Magnitude (Debye)      :      3.56923

                             ****ORCA TERMINATED NORMALLY****
TOTAL RUN TIME: 0 days 0 hours 6 minutes 22 seconds 801 msec
