                         Program Version 3.0.3 - RELEASE   -
|  1> ! RI-MP2 RIJK def2-TZVP def2-TZVP/C def2-TZVP/JK TIGHTSCF
|  2> % maxcore 2000
|  3> % mp2 density relaxed end
|  4> *xyz 0 1
|  5>  C       -0.1038128861     1.5452828518     0.0661754722
|  6>  C        0.0363022801     0.0479413204     0.0260867318
|  7>  C       -0.8151221921    -0.8437519575     0.8934724355
|  8>  C        0.6802000989    -0.9141578272     1.0300490598
|  9>  C        1.2478562464    -1.7696558760    -0.1049662295
| 10>  C        0.6461427799    -0.7622670035    -1.1544842373
| 11>  C       -0.3313120033    -1.3324972660    -2.1829369824
| 12>  C        1.7619552048     0.0116723429    -1.8610551983
| 13>  H        0.8172395255     2.0542183376    -0.2367522359
| 14>  H       -0.9061293289     1.8911959959    -0.5978399378
| 15>  H       -0.3514504333     1.8846484256     1.0775973796
| 16>  H       -1.3371939324    -0.3279606942     1.6940539587
| 17>  H       -1.3668437550    -1.6875328590     0.4855049112
| 18>  H        1.1822887038    -0.6896553402     1.9642633498
| 19>  H        2.3397268569    -1.7993803856    -0.1402977015
| 20>  H        0.8712475225    -2.7979172143    -0.1504701522
| 21>  H       -1.1394357680    -1.9002480870    -1.7133461924
| 22>  H       -0.7874880334    -0.5325117693    -2.7779385560
| 23>  H        0.1847368829    -2.0057961803    -2.8775366922
| 24>  H        2.3166855104    -0.6498501552    -2.5360297974
| 25>  H        1.3627363255     0.8381288503    -2.4601144979
| 26>  H        2.4750303650     0.4310399409    -1.1434214380
| 27> *
| 28>
| 29>                          ****END OF INPUT****

CARTESIAN COORDINATES (ANGSTROEM)
---------------------------------
  C     -0.103813    1.545283    0.066175
  C      0.036302    0.047941    0.026087
  C     -0.815122   -0.843752    0.893472
  C      0.680200   -0.914158    1.030049
  C      1.247856   -1.769656   -0.104966
  C      0.646143   -0.762267   -1.154484
  C     -0.331312   -1.332497   -2.182937
  C      1.761955    0.011672   -1.861055
  H      0.817240    2.054218   -0.236752
  H     -0.906129    1.891196   -0.597840
  H     -0.351450    1.884648    1.077597
  H     -1.337194   -0.327961    1.694054
  H     -1.366844   -1.687533    0.485505
  H      1.182289   -0.689655    1.964263
  H      2.339727   -1.799380   -0.140298
  H      0.871248   -2.797917   -0.150470
  H     -1.139436   -1.900248   -1.713346
  H     -0.787488   -0.532512   -2.777939
  H      0.184737   -2.005796   -2.877537
  H      2.316686   -0.649850   -2.536030
  H      1.362736    0.838129   -2.460114
  H      2.475030    0.431040   -1.143421

 Total Charge           Charge          ....    0
 Multiplicity           Mult            ....    1
 Number of Electrons    NEL             ....   62
 Basis Dimension        Dim             ....  332

ORBITAL ENERGIES
----------------

  NO   OCC          E(Eh)            E(eV)
   0   2.0000     -11.233037      -305.6665
   1   2.0000     -11.229084      -305.5589
   2   2.0000     -11.221905      -305.3636
   3   2.0000     -11.216879      -305.2268
   4   2.0000     -11.215318      -305.1843
   5   2.0000     -11.214055      -305.1500
   6   2.0000     -11.209539      -305.0271
   7   2.0000     -11.206505      -304.9445
   8   2.0000      -1.188257       -32.3341
   9   2.0000      -1.041252       -28.3339
  10   2.0000      -0.978875       -26.6366
  11   2.0000      -0.932495       -25.3745
  12   2.0000      -0.910780       -24.7836
  13   2.0000      -0.813433       -22.1346
  14   2.0000      -0.780853       -21.2481
  15   2.0000      -0.676273       -18.4023
  16   2.0000      -0.651695       -17.7335
  17   2.0000      -0.626138       -17.0381
  18   2.0000      -0.605548       -16.4778
  19   2.0000      -0.570269       -15.5178
  20   2.0000      -0.564284       -15.3550
  21   2.0000      -0.550663       -14.9843
  22   2.0000      -0.541091       -14.7238
  23   2.0000      -0.527424       -14.3519
  24   2.0000      -0.518779       -14.1167
  25   2.0000      -0.509858       -13.8739
  26   2.0000      -0.476313       -12.9611
  27   2.0000      -0.442394       -12.0381
  28   2.0000      -0.423888       -11.5346
  29   2.0000      -0.391627       -10.6567
  30   2.0000      -0.360074        -9.7981
  31   0.0000       0.133701         3.6382
  32   0.0000       0.162525         4.4225
  33   0.0000       0.170293         4.6339
  34   0.0000       0.173924         4.7327
  35   0.0000       0.193993         5.2788

MULLIKEN ATOMIC CHARGES
-----------------------
   0 C :   -0.423275
   1 C :    0.054126
   2 C :   -0.294124
   3 C :   -0.142572
   4 C :   -0.256407
   5 C :    0.163758
   6 C :   -0.402673
   7 C :   -0.475519
   8 H :    0.134803
   9 H :    0.135127
  10 H :    0.129641
  11 H :    0.125264
  12 H :    0.120364
  13 H :    0.122889
  14 H :    0.118174
  15 H :    0.107393
  16 H :    0.121355
  17 H :    0.126189
  18 H :    0.128550
  19 H :    0.135446
  20 H :    0.132446
  21 H :    0.139047
Sum of atomic charges:   -0.0000000

LOEWDIN ATOMIC CHARGES
----------------------
   0 C :   -0.274696
   1 C :   -0.192947
   2 C :   -0.191073
   3 C :   -0.167716
   4 C :   -0.175174
   5 C :   -0.256085
   6 C :   -0.272534
   7 C :   -0.270790
   8 H :    0.126125
   9 H :    0.128353
  10 H :    0.129986
  11 H :    0.138876
  12 H :    0.128412
  13 H :    0.132458
  14 H :    0.134973
  15 H :    0.128872
  16 H :    0.122332
  17 H :    0.125970
  18 H :    0.125522
  19 H :    0.126352
  20 H :    0.124910
  21 H :    0.127874

  Mayer bond orders larger than 0.1
B(  0-C ,  1-C ) :   0.8859 B(  0-C ,  8-H ) :   0.9404 B(  0-C ,  9-H ) :   0.9405
B(  0-C , 10-H ) :   0.9354 B(  1-C ,  2-C ) :   0.8843 B(  1-C ,  3-C ) :   0.8389
B(  1-C ,  5-C ) :   0.9199 B(  2-C ,  3-C ) :   0.8764 B(  2-C , 11-H ) :   0.9334
B(  2-C , 12-H ) :   0.9137 B(  3-C ,  4-C ) :   0.9489 B(  3-C , 13-H ) :   0.9206
B(  4-C ,  5-C ) :   0.9492 B(  4-C , 14-H ) :   0.9244 B(  4-C , 15-H ) :   0.9036
B(  5-C ,  6-C ) :   0.9152 B(  5-C ,  7-C ) :   0.8643 B(  6-C , 16-H ) :   0.9327
B(  6-C , 17-H ) :   0.9371 B(  6-C , 18-H ) :   0.9368 B(  7-C , 19-H ) :   0.9367
B(  7-C , 20-H ) :   0.9390 B(  7-C , 21-H ) :   0.9396

MP2 TOTAL ENERGY:     -312.477555185 Eh
FINAL SINGLE POINT ENERGY      -312.477555184716

DIPOLE MOMENT
-------------
                                X             Y             Z
Electronic contribution:     -0.12100      -1.30881       2.98023
Nuclear contribution   :      0.16139       1.42247      -2.99313
                        -----------------------------------------
Total Dipole Moment    :      0.04039       0.11366      -0.01289
                        -----------------------------------------
Magnitude (a.u.)       :      0.12131
Magnitude (Debye)      :      0.30834

                             ****ORCA TERMINATED NORMALLY****
TOTAL RUN TIME: 0 days 0 hours 16 minutes 10 seconds 914 msec
