                         Program Version 3.0.3 - RELEASE   -
|  1> ! RI-MP2 RIJK def2-TZVP def2-TZVP/C def2-TZVP/JK TIGHTSCF
|  2> % maxcore 2000
|  3> % mp2 density relaxed end
|  4> *xyz 0 1
|  5>  C       -0.0101715544     1.5869935766     0.0123624419
|  6>  C        0.0820968556     0.0617454288     0.0569273332
|  7>  C        0.6789064120    -0.5229735308    -1.2286040491
|  8>  C        0.9524224441    -2.0210447509    -1.0352353219
|  9>  O        1.7741307381    -2.2307226062     0.1332838847
| 10>  C        1.5858307507    -1.3635712009     1.1648646484
| 11>  N        0.8548918097    -0.3375978945     1.2370952545
| 12>  C       -0.2744184080    -2.8122388271    -0.9361669660
| 13>  C       -1.2889283115    -3.4525349763    -0.8722221950
| 14>  H        0.9838323357     2.0306227137    -0.1072439095
| 15>  H       -0.6390127642     1.9171586832    -0.8209330135
| 16>  H       -0.4357460802     1.9636308994     0.9458146482
| 17>  H       -0.9324847289    -0.3407120155     0.1831421922
| 18>  H        0.0152606537    -0.3788358329    -2.0857193886
| 19>  H        1.6313946523    -0.0284968905    -1.4518888516
| 20>  H        1.5557538888    -2.4050338150    -1.8640232563
| 21>  H        2.2018159258    -1.6741913475     2.0071051530
| 22>  H       -2.1813105992    -4.0257319535    -0.8114545845
| 23> *
| 24>
| 25>                          ****END OF INPUT****

CARTESIAN COORDINATES (ANGSTROEM)
---------------------------------
  C     -0.010172    1.586994    0.012362
  C      0.082097    0.061745    0.056927
  C      0.678906   -0.522974   -1.228604
  C      0.952422   -2.021045   -1.035235
  O      1.774131   -2.230723    0.133284
  C      1.585831   -1.363571    1.164865
  N      0.854892   -0.337598    1.237095
  C     -0.274418   -2.812239   -0.936167
  C     -1.288928   -3.452535   -0.872222
  H      0.983832    2.030623   -0.107244
  H     -0.639013    1.917159   -0.820933
  H     -0.435746    1.963631    0.945815
  H     -0.932485   -0.340712    0.183142
  H      0.015261   -0.378836   -2.085719
  H      1.631395   -0.028497   -1.451889
  H      1.555754   -2.405034   -1.864023
  H      2.201816   -1.674191    2.007105
  H     -2.181311   -4.025732   -0.811455

 Total Charge           Charge          ....    0
 Multiplicity           Mult            ....    1
 Number of Electrons    NEL             ....   66
 Basis Dimension        Dim             ....  333

ORBITAL ENERGIES
----------------

  NO   OCC          E(Eh)            E(eV)
   0   2.0000     -20.600863      -560.5780
   1   2.0000     -15.543170      -422.9512
   2   2.0000     -11.331275      -308.3397
   3   2.0000     -11.328651      -308.2683
   4   2.0000     -11.262513      -306.4685
   5   2.0000     -11.244244      -305.9714
   6   2.0000     -11.241806      -305.9051
   7   2.0000     -11.238653      -305.8193
   8   2.0000     -11.213657      -305.1391
   9   2.0000      -1.431651       -38.9572
  10   2.0000      -1.219898       -33.1951
  11   2.0000      -1.105724       -30.0883
  12   2.0000      -1.037726       -28.2379
  13   2.0000      -0.986187       -26.8355
  14   2.0000      -0.910316       -24.7710
  15   2.0000      -0.859040       -23.3757
  16   2.0000      -0.785462       -21.3735
  17   2.0000      -0.719449       -19.5772
  18   2.0000      -0.707716       -19.2579
  19   2.0000      -0.684261       -18.6197
  20   2.0000      -0.657133       -17.8815
  21   2.0000      -0.629511       -17.1299
  22   2.0000      -0.600527       -16.3412
  23   2.0000      -0.579529       -15.7698
  24   2.0000      -0.550881       -14.9902
  25   2.0000      -0.536633       -14.6025
  26   2.0000      -0.523869       -14.2552
  27   2.0000      -0.495169       -13.4742
  28   2.0000      -0.487926       -13.2771
  29   2.0000      -0.413891       -11.2625
  30   2.0000      -0.408104       -11.1051
  31   2.0000      -0.396422       -10.7872
  32   2.0000      -0.389665       -10.6033
  33   0.0000       0.131983         3.5914
  34   0.0000       0.147991         4.0270
  35   0.0000       0.156435         4.2568
  36   0.0000       0.162943         4.4339
  37   0.0000       0.171277         4.6607

MULLIKEN ATOMIC CHARGES
-----------------------
   0 C :   -0.362495
   1 C :    0.012314
   2 C :   -0.279232
   3 C :    0.089427
   4 O :   -0.261410
   5 C :    0.077313
   6 N :   -0.269614
   7 C :   -0.097962
   8 C :   -0.141732
   9 H :    0.119882
  10 H :    0.119968
  11 H :    0.142095
  12 H :    0.113250
  13 H :    0.136791
  14 H :    0.132550
  15 H :    0.134825
  16 H :    0.137386
  17 H :    0.196644
Sum of atomic charges:    0.0000000

LOEWDIN ATOMIC CHARGES
----------------------
   0 C :   -0.289761
   1 C :   -0.313657
   2 C :   -0.211391
   3 C :   -0.273727
   4 O :    0.245082
   5 C :   -0.352225
   6 N :    0.095239
   7 C :   -0.082953
   8 C :   -0.075948
   9 H :    0.123975
  10 H :    0.122447
  11 H :    0.128040
  12 H :    0.155601
  13 H :    0.151097
  14 H :    0.149044
  15 H :    0.164818
  16 H :    0.134476
  17 H :    0.129842

  Mayer bond orders larger than 0.1
B(  0-C ,  1-C ) :   0.9203 B(  0-C ,  9-H ) :   0.9297 B(  0-C , 10-H ) :   0.9377
B(  0-C , 11-H ) :   0.9390 B(  1-C ,  2-C ) :   0.9359 B(  1-C ,  6-N ) :   0.8991
B(  1-C , 12-H ) :   0.9187 B(  2-C ,  3-C ) :   0.9224 B(  2-C , 13-H ) :   0.9181
B(  2-C , 14-H ) :   0.9195 B(  3-C ,  4-O ) :   0.8460 B(  3-C ,  7-C ) :   1.1130
B(  3-C , 15-H ) :   0.9176 B(  4-O ,  5-C ) :   1.0629 B(  5-C ,  6-N ) :   1.8577
B(  5-C , 16-H ) :   0.9232 B(  7-C ,  8-C ) :   2.6070 B(  8-C , 17-H ) :   0.8953

MP2 TOTAL ENERGY:     -401.228827816 Eh
FINAL SINGLE POINT ENERGY      -401.228827815954

DIPOLE MOMENT
-------------
                                X             Y             Z
Electronic contribution:      1.99103      -7.30898       1.67916
Nuclear contribution   :     -2.25611       7.22287      -2.46604
                        -----------------------------------------
Total Dipole Moment    :     -0.26508      -0.08610      -0.78689
                        -----------------------------------------
Magnitude (a.u.)       :      0.83479
Magnitude (Debye)      :      2.12186

                             ****ORCA TERMINATED NORMALLY****
TOTAL RUN TIME: 0 days 0 hours 19 minutes 48 seconds 388 msec
