                         Program Version 3.0.3 - RELEASE   -
|  1> ! RI-MP2 RIJK def2-TZVP def2-TZVP/C def2-TZVP/JK TIGHTSCF
|  2> % maxcore 2000
|  3> % mp2 density relaxed end
|  4> *xyz 0 1
|  5>  C       -0.0683038665     1.4850254339     0.0327094594
|  6>  C       -0.0228041244     0.0303932999    -0.0193255115
|  7>  C        0.0303784746    -1.1718150652    -0.0639453413
|  8>  C        0.0649167030    -2.6288219378    -0.1163247823
|  9>  C       -1.3377488028    -3.2525015137    -0.0294111030
| 10>  C       -1.3093273005    -4.7734035927    -0.1141179935
| 11>  O       -0.3037296005    -5.3939947740    -0.3529548810
| 12>  C       -2.6525642109    -5.4590314815     0.1272109046
| 13>  O       -2.5233022475    -6.8413306816    -0.0707846876
| 14>  H        0.4941656821     1.8716080360     0.8899477962
| 15>  H        0.3610997776     1.9304979782    -0.8716288770
| 16>  H       -1.0977042915     1.8498330033     0.1226834408
| 17>  H        0.5470107390    -2.9698026341    -1.0390886074
| 18>  H        0.6837573749    -3.0251494335     0.6972006924
| 19>  H       -1.8399587498    -2.9479877885     0.8973655636
| 20>  H       -1.9712431980    -2.8721767650    -0.8415540503
| 21>  H       -2.9687947069    -5.2027458865     1.1541171959
| 22>  H       -3.3939768266    -4.9967402279    -0.5477993770
| 23>  H       -3.3767071250    -7.2485959694     0.1033704891
| 24> *
| 25>
| 26>                          ****END OF INPUT****

CARTESIAN COORDINATES (ANGSTROEM)
---------------------------------
  C     -0.068304    1.485025    0.032709
  C     -0.022804    0.030393   -0.019326
  C      0.030378   -1.171815   -0.063945
  C      0.064917   -2.628822   -0.116325
  C     -1.337749   -3.252502   -0.029411
  C     -1.309327   -4.773404   -0.114118
  O     -0.303730   -5.393995   -0.352955
  C     -2.652564   -5.459031    0.127211
  O     -2.523302   -6.841331   -0.070785
  H      0.494166    1.871608    0.889948
  H      0.361100    1.930498   -0.871629
  H     -1.097704    1.849833    0.122683
  H      0.547011   -2.969803   -1.039089
  H      0.683757   -3.025149    0.697201
  H     -1.839959   -2.947988    0.897366
  H     -1.971243   -2.872177   -0.841554
  H     -2.968795   -5.202746    1.154117
  H     -3.393977   -4.996740   -0.547799
  H     -3.376707   -7.248596    0.103370

 Total Charge           Charge          ....    0
 Multiplicity           Mult            ....    1
 Number of Electrons    NEL             ....   68
 Basis Dimension        Dim             ....  339

ORBITAL ENERGIES
----------------

  NO   OCC          E(Eh)            E(eV)
   0   2.0000     -20.570116      -559.7413
   1   2.0000     -20.547956      -559.1383
   2   2.0000     -11.332472      -308.3722
   3   2.0000     -11.300440      -307.5006
   4   2.0000     -11.250480      -306.1411
   5   2.0000     -11.248930      -306.0990
   6   2.0000     -11.246158      -306.0235
   7   2.0000     -11.221873      -305.3627
   8   2.0000     -11.217116      -305.2332
   9   2.0000      -1.400920       -38.1210
  10   2.0000      -1.370025       -37.2803
  11   2.0000      -1.093234       -29.7484
  12   2.0000      -1.045958       -28.4620
  13   2.0000      -1.000711       -27.2307
  14   2.0000      -0.947465       -25.7818
  15   2.0000      -0.881830       -23.9958
  16   2.0000      -0.743084       -20.2203
  17   2.0000      -0.721583       -19.6353
  18   2.0000      -0.677884       -18.4461
  19   2.0000      -0.668197       -18.1826
  20   2.0000      -0.640042       -17.4164
  21   2.0000      -0.631422       -17.1819
  22   2.0000      -0.626293       -17.0423
  23   2.0000      -0.586017       -15.9463
  24   2.0000      -0.585145       -15.9226
  25   2.0000      -0.579186       -15.7604
  26   2.0000      -0.546125       -14.8608
  27   2.0000      -0.537532       -14.6270
  28   2.0000      -0.531088       -14.4516
  29   2.0000      -0.496792       -13.5184
  30   2.0000      -0.463734       -12.6188
  31   2.0000      -0.420069       -11.4307
  32   2.0000      -0.366518        -9.9735
  33   2.0000      -0.365740        -9.9523
  34   0.0000       0.116869         3.1802
  35   0.0000       0.135570         3.6891
  36   0.0000       0.140910         3.8344
  37   0.0000       0.148452         4.0396
  38   0.0000       0.168058         4.5731

MULLIKEN ATOMIC CHARGES
-----------------------
   0 C :   -0.477481
   1 C :    0.067572
   2 C :    0.010915
   3 C :   -0.398721
   4 C :   -0.259366
   5 C :    0.230117
   6 O :   -0.269320
   7 C :   -0.097026
   8 O :   -0.432092
   9 H :    0.161129
  10 H :    0.161461
  11 H :    0.158114
  12 H :    0.159053
  13 H :    0.151767
  14 H :    0.140135
  15 H :    0.143508
  16 H :    0.116598
  17 H :    0.114991
  18 H :    0.318646
Sum of atomic charges:   -0.0000000

LOEWDIN ATOMIC CHARGES
----------------------
   0 C :   -0.297077
   1 C :   -0.111550
   2 C :   -0.091310
   3 C :   -0.243857
   4 C :   -0.228520
   5 C :   -0.329716
   6 O :    0.174275
   7 C :   -0.339423
   8 O :   -0.019988
   9 H :    0.140233
  10 H :    0.140314
  11 H :    0.139211
  12 H :    0.161524
  13 H :    0.160032
  14 H :    0.153157
  15 H :    0.156209
  16 H :    0.129951
  17 H :    0.129065
  18 H :    0.177468

  Mayer bond orders larger than 0.1
B(  0-C ,  1-C ) :   0.8519 B(  0-C ,  9-H ) :   0.9479 B(  0-C , 10-H ) :   0.9477
B(  0-C , 11-H ) :   0.9470 B(  1-C ,  2-C ) :   2.6950 B(  1-C ,  3-C ) :  -0.1204
B(  2-C ,  3-C ) :   1.0157 B(  3-C ,  4-C ) :   0.9399 B(  3-C , 12-H ) :   0.9426
B(  3-C , 13-H ) :   0.9419 B(  4-C ,  5-C ) :   0.8841 B(  4-C , 14-H ) :   0.9101
B(  4-C , 15-H ) :   0.8962 B(  5-C ,  6-O ) :   1.9668 B(  5-C ,  7-C ) :   0.9184
B(  7-C ,  8-O ) :   1.0533 B(  7-C , 16-H ) :   0.9214 B(  7-C , 17-H ) :   0.9188
B(  8-O , 18-H ) :   0.8440

MP2 TOTAL ENERGY:     -422.293457005 Eh
FINAL SINGLE POINT ENERGY      -422.293457004818

DIPOLE MOMENT
-------------
                                X             Y             Z
Electronic contribution:      1.37652      -7.38094      -0.78650
Nuclear contribution   :     -2.76372       8.17715       1.15089
                        -----------------------------------------
Total Dipole Moment    :     -1.38720       0.79621       0.36439
                        -----------------------------------------
Magnitude (a.u.)       :      1.64045
Magnitude (Debye)      :      4.16968

                             ****ORCA TERMINATED NORMALLY****
TOTAL RUN TIME: 0 days 0 hours 13 minutes 4 seconds 677 msec
