                         Program Version 3.0.3 - RELEASE   -
|  1> ! RI-MP2 RIJK def2-TZVP def2-TZVP/C def2-TZVP/JK TIGHTSCF
|  2> % maxcore 2000
|  3> % mp2 density relaxed end
|  4> *xyz 0 1
|  5>  C        0.1964091376     1.4366715140     0.0587569269
|  6>  N        0.0578443014    -0.0047038103    -0.0156018055
|  7>  C        0.1463254194    -0.7869777869    -1.1504787739
|  8>  C       -0.0500183409    -2.0741134088    -0.7301154275
|  9>  N       -0.2560852330    -2.1119786798     0.6287113660
| 10>  C       -0.1851862163    -0.8584770324     1.0233112566
| 11>  N       -0.3267912363    -0.3501557683     2.3262004890
| 12>  C       -1.2812924508    -1.0635755989     3.1966334315
| 13>  C        0.1758622962    -1.2124665343     3.4132014404
| 14>  H        1.1866059384     1.7488538136    -0.2875526263
| 15>  H       -0.5638215577     1.9306417623    -0.5543159454
| 16>  H        0.0684950805     1.7317766025     1.0999002144
| 17>  H        0.3355509211    -0.3549688642    -2.1193073940
| 18>  H       -0.0547751388    -2.9745646613    -1.3254857207
| 19>  H       -1.8711285932    -0.4215613955     3.8440814341
| 20>  H       -1.8010969561    -1.9051984684     2.7500140420
| 21>  H        0.6249122959    -2.1530917378     3.1105738581
| 22>  H        0.6692459027    -0.6811603156     4.2216356044
| 23> *
| 24>
| 25>                          ****END OF INPUT****

CARTESIAN COORDINATES (ANGSTROEM)
---------------------------------
  C      0.196409    1.436672    0.058757
  N      0.057844   -0.004704   -0.015602
  C      0.146325   -0.786978   -1.150479
  C     -0.050018   -2.074113   -0.730115
  N     -0.256085   -2.111979    0.628711
  C     -0.185186   -0.858477    1.023311
  N     -0.326791   -0.350156    2.326200
  C     -1.281292   -1.063576    3.196633
  C      0.175862   -1.212467    3.413201
  H      1.186606    1.748854   -0.287553
  H     -0.563822    1.930642   -0.554316
  H      0.068495    1.731777    1.099900
  H      0.335551   -0.354969   -2.119307
  H     -0.054775   -2.974565   -1.325486
  H     -1.871129   -0.421561    3.844081
  H     -1.801097   -1.905198    2.750014
  H      0.624912   -2.153092    3.110574
  H      0.669246   -0.681160    4.221636

 Total Charge           Charge          ....    0
 Multiplicity           Mult            ....    1
 Number of Electrons    NEL             ....   66
 Basis Dimension        Dim             ....  333

ORBITAL ENERGIES
----------------

  NO   OCC          E(Eh)            E(eV)
   0   2.0000     -15.608970      -424.7417
   1   2.0000     -15.575978      -423.8439
   2   2.0000     -15.529246      -422.5723
   3   2.0000     -11.316785      -307.9454
   4   2.0000     -11.268161      -306.6222
   5   2.0000     -11.263387      -306.4923
   6   2.0000     -11.262630      -306.4718
   7   2.0000     -11.244110      -305.9678
   8   2.0000     -11.235416      -305.7312
   9   2.0000      -1.349787       -36.7296
  10   2.0000      -1.272752       -34.6333
  11   2.0000      -1.175334       -31.9825
  12   2.0000      -1.019345       -27.7378
  13   2.0000      -0.967873       -26.3372
  14   2.0000      -0.902864       -24.5682
  15   2.0000      -0.847716       -23.0675
  16   2.0000      -0.803617       -21.8675
  17   2.0000      -0.747424       -20.3384
  18   2.0000      -0.716342       -19.4927
  19   2.0000      -0.665526       -18.1099
  20   2.0000      -0.643904       -17.5215
  21   2.0000      -0.631610       -17.1870
  22   2.0000      -0.596825       -16.2404
  23   2.0000      -0.581584       -15.8257
  24   2.0000      -0.561284       -15.2733
  25   2.0000      -0.547182       -14.8896
  26   2.0000      -0.531883       -14.4733
  27   2.0000      -0.492599       -13.4043
  28   2.0000      -0.490331       -13.3426
  29   2.0000      -0.431666       -11.7462
  30   2.0000      -0.404721       -11.0130
  31   2.0000      -0.379143       -10.3170
  32   2.0000      -0.300047        -8.1647
  33   0.0000       0.142662         3.8820
  34   0.0000       0.163622         4.4524
  35   0.0000       0.169192         4.6039
  36   0.0000       0.184557         5.0221
  37   0.0000       0.186213         5.0671

MULLIKEN ATOMIC CHARGES
-----------------------
   0 C :   -0.331337
   1 N :   -0.023142
   2 C :   -0.122959
   3 C :   -0.131495
   4 N :   -0.339752
   5 C :    0.226816
   6 N :   -0.253166
   7 C :   -0.164478
   8 C :   -0.164392
   9 H :    0.147402
  10 H :    0.147400
  11 H :    0.177182
  12 H :    0.144458
  13 H :    0.130557
  14 H :    0.130412
  15 H :    0.148094
  16 H :    0.148004
  17 H :    0.130396
Sum of atomic charges:    0.0000000

LOEWDIN ATOMIC CHARGES
----------------------
   0 C :   -0.269879
   1 N :    0.245599
   2 C :   -0.228869
   3 C :   -0.266248
   4 N :    0.096150
   5 C :   -0.376432
   6 N :    0.122541
   7 C :   -0.240960
   8 C :   -0.240941
   9 H :    0.122731
  10 H :    0.122748
  11 H :    0.133867
  12 H :    0.135394
  13 H :    0.131180
  14 H :    0.123638
  15 H :    0.132930
  16 H :    0.132916
  17 H :    0.123634

  Mayer bond orders larger than 0.1
B(  0-C ,  1-N ) :   0.8618 B(  0-C ,  9-H ) :   0.9297 B(  0-C , 10-H ) :   0.9297
B(  0-C , 11-H ) :   0.9232 B(  1-N ,  2-C ) :   1.1057 B(  1-N ,  5-C ) :   1.1783
B(  2-C ,  3-C ) :   1.5171 B(  2-C , 12-H ) :   0.9177 B(  3-C ,  4-N ) :   1.2855
B(  3-C , 13-H ) :   0.9408 B(  4-N ,  5-C ) :   1.4796 B(  5-C ,  6-N ) :   1.0540
B(  6-N ,  7-C ) :   0.8511 B(  6-N ,  8-C ) :   0.8510 B(  7-C ,  8-C ) :   0.9632
B(  7-C , 14-H ) :   0.9256 B(  7-C , 15-H ) :   0.9167 B(  8-C , 16-H ) :   0.9168
B(  8-C , 17-H ) :   0.9256

MP2 TOTAL ENERGY:     -397.440016966 Eh
FINAL SINGLE POINT ENERGY      -397.440016966304

DIPOLE MOMENT
-------------
                                X             Y             Z
Electronic contribution:      0.01002      -2.49894      -1.82639
Nuclear contribution   :      0.10388       3.44569       1.72529
                        -----------------------------------------
Total Dipole Moment    :      0.11391       0.94675      -0.10110
                        -----------------------------------------
Magnitude (a.u.)       :      0.95892
Magnitude (Debye)      :      2.43738

                             ****ORCA TERMINATED NORMALLY****
TOTAL RUN TIME: 0 days 0 hours 17 minutes 21 seconds 971 msec
