                         Program Version 3.0.3 - RELEASE   -
|  1> ! RI-MP2 RIJK def2-TZVP def2-TZVP/C def2-TZVP/JK TIGHTSCF
|  2> % maxcore 2000
|  3> % mp2 density relaxed end
|  4> *xyz 0 1
|  5>  C       -0.0052210062    -1.2262135478     0.0970075348
|  6>  C        0.0113856043    -0.0231488597     0.0954808232
|  7>  C        0.0193825880     1.4114548562     0.0771916806
|  8>  C        0.5306974642     2.2450830401     1.1970762983
|  9>  C        1.6710436617     1.5396571154     1.9518774052
| 10>  C        2.3828241782     1.4880811276     0.5576937767
| 11>  N        1.2586315443     2.2233427276    -0.1206585327
| 12>  C        2.3370632177     2.3366667705     2.9607533436
| 13>  C        2.8920131738     3.0052177275     3.7917514851
| 14>  H       -0.0275006561    -2.2881642226     0.0956871084
| 15>  H       -0.8035437615     1.8558300927    -0.4774032866
| 16>  H       -0.0028344827     3.1197892891     1.5547745668
| 17>  H        1.3875698982     0.5647527765     2.3611886725
| 18>  H        3.2836078299     2.1000238737     0.5219539038
| 19>  H        2.5806120934     0.4950332002     0.1480891852
| 20>  H        3.3830142428     3.5902008929     4.5294375251
| 21> *
| 22>
| 23>                          ****END OF INPUT****

CARTESIAN COORDINATES (ANGSTROEM)
---------------------------------
  C     -0.005221   -1.226214    0.097008
  C      0.011386   -0.023149    0.095481
  C      0.019383    1.411455    0.077192
  C      0.530697    2.245083    1.197076
  C      1.671044    1.539657    1.951877
  C      2.382824    1.488081    0.557694
  N      1.258632    2.223343   -0.120659
  C      2.337063    2.336667    2.960753
  C      2.892013    3.005218    3.791751
  H     -0.027501   -2.288164    0.095687
  H     -0.803544    1.855830   -0.477403
  H     -0.002834    3.119789    1.554775
  H      1.387570    0.564753    2.361189
  H      3.283608    2.100024    0.521954
  H      2.580612    0.495033    0.148089
  H      3.383014    3.590201    4.529438

 Total Charge           Charge          ....    0
 Multiplicity           Mult            ....    1
 Number of Electrons    NEL             ....   62
 Basis Dimension        Dim             ....  321

ORBITAL ENERGIES
----------------

  NO   OCC          E(Eh)            E(eV)
   0   2.0000     -15.579715      -423.9456
   1   2.0000     -11.294917      -307.3503
   2   2.0000     -11.285923      -307.1056
   3   2.0000     -11.270473      -306.6852
   4   2.0000     -11.269316      -306.6537
   5   2.0000     -11.248230      -306.0799
   6   2.0000     -11.240229      -305.8622
   7   2.0000     -11.239323      -305.8375
   8   2.0000     -11.228736      -305.5494
   9   2.0000      -1.311374       -35.6843
  10   2.0000      -1.081033       -29.4164
  11   2.0000      -1.050128       -28.5754
  12   2.0000      -0.997748       -27.1501
  13   2.0000      -0.954794       -25.9813
  14   2.0000      -0.881226       -23.9794
  15   2.0000      -0.789620       -21.4866
  16   2.0000      -0.743491       -20.2314
  17   2.0000      -0.727606       -19.7992
  18   2.0000      -0.698063       -18.9953
  19   2.0000      -0.677730       -18.4420
  20   2.0000      -0.637928       -17.3589
  21   2.0000      -0.601760       -16.3747
  22   2.0000      -0.571232       -15.5440
  23   2.0000      -0.529345       -14.4042
  24   2.0000      -0.498260       -13.5583
  25   2.0000      -0.459548       -12.5049
  26   2.0000      -0.437448       -11.9036
  27   2.0000      -0.405709       -11.0399
  28   2.0000      -0.391345       -10.6490
  29   2.0000      -0.387595       -10.5470
  30   2.0000      -0.361537        -9.8379
  31   0.0000       0.143515         3.9052
  32   0.0000       0.150789         4.1032
  33   0.0000       0.155593         4.2339
  34   0.0000       0.159569         4.3421
  35   0.0000       0.162952         4.4341

MULLIKEN ATOMIC CHARGES
-----------------------
   0 C :   -0.131929
   1 C :    0.002300
   2 C :   -0.221422
   3 C :   -0.001735
   4 C :   -0.215236
   5 C :   -0.136964
   6 N :   -0.216423
   7 C :   -0.058187
   8 C :   -0.103973
   9 H :    0.195427
  10 H :    0.139281
  11 H :    0.140437
  12 H :    0.143147
  13 H :    0.140339
  14 H :    0.131306
  15 H :    0.193632
Sum of atomic charges:   -0.0000000

LOEWDIN ATOMIC CHARGES
----------------------
   0 C :   -0.081128
   1 C :   -0.096157
   2 C :   -0.229255
   3 C :   -0.149442
   4 C :   -0.202664
   5 C :   -0.193078
   6 N :    0.132050
   7 C :   -0.091456
   8 C :   -0.091973
   9 H :    0.129479
  10 H :    0.169203
  11 H :    0.140630
  12 H :    0.169427
  13 H :    0.137400
  14 H :    0.129231
  15 H :    0.127734

  Mayer bond orders larger than 0.1
B(  0-C ,  1-C ) :   2.5551 B(  0-C ,  9-H ) :   0.9024 B(  1-C ,  2-C ) :   1.0989
B(  2-C ,  3-C ) :   0.9202 B(  2-C ,  6-N ) :   0.9411 B(  2-C , 10-H ) :   0.9360
B(  3-C ,  4-C ) :   0.9270 B(  3-C ,  6-N ) :   0.8432 B(  3-C , 11-H ) :   0.9023
B(  4-C ,  5-C ) :   0.9329 B(  4-C ,  7-C ) :   1.1654 B(  4-C ,  8-C ) :  -0.1399
B(  4-C , 12-H ) :   0.9021 B(  5-C ,  6-N ) :   0.9165 B(  5-C , 13-H ) :   0.9188
B(  5-C , 14-H ) :   0.9235 B(  7-C ,  8-C ) :   2.5783 B(  8-C , 15-H ) :   0.8887

MP2 TOTAL ENERGY:     -362.811265555 Eh
FINAL SINGLE POINT ENERGY      -362.811265554903

DIPOLE MOMENT
-------------
                                X             Y             Z
Electronic contribution:     -1.11459       0.28663      -0.19361
Nuclear contribution   :      1.02815      -0.67693       0.56411
                        -----------------------------------------
Total Dipole Moment    :     -0.08644      -0.39030       0.37050
                        -----------------------------------------
Magnitude (a.u.)       :      0.54505
Magnitude (Debye)      :      1.38540

                             ****ORCA TERMINATED NORMALLY****
TOTAL RUN TIME: 0 days 0 hours 15 minutes 56 seconds 490 msec
