                         Program Version 3.0.3 - RELEASE   -
|  1> ! RI-MP2 RIJK def2-TZVP def2-TZVP/C def2-TZVP/JK TIGHTSCF
|  2> % maxcore 2000
|  3> % mp2 density relaxed end
|  4> *xyz 0 1
|  5>  C       -0.1080887764     1.5135269967    -0.0096946805
|  6>  C        0.0194459984    -0.0201667364    -0.1040679315
|  7>  C        0.7742654007    -0.4132967757    -1.2931240292
|  8>  C        1.4217847183    -0.7273981748    -2.2567062243
|  9>  C        0.6726529859    -0.6080378133     1.1610461205
| 10>  C       -0.0940736067    -0.5216313605     2.5284859696
| 11>  C        0.0606943932    -2.0395931882     2.6857782666
| 12>  C       -0.6059340024    -2.7405000249     1.5386891606
| 13>  C        0.7527479021    -2.1317276864     1.3223502346
| 14>  H        0.8792728512     1.9778275263     0.0752371036
| 15>  H       -0.5976272616     1.9210950468    -0.8979168270
| 16>  H       -0.6971244067     1.7933280943     0.8689288029
| 17>  H       -0.9923955812    -0.4389775720    -0.1924805821
| 18>  H        1.9807930474    -1.0103461036    -3.1138314064
| 19>  H        1.6683032980    -0.1662270828     1.2673197082
| 20>  H        0.4473549850     0.0625252762     3.2752312185
| 21>  H       -1.1274813605    -0.1581786057     2.4868949710
| 22>  H        0.3073364955    -2.5509013395     3.6080171536
| 23>  H       -0.6121542443    -3.8244727382     1.5919266777
| 24>  H       -1.4969020121    -2.3195685935     1.0776661415
| 25>  H        1.5990030863    -2.7383194749     1.0247355222
| 26> *
| 27>
| 28>                          ****END OF INPUT****

CARTESIAN COORDINATES (ANGSTROEM)
---------------------------------
  C     -0.108089    1.513527   -0.009695
  C      0.019446   -0.020167   -0.104068
  C      0.774265   -0.413297   -1.293124
  C      1.421785   -0.727398   -2.256706
  C      0.672653   -0.608038    1.161046
  C     -0.094074   -0.521631    2.528486
  C      0.060694   -2.039593    2.685778
  C     -0.605934   -2.740500    1.538689
  C      0.752748   -2.131728    1.322350
  H      0.879273    1.977828    0.075237
  H     -0.597627    1.921095   -0.897917
  H     -0.697124    1.793328    0.868929
  H     -0.992396   -0.438978   -0.192481
  H      1.980793   -1.010346   -3.113831
  H      1.668303   -0.166227    1.267320
  H      0.447355    0.062525    3.275231
  H     -1.127481   -0.158179    2.486895
  H      0.307336   -2.550901    3.608017
  H     -0.612154   -3.824473    1.591927
  H     -1.496902   -2.319569    1.077666
  H      1.599003   -2.738319    1.024736

 Total Charge           Charge          ....    0
 Multiplicity           Mult            ....    1
 Number of Electrons    NEL             ....   66
 Basis Dimension        Dim             ....  351

ORBITAL ENERGIES
----------------

  NO   OCC          E(Eh)            E(eV)
   0   2.0000     -11.251375      -306.1655
   1   2.0000     -11.236232      -305.7534
   2   2.0000     -11.230516      -305.5979
   3   2.0000     -11.228501      -305.5430
   4   2.0000     -11.226590      -305.4910
   5   2.0000     -11.226495      -305.4885
   6   2.0000     -11.225083      -305.4500
   7   2.0000     -11.221274      -305.3464
   8   2.0000     -11.214321      -305.1572
   9   2.0000      -1.190585       -32.3975
  10   2.0000      -1.089333       -29.6423
  11   2.0000      -1.000319       -27.2201
  12   2.0000      -0.967710       -26.3327
  13   2.0000      -0.906944       -24.6792
  14   2.0000      -0.845489       -23.0069
  15   2.0000      -0.794005       -21.6060
  16   2.0000      -0.729418       -19.8485
  17   2.0000      -0.711575       -19.3629
  18   2.0000      -0.692215       -18.8361
  19   2.0000      -0.644406       -17.5352
  20   2.0000      -0.618921       -16.8417
  21   2.0000      -0.599650       -16.3173
  22   2.0000      -0.555491       -15.1157
  23   2.0000      -0.547057       -14.8862
  24   2.0000      -0.535545       -14.5729
  25   2.0000      -0.523677       -14.2500
  26   2.0000      -0.497532       -13.5385
  27   2.0000      -0.467386       -12.7182
  28   2.0000      -0.452457       -12.3120
  29   2.0000      -0.408362       -11.1121
  30   2.0000      -0.389389       -10.5958
  31   2.0000      -0.379464       -10.3257
  32   2.0000      -0.366157        -9.9636
  33   0.0000       0.136014         3.7011
  34   0.0000       0.154480         4.2036
  35   0.0000       0.161102         4.3838
  36   0.0000       0.166490         4.5304
  37   0.0000       0.176551         4.8042

MULLIKEN ATOMIC CHARGES
-----------------------
   0 C :   -0.379286
   1 C :   -0.154149
   2 C :   -0.023695
   3 C :   -0.174254
   4 C :   -0.075015
   5 C :   -0.243766
   6 C :   -0.101874
   7 C :   -0.283363
   8 C :   -0.105036
   9 H :    0.129963
  10 H :    0.141626
  11 H :    0.132571
  12 H :    0.095314
  13 H :    0.186567
  14 H :    0.104225
  15 H :    0.125246
  16 H :    0.110110
  17 H :    0.129164
  18 H :    0.130373
  19 H :    0.126067
  20 H :    0.129211
Sum of atomic charges:   -0.0000000

LOEWDIN ATOMIC CHARGES
----------------------
   0 C :   -0.268851
   1 C :   -0.251771
   2 C :   -0.082472
   3 C :   -0.105837
   4 C :   -0.176720
   5 C :   -0.193634
   6 C :   -0.183974
   7 C :   -0.209406
   8 C :   -0.160094
   9 H :    0.127577
  10 H :    0.127437
  11 H :    0.124215
  12 H :    0.168577
  13 H :    0.125379
  14 H :    0.158192
  15 H :    0.134314
  16 H :    0.129504
  17 H :    0.132914
  18 H :    0.140061
  19 H :    0.128311
  20 H :    0.136280

  Mayer bond orders larger than 0.1
B(  0-C ,  1-C ) :   0.9145 B(  0-C ,  9-H ) :   0.9305 B(  0-C , 10-H ) :   0.9370
B(  0-C , 11-H ) :   0.9370 B(  1-C ,  2-C ) :   1.1379 B(  1-C ,  4-C ) :   0.9143
B(  1-C , 12-H ) :   0.9042 B(  2-C ,  3-C ) :   2.5990 B(  3-C , 13-H ) :   0.8970
B(  4-C ,  5-C ) :   0.9552 B(  4-C ,  8-C ) :   0.9351 B(  4-C , 14-H ) :   0.9169
B(  5-C ,  6-C ) :   0.9416 B(  5-C , 15-H ) :   0.9287 B(  5-C , 16-H ) :   0.9129
B(  6-C ,  7-C ) :   0.8903 B(  6-C ,  8-C ) :   0.8330 B(  6-C , 17-H ) :   0.9292
B(  7-C ,  8-C ) :   0.8732 B(  7-C , 18-H ) :   0.9304 B(  7-C , 19-H ) :   0.9244
B(  8-C , 20-H ) :   0.9297

MP2 TOTAL ENERGY:     -349.236640807 Eh
FINAL SINGLE POINT ENERGY      -349.236640806870

DIPOLE MOMENT
-------------
                                X             Y             Z
Electronic contribution:      2.08497      -2.34623      -2.79218
Nuclear contribution   :     -2.10908       2.36215       3.07246
                        -----------------------------------------
Total Dipole Moment    :     -0.02411       0.01593       0.28028
                        -----------------------------------------
Magnitude (a.u.)       :      0.28177
Magnitude (Debye)      :      0.71620

                             ****ORCA TERMINATED NORMALLY****
TOTAL RUN TIME: 0 days 0 hours 19 minutes 51 seconds 513 msec
