                         Program Version 3.0.3 - RELEASE   -
|  1> ! RI-MP2 RIJK def2-TZVP def2-TZVP/C def2-TZVP/JK TIGHTSCF
|  2> % maxcore 2000
|  3> % mp2 density relaxed end
|  4> *xyz 0 1
|  5>  C       -0.0472667856     1.5541979945     0.0688335427
|  6>  C        1.5039761070     1.4186912297     0.0014992355
|  7>  C        1.7964578133     0.6091918466     1.2697453689
|  8>  C        2.0848786143    -0.8080797562     0.9180567103
|  9>  C        2.2591382717    -0.9170050079    -0.5829001023
| 10>  C        1.2817913140     0.1863669387    -0.9491825063
| 11>  C        0.0296522743     0.0135822085    -0.0359447669
| 12>  N        0.6905523909    -0.3945990569     1.2499445239
| 13>  H       -0.4928421878     1.9800782701     0.9711969143
| 14>  H       -0.4731105308     2.0166895544    -0.8253488150
| 15>  H        2.1636683698     2.2489632594    -0.2483470453
| 16>  H        2.0516775554     1.0686506395     2.2178354645
| 17>  H        2.5526861598    -1.4981304096     1.6115168623
| 18>  H        3.2875470104    -0.7102501249    -0.8984253511
| 19>  H        1.9623330266    -1.8958933053    -0.9754814865
| 20>  H        1.1009097967     0.4154547449    -1.9971509372
| 21>  H       -0.8228049999    -0.6155212455    -0.2899030417
| 22> *
| 23>
| 24>                          ****END OF INPUT****

CARTESIAN COORDINATES (ANGSTROEM)
---------------------------------
  C     -0.047267    1.554198    0.068834
  C      1.503976    1.418691    0.001499
  C      1.796458    0.609192    1.269745
  C      2.084879   -0.808080    0.918057
  C      2.259138   -0.917005   -0.582900
  C      1.281791    0.186367   -0.949183
  C      0.029652    0.013582   -0.035945
  N      0.690552   -0.394599    1.249945
  H     -0.492842    1.980078    0.971197
  H     -0.473111    2.016690   -0.825349
  H      2.163668    2.248963   -0.248347
  H      2.051678    1.068651    2.217835
  H      2.552686   -1.498130    1.611517
  H      3.287547   -0.710250   -0.898425
  H      1.962333   -1.895893   -0.975481
  H      1.100910    0.415455   -1.997151
  H     -0.822805   -0.615521   -0.289903

 Total Charge           Charge          ....    0
 Multiplicity           Mult            ....    1
 Number of Electrons    NEL             ....   58
 Basis Dimension        Dim             ....  302

ORBITAL ENERGIES
----------------

  NO   OCC          E(Eh)            E(eV)
   0   2.0000     -15.551004      -423.1643
   1   2.0000     -11.254179      -306.2418
   2   2.0000     -11.253213      -306.2155
   3   2.0000     -11.249646      -306.1184
   4   2.0000     -11.237220      -305.7803
   5   2.0000     -11.230608      -305.6004
   6   2.0000     -11.223995      -305.4204
   7   2.0000     -11.223897      -305.4178
   8   2.0000      -1.305628       -35.5279
   9   2.0000      -1.098660       -29.8961
  10   2.0000      -1.025549       -27.9066
  11   2.0000      -0.956972       -26.0405
  12   2.0000      -0.864883       -23.5347
  13   2.0000      -0.786858       -21.4115
  14   2.0000      -0.754208       -20.5230
  15   2.0000      -0.743678       -20.2365
  16   2.0000      -0.702754       -19.1229
  17   2.0000      -0.644783       -17.5454
  18   2.0000      -0.608005       -16.5447
  19   2.0000      -0.596399       -16.2288
  20   2.0000      -0.551849       -15.0166
  21   2.0000      -0.503906       -13.7120
  22   2.0000      -0.490191       -13.3388
  23   2.0000      -0.477852       -13.0030
  24   2.0000      -0.465117       -12.6565
  25   2.0000      -0.445661       -12.1271
  26   2.0000      -0.425146       -11.5688
  27   2.0000      -0.415723       -11.3124
  28   2.0000      -0.367324        -9.9954
  29   0.0000       0.143860         3.9146
  30   0.0000       0.158383         4.3098
  31   0.0000       0.174106         4.7377
  32   0.0000       0.180052         4.8995
  33   0.0000       0.198378         5.3981

MULLIKEN ATOMIC CHARGES
-----------------------
   0 C :   -0.271928
   1 C :   -0.060655
   2 C :   -0.084499
   3 C :   -0.139502
   4 C :   -0.188599
   5 C :   -0.171852
   6 C :    0.039790
   7 N :   -0.236738
   8 H :    0.123029
   9 H :    0.115822
  10 H :    0.129812
  11 H :    0.134687
  12 H :    0.124561
  13 H :    0.118040
  14 H :    0.117286
  15 H :    0.128787
  16 H :    0.121961
Sum of atomic charges:   -0.0000000

LOEWDIN ATOMIC CHARGES
----------------------
   0 C :   -0.196847
   1 C :   -0.169413
   2 C :   -0.192430
   3 C :   -0.218998
   4 C :   -0.221321
   5 C :   -0.181846
   6 C :   -0.205741
   7 N :    0.145246
   8 H :    0.129250
   9 H :    0.136882
  10 H :    0.135207
  11 H :    0.136651
  12 H :    0.139010
  13 H :    0.144472
  14 H :    0.142613
  15 H :    0.146771
  16 H :    0.130496

  Mayer bond orders larger than 0.1
B(  0-C ,  1-C ) :   0.9249 B(  0-C ,  6-C ) :   0.9195 B(  0-C ,  8-H ) :   0.9123
B(  0-C ,  9-H ) :   0.9258 B(  1-C ,  2-C ) :   0.9059 B(  1-C ,  5-C ) :   0.8986
B(  1-C , 10-H ) :   0.9045 B(  2-C ,  3-C ) :   0.9272 B(  2-C ,  7-N ) :   0.8827
B(  2-C , 11-H ) :   0.9126 B(  3-C ,  4-C ) :   0.9577 B(  3-C ,  7-N ) :   0.9323
B(  3-C , 12-H ) :   0.9302 B(  4-C ,  5-C ) :   0.9640 B(  4-C , 13-H ) :   0.9067
B(  4-C , 14-H ) :   0.9102 B(  5-C ,  6-C ) :   0.9144 B(  5-C , 15-H ) :   0.9180
B(  6-C ,  7-N ) :   0.8987 B(  6-C , 16-H ) :   0.9196

MP2 TOTAL ENERGY:     -326.118534462 Eh
FINAL SINGLE POINT ENERGY      -326.118534461854

DIPOLE MOMENT
-------------
                                X             Y             Z
Electronic contribution:     -0.16895      -0.82686       1.82461
Nuclear contribution   :      0.53331       1.07032      -2.39993
                        -----------------------------------------
Total Dipole Moment    :      0.36436       0.24346      -0.57532
                        -----------------------------------------
Magnitude (a.u.)       :      0.72320
Magnitude (Debye)      :      1.83824

                             ****ORCA TERMINATED NORMALLY****
TOTAL RUN TIME: 0 days 0 hours 13 minutes 23 seconds 44 msec
