                         Program Version 3.0.3 - RELEASE   -
|  1> ! RI-MP2 RIJK def2-TZVP def2-TZVP/C def2-TZVP/JK TIGHTSCF
|  2> % maxcore 2000
|  3> % mp2 density relaxed end
|  4> *xyz 0 1
|  5>  O        0.4923278415     0.7885214497    -0.8737627464
|  6>  C        0.1018942868    -0.2458341062    -0.0164318617
|  7>  C        0.3304849636    -0.0250020410     1.4877649746
|  8>  C       -0.7178482769    -0.9072051355     2.1671522070
|  9>  O       -0.7754736212    -1.2374032041     3.3275174083
| 10>  N       -1.6185366969    -1.2747803996     1.1887373250
| 11>  C       -1.4275650088    -0.6070379586    -0.0887853224
| 12>  C       -2.2518534661     0.5952303926    -0.2520474191
| 13>  C       -2.8905377185     1.6066732392    -0.3809766260
| 14>  H       -0.1110184539     1.5309697379    -0.7376255598
| 15>  H        0.6548291528    -1.1313284653    -0.3430279275
| 16>  H        1.3372461345    -0.2702876849     1.8272147163
| 17>  H        0.1286929677     1.0184303025     1.7583809303
| 18>  H       -2.4959291776    -1.6979865565     1.4519438865
| 19>  H       -1.6177093008    -1.2897374280    -0.9233969149
| 20>  H       -3.4815774362     2.4827695678    -0.4933256403
| 21> *
| 22>
| 23>                          ****END OF INPUT****

CARTESIAN COORDINATES (ANGSTROEM)
---------------------------------
  O      0.492328    0.788521   -0.873763
  C      0.101894   -0.245834   -0.016432
  C      0.330485   -0.025002    1.487765
  C     -0.717848   -0.907205    2.167152
  O     -0.775474   -1.237403    3.327517
  N     -1.618537   -1.274780    1.188737
  C     -1.427565   -0.607038   -0.088785
  C     -2.251853    0.595230   -0.252047
  C     -2.890538    1.606673   -0.380977
  H     -0.111018    1.530970   -0.737626
  H      0.654829   -1.131328   -0.343028
  H      1.337246   -0.270288    1.827215
  H      0.128693    1.018430    1.758381
  H     -2.495929   -1.697987    1.451944
  H     -1.617709   -1.289737   -0.923397
  H     -3.481577    2.482770   -0.493326

 Total Charge           Charge          ....    0
 Multiplicity           Mult            ....    1
 Number of Electrons    NEL             ....   66
 Basis Dimension        Dim             ....  321

ORBITAL ENERGIES
----------------

  NO   OCC          E(Eh)            E(eV)
   0   2.0000     -20.576603      -559.9178
   1   2.0000     -20.527718      -558.5876
   2   2.0000     -15.596762      -424.4095
   3   2.0000     -11.358355      -309.0765
   4   2.0000     -11.318855      -308.0017
   5   2.0000     -11.314891      -307.8938
   6   2.0000     -11.259513      -306.3869
   7   2.0000     -11.253766      -306.2305
   8   2.0000     -11.248719      -306.0932
   9   2.0000      -1.395844       -37.9828
  10   2.0000      -1.387336       -37.7513
  11   2.0000      -1.266506       -34.4634
  12   2.0000      -1.074574       -29.2406
  13   2.0000      -1.053796       -28.6752
  14   2.0000      -0.985178       -26.8081
  15   2.0000      -0.863343       -23.4928
  16   2.0000      -0.806801       -21.9542
  17   2.0000      -0.758529       -20.6406
  18   2.0000      -0.718667       -19.5559
  19   2.0000      -0.707741       -19.2586
  20   2.0000      -0.682721       -18.5778
  21   2.0000      -0.642421       -17.4812
  22   2.0000      -0.629317       -17.1246
  23   2.0000      -0.612534       -16.6679
  24   2.0000      -0.593248       -16.1431
  25   2.0000      -0.578184       -15.7332
  26   2.0000      -0.541197       -14.7267
  27   2.0000      -0.501529       -13.6473
  28   2.0000      -0.477918       -13.0048
  29   2.0000      -0.437014       -11.8918
  30   2.0000      -0.421334       -11.4651
  31   2.0000      -0.410944       -11.1824
  32   2.0000      -0.407968       -11.1014
  33   0.0000       0.121716         3.3120
  34   0.0000       0.132511         3.6058
  35   0.0000       0.146144         3.9768
  36   0.0000       0.156709         4.2643
  37   0.0000       0.166583         4.5330

MULLIKEN ATOMIC CHARGES
-----------------------
   0 O :   -0.449824
   1 C :    0.012493
   2 C :   -0.197126
   3 C :    0.186347
   4 O :   -0.321135
   5 N :   -0.313044
   6 C :    0.083377
   7 C :   -0.160649
   8 C :   -0.154915
   9 H :    0.328305
  10 H :    0.116472
  11 H :    0.148223
  12 H :    0.131233
  13 H :    0.243772
  14 H :    0.145886
  15 H :    0.200584
Sum of atomic charges:    0.0000000

LOEWDIN ATOMIC CHARGES
----------------------
   0 O :    0.009150
   1 C :   -0.309554
   2 C :   -0.199647
   3 C :   -0.437415
   4 O :    0.099353
   5 N :    0.144460
   6 C :   -0.249106
   7 C :   -0.100059
   8 C :   -0.082992
   9 H :    0.182654
  10 H :    0.152483
  11 H :    0.150395
  12 H :    0.156628
  13 H :    0.187536
  14 H :    0.164448
  15 H :    0.131665

  Mayer bond orders larger than 0.1
B(  0-O ,  1-C ) :   1.0007 B(  0-O ,  9-H ) :   0.8235 B(  1-C ,  2-C ) :   0.9328
B(  1-C ,  6-C ) :   0.8446 B(  1-C , 10-H ) :   0.9173 B(  2-C ,  3-C ) :   0.9066
B(  2-C , 11-H ) :   0.9220 B(  2-C , 12-H ) :   0.8935 B(  3-C ,  4-O ) :   2.0162
B(  3-C ,  5-N ) :   1.1383 B(  5-N ,  6-C ) :   0.8342 B(  5-N , 13-H ) :   0.8588
B(  6-C ,  7-C ) :   1.0740 B(  6-C , 14-H ) :   0.9418 B(  7-C ,  8-C ) :   2.5925
B(  8-C , 15-H ) :   0.8995

MP2 TOTAL ENERGY:     -437.169269957 Eh
FINAL SINGLE POINT ENERGY      -437.169269957241

DIPOLE MOMENT
-------------
                                X             Y             Z
Electronic contribution:     -1.50755      -1.19841       1.53535
Nuclear contribution   :      0.82377       1.61218      -2.50762
                        -----------------------------------------
Total Dipole Moment    :     -0.68378       0.41377      -0.97227
                        -----------------------------------------
Magnitude (a.u.)       :      1.25859
Magnitude (Debye)      :      3.19909

                             ****ORCA TERMINATED NORMALLY****
TOTAL RUN TIME: 0 days 0 hours 15 minutes 37 seconds 481 msec
