                         Program Version 3.0.3 - RELEASE   -
|  1> ! RI-MP2 RIJK def2-TZVP def2-TZVP/C def2-TZVP/JK TIGHTSCF
|  2> % maxcore 2000
|  3> % mp2 density relaxed end
|  4> *xyz 0 1
|  5>  C       -0.3431411310     1.3428877631    -0.1527833179
|  6>  C        0.0164882930    -0.1020644459     0.0553945279
|  7>  O       -1.1182245937    -0.9393520826     0.3194199813
|  8>  C       -0.4974929376    -1.5156911280     1.5030975536
|  9>  C        0.8135725709    -0.7715511960     1.2099098482
| 10>  N        1.6447713573    -1.5165340227     0.2326929142
| 11>  C        1.0573479730    -0.7709192221    -0.9147745228
| 12>  C        0.5344231784    -1.6007420306    -1.9977502913
| 13>  N        0.1232147356    -2.2354105239    -2.8712867695
| 14>  H        0.5504395501     1.9624965166    -0.2749331128
| 15>  H       -0.9603688225     1.4457176316    -1.0522229451
| 16>  H       -0.9195300353     1.7186170213     0.6970043441
| 17>  H       -1.0244645327    -1.2001433745     2.4116765657
| 18>  H       -0.4354839251    -2.6061724938     1.4536519204
| 19>  H        1.3353660246    -0.2499846482     2.0126579839
| 20>  H        2.6420640494    -1.3733272250     0.3313702478
| 21>  H        1.7300937555    -0.0189678593    -1.3467826975
| 22> *
| 23>
| 24>                          ****END OF INPUT****

CARTESIAN COORDINATES (ANGSTROEM)
---------------------------------
  C     -0.343141    1.342888   -0.152783
  C      0.016488   -0.102064    0.055395
  O     -1.118225   -0.939352    0.319420
  C     -0.497493   -1.515691    1.503098
  C      0.813573   -0.771551    1.209910
  N      1.644771   -1.516534    0.232693
  C      1.057348   -0.770919   -0.914775
  C      0.534423   -1.600742   -1.997750
  N      0.123215   -2.235411   -2.871287
  H      0.550440    1.962497   -0.274933
  H     -0.960369    1.445718   -1.052223
  H     -0.919530    1.718617    0.697004
  H     -1.024465   -1.200143    2.411677
  H     -0.435484   -2.606172    1.453652
  H      1.335366   -0.249985    2.012658
  H      2.642064   -1.373327    0.331370
  H      1.730094   -0.018968   -1.346783

 Total Charge           Charge          ....    0
 Multiplicity           Mult            ....    1
 Number of Electrons    NEL             ....   66
 Basis Dimension        Dim             ....  327

ORBITAL ENERGIES
----------------

  NO   OCC          E(Eh)            E(eV)
   0   2.0000     -20.566776      -559.6504
   1   2.0000     -15.578562      -423.9142
   2   2.0000     -15.565636      -423.5625
   3   2.0000     -11.319659      -308.0236
   4   2.0000     -11.315671      -307.9151
   5   2.0000     -11.291285      -307.2515
   6   2.0000     -11.285906      -307.1051
   7   2.0000     -11.265762      -306.5570
   8   2.0000     -11.240999      -305.8831
   9   2.0000      -1.407445       -38.2985
  10   2.0000      -1.255501       -34.1639
  11   2.0000      -1.207661       -32.8621
  12   2.0000      -1.048704       -28.5367
  13   2.0000      -1.005714       -27.3669
  14   2.0000      -0.955077       -25.9890
  15   2.0000      -0.891797       -24.2670
  16   2.0000      -0.760579       -20.6964
  17   2.0000      -0.729571       -19.8526
  18   2.0000      -0.707581       -19.2543
  19   2.0000      -0.680547       -18.5186
  20   2.0000      -0.640432       -17.4270
  21   2.0000      -0.612777       -16.6745
  22   2.0000      -0.591044       -16.0831
  23   2.0000      -0.577502       -15.7146
  24   2.0000      -0.561243       -15.2722
  25   2.0000      -0.553495       -15.0614
  26   2.0000      -0.550996       -14.9934
  27   2.0000      -0.499513       -13.5924
  28   2.0000      -0.469446       -12.7743
  29   2.0000      -0.461181       -12.5494
  30   2.0000      -0.456659       -12.4263
  31   2.0000      -0.421472       -11.4688
  32   2.0000      -0.400610       -10.9012
  33   0.0000       0.111619         3.0373
  34   0.0000       0.127391         3.4665
  35   0.0000       0.151294         4.1169
  36   0.0000       0.171613         4.6698
  37   0.0000       0.174151         4.7389

MULLIKEN ATOMIC CHARGES
-----------------------
   0 C :   -0.408015
   1 C :    0.218912
   2 O :   -0.325089
   3 C :   -0.020361
   4 C :   -0.080411
   5 N :   -0.347473
   6 C :    0.079648
   7 C :   -0.207082
   8 N :   -0.046831
   9 H :    0.131617
  10 H :    0.157281
  11 H :    0.142384
  12 H :    0.102324
  13 H :    0.117097
  14 H :    0.128870
  15 H :    0.217192
  16 H :    0.139938
Sum of atomic charges:   -0.0000000

LOEWDIN ATOMIC CHARGES
----------------------
   0 C :   -0.267331
   1 C :   -0.288983
   2 O :    0.175524
   3 C :   -0.234554
   4 C :   -0.215568
   5 N :    0.032667
   6 C :   -0.220572
   7 C :   -0.164854
   8 N :    0.072552
   9 H :    0.130641
  10 H :    0.141185
  11 H :    0.134747
  12 H :    0.119976
  13 H :    0.126177
  14 H :    0.131403
  15 H :    0.164983
  16 H :    0.162010

  Mayer bond orders larger than 0.1
B(  0-C ,  1-C ) :   0.9161 B(  0-C ,  9-H ) :   0.9333 B(  0-C , 10-H ) :   0.9276
B(  0-C , 11-H ) :   0.9294 B(  1-C ,  2-O ) :   0.9692 B(  1-C ,  4-C ) :   0.9158
B(  1-C ,  6-C ) :   0.8447 B(  2-O ,  3-C ) :   0.9197 B(  3-C ,  4-C ) :   0.9634
B(  3-C , 12-H ) :   0.9207 B(  3-C , 13-H ) :   0.8985 B(  4-C ,  5-N ) :   0.9909
B(  4-C , 14-H ) :   0.9065 B(  5-N ,  6-C ) :   0.9598 B(  5-N , 15-H ) :   0.8714
B(  6-C ,  7-C ) :   0.9199 B(  6-C , 16-H ) :   0.9042 B(  7-C ,  8-N ) :   2.8634

MP2 TOTAL ENERGY:     -417.264275476 Eh
FINAL SINGLE POINT ENERGY      -417.264275476492

DIPOLE MOMENT
-------------
                                X             Y             Z
Electronic contribution:      0.10634      -4.79448      -4.27293
Nuclear contribution   :      0.98331       6.27377       5.85058
                        -----------------------------------------
Total Dipole Moment    :      1.08965       1.47929       1.57765
                        -----------------------------------------
Magnitude (a.u.)       :      2.42170
Magnitude (Debye)      :      6.15547

                             ****ORCA TERMINATED NORMALLY****
TOTAL RUN TIME: 0 days 0 hours 17 minutes 52 seconds 981 msec
