                         Program Version 3.0.3 - RELEASE   -
|  1> ! RI-MP2 RIJK def2-TZVP def2-TZVP/C def2-TZVP/JK TIGHTSCF
|  2> % maxcore 2000
|  3> % mp2 density relaxed end
|  4> *xyz 0 1
|  5>  O       -0.3496910406     1.5137418493    -0.4169823931
|  6>  C        0.0079980656     0.1888138208    -0.0532202071
|  7>  C       -1.2458249058    -0.4188622084     0.5895164520
|  8>  N       -1.1564663073    -1.8136987815     0.9843939745
|  9>  C       -0.8845483878    -2.7818098130    -0.0683623182
| 10>  C        0.5776044108    -2.8909819984    -0.5212735585
| 11>  O        1.2163860651    -3.9024427836    -0.4160483961
| 12>  O        1.1902601729    -1.7813418882    -1.0126635234
| 13>  C        0.4662651431    -0.5812901644    -1.3004213934
| 14>  H        0.4466463781     1.9904448140    -0.6721728672
| 15>  H        0.8360519476     0.1783453714     0.6740841440
| 16>  H       -1.5123543624     0.1776975639     1.4672114034
| 17>  H       -2.0708046679    -0.3104044992    -0.1273767776
| 18>  H       -0.5235251956    -1.9423768493     1.7654934252
| 19>  H       -1.1495046568    -3.7841073877     0.2767532629
| 20>  H       -1.5276165194    -2.5487209549    -0.9260637269
| 21>  H       -0.3852842698    -0.7813142061    -1.9621472509
| 22>  H        1.1781512803     0.0340723554    -1.8580732596
| 23> *
| 24>
| 25>                          ****END OF INPUT****

CARTESIAN COORDINATES (ANGSTROEM)
---------------------------------
  O     -0.349691    1.513742   -0.416982
  C      0.007998    0.188814   -0.053220
  C     -1.245825   -0.418862    0.589516
  N     -1.156466   -1.813699    0.984394
  C     -0.884548   -2.781810   -0.068362
  C      0.577604   -2.890982   -0.521274
  O      1.216386   -3.902443   -0.416048
  O      1.190260   -1.781342   -1.012664
  C      0.466265   -0.581290   -1.300421
  H      0.446646    1.990445   -0.672173
  H      0.836052    0.178345    0.674084
  H     -1.512354    0.177698    1.467211
  H     -2.070805   -0.310404   -0.127377
  H     -0.523525   -1.942377    1.765493
  H     -1.149505   -3.784107    0.276753
  H     -1.527617   -2.548721   -0.926064
  H     -0.385284   -0.781314   -1.962147
  H      1.178151    0.034072   -1.858073

 Total Charge           Charge          ....    0
 Multiplicity           Mult            ....    1
 Number of Electrons    NEL             ....   70
 Basis Dimension        Dim             ....  333

ORBITAL ENERGIES
----------------

  NO   OCC          E(Eh)            E(eV)
   0   2.0000     -20.604987      -560.6902
   1   2.0000     -20.581128      -560.0410
   2   2.0000     -20.542560      -558.9915
   3   2.0000     -15.570202      -423.6867
   4   2.0000     -11.379474      -309.6512
   5   2.0000     -11.307054      -307.6806
   6   2.0000     -11.301983      -307.5426
   7   2.0000     -11.282968      -307.0252
   8   2.0000     -11.267809      -306.6127
   9   2.0000      -1.458603       -39.6906
  10   2.0000      -1.388702       -37.7885
  11   2.0000      -1.363720       -37.1087
  12   2.0000      -1.233648       -33.5693
  13   2.0000      -1.055018       -28.7085
  14   2.0000      -0.985307       -26.8116
  15   2.0000      -0.939417       -25.5628
  16   2.0000      -0.834479       -22.7073
  17   2.0000      -0.781287       -21.2599
  18   2.0000      -0.738621       -20.0989
  19   2.0000      -0.726185       -19.7605
  20   2.0000      -0.693795       -18.8791
  21   2.0000      -0.668914       -18.2021
  22   2.0000      -0.642998       -17.4969
  23   2.0000      -0.627373       -17.0717
  24   2.0000      -0.607107       -16.5202
  25   2.0000      -0.594038       -16.1646
  26   2.0000      -0.585198       -15.9240
  27   2.0000      -0.554708       -15.0944
  28   2.0000      -0.546825       -14.8799
  29   2.0000      -0.529095       -14.3974
  30   2.0000      -0.501459       -13.6454
  31   2.0000      -0.484543       -13.1851
  32   2.0000      -0.457120       -12.4389
  33   2.0000      -0.444490       -12.0952
  34   2.0000      -0.387037       -10.5318
  35   0.0000       0.120003         3.2655
  36   0.0000       0.131197         3.5700
  37   0.0000       0.138891         3.7794
  38   0.0000       0.164074         4.4647
  39   0.0000       0.177877         4.8403

MULLIKEN ATOMIC CHARGES
-----------------------
   0 O :   -0.460336
   1 C :    0.035121
   2 C :   -0.163222
   3 N :   -0.344344
   4 C :   -0.165780
   5 C :    0.213682
   6 O :   -0.281102
   7 O :   -0.211590
   8 C :   -0.088685
   9 H :    0.320997
  10 H :    0.094247
  11 H :    0.143882
  12 H :    0.131768
  13 H :    0.216056
  14 H :    0.162825
  15 H :    0.135696
  16 H :    0.129082
  17 H :    0.131704
Sum of atomic charges:    0.0000000

LOEWDIN ATOMIC CHARGES
----------------------
   0 O :   -0.006818
   1 C :   -0.368531
   2 C :   -0.297426
   3 N :   -0.003286
   4 C :   -0.281744
   5 C :   -0.483711
   6 O :    0.138123
   7 O :    0.253302
   8 C :   -0.280392
   9 H :    0.177398
  10 H :    0.135146
  11 H :    0.141164
  12 H :    0.140897
  13 H :    0.174457
  14 H :    0.150187
  15 H :    0.145249
  16 H :    0.131041
  17 H :    0.134944

  Mayer bond orders larger than 0.1
B(  0-O ,  1-C ) :   0.9975 B(  0-O ,  9-H ) :   0.8422 B(  1-C ,  2-C ) :   0.8871
B(  1-C ,  8-C ) :   0.8812 B(  1-C , 10-H ) :   0.9402 B(  2-C ,  3-N ) :   0.9551
B(  2-C , 11-H ) :   0.9366 B(  2-C , 12-H ) :   0.9391 B(  3-N ,  4-C ) :   0.9302
B(  3-N , 13-H ) :   0.8817 B(  4-C ,  5-C ) :   0.9300 B(  4-C , 14-H ) :   0.9161
B(  4-C , 15-H ) :   0.9120 B(  5-C ,  6-O ) :   2.0300 B(  5-C ,  7-O ) :   1.1036
B(  7-O ,  8-C ) :   0.8597 B(  8-C , 16-H ) :   0.9287 B(  8-C , 17-H ) :   0.9309

MP2 TOTAL ENERGY:     -475.495111231 Eh
FINAL SINGLE POINT ENERGY      -475.495111231425

DIPOLE MOMENT
-------------
                                X             Y             Z
Electronic contribution:      4.05483      -3.66371      -0.90308
Nuclear contribution   :     -4.32903       4.84119       0.86172
                        -----------------------------------------
Total Dipole Moment    :     -0.27420       1.17748      -0.04136
                        -----------------------------------------
Magnitude (a.u.)       :      1.20969
Magnitude (Debye)      :      3.07479

                             ****ORCA TERMINATED NORMALLY****
TOTAL RUN TIME: 0 days 0 hours 17 minutes 11 seconds 582 msec
