                         Program Version 3.0.3 - RELEASE   -
|  1> ! RI-MP2 RIJK def2-TZVP def2-TZVP/C def2-TZVP/JK TIGHTSCF
|  2> % maxcore 2000
|  3> % mp2 density relaxed end
|  4> *xyz 0 1
|  5>  C       -0.0324843618     1.4228595952     0.0521671163
|  6>  O       -0.0240637861    -0.0072440104     0.0225844489
|  7>  C       -1.2070536545    -0.6314222318     0.0030832368
|  8>  N       -2.3314248473     0.0897550255     0.0118529308
|  9>  C       -3.4637165260    -0.6108184177    -0.0089632486
| 10>  N       -3.5954241161    -1.9321065569    -0.0371164083
| 11>  C       -2.4492479602    -2.6252474200    -0.0451821276
| 12>  O       -2.5447443475    -3.9633711042    -0.0734992719
| 13>  C       -1.1990288225    -2.0262278602    -0.0258446044
| 14>  H        1.0180650114     1.7153137106     0.0638665446
| 15>  H       -0.5321366918     1.8305980157    -0.8302138918
| 16>  H       -0.5416527820     1.7938087368     0.9452801168
| 17>  H       -4.3861854916    -0.0344710781    -0.0020566410
| 18>  H       -3.4918434875    -4.1633478189    -0.0828797488
| 19>  H       -0.2810668165    -2.5964842758    -0.0326261316
| 20> *
| 21>
| 22>                          ****END OF INPUT****

CARTESIAN COORDINATES (ANGSTROEM)
---------------------------------
  C     -0.032484    1.422860    0.052167
  O     -0.024064   -0.007244    0.022584
  C     -1.207054   -0.631422    0.003083
  N     -2.331425    0.089755    0.011853
  C     -3.463717   -0.610818   -0.008963
  N     -3.595424   -1.932107   -0.037116
  C     -2.449248   -2.625247   -0.045182
  O     -2.544744   -3.963371   -0.073499
  C     -1.199029   -2.026228   -0.025845
  H      1.018065    1.715314    0.063867
  H     -0.532137    1.830598   -0.830214
  H     -0.541653    1.793809    0.945280
  H     -4.386185   -0.034471   -0.002057
  H     -3.491843   -4.163348   -0.082880
  H     -0.281067   -2.596484   -0.032626

 Total Charge           Charge          ....    0
 Multiplicity           Mult            ....    1
 Number of Electrons    NEL             ....   66
 Basis Dimension        Dim             ....  315

ORBITAL ENERGIES
----------------

  NO   OCC          E(Eh)            E(eV)
   0   2.0000     -20.607869      -560.7686
   1   2.0000     -20.603007      -560.6363
   2   2.0000     -15.564396      -423.5287
   3   2.0000     -15.561734      -423.4563
   4   2.0000     -11.359782      -309.1154
   5   2.0000     -11.359545      -309.1089
   6   2.0000     -11.325605      -308.1854
   7   2.0000     -11.285990      -307.1074
   8   2.0000     -11.231083      -305.6133
   9   2.0000      -1.443944       -39.2917
  10   2.0000      -1.438532       -39.1444
  11   2.0000      -1.303352       -35.4660
  12   2.0000      -1.186583       -32.2886
  13   2.0000      -1.072685       -29.1893
  14   2.0000      -0.969315       -26.3764
  15   2.0000      -0.903176       -24.5767
  16   2.0000      -0.859694       -23.3935
  17   2.0000      -0.777377       -21.1535
  18   2.0000      -0.741637       -20.1810
  19   2.0000      -0.679290       -18.4844
  20   2.0000      -0.671495       -18.2723
  21   2.0000      -0.660587       -17.9755
  22   2.0000      -0.644871       -17.5478
  23   2.0000      -0.625093       -17.0096
  24   2.0000      -0.592693       -16.1280
  25   2.0000      -0.584841       -15.9143
  26   2.0000      -0.552413       -15.0319
  27   2.0000      -0.531628       -14.4663
  28   2.0000      -0.501752       -13.6534
  29   2.0000      -0.473205       -12.8766
  30   2.0000      -0.433634       -11.7998
  31   2.0000      -0.398401       -10.8411
  32   2.0000      -0.358101        -9.7444
  33   0.0000       0.113975         3.1014
  34   0.0000       0.138604         3.7716
  35   0.0000       0.149379         4.0648
  36   0.0000       0.157095         4.2748
  37   0.0000       0.185705         5.0533

MULLIKEN ATOMIC CHARGES
-----------------------
   0 C :   -0.205209
   1 O :   -0.256647
   2 C :    0.343072
   3 N :   -0.309658
   4 C :    0.051579
   5 N :   -0.308339
   6 C :    0.338300
   7 O :   -0.405086
   8 C :   -0.292678
   9 H :    0.146532
  10 H :    0.136568
  11 H :    0.136559
  12 H :    0.133510
  13 H :    0.342207
  14 H :    0.149291
Sum of atomic charges:    0.0000000

LOEWDIN ATOMIC CHARGES
----------------------
   0 C :   -0.311585
   1 O :    0.247167
   2 C :   -0.339826
   3 N :    0.122707
   4 C :   -0.288458
   5 N :    0.107316
   6 C :   -0.366677
   7 O :    0.099553
   8 C :   -0.108629
   9 H :    0.114900
  10 H :    0.113034
  11 H :    0.113033
  12 H :    0.135469
  13 H :    0.201921
  14 H :    0.160074

  Mayer bond orders larger than 0.1
B(  0-C ,  1-O ) :   0.8367 B(  0-C ,  9-H ) :   0.9333 B(  0-C , 10-H ) :   0.9357
B(  0-C , 11-H ) :   0.9357 B(  1-O ,  2-C ) :   1.1385 B(  2-C ,  3-N ) :   1.2779
B(  2-C ,  8-C ) :   1.3074 B(  3-N ,  4-C ) :   1.4105 B(  4-C ,  5-N ) :   1.4251
B(  4-C , 12-H ) :   0.9365 B(  5-N ,  6-C ) :   1.3058 B(  6-C ,  7-O ) :   1.1360
B(  6-C ,  8-C ) :   1.3521 B(  7-O , 13-H ) :   0.8089 B(  8-C , 14-H ) :   0.9243

MP2 TOTAL ENERGY:     -453.271155309 Eh
FINAL SINGLE POINT ENERGY      -453.271155309019

DIPOLE MOMENT
-------------
                                X             Y             Z
Electronic contribution:     -2.54980      -4.78953      -0.11342
Nuclear contribution   :      2.68402       5.06253       0.11979
                        -----------------------------------------
Total Dipole Moment    :      0.13422       0.27299       0.00637
                        -----------------------------------------
Magnitude (a.u.)       :      0.30427
Magnitude (Debye)      :      0.77340

                             ****ORCA TERMINATED NORMALLY****
TOTAL RUN TIME: 0 days 0 hours 13 minutes 50 seconds 95 msec
