                         Program Version 3.0.3 - RELEASE   -
|  1> ! RI-MP2 RIJK def2-TZVP def2-TZVP/C def2-TZVP/JK TIGHTSCF
|  2> % maxcore 2000
|  3> % mp2 density relaxed end
|  4> *xyz 0 1
|  5>  C        0.4432066270     1.0033517086     0.6672908299
|  6>  C       -0.1206278614    -0.2264983924    -0.0240065249
|  7>  O        0.8261494212    -0.6773310433    -0.9781343575
|  8>  C        0.4886268983    -1.8880086579    -1.6416240814
|  9>  C       -0.5384239956    -1.6942472860    -2.7586539121
| 10>  C        1.7699706230    -2.5307959507    -2.2039841677
| 11>  N        2.9219317087    -1.9316968319    -1.8174514769
| 12>  O        1.7127662747    -3.5154357477    -2.9170364972
| 13>  H        1.3802733679     0.7639773632     1.1786456728
| 14>  H        0.6404914418     1.7959814819    -0.0600619513
| 15>  H       -0.2675713040     1.3821397165     1.4075929785
| 16>  H       -0.3224027291    -1.0258921330     0.7076333033
| 17>  H       -1.0755398032     0.0162461319    -0.5129057565
| 18>  H        0.0934281822    -2.6087710138    -0.9068023591
| 19>  H       -0.1976370504    -0.9192381688    -3.4518518278
| 20>  H       -0.6464823215    -2.6322137509    -3.3060808958
| 21>  H       -1.5132074194    -1.4018968760    -2.3595342317
| 22>  H        2.8825627610    -1.0855447962    -1.2759278000
| 23>  H        3.7945401691    -2.2816845638    -2.1747967745
| 24> *
| 25>
| 26>                          ****END OF INPUT****

CARTESIAN COORDINATES (ANGSTROEM)
---------------------------------
  C      0.443207    1.003352    0.667291
  C     -0.120628   -0.226498   -0.024007
  O      0.826149   -0.677331   -0.978134
  C      0.488627   -1.888009   -1.641624
  C     -0.538424   -1.694247   -2.758654
  C      1.769971   -2.530796   -2.203984
  N      2.921932   -1.931697   -1.817451
  O      1.712766   -3.515436   -2.917036
  H      1.380273    0.763977    1.178646
  H      0.640491    1.795981   -0.060062
  H     -0.267571    1.382140    1.407593
  H     -0.322403   -1.025892    0.707633
  H     -1.075540    0.016246   -0.512906
  H      0.093428   -2.608771   -0.906802
  H     -0.197637   -0.919238   -3.451852
  H     -0.646482   -2.632214   -3.306081
  H     -1.513207   -1.401897   -2.359534
  H      2.882563   -1.085545   -1.275928
  H      3.794540   -2.281685   -2.174797

 Total Charge           Charge          ....    0
 Multiplicity           Mult            ....    1
 Number of Electrons    NEL             ....   64
 Basis Dimension        Dim             ....  314

ORBITAL ENERGIES
----------------

  NO   OCC          E(Eh)            E(eV)
   0   2.0000     -20.570429      -559.7498
   1   2.0000     -20.510527      -558.1198
   2   2.0000     -15.574663      -423.8081
   3   2.0000     -11.344595      -308.7021
   4   2.0000     -11.297877      -307.4309
   5   2.0000     -11.289012      -307.1896
   6   2.0000     -11.227026      -305.5029
   7   2.0000     -11.220144      -305.3157
   8   2.0000      -1.397609       -38.0309
   9   2.0000      -1.370910       -37.3044
  10   2.0000      -1.205505       -32.8035
  11   2.0000      -1.058313       -28.7982
  12   2.0000      -1.002134       -27.2695
  13   2.0000      -0.895975       -24.3807
  14   2.0000      -0.842379       -22.9223
  15   2.0000      -0.779935       -21.2231
  16   2.0000      -0.732475       -19.9317
  17   2.0000      -0.696054       -18.9406
  18   2.0000      -0.677242       -18.4287
  19   2.0000      -0.647010       -17.6060
  20   2.0000      -0.607761       -16.5380
  21   2.0000      -0.595763       -16.2115
  22   2.0000      -0.565301       -15.3826
  23   2.0000      -0.561399       -15.2764
  24   2.0000      -0.548996       -14.9389
  25   2.0000      -0.535743       -14.5783
  26   2.0000      -0.526324       -14.3220
  27   2.0000      -0.501920       -13.6579
  28   2.0000      -0.489212       -13.3121
  29   2.0000      -0.441749       -12.0206
  30   2.0000      -0.413271       -11.2457
  31   2.0000      -0.406099       -11.0505
  32   0.0000       0.127490         3.4692
  33   0.0000       0.148407         4.0384
  34   0.0000       0.154230         4.1968
  35   0.0000       0.169869         4.6224
  36   0.0000       0.188683         5.1343

MULLIKEN ATOMIC CHARGES
-----------------------
   0 C :   -0.370352
   1 C :   -0.050781
   2 O :   -0.336706
   3 C :    0.113591
   4 C :   -0.407956
   5 C :    0.248724
   6 N :   -0.464392
   7 O :   -0.366182
   8 H :    0.127069
   9 H :    0.133454
  10 H :    0.128610
  11 H :    0.097731
  12 H :    0.101799
  13 H :    0.092345
  14 H :    0.128706
  15 H :    0.163406
  16 H :    0.128128
  17 H :    0.277812
  18 H :    0.254995
Sum of atomic charges:    0.0000000

LOEWDIN ATOMIC CHARGES
----------------------
   0 C :   -0.317129
   1 C :   -0.346571
   2 O :    0.162258
   3 C :   -0.311599
   4 C :   -0.288667
   5 C :   -0.465652
   6 N :   -0.003730
   7 O :    0.075681
   8 H :    0.122504
   9 H :    0.124823
  10 H :    0.126630
  11 H :    0.118562
  12 H :    0.119557
  13 H :    0.148755
  14 H :    0.128340
  15 H :    0.138720
  16 H :    0.119832
  17 H :    0.175240
  18 H :    0.172447

  Mayer bond orders larger than 0.1
B(  0-C ,  1-C ) :   0.9535 B(  0-C ,  8-H ) :   0.9371 B(  0-C ,  9-H ) :   0.9357
B(  0-C , 10-H ) :   0.9322 B(  1-C ,  2-O ) :   0.9111 B(  1-C , 11-H ) :   0.9252
B(  1-C , 12-H ) :   0.9238 B(  2-O ,  3-C ) :   0.8838 B(  3-C ,  4-C ) :   0.9254
B(  3-C ,  5-C ) :   0.8942 B(  3-C , 13-H ) :   0.9228 B(  4-C , 14-H ) :   0.9296
B(  4-C , 15-H ) :   0.9221 B(  4-C , 16-H ) :   0.9340 B(  5-C ,  6-N ) :   1.1856
B(  5-C ,  7-O ) :   1.9675 B(  6-N , 17-H ) :   0.8475 B(  6-N , 18-H ) :   0.8606

MP2 TOTAL ENERGY:     -401.586508677 Eh
FINAL SINGLE POINT ENERGY      -401.586508676655

DIPOLE MOMENT
-------------
                                X             Y             Z
Electronic contribution:      5.18477      -6.05225      -3.96010
Nuclear contribution   :     -5.27455       7.12379       4.88876
                        -----------------------------------------
Total Dipole Moment    :     -0.08978       1.07154       0.92866
                        -----------------------------------------
Magnitude (a.u.)       :      1.42080
Magnitude (Debye)      :      3.61139

                             ****ORCA TERMINATED NORMALLY****
TOTAL RUN TIME: 0 days 0 hours 12 minutes 47 seconds 12 msec
