                         Program Version 3.0.3 - RELEASE   -
|  1> ! RI-MP2 RIJK def2-TZVP def2-TZVP/C def2-TZVP/JK TIGHTSCF
|  2> % maxcore 2000
|  3> % mp2 density relaxed end
|  4> *xyz 0 1
|  5>  C       -0.0266723235     1.3409215652     0.0335203661
|  6>  O        0.0106246682    -0.0902496150    -0.0118500732
|  7>  C        0.6143115342    -0.6208494761    -1.0692852364
|  8>  N        1.1547030017     0.0867729157    -2.0321194170
|  9>  O        1.6709348879    -0.8588412819    -2.9295578594
| 10>  C        1.4186654781    -2.0850132664    -2.4677168425
| 11>  C        0.7462086232    -2.0390965888    -1.2822035214
| 12>  C        0.2903000742    -3.0914505932    -0.4635676488
| 13>  C       -0.1033138754    -3.9819774598     0.2436688895
| 14>  H        0.9871139965     1.7518600885     0.0448362124
| 15>  H       -0.5613415529     1.7393579983    -0.8337345608
| 16>  H       -0.5513791703     1.5930423843     0.9547422136
| 17>  H        1.7677373144    -2.9078025389    -3.0720642993
| 18>  H       -0.4504434862    -4.7664906418     0.8693076972
| 19> *
| 20>
| 21>                          ****END OF INPUT****

CARTESIAN COORDINATES (ANGSTROEM)
---------------------------------
  C     -0.026672    1.340922    0.033520
  O      0.010625   -0.090250   -0.011850
  C      0.614312   -0.620849   -1.069285
  N      1.154703    0.086773   -2.032119
  O      1.670935   -0.858841   -2.929558
  C      1.418665   -2.085013   -2.467717
  C      0.746209   -2.039097   -1.282204
  C      0.290300   -3.091451   -0.463568
  C     -0.103314   -3.981977    0.243669
  H      0.987114    1.751860    0.044836
  H     -0.561342    1.739358   -0.833735
  H     -0.551379    1.593042    0.954742
  H      1.767737   -2.907803   -3.072064
  H     -0.450443   -4.766491    0.869308

 Total Charge           Charge          ....    0
 Multiplicity           Mult            ....    1
 Number of Electrons    NEL             ....   64
 Basis Dimension        Dim             ....  309

ORBITAL ENERGIES
----------------

  NO   OCC          E(Eh)            E(eV)
   0   2.0000     -20.653632      -562.0139
   1   2.0000     -20.612695      -560.8999
   2   2.0000     -15.615116      -424.9089
   3   2.0000     -11.353026      -308.9316
   4   2.0000     -11.336712      -308.4876
   5   2.0000     -11.292284      -307.2787
   6   2.0000     -11.270380      -306.6826
   7   2.0000     -11.251489      -306.1686
   8   2.0000     -11.239023      -305.8294
   9   2.0000      -1.505153       -40.9573
  10   2.0000      -1.443000       -39.2660
  11   2.0000      -1.164066       -31.6759
  12   2.0000      -1.116716       -30.3874
  13   2.0000      -1.024477       -27.8774
  14   2.0000      -0.974662       -26.5219
  15   2.0000      -0.870956       -23.6999
  16   2.0000      -0.806669       -21.9506
  17   2.0000      -0.783259       -21.3136
  18   2.0000      -0.724010       -19.7013
  19   2.0000      -0.692770       -18.8512
  20   2.0000      -0.684827       -18.6351
  21   2.0000      -0.666743       -18.1430
  22   2.0000      -0.647518       -17.6199
  23   2.0000      -0.614918       -16.7328
  24   2.0000      -0.573412       -15.6033
  25   2.0000      -0.539858       -14.6903
  26   2.0000      -0.527737       -14.3604
  27   2.0000      -0.489338       -13.3156
  28   2.0000      -0.470639       -12.8067
  29   2.0000      -0.406588       -11.0638
  30   2.0000      -0.395501       -10.7621
  31   2.0000      -0.346408        -9.4262
  32   0.0000       0.102403         2.7865
  33   0.0000       0.152306         4.1444
  34   0.0000       0.158047         4.3007
  35   0.0000       0.162183         4.4132
  36   0.0000       0.171540         4.6678

MULLIKEN ATOMIC CHARGES
-----------------------
   0 C :   -0.221029
   1 O :   -0.263154
   2 C :    0.234600
   3 N :   -0.172563
   4 O :   -0.107638
   5 C :    0.017311
   6 C :   -0.193805
   7 C :    0.047625
   8 C :   -0.144753
   9 H :    0.141893
  10 H :    0.141904
  11 H :    0.150633
  12 H :    0.171072
  13 H :    0.197907
Sum of atomic charges:   -0.0000000

LOEWDIN ATOMIC CHARGES
----------------------
   0 C :   -0.302061
   1 O :    0.255139
   2 C :   -0.375168
   3 N :    0.031096
   4 O :    0.279098
   5 C :   -0.209330
   6 C :   -0.167400
   7 C :   -0.069321
   8 C :   -0.062776
   9 H :    0.114965
  10 H :    0.114968
  11 H :    0.116692
  12 H :    0.144412
  13 H :    0.129687

  Mayer bond orders larger than 0.1
B(  0-C ,  1-O ) :   0.8381 B(  0-C ,  9-H ) :   0.9344 B(  0-C , 10-H ) :   0.9344
B(  0-C , 11-H ) :   0.9342 B(  1-O ,  2-C ) :   1.1706 B(  2-C ,  3-N ) :   1.5490
B(  2-C ,  6-C ) :   1.1298 B(  3-N ,  4-O ) :   0.8473 B(  3-N ,  5-C ) :   0.1046
B(  4-O ,  5-C ) :   1.1403 B(  5-C ,  6-C ) :   1.5063 B(  5-C , 12-H ) :   0.9113
B(  6-C ,  7-C ) :   1.1539 B(  6-C ,  8-C ) :  -0.1443 B(  7-C ,  8-C ) :   2.6299
B(  8-C , 13-H ) :   0.8715

MP2 TOTAL ENERGY:     -435.896627435 Eh
FINAL SINGLE POINT ENERGY      -435.896627435091

DIPOLE MOMENT
-------------
                                X             Y             Z
Electronic contribution:      1.70626      -3.26369      -2.96431
Nuclear contribution   :     -1.90585       3.02391       3.32029
                        -----------------------------------------
Total Dipole Moment    :     -0.19958      -0.23977       0.35598
                        -----------------------------------------
Magnitude (a.u.)       :      0.47333
Magnitude (Debye)      :      1.20312

                             ****ORCA TERMINATED NORMALLY****
TOTAL RUN TIME: 0 days 0 hours 14 minutes 39 seconds 177 msec
