                         Program Version 3.0.3 - RELEASE   -
|  1> ! RI-MP2 RIJK def2-TZVP def2-TZVP/C def2-TZVP/JK TIGHTSCF
|  2> % maxcore 2000
|  3> % mp2 density relaxed end
|  4> *xyz 0 1
|  5>  C       -0.1139158086     1.4979997666     0.0224898416
|  6>  C        0.0416248916     0.0041602522     0.0092544499
|  7>  C        0.4620518282    -0.7209518656    -1.2907608649
|  8>  C        0.4911479523    -2.1620985705    -0.7013086757
|  9>  C        1.9193805959    -2.4740978688    -0.2260202224
| 10>  C        2.1955185570    -1.3437659026     0.8151912543
| 11>  C        0.7928609966    -0.8124121708     1.1223558355
| 12>  C       -0.2634602204    -1.8230139336     0.6286401721
| 13>  O       -1.1796101234    -0.7465191617     0.3306558414
| 14>  H        0.8490020260     1.9830480718    -0.1690799970
| 15>  H       -0.8159967343     1.8189036840    -0.7545111328
| 16>  H       -0.4901645998     1.8426290241     0.9898393646
| 17>  H       -0.3057306408    -0.5799996639    -2.0549108122
| 18>  H        1.4279259318    -0.4022648594    -1.6945246297
| 19>  H        0.0366348352    -2.9286885403    -1.3293078492
| 20>  H        1.9602706733    -3.4573371901     0.2572690137
| 21>  H        2.6417693055    -2.4877557188    -1.0473727682
| 22>  H        2.6851564567    -1.7296019132     1.7137071926
| 23>  H        2.8495948496    -0.5634487553     0.4115280504
| 24>  H        0.6173796649    -0.4049112368     2.1179987230
| 25>  H       -0.6881088774    -2.6312646574     1.2242066331
| 26> *
| 27>
| 28>                          ****END OF INPUT****

CARTESIAN COORDINATES (ANGSTROEM)
---------------------------------
  C     -0.113916    1.498000    0.022490
  C      0.041625    0.004160    0.009254
  C      0.462052   -0.720952   -1.290761
  C      0.491148   -2.162099   -0.701309
  C      1.919381   -2.474098   -0.226020
  C      2.195519   -1.343766    0.815191
  C      0.792861   -0.812412    1.122356
  C     -0.263460   -1.823014    0.628640
  O     -1.179610   -0.746519    0.330656
  H      0.849002    1.983048   -0.169080
  H     -0.815997    1.818904   -0.754511
  H     -0.490165    1.842629    0.989839
  H     -0.305731   -0.580000   -2.054911
  H      1.427926   -0.402265   -1.694525
  H      0.036635   -2.928689   -1.329308
  H      1.960271   -3.457337    0.257269
  H      2.641769   -2.487756   -1.047373
  H      2.685156   -1.729602    1.713707
  H      2.849595   -0.563449    0.411528
  H      0.617380   -0.404911    2.117999
  H     -0.688109   -2.631265    1.224207

 Total Charge           Charge          ....    0
 Multiplicity           Mult            ....    1
 Number of Electrons    NEL             ....   68
 Basis Dimension        Dim             ....  351

ORBITAL ENERGIES
----------------

  NO   OCC          E(Eh)            E(eV)
   0   2.0000     -20.537851      -558.8633
   1   2.0000     -11.285531      -307.0949
   2   2.0000     -11.274131      -306.7847
   3   2.0000     -11.226452      -305.4873
   4   2.0000     -11.226173      -305.4797
   5   2.0000     -11.223658      -305.4113
   6   2.0000     -11.222951      -305.3920
   7   2.0000     -11.218495      -305.2708
   8   2.0000     -11.217182      -305.2350
   9   2.0000      -1.382330       -37.6151
  10   2.0000      -1.130348       -30.7583
  11   2.0000      -1.024930       -27.8898
  12   2.0000      -0.991254       -26.9734
  13   2.0000      -0.950971       -25.8772
  14   2.0000      -0.903617       -24.5887
  15   2.0000      -0.814325       -22.1589
  16   2.0000      -0.748719       -20.3737
  17   2.0000      -0.727122       -19.7860
  18   2.0000      -0.673405       -18.3243
  19   2.0000      -0.647482       -17.6189
  20   2.0000      -0.635261       -17.2863
  21   2.0000      -0.601520       -16.3682
  22   2.0000      -0.579183       -15.7604
  23   2.0000      -0.556787       -15.1509
  24   2.0000      -0.537234       -14.6189
  25   2.0000      -0.527853       -14.3636
  26   2.0000      -0.510545       -13.8926
  27   2.0000      -0.492586       -13.4039
  28   2.0000      -0.484089       -13.1727
  29   2.0000      -0.468407       -12.7460
  30   2.0000      -0.464808       -12.6481
  31   2.0000      -0.437932       -11.9167
  32   2.0000      -0.411105       -11.1867
  33   2.0000      -0.393198       -10.6995
  34   0.0000       0.133630         3.6363
  35   0.0000       0.149556         4.0696
  36   0.0000       0.169176         4.6035
  37   0.0000       0.171910         4.6779
  38   0.0000       0.192670         5.2428

MULLIKEN ATOMIC CHARGES
-----------------------
   0 C :   -0.412965
   1 C :    0.122334
   2 C :   -0.278029
   3 C :    0.041575
   4 C :   -0.301461
   5 C :   -0.243664
   6 C :   -0.053279
   7 C :   -0.042494
   8 O :   -0.315894
   9 H :    0.132575
  10 H :    0.140748
  11 H :    0.139726
  12 H :    0.116024
  13 H :    0.118225
  14 H :    0.123630
  15 H :    0.115904
  16 H :    0.121498
  17 H :    0.123108
  18 H :    0.114119
  19 H :    0.116475
  20 H :    0.121843
Sum of atomic charges:    0.0000000

LOEWDIN ATOMIC CHARGES
----------------------
   0 C :   -0.269710
   1 C :   -0.299028
   2 C :   -0.182468
   3 C :   -0.206012
   4 C :   -0.231103
   5 C :   -0.231414
   6 C :   -0.163446
   7 C :   -0.224039
   8 O :    0.174334
   9 H :    0.132844
  10 H :    0.133870
  11 H :    0.131325
  12 H :    0.139987
  13 H :    0.137703
  14 H :    0.140278
  15 H :    0.135766
  16 H :    0.132848
  17 H :    0.135335
  18 H :    0.135702
  19 H :    0.147436
  20 H :    0.129790

  Mayer bond orders larger than 0.1
B(  0-C ,  1-C ) :   0.8415 B(  0-C ,  9-H ) :   0.9385 B(  0-C , 10-H ) :   0.9399
B(  0-C , 11-H ) :   0.9443 B(  1-C ,  2-C ) :   0.9742 B(  1-C ,  6-C ) :   0.8939
B(  1-C ,  8-O ) :   0.9109 B(  2-C ,  3-C ) :   0.9237 B(  2-C , 12-H ) :   0.9173
B(  2-C , 13-H ) :   0.9265 B(  3-C ,  4-C ) :   0.8988 B(  3-C ,  7-C ) :   0.8465
B(  3-C , 14-H ) :   0.9151 B(  4-C ,  5-C ) :   0.9488 B(  4-C , 15-H ) :   0.9268
B(  4-C , 16-H ) :   0.9228 B(  5-C ,  6-C ) :   0.9007 B(  5-C , 17-H ) :   0.9225
B(  5-C , 18-H ) :   0.9181 B(  6-C ,  7-C ) :   0.9725 B(  6-C , 19-H ) :   0.9183
B(  7-C ,  8-O ) :   0.9714 B(  7-C , 20-H ) :   0.9125

MP2 TOTAL ENERGY:     -386.424982263 Eh
FINAL SINGLE POINT ENERGY      -386.424982262998

DIPOLE MOMENT
-------------
                                X             Y             Z
Electronic contribution:     -4.05032      -1.57771       1.15442
Nuclear contribution   :      4.78827       1.53705      -1.17325
                        -----------------------------------------
Total Dipole Moment    :      0.73795      -0.04067      -0.01883
                        -----------------------------------------
Magnitude (a.u.)       :      0.73931
Magnitude (Debye)      :      1.87917

                             ****ORCA TERMINATED NORMALLY****
TOTAL RUN TIME: 0 days 0 hours 21 minutes 5 seconds 699 msec
