                         Program Version 3.0.3 - RELEASE   -
|  1> ! RI-MP2 RIJK def2-TZVP def2-TZVP/C def2-TZVP/JK TIGHTSCF
|  2> % maxcore 2000
|  3> % mp2 density relaxed end
|  4> *xyz 0 1
|  5>  O       -0.0559077183     1.0145415352    -0.8170319467
|  6>  C       -0.0910027083    -0.2542891503    -0.2480577801
|  7>  C       -0.3001007534    -0.3999995898     1.2330018115
|  8>  C       -1.4311103723    -0.7203601891     0.2728676370
|  9>  N       -2.5616739316     0.1692786548     0.2018176805
| 10>  C       -2.9421282740     0.6515561771    -1.0680750561
| 11>  O       -3.8634791333     1.3820113724    -1.2948821004
| 12>  C       -3.2910274261     0.4135955221     1.3759520277
| 13>  O       -4.2836923110     1.0781056841     1.4758683431
| 14>  H        0.7456831684     1.4621765734    -0.5272604007
| 15>  H        0.5111815160    -1.0072793976    -0.7547555082
| 16>  H        0.1718723470    -1.2188934731     1.7631739026
| 17>  H       -0.3929566417     0.5239621214     1.7929565406
| 18>  H       -1.6632806531    -1.7718411382     0.1242676141
| 19>  H       -2.2656657016     0.2542167491    -1.8451645395
| 20>  H       -2.8184147867    -0.1082957315     2.2307772745
| 21> *
| 22>
| 23>                          ****END OF INPUT****

CARTESIAN COORDINATES (ANGSTROEM)
---------------------------------
  O     -0.055908    1.014542   -0.817032
  C     -0.091003   -0.254289   -0.248058
  C     -0.300101   -0.400000    1.233002
  C     -1.431110   -0.720360    0.272868
  N     -2.561674    0.169279    0.201818
  C     -2.942128    0.651556   -1.068075
  O     -3.863479    1.382011   -1.294882
  C     -3.291027    0.413596    1.375952
  O     -4.283692    1.078106    1.475868
  H      0.745683    1.462177   -0.527260
  H      0.511182   -1.007279   -0.754756
  H      0.171872   -1.218893    1.763174
  H     -0.392957    0.523962    1.792957
  H     -1.663281   -1.771841    0.124268
  H     -2.265666    0.254217   -1.845165
  H     -2.818415   -0.108296    2.230777

 Total Charge           Charge          ....    0
 Multiplicity           Mult            ....    1
 Number of Electrons    NEL             ....   68
 Basis Dimension        Dim             ....  321

ORBITAL ENERGIES
----------------

  NO   OCC          E(Eh)            E(eV)
   0   2.0000     -20.596430      -560.4574
   1   2.0000     -20.545782      -559.0791
   2   2.0000     -20.541983      -558.9758
   3   2.0000     -15.620058      -425.0434
   4   2.0000     -11.364424      -309.2417
   5   2.0000     -11.360021      -309.1219
   6   2.0000     -11.323450      -308.1267
   7   2.0000     -11.305337      -307.6339
   8   2.0000     -11.266605      -306.5799
   9   2.0000      -1.417614       -38.5752
  10   2.0000      -1.408132       -38.3172
  11   2.0000      -1.388691       -37.7882
  12   2.0000      -1.276078       -34.7238
  13   2.0000      -1.146594       -31.2004
  14   2.0000      -0.935086       -25.4450
  15   2.0000      -0.877000       -23.8644
  16   2.0000      -0.858656       -23.3652
  17   2.0000      -0.774521       -21.0758
  18   2.0000      -0.760356       -20.6903
  19   2.0000      -0.717046       -19.5118
  20   2.0000      -0.691689       -18.8218
  21   2.0000      -0.674708       -18.3597
  22   2.0000      -0.645842       -17.5743
  23   2.0000      -0.640493       -17.4287
  24   2.0000      -0.618056       -16.8182
  25   2.0000      -0.584568       -15.9069
  26   2.0000      -0.580388       -15.7931
  27   2.0000      -0.545507       -14.8440
  28   2.0000      -0.525466       -14.2987
  29   2.0000      -0.480126       -13.0649
  30   2.0000      -0.462717       -12.5912
  31   2.0000      -0.458278       -12.4704
  32   2.0000      -0.415155       -11.2969
  33   2.0000      -0.403411       -10.9774
  34   0.0000       0.114427         3.1137
  35   0.0000       0.122061         3.3214
  36   0.0000       0.130161         3.5419
  37   0.0000       0.145771         3.9666
  38   0.0000       0.171619         4.6700

MULLIKEN ATOMIC CHARGES
-----------------------
   0 O :   -0.457259
   1 C :    0.043434
   2 C :   -0.307333
   3 C :   -0.113606
   4 N :   -0.047782
   5 C :    0.143245
   6 O :   -0.251867
   7 C :    0.110945
   8 O :   -0.251879
   9 H :    0.334776
  10 H :    0.121156
  11 H :    0.148144
  12 H :    0.173671
  13 H :    0.146724
  14 H :    0.104544
  15 H :    0.103086
Sum of atomic charges:    0.0000000

LOEWDIN ATOMIC CHARGES
----------------------
   0 O :    0.015522
   1 C :   -0.322593
   2 C :   -0.211343
   3 C :   -0.228916
   4 N :    0.186488
   5 C :   -0.351616
   6 O :    0.140337
   7 C :   -0.363963
   8 O :    0.137108
   9 H :    0.187909
  10 H :    0.135685
  11 H :    0.138085
  12 H :    0.146364
  13 H :    0.146729
  14 H :    0.124026
  15 H :    0.120179

  Mayer bond orders larger than 0.1
B(  0-O ,  1-C ) :   1.0401 B(  0-O ,  3-C ) :  -0.1007 B(  0-O ,  9-H ) :   0.8334
B(  1-C ,  2-C ) :   0.8769 B(  1-C ,  3-C ) :   0.8615 B(  1-C , 10-H ) :   0.9531
B(  2-C ,  3-C ) :   0.8681 B(  2-C , 11-H ) :   0.9204 B(  2-C , 12-H ) :   0.9281
B(  3-C ,  4-N ) :   0.9414 B(  3-C , 13-H ) :   0.9277 B(  4-N ,  5-C ) :   0.9406
B(  4-N ,  7-C ) :   0.9599 B(  5-C ,  6-O ) :   2.0104 B(  5-C , 14-H ) :   0.9279
B(  7-C ,  8-O ) :   2.0083 B(  7-C , 15-H ) :   0.9298

MP2 TOTAL ENERGY:     -474.275861068 Eh
FINAL SINGLE POINT ENERGY      -474.275861067916

DIPOLE MOMENT
-------------
                                X             Y             Z
Electronic contribution:     -5.85545       3.00843      -1.41212
Nuclear contribution   :      8.32471      -4.38191       1.87263
                        -----------------------------------------
Total Dipole Moment    :      2.46927      -1.37348       0.46051
                        -----------------------------------------
Magnitude (a.u.)       :      2.86283
Magnitude (Debye)      :      7.27673

                             ****ORCA TERMINATED NORMALLY****
TOTAL RUN TIME: 0 days 0 hours 13 minutes 23 seconds 715 msec
