                         Program Version 3.0.3 - RELEASE   -
|  1> ! RI-MP2 RIJK def2-TZVP def2-TZVP/C def2-TZVP/JK TIGHTSCF
|  2> % maxcore 2000
|  3> % mp2 density relaxed end
|  4> *xyz 0 1
|  5>  O        0.1272131339     1.4516164551    -0.1002830466
|  6>  C        0.0293248788     0.0584292038    -0.0187772611
|  7>  C        0.2848707508    -0.6811390738     1.3220862268
|  8>  C       -0.8567550316    -0.2624862988     2.2709325725
|  9>  C       -2.0243151027    -0.2353833956     1.3330154805
| 10>  C       -1.3554876158    -0.6429734473     0.0043217941
| 11>  C       -0.7425111662    -1.7779077430     0.8888114512
| 12>  N       -1.6850815970    -1.4971193177     2.0703288995
| 13>  H       -0.4252001530     1.8215546694     0.5982028342
| 14>  H        0.6591680618    -0.3524341784    -0.8146904275
| 15>  H        1.2773757261    -0.8696831265     1.7238874040
| 16>  H       -0.8157149720     0.2448989180     3.2269961570
| 17>  H       -2.9521205056     0.2944776939     1.5107959413
| 18>  H       -1.9665675535    -0.7942067672    -0.8821137399
| 19>  H       -0.5216493438    -2.7971335720     0.5843627541
| 20> *
| 21>
| 22>                          ****END OF INPUT****

CARTESIAN COORDINATES (ANGSTROEM)
---------------------------------
  O      0.127213    1.451616   -0.100283
  C      0.029325    0.058429   -0.018777
  C      0.284871   -0.681139    1.322086
  C     -0.856755   -0.262486    2.270933
  C     -2.024315   -0.235383    1.333015
  C     -1.355488   -0.642973    0.004322
  C     -0.742511   -1.777908    0.888811
  N     -1.685082   -1.497119    2.070329
  H     -0.425200    1.821555    0.598203
  H      0.659168   -0.352434   -0.814690
  H      1.277376   -0.869683    1.723887
  H     -0.815715    0.244899    3.226996
  H     -2.952121    0.294478    1.510796
  H     -1.966568   -0.794207   -0.882114
  H     -0.521649   -2.797134    0.584363

 Total Charge           Charge          ....    0
 Multiplicity           Mult            ....    1
 Number of Electrons    NEL             ....   58
 Basis Dimension        Dim             ....  290

ORBITAL ENERGIES
----------------

  NO   OCC          E(Eh)            E(eV)
   0   2.0000     -20.564057      -559.5764
   1   2.0000     -15.566083      -423.5747
   2   2.0000     -11.290665      -307.2346
   3   2.0000     -11.274913      -306.8060
   4   2.0000     -11.271672      -306.7178
   5   2.0000     -11.270963      -306.6985
   6   2.0000     -11.245676      -306.0104
   7   2.0000     -11.245661      -306.0100
   8   2.0000      -1.377122       -37.4734
   9   2.0000      -1.330279       -36.1987
  10   2.0000      -1.086340       -29.5608
  11   2.0000      -0.962511       -26.1912
  12   2.0000      -0.931282       -25.3415
  13   2.0000      -0.853043       -23.2125
  14   2.0000      -0.762958       -20.7612
  15   2.0000      -0.738037       -20.0830
  16   2.0000      -0.710485       -19.3333
  17   2.0000      -0.683507       -18.5992
  18   2.0000      -0.636663       -17.3245
  19   2.0000      -0.609269       -16.5791
  20   2.0000      -0.579947       -15.7812
  21   2.0000      -0.558834       -15.2066
  22   2.0000      -0.541968       -14.7477
  23   2.0000      -0.508074       -13.8254
  24   2.0000      -0.482179       -13.1208
  25   2.0000      -0.430518       -11.7150
  26   2.0000      -0.428155       -11.6507
  27   2.0000      -0.394049       -10.7226
  28   2.0000      -0.371191       -10.1006
  29   0.0000       0.135706         3.6927
  30   0.0000       0.150676         4.1001
  31   0.0000       0.171329         4.6621
  32   0.0000       0.171991         4.6801
  33   0.0000       0.191055         5.1989

MULLIKEN ATOMIC CHARGES
-----------------------
   0 O :   -0.460989
   1 C :    0.013269
   2 C :   -0.040065
   3 C :   -0.142223
   4 C :   -0.142184
   5 C :   -0.040074
   6 C :   -0.096956
   7 N :   -0.217828
   8 H :    0.323087
   9 H :    0.105003
  10 H :    0.139077
  11 H :    0.138529
  12 H :    0.138530
  13 H :    0.139074
  14 H :    0.143750
Sum of atomic charges:   -0.0000000

LOEWDIN ATOMIC CHARGES
----------------------
   0 O :   -0.003855
   1 C :   -0.300789
   2 C :   -0.156967
   3 C :   -0.191297
   4 C :   -0.191293
   5 C :   -0.156965
   6 C :   -0.126249
   7 N :    0.126795
   8 H :    0.179295
   9 H :    0.148428
  10 H :    0.137706
  11 H :    0.134055
  12 H :    0.134056
  13 H :    0.137705
  14 H :    0.129374

  Mayer bond orders larger than 0.1
B(  0-O ,  1-C ) :   0.9811 B(  0-O ,  8-H ) :   0.8338 B(  1-C ,  2-C ) :   0.8931
B(  1-C ,  5-C ) :   0.8930 B(  1-C ,  9-H ) :   0.9365 B(  2-C ,  3-C ) :   0.8159
B(  2-C ,  6-C ) :   0.8837 B(  2-C , 10-H ) :   0.9200 B(  3-C ,  4-C ) :   0.9549
B(  3-C ,  7-N ) :   0.8949 B(  3-C , 11-H ) :   0.9266 B(  4-C ,  5-C ) :   0.8159
B(  4-C ,  7-N ) :   0.8949 B(  4-C , 12-H ) :   0.9266 B(  5-C ,  6-C ) :   0.8837
B(  5-C , 13-H ) :   0.9200 B(  6-C ,  7-N ) :   0.9402 B(  6-C , 14-H ) :   0.9046

MP2 TOTAL ENERGY:     -361.955316973 Eh
FINAL SINGLE POINT ENERGY      -361.955316973423

DIPOLE MOMENT
-------------
                                X             Y             Z
Electronic contribution:     -0.46528      -0.18189       0.57392
Nuclear contribution   :      0.51412       0.29320      -0.63146
                        -----------------------------------------
Total Dipole Moment    :      0.04883       0.11130      -0.05754
                        -----------------------------------------
Magnitude (a.u.)       :      0.13448
Magnitude (Debye)      :      0.34181

                             ****ORCA TERMINATED NORMALLY****
TOTAL RUN TIME: 0 days 0 hours 13 minutes 5 seconds 261 msec
