                         Program Version 3.0.3 - RELEASE   -
|  1> ! RI-MP2 RIJK def2-TZVP def2-TZVP/C def2-TZVP/JK TIGHTSCF
|  2> % maxcore 2000
|  3> % mp2 density relaxed end
|  4> *xyz 0 1
|  5>  O       -0.0778671251     1.4478839593    -0.0249772718
|  6>  C        0.0000481371     0.0309807673     0.0091855212
|  7>  C       -1.4282856022    -0.5043597931     0.0719472096
|  8>  C       -1.4498159683    -2.0378883619     0.0764837843
|  9>  C       -0.7285967437    -2.6234184337    -1.1542876728
| 10>  C        0.6726042219    -2.0462334482    -1.2994850907
| 11>  O        1.6548654396    -2.7339006353    -1.4514111395
| 12>  C        0.7415209977    -0.5246824053    -1.2236856817
| 13>  H        0.8185916313     1.7987751809    -0.0333174026
| 14>  H        0.5367735222    -0.2973084006     0.9155611389
| 15>  H       -1.9202114079    -0.1059800375     0.9646025196
| 16>  H       -1.9797468789    -0.1179590595    -0.7950927120
| 17>  H       -0.9644099011    -2.4099047103     0.9879747516
| 18>  H       -2.4816078906    -2.4012115061     0.1052111385
| 19>  H       -0.6545265266    -3.7122897318    -1.1103621226
| 20>  H       -1.2938477470    -2.3600075544    -2.0597139061
| 21>  H        0.2534703962    -0.1079823465    -2.1154094193
| 22>  H        1.7927428752    -0.2215512932    -1.2356429245
| 23> *
| 24>
| 25>                          ****END OF INPUT****

CARTESIAN COORDINATES (ANGSTROEM)
---------------------------------
  O     -0.077867    1.447884   -0.024977
  C      0.000048    0.030981    0.009186
  C     -1.428286   -0.504360    0.071947
  C     -1.449816   -2.037888    0.076484
  C     -0.728597   -2.623418   -1.154288
  C      0.672604   -2.046233   -1.299485
  O      1.654865   -2.733901   -1.451411
  C      0.741521   -0.524682   -1.223686
  H      0.818592    1.798775   -0.033317
  H      0.536774   -0.297308    0.915561
  H     -1.920211   -0.105980    0.964603
  H     -1.979747   -0.117959   -0.795093
  H     -0.964410   -2.409905    0.987975
  H     -2.481608   -2.401212    0.105211
  H     -0.654527   -3.712290   -1.110362
  H     -1.293848   -2.360008   -2.059714
  H      0.253470   -0.107982   -2.115409
  H      1.792743   -0.221551   -1.235643

 Total Charge           Charge          ....    0
 Multiplicity           Mult            ....    1
 Number of Electrons    NEL             ....   62
 Basis Dimension        Dim             ....  308

ORBITAL ENERGIES
----------------

  NO   OCC          E(Eh)            E(eV)
   0   2.0000     -20.566671      -559.6476
   1   2.0000     -20.546825      -559.1075
   2   2.0000     -11.330444      -308.3171
   3   2.0000     -11.296423      -307.3913
   4   2.0000     -11.241517      -305.8972
   5   2.0000     -11.239167      -305.8333
   6   2.0000     -11.238881      -305.8255
   7   2.0000     -11.231441      -305.6230
   8   2.0000      -1.389737       -37.8167
   9   2.0000      -1.373759       -37.3819
  10   2.0000      -1.118205       -30.4279
  11   2.0000      -1.020469       -27.7684
  12   2.0000      -0.993399       -27.0318
  13   2.0000      -0.863269       -23.4907
  14   2.0000      -0.812764       -22.1164
  15   2.0000      -0.742159       -20.1952
  16   2.0000      -0.703044       -19.1308
  17   2.0000      -0.668818       -18.1995
  18   2.0000      -0.651898       -17.7391
  19   2.0000      -0.633638       -17.2422
  20   2.0000      -0.609809       -16.5938
  21   2.0000      -0.585695       -15.9376
  22   2.0000      -0.562332       -15.3018
  23   2.0000      -0.554730       -15.0950
  24   2.0000      -0.548705       -14.9310
  25   2.0000      -0.510619       -13.8947
  26   2.0000      -0.491146       -13.3648
  27   2.0000      -0.483610       -13.1597
  28   2.0000      -0.469717       -12.7816
  29   2.0000      -0.449963       -12.2441
  30   2.0000      -0.405086       -11.0229
  31   0.0000       0.118741         3.2311
  32   0.0000       0.133110         3.6221
  33   0.0000       0.149967         4.0808
  34   0.0000       0.160110         4.3568
  35   0.0000       0.177398         4.8272

MULLIKEN ATOMIC CHARGES
-----------------------
   0 O :   -0.452430
   1 C :    0.056411
   2 C :   -0.201989
   3 C :   -0.249382
   4 C :   -0.213522
   5 C :    0.133075
   6 O :   -0.270728
   7 C :   -0.233398
   8 H :    0.315690
   9 H :    0.090116
  10 H :    0.134575
  11 H :    0.113809
  12 H :    0.124395
  13 H :    0.134085
  14 H :    0.139741
  15 H :    0.122552
  16 H :    0.131874
  17 H :    0.125126
Sum of atomic charges:   -0.0000000

LOEWDIN ATOMIC CHARGES
----------------------
   0 O :   -0.015228
   1 C :   -0.349583
   2 C :   -0.242677
   3 C :   -0.254830
   4 C :   -0.227929
   5 C :   -0.324175
   6 O :    0.150400
   7 C :   -0.217223
   8 H :    0.174927
   9 H :    0.137121
  10 H :    0.144121
  11 H :    0.144183
  12 H :    0.141660
  13 H :    0.140523
  14 H :    0.146290
  15 H :    0.152613
  16 H :    0.156194
  17 H :    0.143614

  Mayer bond orders larger than 0.1
B(  0-O ,  1-C ) :   1.0041 B(  0-O ,  8-H ) :   0.8449 B(  1-C ,  2-C ) :   0.9084
B(  1-C ,  7-C ) :   0.8860 B(  1-C ,  9-H ) :   0.9431 B(  2-C ,  3-C ) :   0.9093
B(  2-C , 10-H ) :   0.9223 B(  2-C , 11-H ) :   0.9272 B(  3-C ,  4-C ) :   0.8933
B(  3-C , 12-H ) :   0.9315 B(  3-C , 13-H ) :   0.9280 B(  4-C ,  5-C ) :   0.9249
B(  4-C , 14-H ) :   0.9192 B(  4-C , 15-H ) :   0.9069 B(  5-C ,  6-O ) :   2.0350
B(  5-C ,  7-C ) :   0.9005 B(  7-C , 16-H ) :   0.9015 B(  7-C , 17-H ) :   0.9090

MP2 TOTAL ENERGY:     -384.347897707 Eh
FINAL SINGLE POINT ENERGY      -384.347897706670

DIPOLE MOMENT
-------------
                                X             Y             Z
Electronic contribution:      4.45187      -0.49216      -1.45010
Nuclear contribution   :     -4.92435       0.81303       1.66959
                        -----------------------------------------
Total Dipole Moment    :     -0.47248       0.32088       0.21949
                        -----------------------------------------
Magnitude (a.u.)       :      0.61187
Magnitude (Debye)      :      1.55524

                             ****ORCA TERMINATED NORMALLY****
TOTAL RUN TIME: 0 days 0 hours 13 minutes 1 seconds 45 msec
