                         Program Version 3.0.3 - RELEASE   -
|  1> ! RI-MP2 RIJK def2-TZVP def2-TZVP/C def2-TZVP/JK TIGHTSCF
|  2> % maxcore 2000
|  3> % mp2 density relaxed end
|  4> *xyz 0 1
|  5>  C        0.0813244971     1.3393567384    -0.1908780151
|  6>  O       -0.0945685943    -0.0274146604     0.1099088806
|  7>  C        0.6427945041    -0.5761370829     1.2087440951
|  8>  C       -0.0201990425    -0.1936881857     2.5366170929
|  9>  C        0.5951480547    -2.0952617192     0.9684138658
| 10>  C        1.3929865871    -2.4682987439    -0.2880944914
| 11>  C        2.8050380486    -1.8870176298    -0.2130047893
| 12>  O        2.7866351733    -0.4829766446     0.0053208576
| 13>  C        2.1213400972    -0.1401343117     1.2026462857
| 14>  H        1.0728994681     1.5443541675    -0.6148271583
| 15>  H       -0.6745492015     1.5883779350    -0.9408176383
| 16>  H       -0.0760550864     1.9944576466     0.6786638746
| 17>  H       -1.0607335691    -0.5305736870     2.5419541794
| 18>  H        0.4963747416    -0.6540055726     3.3847937163
| 19>  H       -0.0129144471     0.8898037760     2.6927409744
| 20>  H        1.0110555762    -2.6056334492     1.8465021438
| 21>  H       -0.4501669620    -2.4065189492     0.8736688916
| 22>  H        1.4479899654    -3.5566200046    -0.4046920311
| 23>  H        0.8864471435    -2.0613951983    -1.1679865854
| 24>  H        3.3739806939    -2.3792859189     0.5964448830
| 25>  H        3.3516969924    -2.0404860469    -1.1478329616
| 26>  H        2.2181276924     0.9437860631     1.3120020129
| 27>  H        2.6192757573    -0.6041906615     2.0718151268
| 28> *
| 29>
| 30>                          ****END OF INPUT****

CARTESIAN COORDINATES (ANGSTROEM)
---------------------------------
  C      0.081324    1.339357   -0.190878
  O     -0.094569   -0.027415    0.109909
  C      0.642795   -0.576137    1.208744
  C     -0.020199   -0.193688    2.536617
  C      0.595148   -2.095262    0.968414
  C      1.392987   -2.468299   -0.288094
  C      2.805038   -1.887018   -0.213005
  O      2.786635   -0.482977    0.005321
  C      2.121340   -0.140134    1.202646
  H      1.072899    1.544354   -0.614827
  H     -0.674549    1.588378   -0.940818
  H     -0.076055    1.994458    0.678664
  H     -1.060734   -0.530574    2.541954
  H      0.496375   -0.654006    3.384794
  H     -0.012914    0.889804    2.692741
  H      1.011056   -2.605633    1.846502
  H     -0.450167   -2.406519    0.873669
  H      1.447990   -3.556620   -0.404692
  H      0.886447   -2.061395   -1.167987
  H      3.373981   -2.379286    0.596445
  H      3.351697   -2.040486   -1.147833
  H      2.218128    0.943786    1.312002
  H      2.619276   -0.604191    2.071815

 Total Charge           Charge          ....    0
 Multiplicity           Mult            ....    1
 Number of Electrons    NEL             ....   72
 Basis Dimension        Dim             ....  363

ORBITAL ENERGIES
----------------

  NO   OCC          E(Eh)            E(eV)
   0   2.0000     -20.550372      -559.2041
   1   2.0000     -20.545019      -559.0584
   2   2.0000     -11.283026      -307.0267
   3   2.0000     -11.271587      -306.7155
   4   2.0000     -11.268934      -306.6433
   5   2.0000     -11.262192      -306.4598
   6   2.0000     -11.218668      -305.2755
   7   2.0000     -11.216809      -305.2249
   8   2.0000     -11.214855      -305.1717
   9   2.0000      -1.380492       -37.5651
  10   2.0000      -1.356966       -36.9249
  11   2.0000      -1.081187       -29.4206
  12   2.0000      -1.034714       -28.1560
  13   2.0000      -0.942786       -25.6545
  14   2.0000      -0.924432       -25.1551
  15   2.0000      -0.879478       -23.9318
  16   2.0000      -0.820017       -22.3138
  17   2.0000      -0.751165       -20.4402
  18   2.0000      -0.682521       -18.5723
  19   2.0000      -0.657029       -17.8787
  20   2.0000      -0.645230       -17.5576
  21   2.0000      -0.640617       -17.4321
  22   2.0000      -0.616126       -16.7656
  23   2.0000      -0.598528       -16.2868
  24   2.0000      -0.567704       -15.4480
  25   2.0000      -0.556213       -15.1353
  26   2.0000      -0.551900       -15.0180
  27   2.0000      -0.535453       -14.5704
  28   2.0000      -0.530118       -14.4252
  29   2.0000      -0.521976       -14.2037
  30   2.0000      -0.482605       -13.1323
  31   2.0000      -0.478117       -13.0102
  32   2.0000      -0.456706       -12.4276
  33   2.0000      -0.449621       -12.2348
  34   2.0000      -0.416107       -11.3229
  35   2.0000      -0.394216       -10.7272
  36   0.0000       0.135561         3.6888
  37   0.0000       0.155667         4.2359
  38   0.0000       0.164076         4.4647
  39   0.0000       0.177527         4.8307
  40   0.0000       0.196477         5.3464

MULLIKEN ATOMIC CHARGES
-----------------------
   0 C :   -0.245421
   1 O :   -0.322516
   2 C :    0.190582
   3 C :   -0.410556
   4 C :   -0.213672
   5 C :   -0.203488
   6 C :   -0.085309
   7 O :   -0.315049
   8 C :   -0.099856
   9 H :    0.139311
  10 H :    0.140731
  11 H :    0.106144
  12 H :    0.141606
  13 H :    0.129699
  14 H :    0.129661
  15 H :    0.108419
  16 H :    0.120929
  17 H :    0.117807
  18 H :    0.118278
  19 H :    0.085930
  20 H :    0.127681
  21 H :    0.132508
  22 H :    0.106581
Sum of atomic charges:    0.0000000

LOEWDIN ATOMIC CHARGES
----------------------
   0 C :   -0.360555
   1 O :    0.177786
   2 C :   -0.385758
   3 C :   -0.271740
   4 C :   -0.224282
   5 C :   -0.268702
   6 C :   -0.315411
   7 O :    0.158006
   8 C :   -0.292859
   9 H :    0.106856
  10 H :    0.113965
  11 H :    0.099787
  12 H :    0.130892
  13 H :    0.127604
  14 H :    0.124329
  15 H :    0.142053
  16 H :    0.143946
  17 H :    0.137856
  18 H :    0.144215
  19 H :    0.119002
  20 H :    0.128939
  21 H :    0.134482
  22 H :    0.129588

  Mayer bond orders larger than 0.1
B(  0-C ,  1-O ) :   0.9093 B(  0-C ,  9-H ) :   0.9326 B(  0-C , 10-H ) :   0.9417
B(  0-C , 11-H ) :   0.9265 B(  1-O ,  2-C ) :   0.9039 B(  2-C ,  3-C ) :   0.9212
B(  2-C ,  4-C ) :   0.8882 B(  2-C ,  8-C ) :   0.9176 B(  3-C , 12-H ) :   0.9427
B(  3-C , 13-H ) :   0.9300 B(  3-C , 14-H ) :   0.9285 B(  4-C ,  5-C ) :   0.9422
B(  4-C , 15-H ) :   0.9292 B(  4-C , 16-H ) :   0.9209 B(  5-C ,  6-C ) :   0.9451
B(  5-C , 17-H ) :   0.9237 B(  5-C , 18-H ) :   0.9163 B(  6-C ,  7-O ) :   0.9335
B(  6-C , 19-H ) :   0.9371 B(  6-C , 20-H ) :   0.9295 B(  7-O ,  8-C ) :   0.9278
B(  8-C , 21-H ) :   0.9252 B(  8-C , 22-H ) :   0.9254

MP2 TOTAL ENERGY:     -424.727322504 Eh
FINAL SINGLE POINT ENERGY      -424.727322503694

DIPOLE MOMENT
-------------
                                X             Y             Z
Electronic contribution:      1.67842       0.01457      -2.79360
Nuclear contribution   :     -1.69034      -0.12950       3.27305
                        -----------------------------------------
Total Dipole Moment    :     -0.01192      -0.11493       0.47944
                        -----------------------------------------
Magnitude (a.u.)       :      0.49317
Magnitude (Debye)      :      1.25354

                             ****ORCA TERMINATED NORMALLY****
TOTAL RUN TIME: 0 days 0 hours 21 minutes 4 seconds 626 msec
