                         Program Version 3.0.3 - RELEASE   -
|  1> ! RI-MP2 RIJK def2-TZVP def2-TZVP/C def2-TZVP/JK TIGHTSCF
|  2> % maxcore 2000
|  3> % mp2 density relaxed end
|  4> *xyz 0 1
|  5>  C        0.0192864673     1.4852773589    -0.1487076319
|  6>  N       -0.0152408144     0.0295201080     0.0318244958
|  7>  C       -1.1293819711    -0.5786164905     0.8731960398
|  8>  C       -0.2025504525    -1.8150495707     1.0157110416
|  9>  C        0.7461989426    -0.6000922588     1.2053133749
| 10>  C        2.2332726095    -0.5106340306     1.3828539729
| 11>  O        2.6419566845     0.8220363287     1.6485639568
| 12>  C       -0.3693801522     0.0409889826     2.0702091031
| 13>  O       -0.4899277417     0.8299449679     2.9604923732
| 14>  H        1.0079153743     1.7612456843    -0.5207918761
| 15>  H       -0.7249830424     1.7484906801    -0.9062898117
| 16>  H       -0.1826125708     2.0699985605     0.7607549151
| 17>  H       -2.1722542133    -0.5309494742     0.5663439329
| 18>  H       -0.3607296006    -2.4701018425     1.8735649395
| 19>  H       -0.0470951761    -2.3482667117     0.0767211836
| 20>  H        2.5379648139    -1.2031164129     2.1838136915
| 21>  H        2.7498962482    -0.8183857209     0.4679036531
| 22>  H        2.1591020148     1.1252337815     2.4265887158
| 23> *
| 24>
| 25>                          ****END OF INPUT****

CARTESIAN COORDINATES (ANGSTROEM)
---------------------------------
  C      0.019286    1.485277   -0.148708
  N     -0.015241    0.029520    0.031824
  C     -1.129382   -0.578616    0.873196
  C     -0.202550   -1.815050    1.015711
  C      0.746199   -0.600092    1.205313
  C      2.233273   -0.510634    1.382854
  O      2.641957    0.822036    1.648564
  C     -0.369380    0.040989    2.070209
  O     -0.489928    0.829945    2.960492
  H      1.007915    1.761246   -0.520792
  H     -0.724983    1.748491   -0.906290
  H     -0.182613    2.069999    0.760755
  H     -2.172254   -0.530949    0.566344
  H     -0.360730   -2.470102    1.873565
  H     -0.047095   -2.348267    0.076721
  H      2.537965   -1.203116    2.183814
  H      2.749896   -0.818386    0.467904
  H      2.159102    1.125234    2.426589

 Total Charge           Charge          ....    0
 Multiplicity           Mult            ....    1
 Number of Electrons    NEL             ....   68
 Basis Dimension        Dim             ....  333

ORBITAL ENERGIES
----------------

  NO   OCC          E(Eh)            E(eV)
   0   2.0000     -20.565865      -559.6256
   1   2.0000     -20.564383      -559.5853
   2   2.0000     -15.586991      -424.1436
   3   2.0000     -11.350068      -308.8511
   4   2.0000     -11.296488      -307.3931
   5   2.0000     -11.295827      -307.3751
   6   2.0000     -11.294653      -307.3431
   7   2.0000     -11.259778      -306.3941
   8   2.0000     -11.247512      -306.0604
   9   2.0000      -1.412717       -38.4420
  10   2.0000      -1.371625       -37.3238
  11   2.0000      -1.306884       -35.5621
  12   2.0000      -1.073444       -29.2099
  13   2.0000      -0.992700       -27.0127
  14   2.0000      -0.900403       -24.5012
  15   2.0000      -0.870843       -23.6968
  16   2.0000      -0.860587       -23.4178
  17   2.0000      -0.724299       -19.7092
  18   2.0000      -0.702746       -19.1227
  19   2.0000      -0.678780       -18.4706
  20   2.0000      -0.658408       -17.9162
  21   2.0000      -0.637390       -17.3443
  22   2.0000      -0.631299       -17.1785
  23   2.0000      -0.601519       -16.3682
  24   2.0000      -0.593762       -16.1571
  25   2.0000      -0.559913       -15.2360
  26   2.0000      -0.545689       -14.8490
  27   2.0000      -0.526604       -14.3296
  28   2.0000      -0.509200       -13.8560
  29   2.0000      -0.494837       -13.4652
  30   2.0000      -0.478106       -13.0099
  31   2.0000      -0.445820       -12.1314
  32   2.0000      -0.401653       -10.9295
  33   2.0000      -0.394200       -10.7267
  34   0.0000       0.133668         3.6373
  35   0.0000       0.148711         4.0466
  36   0.0000       0.156587         4.2609
  37   0.0000       0.165528         4.5043
  38   0.0000       0.181306         4.9336

MULLIKEN ATOMIC CHARGES
-----------------------
   0 C :   -0.333784
   1 N :   -0.153077
   2 C :   -0.087430
   3 C :   -0.152518
   4 C :   -0.097493
   5 C :   -0.000881
   6 O :   -0.466497
   7 C :    0.144451
   8 O :   -0.262500
   9 H :    0.155270
  10 H :    0.140683
  11 H :    0.125636
  12 H :    0.156299
  13 H :    0.132933
  14 H :    0.122551
  15 H :    0.116936
  16 H :    0.128077
  17 H :    0.331346
Sum of atomic charges:    0.0000000

LOEWDIN ATOMIC CHARGES
----------------------
   0 C :   -0.322551
   1 N :    0.160690
   2 C :   -0.167729
   3 C :   -0.170623
   4 C :   -0.225377
   5 C :   -0.308983
   6 O :   -0.033470
   7 C :   -0.295153
   8 O :    0.147357
   9 H :    0.125412
  10 H :    0.120062
  11 H :    0.112858
  12 H :    0.129843
  13 H :    0.134577
  14 H :    0.140567
  15 H :    0.131124
  16 H :    0.140288
  17 H :    0.181107

  Mayer bond orders larger than 0.1
B(  0-C ,  1-N ) :   0.8969 B(  0-C ,  9-H ) :   0.9325 B(  0-C , 10-H ) :   0.9300
B(  0-C , 11-H ) :   0.9139 B(  1-N ,  2-C ) :   0.8837 B(  1-N ,  4-C ) :   0.8663
B(  2-C ,  3-C ) :   0.8999 B(  2-C ,  7-C ) :   0.8804 B(  2-C , 12-H ) :   0.8866
B(  3-C ,  4-C ) :   0.8621 B(  3-C , 13-H ) :   0.9179 B(  3-C , 14-H ) :   0.9040
B(  4-C ,  5-C ) :   0.8622 B(  4-C ,  7-C ) :   0.8583 B(  5-C ,  6-O ) :   0.8996
B(  5-C , 15-H ) :   0.9226 B(  5-C , 16-H ) :   0.9457 B(  6-O , 17-H ) :   0.8341
B(  7-C ,  8-O ) :   2.0011

MP2 TOTAL ENERGY:     -438.305778714 Eh
FINAL SINGLE POINT ENERGY      -438.305778714126

DIPOLE MOMENT
-------------
                                X             Y             Z
Electronic contribution:     -1.29994       0.04086       3.67786
Nuclear contribution   :      1.03696      -0.76101      -3.96937
                        -----------------------------------------
Total Dipole Moment    :     -0.26298      -0.72015      -0.29151
                        -----------------------------------------
Magnitude (a.u.)       :      0.82021
Magnitude (Debye)      :      2.08481

                             ****ORCA TERMINATED NORMALLY****
TOTAL RUN TIME: 0 days 0 hours 18 minutes 40 seconds 46 msec
