                         Program Version 3.0.3 - RELEASE   -
|  1> ! RI-MP2 RIJK def2-TZVP def2-TZVP/C def2-TZVP/JK TIGHTSCF
|  2> % maxcore 2000
|  3> % mp2 density relaxed end
|  4> *xyz 0 1
|  5>  C       -0.0424232008     1.5111973704     0.0547824003
|  6>  N        0.1033999769     0.0634572875    -0.0125089041
|  7>  C        0.7878708561    -0.5413801653    -1.1459004885
|  8>  C        2.3165315668    -0.5859621336    -0.8672468848
|  9>  C        2.5126158070     0.0159799530     0.5185726028
| 10>  C        1.1152639037    -0.6129014922     0.8653416073
| 11>  C        0.7424429847    -0.8940040762     2.2222517093
| 12>  C        0.4485966346    -1.1258811882     3.3652216042
| 13>  C        1.3693568482    -1.6392527901    -0.3255874890
| 14>  H        0.8682466630     2.0800980007    -0.1873960863
| 15>  H       -0.8254840073     1.8157435042    -0.6475587322
| 16>  H       -0.3700328325     1.7863835179     1.0622230888
| 17>  H        0.3684307206    -0.5681631680    -2.1438469541
| 18>  H        3.0462494751    -0.6986437128    -1.6584953492
| 19>  H        3.2971733241    -0.5063468712     1.0700734198
| 20>  H        2.6307427289     1.0968411554     0.6419998280
| 21>  H        0.1805381713    -1.3329151190     4.3716649125
| 22>  H        1.3218900395    -2.7160661426    -0.3847104245
| 23> *
| 24>
| 25>                          ****END OF INPUT****

CARTESIAN COORDINATES (ANGSTROEM)
---------------------------------
  C     -0.042423    1.511197    0.054782
  N      0.103400    0.063457   -0.012509
  C      0.787871   -0.541380   -1.145900
  C      2.316532   -0.585962   -0.867247
  C      2.512616    0.015980    0.518573
  C      1.115264   -0.612901    0.865342
  C      0.742443   -0.894004    2.222252
  C      0.448597   -1.125881    3.365222
  C      1.369357   -1.639253   -0.325587
  H      0.868247    2.080098   -0.187396
  H     -0.825484    1.815744   -0.647559
  H     -0.370033    1.786384    1.062223
  H      0.368431   -0.568163   -2.143847
  H      3.046249   -0.698644   -1.658495
  H      3.297173   -0.506347    1.070073
  H      2.630743    1.096841    0.642000
  H      0.180538   -1.332915    4.371665
  H      1.321890   -2.716066   -0.384710

 Total Charge           Charge          ....    0
 Multiplicity           Mult            ....    1
 Number of Electrons    NEL             ....   64
 Basis Dimension        Dim             ....  333

ORBITAL ENERGIES
----------------

  NO   OCC          E(Eh)            E(eV)
   0   2.0000     -15.556659      -423.3182
   1   2.0000     -11.295201      -307.3580
   2   2.0000     -11.265334      -306.5453
   3   2.0000     -11.242268      -305.9177
   4   2.0000     -11.240879      -305.8799
   5   2.0000     -11.239141      -305.8326
   6   2.0000     -11.235254      -305.7268
   7   2.0000     -11.233697      -305.6844
   8   2.0000     -11.226714      -305.4944
   9   2.0000      -1.300286       -35.3826
  10   2.0000      -1.113666       -30.3044
  11   2.0000      -1.047963       -28.5165
  12   2.0000      -0.977743       -26.6057
  13   2.0000      -0.938225       -25.5304
  14   2.0000      -0.864140       -23.5144
  15   2.0000      -0.777822       -21.1656
  16   2.0000      -0.763135       -20.7660
  17   2.0000      -0.722037       -19.6476
  18   2.0000      -0.697996       -18.9934
  19   2.0000      -0.643259       -17.5040
  20   2.0000      -0.620701       -16.8901
  21   2.0000      -0.606796       -16.5117
  22   2.0000      -0.574818       -15.6416
  23   2.0000      -0.550482       -14.9794
  24   2.0000      -0.514367       -13.9966
  25   2.0000      -0.496330       -13.5058
  26   2.0000      -0.480228       -13.0677
  27   2.0000      -0.446424       -12.1478
  28   2.0000      -0.402139       -10.9427
  29   2.0000      -0.385277       -10.4839
  30   2.0000      -0.372624       -10.1396
  31   2.0000      -0.349176        -9.5016
  32   0.0000       0.142707         3.8833
  33   0.0000       0.156905         4.2696
  34   0.0000       0.158334         4.3085
  35   0.0000       0.167986         4.5711
  36   0.0000       0.173115         4.7107

MULLIKEN ATOMIC CHARGES
-----------------------
   0 C :   -0.332505
   1 N :   -0.128972
   2 C :   -0.100852
   3 C :   -0.166931
   4 C :   -0.178224
   5 C :   -0.080437
   6 C :   -0.030057
   7 C :   -0.088808
   8 C :   -0.154176
   9 H :    0.109176
  10 H :    0.140390
  11 H :    0.145661
  12 H :    0.138192
  13 H :    0.132893
  14 H :    0.122025
  15 H :    0.116456
  16 H :    0.193157
  17 H :    0.163013
Sum of atomic charges:   -0.0000000

LOEWDIN ATOMIC CHARGES
----------------------
   0 C :   -0.324147
   1 N :    0.145181
   2 C :   -0.200851
   3 C :   -0.171040
   4 C :   -0.171416
   5 C :   -0.203383
   6 C :   -0.063800
   7 C :   -0.076582
   8 C :   -0.090578
   9 H :    0.104298
  10 H :    0.120056
  11 H :    0.123720
  12 H :    0.137111
  13 H :    0.136120
  14 H :    0.146644
  15 H :    0.123942
  16 H :    0.127862
  17 H :    0.136862

  Mayer bond orders larger than 0.1
B(  0-C ,  1-N ) :   0.8882 B(  0-C ,  9-H ) :   0.9215 B(  0-C , 10-H ) :   0.9369
B(  0-C , 11-H ) :   0.9350 B(  1-N ,  2-C ) :   0.9887 B(  1-N ,  5-C ) :   0.8556
B(  2-C ,  3-C ) :   0.8313 B(  2-C ,  8-C ) :   0.8935 B(  2-C , 12-H ) :   0.9197
B(  3-C ,  4-C ) :   0.9442 B(  3-C ,  8-C ) :   0.8414 B(  3-C , 13-H ) :   0.9288
B(  4-C ,  5-C ) :   0.9490 B(  4-C , 14-H ) :   0.9208 B(  4-C , 15-H ) :   0.9210
B(  5-C ,  6-C ) :   1.2637 B(  5-C ,  7-C ) :  -0.1791 B(  5-C ,  8-C ) :   0.8301
B(  6-C ,  7-C ) :   2.6063 B(  7-C , 16-H ) :   0.8644 B(  8-C , 17-H ) :   0.8910

MP2 TOTAL ENERGY:     -364.032844425 Eh
FINAL SINGLE POINT ENERGY      -364.032844424860

DIPOLE MOMENT
-------------
                                X             Y             Z
Electronic contribution:     -0.76676      -3.96485       1.94840
Nuclear contribution   :      1.13623       4.06426      -2.13860
                        -----------------------------------------
Total Dipole Moment    :      0.36946       0.09941      -0.19020
                        -----------------------------------------
Magnitude (a.u.)       :      0.42727
Magnitude (Debye)      :      1.08604

                             ****ORCA TERMINATED NORMALLY****
TOTAL RUN TIME: 0 days 0 hours 19 minutes 27 seconds 530 msec
