                         Program Version 3.0.3 - RELEASE   -
|  1> ! RI-MP2 RIJK def2-TZVP def2-TZVP/C def2-TZVP/JK TIGHTSCF
|  2> % maxcore 2000
|  3> % mp2 density relaxed end
|  4> *xyz 0 1
|  5>  C        0.1422654623     1.4202719918     0.0817141967
|  6>  C        0.0305634304    -0.0630996769    -0.0155739393
|  7>  C        0.0562567583    -0.8815043019    -1.0708535171
|  8>  C       -0.0271918082    -2.2692520731    -0.4443416363
|  9>  C        1.0337581357    -2.0931200748     0.7574209476
| 10>  C       -0.0699969127    -1.0342992909     1.1929524933
| 11>  C       -1.1026080354    -0.5818877184     2.2684915233
| 12>  C       -2.2066792772    -1.0915182549     1.2368930143
| 13>  C       -1.0895245068    -2.0506813830     0.7079917250
| 14>  H        0.9976387488     1.7166480117     0.7029084771
| 15>  H        0.2719423007     1.8703888142    -0.9068513556
| 16>  H       -0.7450968824     1.8729425634     0.5420073069
| 17>  H        0.1618598610    -0.6527796167    -2.1225606456
| 18>  H       -0.0116734609    -3.1483460795    -1.0906139221
| 19>  H        1.1096215444    -2.9644300246     1.4153638436
| 20>  H        2.0241354431    -1.7250320411     0.4745484456
| 21>  H       -1.0896297098    -1.2020953389     3.1684558918
| 22>  H       -1.1239536254     0.4722722084     2.5605044764
| 23>  H       -3.1112381095    -1.5483621354     1.6454990144
| 24>  H       -2.4791349144    -0.3006496779     0.5355259610
| 25>  H       -1.0861888919    -2.9319511016     1.3598271590
| 26> *
| 27>
| 28>                          ****END OF INPUT****

CARTESIAN COORDINATES (ANGSTROEM)
---------------------------------
  C      0.142265    1.420272    0.081714
  C      0.030563   -0.063100   -0.015574
  C      0.056257   -0.881504   -1.070854
  C     -0.027192   -2.269252   -0.444342
  C      1.033758   -2.093120    0.757421
  C     -0.069997   -1.034299    1.192952
  C     -1.102608   -0.581888    2.268492
  C     -2.206679   -1.091518    1.236893
  C     -1.089525   -2.050681    0.707992
  H      0.997639    1.716648    0.702908
  H      0.271942    1.870389   -0.906851
  H     -0.745097    1.872943    0.542007
  H      0.161860   -0.652780   -2.122561
  H     -0.011673   -3.148346   -1.090614
  H      1.109622   -2.964430    1.415364
  H      2.024135   -1.725032    0.474548
  H     -1.089630   -1.202095    3.168456
  H     -1.123954    0.472272    2.560504
  H     -3.111238   -1.548362    1.645499
  H     -2.479135   -0.300650    0.535526
  H     -1.086189   -2.931951    1.359827

 Total Charge           Charge          ....    0
 Multiplicity           Mult            ....    1
 Number of Electrons    NEL             ....   66
 Basis Dimension        Dim             ....  351

ORBITAL ENERGIES
----------------

  NO   OCC          E(Eh)            E(eV)
   0   2.0000     -11.243580      -305.9534
   1   2.0000     -11.235490      -305.7332
   2   2.0000     -11.232671      -305.6565
   3   2.0000     -11.228891      -305.5537
   4   2.0000     -11.228651      -305.5471
   5   2.0000     -11.221840      -305.3618
   6   2.0000     -11.220695      -305.3306
   7   2.0000     -11.217866      -305.2536
   8   2.0000     -11.207856      -304.9813
   9   2.0000      -1.205910       -32.8145
  10   2.0000      -1.061667       -28.8894
  11   2.0000      -1.016789       -27.6682
  12   2.0000      -0.927391       -25.2356
  13   2.0000      -0.889791       -24.2124
  14   2.0000      -0.844027       -22.9671
  15   2.0000      -0.821836       -22.3633
  16   2.0000      -0.739728       -20.1290
  17   2.0000      -0.673897       -18.3377
  18   2.0000      -0.650623       -17.7044
  19   2.0000      -0.614590       -16.7238
  20   2.0000      -0.602769       -16.4022
  21   2.0000      -0.587002       -15.9731
  22   2.0000      -0.558322       -15.1927
  23   2.0000      -0.544789       -14.8245
  24   2.0000      -0.529841       -14.4177
  25   2.0000      -0.518046       -14.0968
  26   2.0000      -0.497966       -13.5503
  27   2.0000      -0.467782       -12.7290
  28   2.0000      -0.442661       -12.0454
  29   2.0000      -0.438628       -11.9357
  30   2.0000      -0.425390       -11.5755
  31   2.0000      -0.360035        -9.7971
  32   2.0000      -0.312261        -8.4971
  33   0.0000       0.139827         3.8049
  34   0.0000       0.147591         4.0162
  35   0.0000       0.156447         4.2571
  36   0.0000       0.165839         4.5127
  37   0.0000       0.172565         4.6957

MULLIKEN ATOMIC CHARGES
-----------------------
   0 C :   -0.465372
   1 C :   -0.055429
   2 C :   -0.228474
   3 C :   -0.029013
   4 C :   -0.188420
   5 C :    0.108235
   6 C :   -0.278173
   7 C :   -0.241740
   8 C :   -0.110940
   9 H :    0.145505
  10 H :    0.142375
  11 H :    0.138369
  12 H :    0.125525
  13 H :    0.125734
  14 H :    0.114994
  15 H :    0.111642
  16 H :    0.119339
  17 H :    0.124944
  18 H :    0.121324
  19 H :    0.130396
  20 H :    0.089180
Sum of atomic charges:    0.0000000

LOEWDIN ATOMIC CHARGES
----------------------
   0 C :   -0.276864
   1 C :   -0.147161
   2 C :   -0.121106
   3 C :   -0.162840
   4 C :   -0.153604
   5 C :   -0.161427
   6 C :   -0.195644
   7 C :   -0.208289
   8 C :   -0.154849
   9 H :    0.133366
  10 H :    0.132469
  11 H :    0.128907
  12 H :    0.133501
  13 H :    0.128813
  14 H :    0.128270
  15 H :    0.124354
  16 H :    0.135170
  17 H :    0.122596
  18 H :    0.120588
  19 H :    0.138757
  20 H :    0.154994

  Mayer bond orders larger than 0.1
B(  0-C ,  1-C ) :   0.8891 B(  0-C ,  9-H ) :   0.9352 B(  0-C , 10-H ) :   0.9475
B(  0-C , 11-H ) :   0.9320 B(  1-C ,  2-C ) :   1.7251 B(  1-C ,  5-C ) :   0.8814
B(  2-C ,  3-C ) :   0.9215 B(  2-C , 12-H ) :   0.9287 B(  3-C ,  4-C ) :   0.9041
B(  3-C ,  8-C ) :   0.8812 B(  3-C , 13-H ) :   0.9099 B(  4-C ,  5-C ) :   0.8912
B(  4-C , 14-H ) :   0.9181 B(  4-C , 15-H ) :   0.9108 B(  5-C ,  6-C ) :   0.8795
B(  5-C ,  8-C ) :   0.8910 B(  6-C ,  7-C ) :   0.9448 B(  6-C , 16-H ) :   0.9184
B(  6-C , 17-H ) :   0.9246 B(  7-C ,  8-C ) :   0.9060 B(  7-C , 18-H ) :   0.9236
B(  7-C , 19-H ) :   0.9131 B(  8-C , 20-H ) :   0.9294

MP2 TOTAL ENERGY:     -349.208971040 Eh
FINAL SINGLE POINT ENERGY      -349.208971039718

DIPOLE MOMENT
-------------
                                X             Y             Z
Electronic contribution:      0.64234      -2.47734      -1.57456
Nuclear contribution   :     -0.65041       2.51896       1.68614
                        -----------------------------------------
Total Dipole Moment    :     -0.00807       0.04162       0.11157
                        -----------------------------------------
Magnitude (a.u.)       :      0.11936
Magnitude (Debye)      :      0.30338

                             ****ORCA TERMINATED NORMALLY****
TOTAL RUN TIME: 0 days 0 hours 22 minutes 32 seconds 137 msec
