                         Program Version 3.0.3 - RELEASE   -
|  1> ! RI-MP2 RIJK def2-TZVP def2-TZVP/C def2-TZVP/JK TIGHTSCF
|  2> % maxcore 2000
|  3> % mp2 density relaxed end
|  4> *xyz 0 1
|  5>  C        0.0525326364     1.5508587896     0.1435501033
|  6>  C       -0.0156082759     0.0378928034    -0.0797461041
|  7>  C       -1.4557347061    -0.5142985676    -0.0655386634
|  8>  C       -1.5618185065    -2.0787934071     0.0606003003
|  9>  N       -2.1322287182    -1.8726365945     1.3912520462
| 10>  C       -2.0960084071    -0.5057007846     1.3764009492
| 11>  O       -2.4024158798     0.3382609956     2.1721221113
| 12>  C       -2.2976188598     0.0611274885    -1.0961513164
| 13>  C       -2.9961400217     0.5330669070    -1.9537592022
| 14>  H        1.0930735810     1.8879895354     0.1624519173
| 15>  H       -0.4648980641     2.0861172277    -0.6575376688
| 16>  H       -0.4193687537     1.8242950659     1.0907867488
| 17>  H        0.4469110350    -0.2277986143    -1.0376543606
| 18>  H        0.5506098847    -0.4820862257     0.7029899074
| 19>  H       -2.2422673304    -2.5472884525    -0.6546080765
| 20>  H       -0.5965323875    -2.5949788436     0.0583907114
| 21>  H       -2.4253731944    -2.5196751251     2.1078379970
| 22>  H       -3.6167731920     0.9573168320    -2.7038491203
| 23> *
| 24>
| 25>                          ****END OF INPUT****

CARTESIAN COORDINATES (ANGSTROEM)
---------------------------------
  C      0.052533    1.550859    0.143550
  C     -0.015608    0.037893   -0.079746
  C     -1.455735   -0.514299   -0.065539
  C     -1.561819   -2.078793    0.060600
  N     -2.132229   -1.872637    1.391252
  C     -2.096008   -0.505701    1.376401
  O     -2.402416    0.338261    2.172122
  C     -2.297619    0.061127   -1.096151
  C     -2.996140    0.533067   -1.953759
  H      1.093074    1.887990    0.162452
  H     -0.464898    2.086117   -0.657538
  H     -0.419369    1.824295    1.090787
  H      0.446911   -0.227799   -1.037654
  H      0.550610   -0.482086    0.702990
  H     -2.242267   -2.547288   -0.654608
  H     -0.596532   -2.594979    0.058391
  H     -2.425373   -2.519675    2.107838
  H     -3.616773    0.957317   -2.703849

 Total Charge           Charge          ....    0
 Multiplicity           Mult            ....    1
 Number of Electrons    NEL             ....   66
 Basis Dimension        Dim             ....  333

ORBITAL ENERGIES
----------------

  NO   OCC          E(Eh)            E(eV)
   0   2.0000     -20.531156      -558.6812
   1   2.0000     -15.592931      -424.3052
   2   2.0000     -11.358023      -309.0675
   3   2.0000     -11.288996      -307.1892
   4   2.0000     -11.283726      -307.0458
   5   2.0000     -11.243351      -305.9471
   6   2.0000     -11.242161      -305.9147
   7   2.0000     -11.232267      -305.6455
   8   2.0000     -11.212284      -305.1018
   9   2.0000      -1.394636       -37.9500
  10   2.0000      -1.278118       -34.7793
  11   2.0000      -1.102700       -30.0060
  12   2.0000      -1.025138       -27.8954
  13   2.0000      -0.977325       -26.5944
  14   2.0000      -0.908583       -24.7238
  15   2.0000      -0.852971       -23.2105
  16   2.0000      -0.810982       -22.0679
  17   2.0000      -0.714146       -19.4329
  18   2.0000      -0.685523       -18.6540
  19   2.0000      -0.680130       -18.5073
  20   2.0000      -0.655373       -17.8336
  21   2.0000      -0.614950       -16.7336
  22   2.0000      -0.593770       -16.1573
  23   2.0000      -0.572318       -15.5736
  24   2.0000      -0.560563       -15.2537
  25   2.0000      -0.547504       -14.8983
  26   2.0000      -0.509004       -13.8507
  27   2.0000      -0.499109       -13.5815
  28   2.0000      -0.493148       -13.4192
  29   2.0000      -0.439038       -11.9468
  30   2.0000      -0.406485       -11.0610
  31   2.0000      -0.393944       -10.7198
  32   2.0000      -0.379321       -10.3219
  33   0.0000       0.131386         3.5752
  34   0.0000       0.142867         3.8876
  35   0.0000       0.155807         4.2397
  36   0.0000       0.161804         4.4029
  37   0.0000       0.165869         4.5135

MULLIKEN ATOMIC CHARGES
-----------------------
   0 C :   -0.421438
   1 C :   -0.228747
   2 C :    0.064943
   3 C :   -0.125226
   4 N :   -0.328406
   5 C :    0.196432
   6 O :   -0.306011
   7 C :   -0.082310
   8 C :   -0.139970
   9 H :    0.131215
  10 H :    0.139025
  11 H :    0.160122
  12 H :    0.123207
  13 H :    0.121561
  14 H :    0.136542
  15 H :    0.127842
  16 H :    0.238001
  17 H :    0.193219
Sum of atomic charges:    0.0000000

LOEWDIN ATOMIC CHARGES
----------------------
   0 C :   -0.304120
   1 C :   -0.231592
   2 C :   -0.206463
   3 C :   -0.186416
   4 N :    0.131292
   5 C :   -0.396740
   6 O :    0.116945
   7 C :   -0.066223
   8 C :   -0.082568
   9 H :    0.121790
  10 H :    0.127746
  11 H :    0.131549
  12 H :    0.143672
  13 H :    0.144738
  14 H :    0.129873
  15 H :    0.126483
  16 H :    0.171751
  17 H :    0.128283

  Mayer bond orders larger than 0.1
B(  0-C ,  1-C ) :   0.9372 B(  0-C ,  9-H ) :   0.9356 B(  0-C , 10-H ) :   0.9337
B(  0-C , 11-H ) :   0.9318 B(  1-C ,  2-C ) :   0.8861 B(  1-C , 12-H ) :   0.9285
B(  1-C , 13-H ) :   0.9203 B(  2-C ,  3-C ) :   0.8365 B(  2-C ,  4-N ) :  -0.1018
B(  2-C ,  5-C ) :   0.7748 B(  2-C ,  7-C ) :   1.2018 B(  2-C ,  8-C ) :  -0.1298
B(  3-C ,  4-N ) :   0.9169 B(  3-C , 14-H ) :   0.9242 B(  3-C , 15-H ) :   0.9244
B(  4-N ,  5-C ) :   1.1980 B(  4-N , 16-H ) :   0.8580 B(  5-C ,  6-O ) :   2.0163
B(  7-C ,  8-C ) :   2.5769 B(  8-C , 17-H ) :   0.8837

MP2 TOTAL ENERGY:     -401.239443924 Eh
FINAL SINGLE POINT ENERGY      -401.239443923875

DIPOLE MOMENT
-------------
                                X             Y             Z
Electronic contribution:     -6.09148      -1.95541       2.54360
Nuclear contribution   :      6.53872       0.77719      -3.16411
                        -----------------------------------------
Total Dipole Moment    :      0.44724      -1.17823      -0.62050
                        -----------------------------------------
Magnitude (a.u.)       :      1.40473
Magnitude (Debye)      :      3.57054

                             ****ORCA TERMINATED NORMALLY****
TOTAL RUN TIME: 0 days 0 hours 19 minutes 10 seconds 419 msec
