                         Program Version 3.0.3 - RELEASE   -
|  1> ! RI-MP2 RIJK def2-TZVP def2-TZVP/C def2-TZVP/JK TIGHTSCF
|  2> % maxcore 2000
|  3> % mp2 density relaxed end
|  4> *xyz 0 1
|  5>  O       -0.1221140181     1.3236400952    -0.0949975588
|  6>  C        0.0247237705    -0.0569892381    -0.0612261637
|  7>  C        1.0761617185    -0.7769647749    -0.8920753095
|  8>  C        0.7121409109    -2.1992829417    -0.5296624653
|  9>  C        0.1746503422    -2.2788424745     0.8937089538
| 10>  C       -0.7836471403    -2.3240577867    -0.2800066777
| 11>  C       -1.2394263638    -0.8798436230     0.0337508415
| 12>  C       -0.2782209894    -0.8364613232     1.2141356213
| 13>  H        0.6175254163     1.7145163549     0.3831642954
| 14>  H        0.9604457358    -0.5647932440    -1.9604820569
| 15>  H        2.0968250892    -0.5117681555    -0.5892387562
| 16>  H        1.2500366930    -3.0482231387    -0.9337308855
| 17>  H        0.4371131253    -3.0528367420     1.6021254021
| 18>  H       -1.3996383905    -3.1367471222    -0.6398191619
| 19>  H       -2.2285851884    -0.4547595844    -0.0617353097
| 20>  H       -0.4062696611    -0.3749437713     2.1837247510
| 21> *
| 22>
| 23>                          ****END OF INPUT****

CARTESIAN COORDINATES (ANGSTROEM)
---------------------------------
  O     -0.122114    1.323640   -0.094998
  C      0.024724   -0.056989   -0.061226
  C      1.076162   -0.776965   -0.892075
  C      0.712141   -2.199283   -0.529662
  C      0.174650   -2.278842    0.893709
  C     -0.783647   -2.324058   -0.280007
  C     -1.239426   -0.879844    0.033751
  C     -0.278221   -0.836461    1.214136
  H      0.617525    1.714516    0.383164
  H      0.960446   -0.564793   -1.960482
  H      2.096825   -0.511768   -0.589239
  H      1.250037   -3.048223   -0.933731
  H      0.437113   -3.052837    1.602125
  H     -1.399638   -3.136747   -0.639819
  H     -2.228585   -0.454760   -0.061735
  H     -0.406270   -0.374944    2.183725

 Total Charge           Charge          ....    0
 Multiplicity           Mult            ....    1
 Number of Electrons    NEL             ....   58
 Basis Dimension        Dim             ....  296

ORBITAL ENERGIES
----------------

  NO   OCC          E(Eh)            E(eV)
   0   2.0000     -20.565724      -559.6218
   1   2.0000     -11.284359      -307.0630
   2   2.0000     -11.232651      -305.6560
   3   2.0000     -11.231766      -305.6319
   4   2.0000     -11.230956      -305.6098
   5   2.0000     -11.227935      -305.5276
   6   2.0000     -11.226899      -305.4995
   7   2.0000     -11.220920      -305.3367
   8   2.0000      -1.377155       -37.4743
   9   2.0000      -1.237485       -33.6737
  10   2.0000      -1.040065       -28.3016
  11   2.0000      -0.992738       -27.0138
  12   2.0000      -0.873446       -23.7677
  13   2.0000      -0.782060       -21.2809
  14   2.0000      -0.765938       -20.8422
  15   2.0000      -0.727823       -19.8051
  16   2.0000      -0.718456       -19.5502
  17   2.0000      -0.647265       -17.6130
  18   2.0000      -0.605144       -16.4668
  19   2.0000      -0.600387       -16.3374
  20   2.0000      -0.580669       -15.8008
  21   2.0000      -0.570878       -15.5344
  22   2.0000      -0.545710       -14.8495
  23   2.0000      -0.490061       -13.3352
  24   2.0000      -0.466885       -12.7046
  25   2.0000      -0.439879       -11.9697
  26   2.0000      -0.401070       -10.9137
  27   2.0000      -0.379646       -10.3307
  28   2.0000      -0.335153        -9.1200
  29   0.0000       0.138358         3.7649
  30   0.0000       0.157382         4.2826
  31   0.0000       0.174409         4.7459
  32   0.0000       0.181180         4.9302
  33   0.0000       0.195875         5.3300

MULLIKEN ATOMIC CHARGES
-----------------------
   0 O :   -0.455134
   1 C :    0.138663
   2 C :   -0.109175
   3 C :   -0.204507
   4 C :   -0.127229
   5 C :   -0.124827
   6 C :   -0.155336
   7 C :   -0.195153
   8 H :    0.326757
   9 H :    0.114353
  10 H :    0.100134
  11 H :    0.128531
  12 H :    0.137807
  13 H :    0.136953
  14 H :    0.144681
  15 H :    0.143483
Sum of atomic charges:    0.0000000

LOEWDIN ATOMIC CHARGES
----------------------
   0 O :    0.033988
   1 C :   -0.321699
   2 C :   -0.196067
   3 C :   -0.171726
   4 C :   -0.136019
   5 C :   -0.132757
   6 C :   -0.114484
   7 C :   -0.129313
   8 H :    0.184841
   9 H :    0.144684
  10 H :    0.139606
  11 H :    0.146860
  12 H :    0.135583
  13 H :    0.136194
  14 H :    0.142287
  15 H :    0.138022

  Mayer bond orders larger than 0.1
B(  0-O ,  1-C ) :   1.0416 B(  0-O ,  8-H ) :   0.8374 B(  1-C ,  2-C ) :   0.9703
B(  1-C ,  6-C ) :   0.8961 B(  1-C ,  7-C ) :   0.8508 B(  2-C ,  3-C ) :   0.9360
B(  2-C ,  9-H ) :   0.9086 B(  2-C , 10-H ) :   0.9080 B(  3-C ,  4-C ) :   0.8627
B(  3-C ,  5-C ) :   0.8599 B(  3-C , 11-H ) :   0.9269 B(  4-C ,  5-C ) :   0.8644
B(  4-C ,  7-C ) :   0.8591 B(  4-C , 12-H ) :   0.9208 B(  5-C ,  6-C ) :   0.8987
B(  5-C , 13-H ) :   0.9279 B(  6-C ,  7-C ) :   0.9155 B(  6-C , 14-H ) :   0.9263
B(  7-C , 15-H ) :   0.9238

MP2 TOTAL ENERGY:     -345.946494368 Eh
FINAL SINGLE POINT ENERGY      -345.946494368130

DIPOLE MOMENT
-------------
                                X             Y             Z
Electronic contribution:     -1.09553       1.57848       0.50511
Nuclear contribution   :      1.54834      -1.82696      -0.22584
                        -----------------------------------------
Total Dipole Moment    :      0.45281      -0.24848       0.27926
                        -----------------------------------------
Magnitude (a.u.)       :      0.58717
Magnitude (Debye)      :      1.49246

                             ****ORCA TERMINATED NORMALLY****
TOTAL RUN TIME: 0 days 0 hours 12 minutes 5 seconds 420 msec
