                         Program Version 3.0.3 - RELEASE   -
|  1> ! RI-MP2 RIJK def2-TZVP def2-TZVP/C def2-TZVP/JK TIGHTSCF
|  2> % maxcore 2000
|  3> % mp2 density relaxed end
|  4> *xyz 0 1
|  5>  O       -0.2984994566     0.1426303861    -0.1906315924
|  6>  C        0.0533670752     1.1694964116     0.3225444080
|  7>  C        1.3286439086     1.9086660415    -0.0014706745
|  8>  O        2.2894309455     1.1142256531    -0.7790283391
|  9>  C        1.9657967870     1.8598681647    -1.8820799327
| 10>  N        1.8703627674     1.6586079884    -3.1197548539
| 11>  C        0.9359913847     2.7479904392    -3.5477062357
| 12>  C        0.1207711008     3.1595211293    -2.2590152637
| 13>  C        1.2073206304     2.9424322510    -1.1940009686
| 14>  H       -0.5743889906     1.7046940513     1.0721064961
| 15>  H        1.7925583779     2.3121285272     0.9027100340
| 16>  H        1.4914401722     3.5986164097    -3.9633859526
| 17>  H        0.2846646745     2.3623455704    -4.3351715291
| 18>  H       -0.2768744137     4.1758177133    -2.2995620197
| 19>  H       -0.7119181502     2.4614061955    -2.1297866074
| 20>  H        1.7835867469     3.8436313777    -0.9735155188
| 21> *
| 22>
| 23>                          ****END OF INPUT****

CARTESIAN COORDINATES (ANGSTROEM)
---------------------------------
  O     -0.298499    0.142630   -0.190632
  C      0.053367    1.169496    0.322544
  C      1.328644    1.908666   -0.001471
  O      2.289431    1.114226   -0.779028
  C      1.965797    1.859868   -1.882080
  N      1.870363    1.658608   -3.119755
  C      0.935991    2.747990   -3.547706
  C      0.120771    3.159521   -2.259015
  C      1.207321    2.942432   -1.194001
  H     -0.574389    1.704694    1.072106
  H      1.792558    2.312129    0.902710
  H      1.491440    3.598616   -3.963386
  H      0.284665    2.362346   -4.335172
  H     -0.276874    4.175818   -2.299562
  H     -0.711918    2.461406   -2.129787
  H      1.783587    3.843631   -0.973516

 Total Charge           Charge          ....    0
 Multiplicity           Mult            ....    1
 Number of Electrons    NEL             ....   66
 Basis Dimension        Dim             ....  321

ORBITAL ENERGIES
----------------

  NO   OCC          E(Eh)            E(eV)
   0   2.0000     -20.608734      -560.7922
   1   2.0000     -20.578709      -559.9751
   2   2.0000     -15.551846      -423.1872
   3   2.0000     -11.353480      -308.9439
   4   2.0000     -11.338989      -308.5496
   5   2.0000     -11.337924      -308.5206
   6   2.0000     -11.271817      -306.7217
   7   2.0000     -11.269671      -306.6633
   8   2.0000     -11.256640      -306.3088
   9   2.0000      -1.454410       -39.5765
  10   2.0000      -1.413605       -38.4661
  11   2.0000      -1.250659       -34.0322
  12   2.0000      -1.089199       -29.6386
  13   2.0000      -1.001251       -27.2454
  14   2.0000      -0.964878       -26.2557
  15   2.0000      -0.858176       -23.3522
  16   2.0000      -0.801020       -21.7969
  17   2.0000      -0.753855       -20.5134
  18   2.0000      -0.716441       -19.4953
  19   2.0000      -0.688309       -18.7298
  20   2.0000      -0.670223       -18.2377
  21   2.0000      -0.663706       -18.0604
  22   2.0000      -0.621994       -16.9253
  23   2.0000      -0.589817       -16.0497
  24   2.0000      -0.577096       -15.7036
  25   2.0000      -0.566692       -15.4205
  26   2.0000      -0.536687       -14.6040
  27   2.0000      -0.514724       -14.0064
  28   2.0000      -0.503019       -13.6878
  29   2.0000      -0.484710       -13.1896
  30   2.0000      -0.450052       -12.2465
  31   2.0000      -0.426078       -11.5942
  32   2.0000      -0.384314       -10.4577
  33   0.0000       0.104449         2.8422
  34   0.0000       0.122005         3.3199
  35   0.0000       0.146974         3.9994
  36   0.0000       0.153342         4.1726
  37   0.0000       0.158970         4.3258

MULLIKEN ATOMIC CHARGES
-----------------------
   0 O :   -0.231647
   1 C :    0.035280
   2 C :    0.161906
   3 O :   -0.256831
   4 C :    0.138943
   5 N :   -0.198487
   6 C :   -0.091552
   7 C :   -0.249382
   8 C :   -0.184621
   9 H :    0.086800
  10 H :    0.138259
  11 H :    0.114908
  12 H :    0.132702
  13 H :    0.134004
  14 H :    0.134298
  15 H :    0.135420
Sum of atomic charges:   -0.0000000

LOEWDIN ATOMIC CHARGES
----------------------
   0 O :    0.164477
   1 C :   -0.284749
   2 C :   -0.216617
   3 O :    0.259785
   4 C :   -0.366671
   5 N :    0.110194
   6 C :   -0.239961
   7 C :   -0.223933
   8 C :   -0.168075
   9 H :    0.117579
  10 H :    0.149120
  11 H :    0.127122
  12 H :    0.131044
  13 H :    0.134051
  14 H :    0.145027
  15 H :    0.161608

  Mayer bond orders larger than 0.1
B(  0-O ,  1-C ) :   2.0280 B(  1-C ,  2-C ) :   0.8170 B(  1-C ,  9-H ) :   0.9367
B(  2-C ,  3-O ) :   0.8962 B(  2-C ,  8-C ) :   0.9041 B(  2-C , 10-H ) :   0.8973
B(  3-O ,  4-C ) :   1.0748 B(  4-C ,  5-N ) :   1.8794 B(  4-C ,  8-C ) :   0.9532
B(  5-N ,  6-C ) :   0.8849 B(  6-C ,  7-C ) :   0.9284 B(  6-C , 11-H ) :   0.9223
B(  6-C , 12-H ) :   0.9253 B(  7-C ,  8-C ) :   0.9310 B(  7-C , 13-H ) :   0.9237
B(  7-C , 14-H ) :   0.9092 B(  8-C , 15-H ) :   0.8986

MP2 TOTAL ENERGY:     -437.133126299 Eh
FINAL SINGLE POINT ENERGY      -437.133126298986

DIPOLE MOMENT
-------------
                                X             Y             Z
Electronic contribution:      2.74290      -5.25716       2.66749
Nuclear contribution   :     -3.22662       7.10827      -1.85904
                        -----------------------------------------
Total Dipole Moment    :     -0.48373       1.85111       0.80845
                        -----------------------------------------
Magnitude (a.u.)       :      2.07706
Magnitude (Debye)      :      5.27947

                             ****ORCA TERMINATED NORMALLY****
TOTAL RUN TIME: 0 days 0 hours 15 minutes 4 seconds 310 msec
