                         Program Version 3.0.3 - RELEASE   -
|  1> ! RI-MP2 RIJK def2-TZVP def2-TZVP/C def2-TZVP/JK TIGHTSCF
|  2> % maxcore 2000
|  3> % mp2 density relaxed end
|  4> *xyz 0 1
|  5>  N        0.3681542112     0.9692905038     0.1301825162
|  6>  C       -0.1034256004    -0.1808731194    -0.4154356356
|  7>  O        0.5668277425    -0.8309825281    -1.2102498586
|  8>  C       -1.4935896093    -0.6055331866     0.0153644631
|  9>  C       -2.4023245719    -0.9780444857    -1.2024950259
| 10>  C       -2.0802711322    -2.4872069278    -0.9694646261
| 11>  O       -1.1238978217    -3.0269788247    -1.8360401459
| 12>  C       -1.5456536845    -2.1085374130     0.4470298848
| 13>  H        1.2879766015     1.2846193350    -0.1329962612
| 14>  H       -0.1669973448     1.5157854962     0.7805889865
| 15>  H       -1.9218559236     0.1060903357     0.7255887540
| 16>  H       -3.4488322422    -0.7289405310    -1.0089246763
| 17>  H       -2.1085225060    -0.5840620241    -2.1775099889
| 18>  H       -2.9378291667    -3.1647796426    -0.9884783317
| 19>  H       -0.3621478436    -2.4206761134    -1.8165550470
| 20>  H       -0.5994755936    -2.5753791500     0.7280765422
| 21>  H       -2.2812291247    -2.2696457543     1.2392833305
| 22> *
| 23>
| 24>                          ****END OF INPUT****

CARTESIAN COORDINATES (ANGSTROEM)
---------------------------------
  N      0.368154    0.969291    0.130183
  C     -0.103426   -0.180873   -0.415436
  O      0.566828   -0.830983   -1.210250
  C     -1.493590   -0.605533    0.015364
  C     -2.402325   -0.978044   -1.202495
  C     -2.080271   -2.487207   -0.969465
  O     -1.123898   -3.026979   -1.836040
  C     -1.545654   -2.108537    0.447030
  H      1.287977    1.284619   -0.132996
  H     -0.166997    1.515785    0.780589
  H     -1.921856    0.106090    0.725589
  H     -3.448832   -0.728941   -1.008925
  H     -2.108523   -0.584062   -2.177510
  H     -2.937829   -3.164780   -0.988478
  H     -0.362148   -2.420676   -1.816555
  H     -0.599476   -2.575379    0.728077
  H     -2.281229   -2.269646    1.239283

 Total Charge           Charge          ....    0
 Multiplicity           Mult            ....    1
 Number of Electrons    NEL             ....   62
 Basis Dimension        Dim             ....  302

ORBITAL ENERGIES
----------------

  NO   OCC          E(Eh)            E(eV)
   0   2.0000     -20.528062      -558.5970
   1   2.0000     -20.527952      -558.5940
   2   2.0000     -15.597124      -424.4193
   3   2.0000     -11.363084      -309.2052
   4   2.0000     -11.274614      -306.7978
   5   2.0000     -11.251892      -306.1795
   6   2.0000     -11.230638      -305.6012
   7   2.0000     -11.230617      -305.6006
   8   2.0000      -1.393769       -37.9264
   9   2.0000      -1.342913       -36.5425
  10   2.0000      -1.224411       -33.3179
  11   2.0000      -1.124705       -30.6048
  12   2.0000      -0.934872       -25.4392
  13   2.0000      -0.912553       -24.8318
  14   2.0000      -0.824984       -22.4490
  15   2.0000      -0.765925       -20.8419
  16   2.0000      -0.719431       -19.5767
  17   2.0000      -0.705385       -19.1945
  18   2.0000      -0.673663       -18.3313
  19   2.0000      -0.630569       -17.1586
  20   2.0000      -0.606354       -16.4997
  21   2.0000      -0.599329       -16.3086
  22   2.0000      -0.577217       -15.7069
  23   2.0000      -0.563254       -15.3269
  24   2.0000      -0.528154       -14.3718
  25   2.0000      -0.511139       -13.9088
  26   2.0000      -0.464398       -12.6369
  27   2.0000      -0.435871       -11.8606
  28   2.0000      -0.434769       -11.8307
  29   2.0000      -0.429610       -11.6903
  30   2.0000      -0.403277       -10.9737
  31   0.0000       0.116760         3.1772
  32   0.0000       0.144865         3.9420
  33   0.0000       0.155628         4.2349
  34   0.0000       0.168419         4.5829
  35   0.0000       0.182939         4.9780

MULLIKEN ATOMIC CHARGES
-----------------------
   0 N :   -0.459536
   1 C :    0.295237
   2 O :   -0.423327
   3 C :   -0.071948
   4 C :   -0.236996
   5 C :    0.040567
   6 O :   -0.473786
   7 C :   -0.236889
   8 H :    0.263108
   9 H :    0.261760
  10 H :    0.096662
  11 H :    0.120201
  12 H :    0.128485
  13 H :    0.105720
  14 H :    0.342069
  15 H :    0.128454
  16 H :    0.120219
Sum of atomic charges:    0.0000000

LOEWDIN ATOMIC CHARGES
----------------------
   0 N :    0.000550
   1 C :   -0.453869
   2 O :    0.063182
   3 C :   -0.203124
   4 C :   -0.196457
   5 C :   -0.333997
   6 O :   -0.014165
   7 C :   -0.196398
   8 H :    0.176127
   9 H :    0.172111
  10 H :    0.138748
  11 H :    0.135993
  12 H :    0.135670
  13 H :    0.128980
  14 H :    0.174999
  15 H :    0.135666
  16 H :    0.135987

  Mayer bond orders larger than 0.1
B(  0-N ,  1-C ) :   1.1985 B(  0-N ,  8-H ) :   0.8539 B(  0-N ,  9-H ) :   0.8706
B(  1-C ,  2-O ) :   1.8157 B(  1-C ,  3-C ) :   0.9114 B(  3-C ,  4-C ) :   0.9066
B(  3-C ,  7-C ) :   0.9065 B(  3-C , 10-H ) :   0.8937 B(  4-C ,  5-C ) :   0.9139
B(  4-C , 11-H ) :   0.9128 B(  4-C , 12-H ) :   0.9193 B(  5-C ,  6-O ) :   0.9974
B(  5-C ,  7-C ) :   0.9139 B(  5-C , 13-H ) :   0.9515 B(  6-O , 14-H ) :   0.7949
B(  7-C , 15-H ) :   0.9193 B(  7-C , 16-H ) :   0.9129

MP2 TOTAL ENERGY:     -400.380737160 Eh
FINAL SINGLE POINT ENERGY      -400.380737159896

DIPOLE MOMENT
-------------
                                X             Y             Z
Electronic contribution:      3.43897       0.15032      -1.68366
Nuclear contribution   :     -3.81779       1.48505       2.99993
                        -----------------------------------------
Total Dipole Moment    :     -0.37883       1.63537       1.31627
                        -----------------------------------------
Magnitude (a.u.)       :      2.13319
Magnitude (Debye)      :      5.42215

                             ****ORCA TERMINATED NORMALLY****
TOTAL RUN TIME: 0 days 0 hours 12 minutes 17 seconds 101 msec
