                         Program Version 3.0.3 - RELEASE   -
|  1> ! RI-MP2 RIJK def2-TZVP def2-TZVP/C def2-TZVP/JK TIGHTSCF
|  2> % maxcore 2000
|  3> % mp2 density relaxed end
|  4> *xyz 0 1
|  5>  O       -0.6920569518     1.2336430328     0.4401189835
|  6>  C        0.4731415421     1.0277396043     0.6454885506
|  7>  C        1.5635744914     1.9534746543     0.0935115443
|  8>  O        2.5493030314     1.4304643990    -0.3785799694
|  9>  C        1.2798265261     3.4257679869    -0.0136751761
| 10>  C        2.4281815317     4.2795814750    -0.4903630772
| 11>  N        1.3065353383     4.0299299531    -1.3698807012
| 12>  C        0.3358551972     4.0439100474     0.9644264010
| 13>  O        0.1675990451     3.6032946924     2.0733231281
| 14>  H        0.8654605570     0.1038659074     1.1149173090
| 15>  H        2.5056914161     5.2951958912    -0.1130483992
| 16>  H        3.3621402890     3.7489631783    -0.6501667729
| 17>  H        1.5455082659     3.3085083081    -2.0482735035
| 18>  H       -0.1552677598     4.9697736998     0.5993278029
| 19> *
| 20>
| 21>                          ****END OF INPUT****

CARTESIAN COORDINATES (ANGSTROEM)
---------------------------------
  O     -0.692057    1.233643    0.440119
  C      0.473142    1.027740    0.645489
  C      1.563574    1.953475    0.093512
  O      2.549303    1.430464   -0.378580
  C      1.279827    3.425768   -0.013675
  C      2.428182    4.279581   -0.490363
  N      1.306535    4.029930   -1.369881
  C      0.335855    4.043910    0.964426
  O      0.167599    3.603295    2.073323
  H      0.865461    0.103866    1.114917
  H      2.505691    5.295196   -0.113048
  H      3.362140    3.748963   -0.650167
  H      1.545508    3.308508   -2.048274
  H     -0.155268    4.969774    0.599328

 Total Charge           Charge          ....    0
 Multiplicity           Mult            ....    1
 Number of Electrons    NEL             ....   66
 Basis Dimension        Dim             ....  309

ORBITAL ENERGIES
----------------

  NO   OCC          E(Eh)            E(eV)
   0   2.0000     -20.601750      -560.6021
   1   2.0000     -20.596843      -560.4686
   2   2.0000     -20.576091      -559.9039
   3   2.0000     -15.612278      -424.8317
   4   2.0000     -11.379268      -309.6456
   5   2.0000     -11.364862      -309.2536
   6   2.0000     -11.355295      -308.9933
   7   2.0000     -11.313183      -307.8474
   8   2.0000     -11.304495      -307.6109
   9   2.0000      -1.449751       -39.4497
  10   2.0000      -1.427368       -38.8407
  11   2.0000      -1.416982       -38.5580
  12   2.0000      -1.313413       -35.7398
  13   2.0000      -1.021925       -27.8080
  14   2.0000      -0.947966       -25.7955
  15   2.0000      -0.908312       -24.7164
  16   2.0000      -0.863452       -23.4957
  17   2.0000      -0.763402       -20.7732
  18   2.0000      -0.738487       -20.0952
  19   2.0000      -0.723531       -19.6883
  20   2.0000      -0.696159       -18.9435
  21   2.0000      -0.668331       -18.1862
  22   2.0000      -0.662355       -18.0236
  23   2.0000      -0.619693       -16.8627
  24   2.0000      -0.604037       -16.4367
  25   2.0000      -0.579146       -15.7594
  26   2.0000      -0.551106       -14.9964
  27   2.0000      -0.537252       -14.6194
  28   2.0000      -0.528119       -14.3708
  29   2.0000      -0.508012       -13.8237
  30   2.0000      -0.456239       -12.4149
  31   2.0000      -0.436308       -11.8726
  32   2.0000      -0.423348       -11.5199
  33   0.0000       0.051728         1.4076
  34   0.0000       0.108750         2.9592
  35   0.0000       0.142140         3.8678
  36   0.0000       0.150254         4.0886
  37   0.0000       0.165719         4.5094

MULLIKEN ATOMIC CHARGES
-----------------------
   0 O :   -0.229870
   1 C :    0.114545
   2 C :    0.197182
   3 O :   -0.272326
   4 C :    0.111333
   5 C :   -0.169722
   6 N :   -0.343428
   7 C :    0.072508
   8 O :   -0.264229
   9 H :    0.112278
  10 H :    0.148382
  11 H :    0.168208
  12 H :    0.241948
  13 H :    0.113189
Sum of atomic charges:   -0.0000000

LOEWDIN ATOMIC CHARGES
----------------------
   0 O :    0.179142
   1 C :   -0.246606
   2 C :   -0.281863
   3 O :    0.185171
   4 C :   -0.271622
   5 C :   -0.212875
   6 N :    0.046352
   7 C :   -0.253991
   8 O :    0.152030
   9 H :    0.123790
  10 H :    0.135164
  11 H :    0.137497
  12 H :    0.180809
  13 H :    0.127002

  Mayer bond orders larger than 0.1
B(  0-O ,  1-C ) :   1.9625 B(  1-C ,  2-C ) :   0.8773 B(  1-C ,  9-H ) :   0.9189
B(  2-C ,  3-O ) :   1.8838 B(  2-C ,  4-C ) :   0.9030 B(  4-C ,  5-C ) :   0.8491
B(  4-C ,  6-N ) :   0.8738 B(  4-C ,  7-C ) :   0.8429 B(  5-C ,  6-N ) :   0.9360
B(  5-C , 10-H ) :   0.9146 B(  5-C , 11-H ) :   0.9059 B(  6-N , 12-H ) :   0.8614
B(  7-C ,  8-O ) :   1.9691 B(  7-C , 13-H ) :   0.9415

MP2 TOTAL ENERGY:     -473.050218014 Eh
FINAL SINGLE POINT ENERGY      -473.050218014033

DIPOLE MOMENT
-------------
                                X             Y             Z
Electronic contribution:     -1.88509      -3.05119       1.63459
Nuclear contribution   :      2.73793       3.36369      -2.05975
                        -----------------------------------------
Total Dipole Moment    :      0.85284       0.31250      -0.42516
                        -----------------------------------------
Magnitude (a.u.)       :      1.00287
Magnitude (Debye)      :      2.54909

                             ****ORCA TERMINATED NORMALLY****
TOTAL RUN TIME: 0 days 0 hours 15 minutes 4 seconds 975 msec
