                         Program Version 3.0.3 - RELEASE   -
|  1> ! RI-MP2 RIJK def2-TZVP def2-TZVP/C def2-TZVP/JK TIGHTSCF
|  2> % maxcore 2000
|  3> % mp2 density relaxed end
|  4> *xyz 0 1
|  5>  C       -0.8134199834     1.2456155823    -0.0034783937
|  6>  C        0.0812658116     0.0126799623    -0.0806244335
|  7>  C        1.2879105572     0.1335468913    -1.0403606719
|  8>  C        2.3188045693    -0.8038082395    -0.4479474678
|  9>  C        3.5364666557    -1.2209635141    -1.2096663307
| 10>  C        1.9979065377    -1.1366099184     0.8030792751
| 11>  C        0.7152976023    -0.4681827902     1.2751579240
| 12>  C        0.9997770115     0.6016478681     2.2330506205
| 13>  C        1.2472047407     1.4732330245     3.0246400190
| 14>  H       -0.2567916101     2.1152909338     0.3574080161
| 15>  H       -1.2224149590     1.4860997049    -0.9906328872
| 16>  H       -1.6563272901     1.0857990893     0.6769149399
| 17>  H       -0.5201638420    -0.8353684726    -0.4292289688
| 18>  H        1.0198048386    -0.1228974892    -2.0725058421
| 19>  H        1.6798511825     1.1614043107    -1.0701074607
| 20>  H        4.1287449909    -0.3475242800    -1.5117599175
| 21>  H        4.1794691070    -1.8786105979    -0.6184995756
| 22>  H        3.2659087821    -1.7462984255    -2.1344549442
| 23>  H        2.5962175249    -1.7551081809     1.4628164616
| 24>  H        0.0407162968    -1.1820248629     1.7660672235
| 25>  H        1.4651697057     2.2402020141     3.7257068639
| 26> *
| 27>
| 28>                          ****END OF INPUT****

CARTESIAN COORDINATES (ANGSTROEM)
---------------------------------
  C     -0.813420    1.245616   -0.003478
  C      0.081266    0.012680   -0.080624
  C      1.287911    0.133547   -1.040361
  C      2.318805   -0.803808   -0.447947
  C      3.536467   -1.220964   -1.209666
  C      1.997907   -1.136610    0.803079
  C      0.715298   -0.468183    1.275158
  C      0.999777    0.601648    2.233051
  C      1.247205    1.473233    3.024640
  H     -0.256792    2.115291    0.357408
  H     -1.222415    1.486100   -0.990633
  H     -1.656327    1.085799    0.676915
  H     -0.520164   -0.835368   -0.429229
  H      1.019805   -0.122897   -2.072506
  H      1.679851    1.161404   -1.070107
  H      4.128745   -0.347524   -1.511760
  H      4.179469   -1.878611   -0.618500
  H      3.265909   -1.746298   -2.134455
  H      2.596218   -1.755108    1.462816
  H      0.040716   -1.182025    1.766067
  H      1.465170    2.240202    3.725707

 Total Charge           Charge          ....    0
 Multiplicity           Mult            ....    1
 Number of Electrons    NEL             ....   66
 Basis Dimension        Dim             ....  351

ORBITAL ENERGIES
----------------

  NO   OCC          E(Eh)            E(eV)
   0   2.0000     -11.252699      -306.2015
   1   2.0000     -11.234560      -305.7079
   2   2.0000     -11.232983      -305.6650
   3   2.0000     -11.226486      -305.4882
   4   2.0000     -11.223677      -305.4118
   5   2.0000     -11.223109      -305.3963
   6   2.0000     -11.218749      -305.2777
   7   2.0000     -11.213169      -305.1259
   8   2.0000     -11.210098      -305.0423
   9   2.0000      -1.152485       -31.3607
  10   2.0000      -1.048342       -28.5268
  11   2.0000      -1.020939       -27.7812
  12   2.0000      -0.972154       -26.4537
  13   2.0000      -0.934155       -25.4196
  14   2.0000      -0.884540       -24.0695
  15   2.0000      -0.789422       -21.4813
  16   2.0000      -0.717076       -19.5126
  17   2.0000      -0.703084       -19.1319
  18   2.0000      -0.661513       -18.0007
  19   2.0000      -0.636801       -17.3282
  20   2.0000      -0.593927       -16.1616
  21   2.0000      -0.581669       -15.8280
  22   2.0000      -0.574149       -15.6234
  23   2.0000      -0.560954       -15.2643
  24   2.0000      -0.539896       -14.6913
  25   2.0000      -0.520202       -14.1554
  26   2.0000      -0.500568       -13.6212
  27   2.0000      -0.479689       -13.0530
  28   2.0000      -0.472232       -12.8501
  29   2.0000      -0.457169       -12.4402
  30   2.0000      -0.379935       -10.3386
  31   2.0000      -0.376595       -10.2477
  32   2.0000      -0.340619        -9.2687
  33   0.0000       0.130312         3.5460
  34   0.0000       0.148823         4.0497
  35   0.0000       0.152877         4.1600
  36   0.0000       0.166400         4.5280
  37   0.0000       0.169289         4.6066

MULLIKEN ATOMIC CHARGES
-----------------------
   0 C :   -0.400977
   1 C :   -0.049490
   2 C :   -0.227453
   3 C :    0.011001
   4 C :   -0.443921
   5 C :   -0.170877
   6 C :   -0.045511
   7 C :   -0.079719
   8 C :   -0.176435
   9 H :    0.138987
  10 H :    0.131699
  11 H :    0.133567
  12 H :    0.091667
  13 H :    0.122590
  14 H :    0.114209
  15 H :    0.139160
  16 H :    0.137637
  17 H :    0.139533
  18 H :    0.125625
  19 H :    0.123438
  20 H :    0.185269
Sum of atomic charges:    0.0000000

LOEWDIN ATOMIC CHARGES
----------------------
   0 C :   -0.292552
   1 C :   -0.218571
   2 C :   -0.190345
   3 C :   -0.182389
   4 C :   -0.273151
   5 C :   -0.105442
   6 C :   -0.197540
   7 C :   -0.081165
   8 C :   -0.107279
   9 H :    0.128681
  10 H :    0.124206
  11 H :    0.126214
  12 H :    0.156178
  13 H :    0.138963
  14 H :    0.146366
  15 H :    0.132366
  16 H :    0.130291
  17 H :    0.130931
  18 H :    0.140469
  19 H :    0.168431
  20 H :    0.125341

  Mayer bond orders larger than 0.1
B(  0-C ,  1-C ) :   0.9164 B(  0-C ,  9-H ) :   0.9290 B(  0-C , 10-H ) :   0.9386
B(  0-C , 11-H ) :   0.9419 B(  1-C ,  2-C ) :   0.9623 B(  1-C ,  6-C ) :   0.8798
B(  1-C , 12-H ) :   0.9270 B(  2-C ,  3-C ) :   0.9558 B(  2-C , 13-H ) :   0.9239
B(  2-C , 14-H ) :   0.8894 B(  3-C ,  4-C ) :   0.8904 B(  3-C ,  5-C ) :   1.7606
B(  4-C , 15-H ) :   0.9263 B(  4-C , 16-H ) :   0.9495 B(  4-C , 17-H ) :   0.9382
B(  5-C ,  6-C ) :   0.8961 B(  5-C , 18-H ) :   0.9199 B(  6-C ,  7-C ) :   1.0971
B(  6-C , 19-H ) :   0.9246 B(  7-C ,  8-C ) :   2.5802 B(  8-C , 20-H ) :   0.9016

MP2 TOTAL ENERGY:     -349.284650350 Eh
FINAL SINGLE POINT ENERGY      -349.284650350047

DIPOLE MOMENT
-------------
                                X             Y             Z
Electronic contribution:      0.40279      -0.47308       5.49875
Nuclear contribution   :     -0.37246       0.36964      -5.83046
                        -----------------------------------------
Total Dipole Moment    :      0.03032      -0.10344      -0.33171
                        -----------------------------------------
Magnitude (a.u.)       :      0.34878
Magnitude (Debye)      :      0.88654

                             ****ORCA TERMINATED NORMALLY****
TOTAL RUN TIME: 0 days 0 hours 21 minutes 30 seconds 948 msec
