                         Program Version 3.0.3 - RELEASE   -
|  1> ! RI-MP2 RIJK def2-TZVP def2-TZVP/C def2-TZVP/JK TIGHTSCF
|  2> % maxcore 2000
|  3> % mp2 density relaxed end
|  4> *xyz 0 1
|  5>  C       -0.0018215895     1.3771769431     0.0450818425
|  6>  O        0.0026387339     0.0054642760    -0.2812505679
|  7>  C       -1.2319369996    -0.6257130276    -0.0890086447
|  8>  C       -1.3543352973    -2.0108492132    -0.7020180005
|  9>  N       -0.4299063688    -2.9128354346     0.0358526766
| 10>  C       -1.7615064734    -2.6066229645     0.6063117396
| 11>  C       -2.7603733777    -3.6738515814     0.9299407119
| 12>  C       -1.5888944628    -1.2533475500     1.3288789188
| 13>  C       -0.5493932223    -1.1768507030     2.4383449523
| 14>  H        0.9951271413     1.7659690612    -0.1764781614
| 15>  H       -0.7407478512     1.9334509580    -0.5539735183
| 16>  H       -0.2196408776     1.5548239657     1.1080974093
| 17>  H       -2.0515162420     0.0237395069    -0.4320038665
| 18>  H       -1.6695336422    -2.2547756033    -1.7101224042
| 19>  H       -0.5003069688    -3.8244888232    -0.4169910038
| 20>  H       -2.8246001379    -4.4130236354     0.1234601434
| 21>  H       -2.4900040764    -4.2068733323     1.8493114272
| 22>  H       -3.7591752480    -3.2478728953     1.0756821551
| 23>  H       -2.5568899913    -0.8728128550     1.6717803132
| 24>  H        0.4213420999    -1.5152738894     2.0726645650
| 25>  H       -0.4429900726    -0.1541612574     2.8144358851
| 26>  H       -0.8401409256    -1.8086166352     3.2855259973
| 27> *
| 28>
| 29>                          ****END OF INPUT****

CARTESIAN COORDINATES (ANGSTROEM)
---------------------------------
  C     -0.001822    1.377177    0.045082
  O      0.002639    0.005464   -0.281251
  C     -1.231937   -0.625713   -0.089009
  C     -1.354335   -2.010849   -0.702018
  N     -0.429906   -2.912835    0.035853
  C     -1.761506   -2.606623    0.606312
  C     -2.760373   -3.673852    0.929941
  C     -1.588894   -1.253348    1.328879
  C     -0.549393   -1.176851    2.438345
  H      0.995127    1.765969   -0.176478
  H     -0.740748    1.933451   -0.553974
  H     -0.219641    1.554824    1.108097
  H     -2.051516    0.023740   -0.432004
  H     -1.669534   -2.254776   -1.710122
  H     -0.500307   -3.824489   -0.416991
  H     -2.824600   -4.413024    0.123460
  H     -2.490004   -4.206873    1.849311
  H     -3.759175   -3.247873    1.075682
  H     -2.556890   -0.872813    1.671780
  H      0.421342   -1.515274    2.072665
  H     -0.442990   -0.154161    2.814436
  H     -0.840141   -1.808617    3.285526

 Total Charge           Charge          ....    0
 Multiplicity           Mult            ....    1
 Number of Electrons    NEL             ....   70
 Basis Dimension        Dim             ....  357

ORBITAL ENERGIES
----------------

  NO   OCC          E(Eh)            E(eV)
   0   2.0000     -20.548415      -559.1508
   1   2.0000     -15.551573      -423.1798
   2   2.0000     -11.278195      -306.8953
   3   2.0000     -11.266440      -306.5754
   4   2.0000     -11.261098      -306.4301
   5   2.0000     -11.250597      -306.1443
   6   2.0000     -11.228596      -305.5456
   7   2.0000     -11.227369      -305.5122
   8   2.0000     -11.201354      -304.8043
   9   2.0000      -1.373170       -37.3658
  10   2.0000      -1.272764       -34.6337
  11   2.0000      -1.054251       -28.6876
  12   2.0000      -0.995105       -27.0782
  13   2.0000      -0.964866       -26.2553
  14   2.0000      -0.914801       -24.8930
  15   2.0000      -0.830675       -22.6038
  16   2.0000      -0.805213       -21.9110
  17   2.0000      -0.722899       -19.6711
  18   2.0000      -0.690952       -18.8018
  19   2.0000      -0.645783       -17.5726
  20   2.0000      -0.639025       -17.3887
  21   2.0000      -0.618091       -16.8191
  22   2.0000      -0.595190       -16.1959
  23   2.0000      -0.583462       -15.8768
  24   2.0000      -0.570624       -15.5275
  25   2.0000      -0.546721       -14.8770
  26   2.0000      -0.535089       -14.5605
  27   2.0000      -0.511617       -13.9218
  28   2.0000      -0.500962       -13.6319
  29   2.0000      -0.483914       -13.1680
  30   2.0000      -0.467901       -12.7322
  31   2.0000      -0.463496       -12.6124
  32   2.0000      -0.427551       -11.6342
  33   2.0000      -0.391451       -10.6519
  34   2.0000      -0.352227        -9.5846
  35   0.0000       0.128801         3.5048
  36   0.0000       0.152307         4.1445
  37   0.0000       0.167724         4.5640
  38   0.0000       0.173124         4.7109
  39   0.0000       0.188472         5.1286

MULLIKEN ATOMIC CHARGES
-----------------------
   0 C :   -0.227393
   1 O :   -0.296292
   2 C :    0.092802
   3 C :   -0.128761
   4 N :   -0.388321
   5 C :    0.121361
   6 C :   -0.382759
   7 C :   -0.028732
   8 C :   -0.456852
   9 H :    0.141639
  10 H :    0.111292
  11 H :    0.108944
  12 H :    0.072750
  13 H :    0.138360
  14 H :    0.208448
  15 H :    0.124529
  16 H :    0.143926
  17 H :    0.133729
  18 H :    0.097013
  19 H :    0.170864
  20 H :    0.119364
  21 H :    0.124089
Sum of atomic charges:   -0.0000000

LOEWDIN ATOMIC CHARGES
----------------------
   0 C :   -0.356413
   1 O :    0.172235
   2 C :   -0.273240
   3 C :   -0.198372
   4 N :    0.028620
   5 C :   -0.269672
   6 C :   -0.279982
   7 C :   -0.192937
   8 C :   -0.297082
   9 H :    0.114234
  10 H :    0.100332
  11 H :    0.100265
  12 H :    0.135533
  13 H :    0.128995
  14 H :    0.170413
  15 H :    0.129086
  16 H :    0.131140
  17 H :    0.131306
  18 H :    0.146908
  19 H :    0.135356
  20 H :    0.119511
  21 H :    0.123764

  Mayer bond orders larger than 0.1
B(  0-C ,  1-O ) :   0.9108 B(  0-C ,  9-H ) :   0.9418 B(  0-C , 10-H ) :   0.9361
B(  0-C , 11-H ) :   0.9352 B(  1-O ,  2-C ) :   0.9956 B(  2-C ,  3-C ) :   0.9114
B(  2-C ,  7-C ) :   0.9976 B(  2-C , 12-H ) :   0.9252 B(  3-C ,  4-N ) :   0.9899
B(  3-C ,  5-C ) :   0.8117 B(  3-C , 13-H ) :   0.9137 B(  4-N ,  5-C ) :   0.9341
B(  4-N , 14-H ) :   0.8693 B(  5-C ,  6-C ) :   0.8840 B(  5-C ,  7-C ) :   0.9484
B(  6-C , 15-H ) :   0.9264 B(  6-C , 16-H ) :   0.9450 B(  6-C , 17-H ) :   0.9326
B(  7-C ,  8-C ) :   0.8488 B(  7-C , 18-H ) :   0.9290 B(  8-C , 19-H ) :   0.9374
B(  8-C , 20-H ) :   0.9400 B(  8-C , 21-H ) :   0.9360

MP2 TOTAL ENERGY:     -403.606411169 Eh
FINAL SINGLE POINT ENERGY      -403.606411169431

DIPOLE MOMENT
-------------
                                X             Y             Z
Electronic contribution:      1.83883      -1.07352      -4.16910
Nuclear contribution   :     -2.79146       1.07706       4.13415
                        -----------------------------------------
Total Dipole Moment    :     -0.95263       0.00354      -0.03495
                        -----------------------------------------
Magnitude (a.u.)       :      0.95328
Magnitude (Debye)      :      2.42304

                             ****ORCA TERMINATED NORMALLY****
TOTAL RUN TIME: 0 days 0 hours 33 minutes 39 seconds 665 msec
