                         Program Version 3.0.3 - RELEASE   -
|  1> ! RI-MP2 RIJK def2-TZVP def2-TZVP/C def2-TZVP/JK TIGHTSCF
|  2> % maxcore 2000
|  3> % mp2 density relaxed end
|  4> *xyz 0 1
|  5>  C       -0.0908644440     1.4139270069     0.0126392612
|  6>  O       -0.0063408114    -0.0049017078     0.0829504620
|  7>  C       -1.1797137047    -0.6601868886     0.0377381670
|  8>  N       -2.3490113476    -0.0454480496    -0.0654807557
|  9>  N       -3.2437787197    -1.0713541743    -0.0758711375
| 10>  C       -2.6658059065    -2.2953365095     0.0173263295
| 11>  C       -3.4579094146    -3.5617025144     0.0244796131
| 12>  C       -1.3066393841    -2.0689904671     0.0941771475
| 13>  H        0.9360316302     1.7794314335     0.0620145856
| 14>  H       -0.5612749114     1.7347224655    -0.9230868136
| 15>  H       -0.6752331614     1.8156668951     0.8474377987
| 16>  H       -4.2225405557    -0.8560799889    -0.1485960262
| 17>  H       -4.0430351423    -3.6806205276    -0.8947218296
| 18>  H       -2.7895702638    -4.4209403879     0.1072906370
| 19>  H       -4.1570044638    -3.5993692551     0.8678566047
| 20>  H       -0.5206243792    -2.8004186702     0.1782352763
| 21> *
| 22>
| 23>                          ****END OF INPUT****

CARTESIAN COORDINATES (ANGSTROEM)
---------------------------------
  C     -0.090864    1.413927    0.012639
  O     -0.006341   -0.004902    0.082950
  C     -1.179714   -0.660187    0.037738
  N     -2.349011   -0.045448   -0.065481
  N     -3.243779   -1.071354   -0.075871
  C     -2.665806   -2.295337    0.017326
  C     -3.457909   -3.561703    0.024480
  C     -1.306639   -2.068990    0.094177
  H      0.936032    1.779431    0.062015
  H     -0.561275    1.734722   -0.923087
  H     -0.675233    1.815667    0.847438
  H     -4.222541   -0.856080   -0.148596
  H     -4.043035   -3.680621   -0.894722
  H     -2.789570   -4.420940    0.107291
  H     -4.157004   -3.599369    0.867857
  H     -0.520624   -2.800419    0.178235

 Total Charge           Charge          ....    0
 Multiplicity           Mult            ....    1
 Number of Electrons    NEL             ....   60
 Basis Dimension        Dim             ....  296

ORBITAL ENERGIES
----------------

  NO   OCC          E(Eh)            E(eV)
   0   2.0000     -20.577093      -559.9312
   1   2.0000     -15.619667      -425.0327
   2   2.0000     -15.563887      -423.5149
   3   2.0000     -11.306528      -307.6663
   4   2.0000     -11.283686      -307.0447
   5   2.0000     -11.268599      -306.6342
   6   2.0000     -11.245369      -306.0020
   7   2.0000     -11.207370      -304.9681
   8   2.0000      -1.414829       -38.4995
   9   2.0000      -1.350023       -36.7360
  10   2.0000      -1.100188       -29.9376
  11   2.0000      -1.056225       -28.7413
  12   2.0000      -0.969391       -26.3785
  13   2.0000      -0.939888       -25.5757
  14   2.0000      -0.801185       -21.8014
  15   2.0000      -0.774940       -21.0872
  16   2.0000      -0.710503       -19.3338
  17   2.0000      -0.654148       -17.8003
  18   2.0000      -0.652785       -17.7632
  19   2.0000      -0.613545       -16.6954
  20   2.0000      -0.611721       -16.6458
  21   2.0000      -0.601342       -16.3634
  22   2.0000      -0.560815       -15.2606
  23   2.0000      -0.560280       -15.2460
  24   2.0000      -0.534277       -14.5384
  25   2.0000      -0.509944       -13.8763
  26   2.0000      -0.485036       -13.1985
  27   2.0000      -0.448849       -12.2138
  28   2.0000      -0.337957        -9.1963
  29   2.0000      -0.331076        -9.0090
  30   0.0000       0.128257         3.4900
  31   0.0000       0.158965         4.3256
  32   0.0000       0.164617         4.4795
  33   0.0000       0.170248         4.6327
  34   0.0000       0.186235         5.0677

MULLIKEN ATOMIC CHARGES
-----------------------
   0 C :   -0.206866
   1 O :   -0.287164
   2 C :    0.227004
   3 N :   -0.259921
   4 N :   -0.147188
   5 C :    0.137743
   6 C :   -0.440396
   7 C :   -0.263037
   8 H :    0.140296
   9 H :    0.128799
  10 H :    0.128812
  11 H :    0.251820
  12 H :    0.147486
  13 H :    0.152795
  14 H :    0.147469
  15 H :    0.142349
Sum of atomic charges:   -0.0000000

LOEWDIN ATOMIC CHARGES
----------------------
   0 C :   -0.324724
   1 O :    0.222728
   2 C :   -0.404746
   3 N :    0.018548
   4 N :    0.133086
   5 C :   -0.270864
   6 C :   -0.275138
   7 C :   -0.163834
   8 H :    0.112089
   9 H :    0.109501
  10 H :    0.109504
  11 H :    0.186061
  12 H :    0.132195
  13 H :    0.139167
  14 H :    0.132192
  15 H :    0.144236

  Mayer bond orders larger than 0.1
B(  0-C ,  1-O ) :   0.8563 B(  0-C ,  8-H ) :   0.9366 B(  0-C ,  9-H ) :   0.9365
B(  0-C , 10-H ) :   0.9365 B(  1-O ,  2-C ) :   1.1023 B(  2-C ,  3-N ) :   1.5234
B(  2-C ,  7-C ) :   1.2782 B(  3-N ,  4-N ) :   0.9929 B(  3-N ,  5-C ) :   0.1156
B(  4-N ,  5-C ) :   1.2000 B(  4-N , 11-H ) :   0.8744 B(  5-C ,  6-C ) :   0.8473
B(  5-C ,  7-C ) :   1.4346 B(  6-C , 12-H ) :   0.9359 B(  6-C , 13-H ) :   0.9504
B(  6-C , 14-H ) :   0.9359 B(  7-C , 15-H ) :   0.9184

MP2 TOTAL ENERGY:     -379.301600948 Eh
FINAL SINGLE POINT ENERGY      -379.301600947514

DIPOLE MOMENT
-------------
                                X             Y             Z
Electronic contribution:      0.92505       1.45861      -0.00765
Nuclear contribution   :     -1.70005      -1.89317      -0.02211
                        -----------------------------------------
Total Dipole Moment    :     -0.77500      -0.43456      -0.02976
                        -----------------------------------------
Magnitude (a.u.)       :      0.88902
Magnitude (Debye)      :      2.25971

                             ****ORCA TERMINATED NORMALLY****
TOTAL RUN TIME: 0 days 0 hours 11 minutes 28 seconds 881 msec
