                         Program Version 3.0.3 - RELEASE   -
|  1> ! RI-MP2 RIJK def2-TZVP def2-TZVP/C def2-TZVP/JK TIGHTSCF
|  2> % maxcore 2000
|  3> % mp2 density relaxed end
|  4> *xyz 0 1
|  5>  C        0.1316866689     1.4441053118    -0.4456415889
|  6>  C        0.0898406451    -0.0318540736    -0.1032563637
|  7>  C        1.2816502327    -0.8643339027    -0.4137633926
|  8>  N        0.9482890143    -0.5408966353     0.9856679429
|  9>  C       -1.2709311035    -0.6967937945    -0.1341769615
| 10>  C       -2.4430191929    -0.1032277709     0.6753186153
| 11>  O       -3.2070856751     0.0965824209    -0.5592165215
| 12>  C       -2.1833851003    -0.3904910762    -1.3327740423
| 13>  O       -2.1428404144    -0.4717278894    -2.5179011574
| 14>  H        1.1610021348     1.8145108383    -0.4274602057
| 15>  H       -0.2720467039     1.6260338514    -1.4469397624
| 16>  H       -0.4492717731     2.0428282023     0.2648276094
| 17>  H        1.1659293084    -1.9102733566    -0.6838150363
| 18>  H        2.1325843828    -0.3724558564    -0.8771917740
| 19>  H        1.5550820672     0.2030411979     1.3223747267
| 20>  H       -1.1553283530    -1.7713108907     0.0223396854
| 21>  H       -2.9627886736    -0.7888202120     1.3462392991
| 22>  H       -2.2580176244     0.8509247357     1.1715678474
| 23> *
| 24>
| 25>                          ****END OF INPUT****

CARTESIAN COORDINATES (ANGSTROEM)
---------------------------------
  C      0.131687    1.444105   -0.445642
  C      0.089841   -0.031854   -0.103256
  C      1.281650   -0.864334   -0.413763
  N      0.948289   -0.540897    0.985668
  C     -1.270931   -0.696794   -0.134177
  C     -2.443019   -0.103228    0.675319
  O     -3.207086    0.096582   -0.559217
  C     -2.183385   -0.390491   -1.332774
  O     -2.142840   -0.471728   -2.517901
  H      1.161002    1.814511   -0.427460
  H     -0.272047    1.626034   -1.446940
  H     -0.449272    2.042828    0.264828
  H      1.165929   -1.910273   -0.683815
  H      2.132584   -0.372456   -0.877192
  H      1.555082    0.203041    1.322375
  H     -1.155328   -1.771311    0.022340
  H     -2.962789   -0.788820    1.346239
  H     -2.258018    0.850925    1.171568

 Total Charge           Charge          ....    0
 Multiplicity           Mult            ....    1
 Number of Electrons    NEL             ....   68
 Basis Dimension        Dim             ....  333

ORBITAL ENERGIES
----------------

  NO   OCC          E(Eh)            E(eV)
   0   2.0000     -20.602895      -560.6333
   1   2.0000     -20.554301      -559.3110
   2   2.0000     -15.573686      -423.7816
   3   2.0000     -11.384296      -309.7825
   4   2.0000     -11.308847      -307.7294
   5   2.0000     -11.291503      -307.2574
   6   2.0000     -11.269654      -306.6629
   7   2.0000     -11.268896      -306.6422
   8   2.0000     -11.241474      -305.8961
   9   2.0000      -1.464894       -39.8618
  10   2.0000      -1.380922       -37.5768
  11   2.0000      -1.282849       -34.9081
  12   2.0000      -1.072082       -29.1728
  13   2.0000      -0.996089       -27.1050
  14   2.0000      -0.926005       -25.1979
  15   2.0000      -0.896705       -24.4006
  16   2.0000      -0.825594       -22.4656
  17   2.0000      -0.734994       -20.0002
  18   2.0000      -0.708601       -19.2820
  19   2.0000      -0.698571       -19.0091
  20   2.0000      -0.683486       -18.5986
  21   2.0000      -0.675549       -18.3826
  22   2.0000      -0.620998       -16.8982
  23   2.0000      -0.601505       -16.3678
  24   2.0000      -0.571021       -15.5383
  25   2.0000      -0.566605       -15.4181
  26   2.0000      -0.558720       -15.2035
  27   2.0000      -0.534523       -14.5451
  28   2.0000      -0.517274       -14.0757
  29   2.0000      -0.495460       -13.4821
  30   2.0000      -0.477272       -12.9872
  31   2.0000      -0.461713       -12.5638
  32   2.0000      -0.435814       -11.8591
  33   2.0000      -0.402700       -10.9580
  34   0.0000       0.124435         3.3860
  35   0.0000       0.143560         3.9065
  36   0.0000       0.155067         4.2196
  37   0.0000       0.166872         4.5408
  38   0.0000       0.176874         4.8130

MULLIKEN ATOMIC CHARGES
-----------------------
   0 C :   -0.403055
   1 C :    0.082387
   2 C :   -0.211161
   3 N :   -0.389852
   4 C :   -0.075330
   5 C :   -0.049485
   6 O :   -0.231824
   7 C :    0.234972
   8 O :   -0.262700
   9 H :    0.130232
  10 H :    0.165282
  11 H :    0.137300
  12 H :    0.125950
  13 H :    0.133380
  14 H :    0.221196
  15 H :    0.146724
  16 H :    0.127459
  17 H :    0.118525
Sum of atomic charges:    0.0000000

LOEWDIN ATOMIC CHARGES
----------------------
   0 C :   -0.265237
   1 C :   -0.314720
   2 C :   -0.236118
   3 N :    0.004436
   4 C :   -0.168629
   5 C :   -0.205090
   6 O :    0.232287
   7 C :   -0.443234
   8 O :    0.155606
   9 H :    0.130471
  10 H :    0.140039
  11 H :    0.127924
  12 H :    0.128315
  13 H :    0.125100
  14 H :    0.166773
  15 H :    0.172287
  16 H :    0.125318
  17 H :    0.124470

  Mayer bond orders larger than 0.1
B(  0-C ,  1-C ) :   0.9466 B(  0-C ,  9-H ) :   0.9238 B(  0-C , 10-H ) :   0.9269
B(  0-C , 11-H ) :   0.9313 B(  1-C ,  2-C ) :   0.9294 B(  1-C ,  3-N ) :   0.8796
B(  1-C ,  4-C ) :   0.8835 B(  2-C ,  3-N ) :   0.9509 B(  2-C , 12-H ) :   0.9095
B(  2-C , 13-H ) :   0.9219 B(  3-N , 14-H ) :   0.8712 B(  4-C ,  5-C ) :   0.9429
B(  4-C ,  7-C ) :   0.9080 B(  4-C , 15-H ) :   0.8987 B(  5-C ,  6-O ) :   0.8894
B(  5-C , 16-H ) :   0.9186 B(  5-C , 17-H ) :   0.9151 B(  6-O ,  7-C ) :   1.1048
B(  7-C ,  8-O ) :   2.0440

MP2 TOTAL ENERGY:     -438.363253514 Eh
FINAL SINGLE POINT ENERGY      -438.363253513590

DIPOLE MOMENT
-------------
                                X             Y             Z
Electronic contribution:     -6.39713      -2.52762      -3.34332
Nuclear contribution   :      7.32468       2.88747       4.33003
                        -----------------------------------------
Total Dipole Moment    :      0.92755       0.35985       0.98671
                        -----------------------------------------
Magnitude (a.u.)       :      1.40123
Magnitude (Debye)      :      3.56164

                             ****ORCA TERMINATED NORMALLY****
TOTAL RUN TIME: 0 days 0 hours 17 minutes 43 seconds 397 msec
