                         Program Version 3.0.3 - RELEASE   -
|  1> ! RI-MP2 RIJK def2-TZVP def2-TZVP/C def2-TZVP/JK TIGHTSCF
|  2> % maxcore 2000
|  3> % mp2 density relaxed end
|  4> *xyz 0 1
|  5>  C       -0.1700503849     1.6065631545     0.1570038722
|  6>  C       -0.0815842599     0.0964004943     0.1447117289
|  7>  C        1.0708963052    -0.6415714784    -0.4027197984
|  8>  C        0.8186222567    -0.7157745960     1.1203269400
|  9>  C        1.7798495058     0.0333836497     1.9525263734
| 10>  O        2.1252494400    -0.2385371672     3.0850048027
| 11>  C        0.1826739595    -2.0154011894     1.5831254875
| 12>  N        0.4804980545    -2.4056901727     2.8417313259
| 13>  O       -0.5560171403    -2.6406740577     0.8373900543
| 14>  H        0.8097316164     2.0908199335     0.1729080936
| 15>  H       -0.6831187320     1.9437634320    -0.7498969484
| 16>  H       -0.7433308137     1.9692069592     1.0161040937
| 17>  H       -1.0304769593    -0.4183502787     0.0279300889
| 18>  H        0.8900993860    -1.5755202285    -0.9204923051
| 19>  H        1.9468891689    -0.0816930932    -0.7156643627
| 20>  H        2.2175385585     0.9209693220     1.4512709640
| 21>  H        1.1199622603    -1.8611579794     3.4050584206
| 22>  H        0.0845952482    -3.2709426641     3.1697968387
| 23> *
| 24>
| 25>                          ****END OF INPUT****

CARTESIAN COORDINATES (ANGSTROEM)
---------------------------------
  C     -0.170050    1.606563    0.157004
  C     -0.081584    0.096400    0.144712
  C      1.070896   -0.641571   -0.402720
  C      0.818622   -0.715775    1.120327
  C      1.779850    0.033384    1.952526
  O      2.125249   -0.238537    3.085005
  C      0.182674   -2.015401    1.583125
  N      0.480498   -2.405690    2.841731
  O     -0.556017   -2.640674    0.837390
  H      0.809732    2.090820    0.172908
  H     -0.683119    1.943763   -0.749897
  H     -0.743331    1.969207    1.016104
  H     -1.030477   -0.418350    0.027930
  H      0.890099   -1.575520   -0.920492
  H      1.946889   -0.081693   -0.715664
  H      2.217539    0.920969    1.451271
  H      1.119962   -1.861158    3.405058
  H      0.084595   -3.270943    3.169797

 Total Charge           Charge          ....    0
 Multiplicity           Mult            ....    1
 Number of Electrons    NEL             ....   68
 Basis Dimension        Dim             ....  333

ORBITAL ENERGIES
----------------

  NO   OCC          E(Eh)            E(eV)
   0   2.0000     -20.568992      -559.7107
   1   2.0000     -20.512702      -558.1790
   2   2.0000     -15.572700      -423.7547
   3   2.0000     -11.355468      -308.9980
   4   2.0000     -11.353341      -308.9401
   5   2.0000     -11.270125      -306.6757
   6   2.0000     -11.269350      -306.6546
   7   2.0000     -11.259796      -306.3946
   8   2.0000     -11.242965      -305.9366
   9   2.0000      -1.410291       -38.3760
  10   2.0000      -1.379685       -37.5431
  11   2.0000      -1.207882       -32.8681
  12   2.0000      -1.184243       -32.2249
  13   2.0000      -1.002099       -27.2685
  14   2.0000      -0.935799       -25.4644
  15   2.0000      -0.865135       -23.5415
  16   2.0000      -0.813334       -22.1320
  17   2.0000      -0.769756       -20.9461
  18   2.0000      -0.710544       -19.3349
  19   2.0000      -0.702225       -19.1085
  20   2.0000      -0.681045       -18.5322
  21   2.0000      -0.639615       -17.4048
  22   2.0000      -0.626414       -17.0456
  23   2.0000      -0.599321       -16.3083
  24   2.0000      -0.588810       -16.0223
  25   2.0000      -0.580942       -15.8082
  26   2.0000      -0.570899       -15.5349
  27   2.0000      -0.549091       -14.9415
  28   2.0000      -0.521230       -14.1834
  29   2.0000      -0.471321       -12.8253
  30   2.0000      -0.437763       -11.9121
  31   2.0000      -0.425260       -11.5719
  32   2.0000      -0.418087       -11.3767
  33   2.0000      -0.408996       -11.1294
  34   0.0000       0.112760         3.0684
  35   0.0000       0.132431         3.6036
  36   0.0000       0.154995         4.2176
  37   0.0000       0.165457         4.5023
  38   0.0000       0.173755         4.7281

MULLIKEN ATOMIC CHARGES
-----------------------
   0 C :   -0.388035
   1 C :   -0.100879
   2 C :   -0.296869
   3 C :    0.079213
   4 C :    0.107068
   5 O :   -0.327399
   6 C :    0.224336
   7 N :   -0.451534
   8 O :   -0.382762
   9 H :    0.122112
  10 H :    0.147130
  11 H :    0.147682
  12 H :    0.167528
  13 H :    0.173737
  14 H :    0.145080
  15 H :    0.093904
  16 H :    0.286404
  17 H :    0.253283
Sum of atomic charges:   -0.0000000

LOEWDIN ATOMIC CHARGES
----------------------
   0 C :   -0.286507
   1 C :   -0.187471
   2 C :   -0.152892
   3 C :   -0.175617
   4 C :   -0.256712
   5 O :    0.106360
   6 C :   -0.447485
   7 N :    0.008744
   8 O :    0.068472
   9 H :    0.123429
  10 H :    0.133486
  11 H :    0.130820
  12 H :    0.169266
  13 H :    0.152058
  14 H :    0.140796
  15 H :    0.126053
  16 H :    0.173158
  17 H :    0.174042

  Mayer bond orders larger than 0.1
B(  0-C ,  1-C ) :   0.9118 B(  0-C ,  9-H ) :   0.9327 B(  0-C , 10-H ) :   0.9330
B(  0-C , 11-H ) :   0.9376 B(  1-C ,  2-C ) :   0.9497 B(  1-C ,  3-C ) :   0.7667
B(  1-C , 12-H ) :   0.9081 B(  2-C ,  3-C ) :   0.7990 B(  2-C , 13-H ) :   0.9077
B(  2-C , 14-H ) :   0.9236 B(  3-C ,  4-C ) :   0.8911 B(  3-C ,  6-C ) :   0.8986
B(  4-C ,  5-O ) :   1.8753 B(  4-C , 15-H ) :   0.9704 B(  6-C ,  7-N ) :   1.2414
B(  6-C ,  8-O ) :   1.9105 B(  7-N , 16-H ) :   0.8229 B(  7-N , 17-H ) :   0.8552

MP2 TOTAL ENERGY:     -438.406354619 Eh
FINAL SINGLE POINT ENERGY      -438.406354619357

DIPOLE MOMENT
-------------
                                X             Y             Z
Electronic contribution:      1.23431      -5.56073       4.24632
Nuclear contribution   :     -0.96425       6.32743      -4.44179
                        -----------------------------------------
Total Dipole Moment    :      0.27006       0.76669      -0.19547
                        -----------------------------------------
Magnitude (a.u.)       :      0.83604
Magnitude (Debye)      :      2.12504

                             ****ORCA TERMINATED NORMALLY****
TOTAL RUN TIME: 0 days 0 hours 17 minutes 10 seconds 674 msec
