                         Program Version 3.0.3 - RELEASE   -
|  1> ! RI-MP2 RIJK def2-TZVP def2-TZVP/C def2-TZVP/JK TIGHTSCF
|  2> % maxcore 2000
|  3> % mp2 density relaxed end
|  4> *xyz 0 1
|  5>  C        0.1792063108     1.5670715794    -0.2212009765
|  6>  C       -0.0224168921     0.0600079205     0.0310264308
|  7>  C        0.6378121184    -0.4599835166     1.2650865741
|  8>  C        0.1032982619    -0.8120917628     2.4876544034
|  9>  N       -1.2780130918    -0.7767457935     2.8135267940
| 10>  C        1.1677498316    -1.2842644359     3.3162380226
| 11>  C        2.3297477676    -1.1952618099     2.5797865340
| 12>  N        3.6843495373    -1.4623515213     2.8792668397
| 13>  N        2.0039467001    -0.6884006698     1.3514482510
| 14>  H        1.2410755238     1.8136916306    -0.3292666527
| 15>  H       -0.3327177359     1.8869189719    -1.1352119959
| 16>  H       -0.2093297383     2.1592029007     0.6134717671
| 17>  H       -1.0933155163    -0.1558351099     0.1161269805
| 18>  H        0.3309862329    -0.4975545945    -0.8481268490
| 19>  H       -1.6527879150     0.1649472953     2.7903365973
| 20>  H       -1.4390884775    -1.1435141699     3.7433372461
| 21>  H        1.0822205523    -1.6649547558     4.3238662271
| 22>  H        3.8315910894    -1.4633738309     3.8813613158
| 23>  H        3.9829909849    -2.3692942760     2.5296305282
| 24>  H        2.6872025657    -0.4346412315     0.6590942525
| 25> *
| 26>
| 27>                          ****END OF INPUT****

CARTESIAN COORDINATES (ANGSTROEM)
---------------------------------
  C      0.179206    1.567072   -0.221201
  C     -0.022417    0.060008    0.031026
  C      0.637812   -0.459984    1.265087
  C      0.103298   -0.812092    2.487654
  N     -1.278013   -0.776746    2.813527
  C      1.167750   -1.284264    3.316238
  C      2.329748   -1.195262    2.579787
  N      3.684350   -1.462352    2.879267
  N      2.003947   -0.688401    1.351448
  H      1.241076    1.813692   -0.329267
  H     -0.332718    1.886919   -1.135212
  H     -0.209330    2.159203    0.613472
  H     -1.093316   -0.155835    0.116127
  H      0.330986   -0.497555   -0.848127
  H     -1.652788    0.164947    2.790337
  H     -1.439088   -1.143514    3.743337
  H      1.082221   -1.664955    4.323866
  H      3.831591   -1.463374    3.881361
  H      3.982991   -2.369294    2.529631
  H      2.687203   -0.434641    0.659094

 Total Charge           Charge          ....    0
 Multiplicity           Mult            ....    1
 Number of Electrons    NEL             ....   68
 Basis Dimension        Dim             ....  345

ORBITAL ENERGIES
----------------

  NO   OCC          E(Eh)            E(eV)
   0   2.0000     -15.582829      -424.0303
   1   2.0000     -15.561291      -423.4442
   2   2.0000     -15.541567      -422.9075
   3   2.0000     -11.280425      -306.9560
   4   2.0000     -11.232867      -305.6618
   5   2.0000     -11.227191      -305.5074
   6   2.0000     -11.222907      -305.3908
   7   2.0000     -11.212337      -305.1032
   8   2.0000     -11.192857      -304.5731
   9   2.0000      -1.290149       -35.1067
  10   2.0000      -1.189123       -32.3577
  11   2.0000      -1.170051       -31.8387
  12   2.0000      -1.040464       -28.3125
  13   2.0000      -1.011010       -27.5110
  14   2.0000      -0.930946       -25.3323
  15   2.0000      -0.837014       -22.7763
  16   2.0000      -0.780876       -21.2487
  17   2.0000      -0.751322       -20.4445
  18   2.0000      -0.695503       -18.9256
  19   2.0000      -0.658900       -17.9296
  20   2.0000      -0.651574       -17.7302
  21   2.0000      -0.608028       -16.5453
  22   2.0000      -0.596051       -16.2194
  23   2.0000      -0.588183       -16.0053
  24   2.0000      -0.579495       -15.7689
  25   2.0000      -0.555860       -15.1257
  26   2.0000      -0.536137       -14.5890
  27   2.0000      -0.506319       -13.7777
  28   2.0000      -0.492129       -13.3915
  29   2.0000      -0.478413       -13.0183
  30   2.0000      -0.459373       -12.5002
  31   2.0000      -0.420400       -11.4397
  32   2.0000      -0.318690        -8.6720
  33   2.0000      -0.257841        -7.0162
  34   0.0000       0.126866         3.4522
  35   0.0000       0.139177         3.7872
  36   0.0000       0.151705         4.1281
  37   0.0000       0.169382         4.6091
  38   0.0000       0.182232         4.9588

MULLIKEN ATOMIC CHARGES
-----------------------
   0 C :   -0.354023
   1 C :   -0.312371
   2 C :    0.041725
   3 C :    0.189296
   4 N :   -0.552132
   5 C :   -0.333558
   6 C :    0.189285
   7 N :   -0.546691
   8 N :   -0.280673
   9 H :    0.112209
  10 H :    0.126406
  11 H :    0.121205
  12 H :    0.146642
  13 H :    0.117370
  14 H :    0.249359
  15 H :    0.236817
  16 H :    0.112436
  17 H :    0.249985
  18 H :    0.250571
  19 H :    0.236140
Sum of atomic charges:    0.0000000

LOEWDIN ATOMIC CHARGES
----------------------
   0 C :   -0.315107
   1 C :   -0.267579
   2 C :   -0.220810
   3 C :   -0.263197
   4 N :   -0.115361
   5 C :   -0.192188
   6 C :   -0.342058
   7 N :   -0.121735
   8 N :    0.210076
   9 H :    0.116159
  10 H :    0.118018
  11 H :    0.119908
  12 H :    0.151125
  13 H :    0.141054
  14 H :    0.162335
  15 H :    0.162309
  16 H :    0.133823
  17 H :    0.168189
  18 H :    0.164413
  19 H :    0.190627

  Mayer bond orders larger than 0.1
B(  0-C ,  1-C ) :   0.9127 B(  0-C ,  9-H ) :   0.9393 B(  0-C , 10-H ) :   0.9366
B(  0-C , 11-H ) :   0.9370 B(  1-C ,  2-C ) :   0.8760 B(  1-C , 12-H ) :   0.9496
B(  1-C , 13-H ) :   0.9384 B(  2-C ,  3-C ) :   1.5021 B(  2-C ,  8-N ) :   1.0752
B(  3-C ,  4-N ) :   0.9001 B(  3-C ,  5-C ) :   1.2613 B(  4-N , 14-H ) :   0.8765
B(  4-N , 15-H ) :   0.8945 B(  5-C ,  6-C ) :   1.4920 B(  5-C , 16-H ) :   0.9181
B(  6-C ,  7-N ) :   1.0363 B(  6-C ,  8-N ) :   1.1465 B(  7-N , 17-H ) :   0.8907
B(  7-N , 18-H ) :   0.8753 B(  8-N , 19-H ) :   0.8682

MP2 TOTAL ENERGY:     -398.669969490 Eh
FINAL SINGLE POINT ENERGY      -398.669969489704

DIPOLE MOMENT
-------------
                                X             Y             Z
Electronic contribution:      2.60444      -4.01630       3.68839
Nuclear contribution   :     -2.23015       4.01993      -3.51645
                        -----------------------------------------
Total Dipole Moment    :      0.37429       0.00363       0.17194
                        -----------------------------------------
Magnitude (a.u.)       :      0.41191
Magnitude (Debye)      :      1.04699

                             ****ORCA TERMINATED NORMALLY****
TOTAL RUN TIME: 0 days 0 hours 18 minutes 10 seconds 182 msec
