                         Program Version 3.0.3 - RELEASE   -
|  1> ! RI-MP2 RIJK def2-TZVP def2-TZVP/C def2-TZVP/JK TIGHTSCF
|  2> % maxcore 2000
|  3> % mp2 density relaxed end
|  4> *xyz 0 1
|  5>  N       -0.2085749436     1.5605270274     0.0415129879
|  6>  C       -0.0729054810     0.1076072221    -0.0371314959
|  7>  C       -1.4037840173    -0.5118268474     0.1105522719
|  8>  N       -2.4342778492    -1.0196518629     0.2277843649
|  9>  C        0.5934189521    -0.4296863173    -1.3298250029
| 10>  O       -0.0858351675     0.1580274244    -2.4185965445
| 11>  C        2.0832287020    -0.0957287061    -1.3944049562
| 12>  O        2.5151858823    -0.5110543371    -2.6843083079
| 13>  H        0.6970407608     1.9849500004     0.2095971151
| 14>  H       -0.5404493728     1.8977405726    -0.8581756708
| 15>  H        0.5250462417    -0.2294953485     0.8188840939
| 16>  H        0.4893991447    -1.5260586016    -1.3496806039
| 17>  H        0.4779887779     0.0170482717    -3.1898910043
| 18>  H        2.2265046773     0.9861164009    -1.2612972010
| 19>  H        2.6273627447    -0.6238980351    -0.5969895624
| 20>  H        3.3746039580    -0.1218762534    -2.8679727341
| 21> *
| 22>
| 23>                          ****END OF INPUT****

CARTESIAN COORDINATES (ANGSTROEM)
---------------------------------
  N     -0.208575    1.560527    0.041513
  C     -0.072905    0.107607   -0.037131
  C     -1.403784   -0.511827    0.110552
  N     -2.434278   -1.019652    0.227784
  C      0.593419   -0.429686   -1.329825
  O     -0.085835    0.158027   -2.418597
  C      2.083229   -0.095729   -1.394405
  O      2.515186   -0.511054   -2.684308
  H      0.697041    1.984950    0.209597
  H     -0.540449    1.897741   -0.858176
  H      0.525046   -0.229495    0.818884
  H      0.489399   -1.526059   -1.349681
  H      0.477989    0.017048   -3.189891
  H      2.226505    0.986116   -1.261297
  H      2.627363   -0.623898   -0.596990
  H      3.374604   -0.121876   -2.867973

 Total Charge           Charge          ....    0
 Multiplicity           Mult            ....    1
 Number of Electrons    NEL             ....   62
 Basis Dimension        Dim             ....  296

ORBITAL ENERGIES
----------------

  NO   OCC          E(Eh)            E(eV)
   0   2.0000     -20.594137      -560.3950
   1   2.0000     -20.573065      -559.8216
   2   2.0000     -15.567860      -423.6230
   3   2.0000     -15.563064      -423.4925
   4   2.0000     -11.318642      -307.9959
   5   2.0000     -11.310366      -307.7707
   6   2.0000     -11.309733      -307.7535
   7   2.0000     -11.264497      -306.5225
   8   2.0000      -1.409090       -38.3433
   9   2.0000      -1.376304       -37.4511
  10   2.0000      -1.230320       -33.4787
  11   2.0000      -1.196648       -32.5625
  12   2.0000      -1.049044       -28.5459
  13   2.0000      -0.966269       -26.2935
  14   2.0000      -0.842402       -22.9229
  15   2.0000      -0.756387       -20.5823
  16   2.0000      -0.741053       -20.1651
  17   2.0000      -0.702987       -19.1293
  18   2.0000      -0.673597       -18.3295
  19   2.0000      -0.659420       -17.9437
  20   2.0000      -0.635059       -17.2808
  21   2.0000      -0.604722       -16.4553
  22   2.0000      -0.580100       -15.7853
  23   2.0000      -0.563720       -15.3396
  24   2.0000      -0.548854       -14.9351
  25   2.0000      -0.534346       -14.5403
  26   2.0000      -0.488540       -13.2939
  27   2.0000      -0.467410       -12.7189
  28   2.0000      -0.457295       -12.4436
  29   2.0000      -0.455475       -12.3941
  30   2.0000      -0.424096       -11.5402
  31   0.0000       0.104933         2.8554
  32   0.0000       0.123237         3.3535
  33   0.0000       0.145204         3.9512
  34   0.0000       0.163580         4.4512
  35   0.0000       0.186215         5.0672

MULLIKEN ATOMIC CHARGES
-----------------------
   0 N :   -0.521446
   1 C :    0.131523
   2 C :   -0.158148
   3 N :   -0.051059
   4 C :    0.063818
   5 O :   -0.484826
   6 C :   -0.085723
   7 O :   -0.488558
   8 H :    0.226010
   9 H :    0.257064
  10 H :    0.135785
  11 H :    0.105293
  12 H :    0.337720
  13 H :    0.091483
  14 H :    0.110120
  15 H :    0.330944
Sum of atomic charges:    0.0000000

LOEWDIN ATOMIC CHARGES
----------------------
   0 N :   -0.118475
   1 C :   -0.302208
   2 C :   -0.161680
   3 N :    0.067227
   4 C :   -0.342506
   5 O :   -0.003549
   6 C :   -0.335503
   7 O :   -0.047650
   8 H :    0.152972
   9 H :    0.167330
  10 H :    0.173350
  11 H :    0.148653
  12 H :    0.184515
  13 H :    0.115820
  14 H :    0.123049
  15 H :    0.178654

  Mayer bond orders larger than 0.1
B(  0-N ,  1-C ) :   0.9972 B(  0-N ,  8-H ) :   0.8963 B(  0-N ,  9-H ) :   0.8805
B(  1-C ,  2-C ) :   0.9321 B(  1-C ,  4-C ) :   0.8901 B(  1-C , 10-H ) :   0.9039
B(  2-C ,  3-N ) :   2.8792 B(  4-C ,  5-O ) :   0.9681 B(  4-C ,  6-C ) :   0.9125
B(  4-C , 11-H ) :   0.9197 B(  5-O , 12-H ) :   0.8187 B(  6-C ,  7-O ) :   0.9905
B(  6-C , 13-H ) :   0.9271 B(  6-C , 14-H ) :   0.9306 B(  7-O , 15-H ) :   0.8417

MP2 TOTAL ENERGY:     -416.401598405 Eh
FINAL SINGLE POINT ENERGY      -416.401598404898

DIPOLE MOMENT
-------------
                                X             Y             Z
Electronic contribution:     -4.87656      -2.00703       0.45563
Nuclear contribution   :      7.58445       2.67899      -0.88206
                        -----------------------------------------
Total Dipole Moment    :      2.70789       0.67196      -0.42643
                        -----------------------------------------
Magnitude (a.u.)       :      2.82242
Magnitude (Debye)      :      7.17402

                             ****ORCA TERMINATED NORMALLY****
TOTAL RUN TIME: 0 days 0 hours 10 minutes 40 seconds 290 msec
