                         Program Version 3.0.3 - RELEASE   -
|  1> ! RI-MP2 RIJK def2-TZVP def2-TZVP/C def2-TZVP/JK TIGHTSCF
|  2> % maxcore 2000
|  3> % mp2 density relaxed end
|  4> *xyz 0 1
|  5>  O       -0.0387322006     1.4565465175    -0.0202002741
|  6>  C        0.0370163682     0.0465342985     0.0192536278
|  7>  C        0.6710071285    -0.5383546302     1.3152438061
|  8>  C       -0.2311273292    -1.7151902872     1.6699236390
|  9>  C       -1.2443536323    -1.9645775339     0.6085435967
| 10>  C       -1.7043722729    -1.4368670464     1.9969664538
| 11>  C       -2.1670590280    -0.1949344871     1.3064411671
| 12>  O       -3.0196181726     0.6098047762     1.5562387052
| 13>  C       -1.3823756442    -0.5389263992     0.0098775091
| 14>  H        0.8562961038     1.8088130162    -0.0408604861
| 15>  H        0.5801303084    -0.3374023834    -0.8592725602
| 16>  H        1.7016191046    -0.8682230771     1.1511830683
| 17>  H        0.6804123149     0.2265059794     2.0984774423
| 18>  H        0.1760967582    -2.5591896352     2.2163625253
| 19>  H       -1.5120895245    -2.9039666015     0.1475004891
| 20>  H       -2.2068145494    -1.9588093478     2.8025479194
| 21>  H       -1.9349482629    -0.3878140589    -0.9162070387
| 22> *
| 23>
| 24>                          ****END OF INPUT****

CARTESIAN COORDINATES (ANGSTROEM)
---------------------------------
  O     -0.038732    1.456547   -0.020200
  C      0.037016    0.046534    0.019254
  C      0.671007   -0.538355    1.315244
  C     -0.231127   -1.715190    1.669924
  C     -1.244354   -1.964578    0.608544
  C     -1.704372   -1.436867    1.996966
  C     -2.167059   -0.194934    1.306441
  O     -3.019618    0.609805    1.556239
  C     -1.382376   -0.538926    0.009878
  H      0.856296    1.808813   -0.040860
  H      0.580130   -0.337402   -0.859273
  H      1.701619   -0.868223    1.151183
  H      0.680412    0.226506    2.098477
  H      0.176097   -2.559190    2.216363
  H     -1.512090   -2.903967    0.147500
  H     -2.206815   -1.958809    2.802548
  H     -1.934948   -0.387814   -0.916207

 Total Charge           Charge          ....    0
 Multiplicity           Mult            ....    1
 Number of Electrons    NEL             ....   66
 Basis Dimension        Dim             ....  327

ORBITAL ENERGIES
----------------

  NO   OCC          E(Eh)            E(eV)
   0   2.0000     -20.564982      -559.6016
   1   2.0000     -20.534711      -558.7779
   2   2.0000     -11.327133      -308.2270
   3   2.0000     -11.297639      -307.4244
   4   2.0000     -11.263792      -306.5034
   5   2.0000     -11.261876      -306.4512
   6   2.0000     -11.252009      -306.1827
   7   2.0000     -11.248106      -306.0765
   8   2.0000     -11.238904      -305.8261
   9   2.0000      -1.382270       -37.6135
  10   2.0000      -1.372602       -37.3504
  11   2.0000      -1.229361       -33.4526
  12   2.0000      -1.031751       -28.0754
  13   2.0000      -1.003382       -27.3034
  14   2.0000      -0.881202       -23.9787
  15   2.0000      -0.832063       -22.6416
  16   2.0000      -0.787096       -21.4180
  17   2.0000      -0.725774       -19.7493
  18   2.0000      -0.706682       -19.2298
  19   2.0000      -0.687034       -18.6951
  20   2.0000      -0.641280       -17.4501
  21   2.0000      -0.633179       -17.2297
  22   2.0000      -0.600712       -16.3462
  23   2.0000      -0.591354       -16.0916
  24   2.0000      -0.562606       -15.3093
  25   2.0000      -0.547916       -14.9096
  26   2.0000      -0.524215       -14.2646
  27   2.0000      -0.512531       -13.9467
  28   2.0000      -0.486049       -13.2261
  29   2.0000      -0.449780       -12.2391
  30   2.0000      -0.428825       -11.6689
  31   2.0000      -0.404863       -11.0169
  32   2.0000      -0.386745       -10.5239
  33   0.0000       0.123049         3.3483
  34   0.0000       0.142217         3.8699
  35   0.0000       0.157153         4.2763
  36   0.0000       0.165490         4.5032
  37   0.0000       0.172605         4.6968

MULLIKEN ATOMIC CHARGES
-----------------------
   0 O :   -0.448087
   1 C :   -0.021399
   2 C :   -0.193755
   3 C :   -0.153242
   4 C :   -0.210503
   5 C :   -0.116154
   6 C :    0.084295
   7 O :   -0.264774
   8 C :    0.089156
   9 H :    0.317546
  10 H :    0.085474
  11 H :    0.124293
  12 H :    0.122114
  13 H :    0.137080
  14 H :    0.160262
  15 H :    0.147479
  16 H :    0.140214
Sum of atomic charges:    0.0000000

LOEWDIN ATOMIC CHARGES
----------------------
   0 O :   -0.004621
   1 C :   -0.314140
   2 C :   -0.215493
   3 C :   -0.167696
   4 C :   -0.108612
   5 C :   -0.106523
   6 C :   -0.292679
   7 O :    0.156265
   8 C :   -0.134752
   9 H :    0.177061
  10 H :    0.135424
  11 H :    0.137252
  12 H :    0.144799
  13 H :    0.154031
  14 H :    0.141105
  15 H :    0.143965
  16 H :    0.154614

  Mayer bond orders larger than 0.1
B(  0-O ,  1-C ) :   1.1063 B(  0-O ,  8-C ) :  -0.1027 B(  0-O ,  9-H ) :   0.8447
B(  1-C ,  2-C ) :   0.9585 B(  1-C ,  8-C ) :   0.8424 B(  1-C , 10-H ) :   0.9486
B(  2-C ,  3-C ) :   0.9241 B(  2-C , 11-H ) :   0.9151 B(  2-C , 12-H ) :   0.9064
B(  3-C ,  4-C ) :   0.9083 B(  3-C ,  5-C ) :   0.8092 B(  3-C , 13-H ) :   0.9207
B(  4-C ,  5-C ) :   0.8100 B(  4-C ,  8-C ) :   0.8619 B(  4-C , 14-H ) :   0.9033
B(  5-C ,  6-C ) :   0.9558 B(  5-C ,  8-C ) :  -0.1350 B(  5-C , 15-H ) :   0.9080
B(  6-C ,  7-O ) :   2.0321 B(  6-C ,  8-C ) :   0.8567 B(  8-C , 16-H ) :   0.9044

MP2 TOTAL ENERGY:     -421.117742326 Eh
FINAL SINGLE POINT ENERGY      -421.117742326172

DIPOLE MOMENT
-------------
                                X             Y             Z
Electronic contribution:     -4.39666       2.27051       0.47309
Nuclear contribution   :      5.85933      -3.47375      -0.73056
                        -----------------------------------------
Total Dipole Moment    :      1.46267      -1.20324      -0.25747
                        -----------------------------------------
Magnitude (a.u.)       :      1.91140
Magnitude (Debye)      :      4.85840

                             ****ORCA TERMINATED NORMALLY****
TOTAL RUN TIME: 0 days 0 hours 18 minutes 52 seconds 790 msec
