                         Program Version 3.0.3 - RELEASE   -
|  1> ! RI-MP2 RIJK def2-TZVP def2-TZVP/C def2-TZVP/JK TIGHTSCF
|  2> % maxcore 2000
|  3> % mp2 density relaxed end
|  4> *xyz 0 1
|  5>  C       -0.0337891523     1.4606926257     0.0423503361
|  6>  C        0.0172957965    -0.0555633216    -0.0200354947
|  7>  O        0.6927335320    -0.4316053894    -1.2056212331
|  8>  C        0.7939508707    -1.8137175773    -1.3593431501
|  9>  C        1.5282204284    -2.1269142712    -2.6531181877
| 10>  O        1.9634145327    -1.3313774799    -3.4384081200
| 11>  O        1.6201814475    -3.4669885286    -2.7906531924
| 12>  C        2.2934177028    -3.9139651778    -3.9739991757
| 13>  H        0.9769602764     1.8777536278     0.0478653740
| 14>  H       -0.5644883273     1.8617381125    -0.8254665773
| 15>  H       -0.5511803489     1.7864311100     0.9495983879
| 16>  H        0.5414183437    -0.4644752381     0.8607179512
| 17>  H       -1.0010356444    -0.4805202829    -0.0129971255
| 18>  H        1.3433536225    -2.2876264847    -0.5277928434
| 19>  H       -0.1942546262    -2.3035794312    -1.3965962436
| 20>  H        3.3219788882    -3.5448762891    -3.9953800488
| 21>  H        2.2796432257    -5.0030193365    -3.9306681054
| 22>  H        1.7758997319    -3.5600439478    -4.8692750316
| 23> *
| 24>
| 25>                          ****END OF INPUT****

CARTESIAN COORDINATES (ANGSTROEM)
---------------------------------
  C     -0.033789    1.460693    0.042350
  C      0.017296   -0.055563   -0.020035
  O      0.692734   -0.431605   -1.205621
  C      0.793951   -1.813718   -1.359343
  C      1.528220   -2.126914   -2.653118
  O      1.963415   -1.331377   -3.438408
  O      1.620181   -3.466989   -2.790653
  C      2.293418   -3.913965   -3.973999
  H      0.976960    1.877754    0.047865
  H     -0.564488    1.861738   -0.825467
  H     -0.551180    1.786431    0.949598
  H      0.541418   -0.464475    0.860718
  H     -1.001036   -0.480520   -0.012997
  H      1.343354   -2.287626   -0.527793
  H     -0.194255   -2.303579   -1.396596
  H      3.321979   -3.544876   -3.995380
  H      2.279643   -5.003019   -3.930668
  H      1.775900   -3.560044   -4.869275

 Total Charge           Charge          ....    0
 Multiplicity           Mult            ....    1
 Number of Electrons    NEL             ....   64
 Basis Dimension        Dim             ....  308

ORBITAL ENERGIES
----------------

  NO   OCC          E(Eh)            E(eV)
   0   2.0000     -20.603380      -560.6465
   1   2.0000     -20.564118      -559.5781
   2   2.0000     -20.542685      -558.9949
   3   2.0000     -11.377073      -309.5859
   4   2.0000     -11.298791      -307.4557
   5   2.0000     -11.286399      -307.1185
   6   2.0000     -11.282447      -307.0110
   7   2.0000     -11.216873      -305.2266
   8   2.0000      -1.461938       -39.7814
   9   2.0000      -1.391519       -37.8652
  10   2.0000      -1.359335       -36.9894
  11   2.0000      -1.047406       -28.5014
  12   2.0000      -0.997410       -27.1409
  13   2.0000      -0.927553       -25.2400
  14   2.0000      -0.840218       -22.8635
  15   2.0000      -0.778099       -21.1731
  16   2.0000      -0.709752       -19.3133
  17   2.0000      -0.697266       -18.9736
  18   2.0000      -0.689411       -18.7598
  19   2.0000      -0.664096       -18.0710
  20   2.0000      -0.653958       -17.7951
  21   2.0000      -0.602305       -16.3895
  22   2.0000      -0.601010       -16.3543
  23   2.0000      -0.550542       -14.9810
  24   2.0000      -0.540501       -14.7078
  25   2.0000      -0.537450       -14.6247
  26   2.0000      -0.525678       -14.3044
  27   2.0000      -0.505049       -13.7431
  28   2.0000      -0.488719       -13.2987
  29   2.0000      -0.464897       -12.6505
  30   2.0000      -0.447211       -12.1692
  31   2.0000      -0.432333       -11.7644
  32   0.0000       0.132908         3.6166
  33   0.0000       0.152987         4.1630
  34   0.0000       0.163683         4.4540
  35   0.0000       0.170213         4.6317
  36   0.0000       0.192850         5.2477

MULLIKEN ATOMIC CHARGES
-----------------------
   0 C :   -0.357661
   1 C :   -0.054491
   2 O :   -0.264757
   3 C :   -0.079112
   4 C :    0.316106
   5 O :   -0.305520
   6 O :   -0.269438
   7 C :   -0.221740
   8 H :    0.132933
   9 H :    0.132947
  10 H :    0.121102
  11 H :    0.092734
  12 H :    0.092740
  13 H :    0.118849
  14 H :    0.118824
  15 H :    0.141530
  16 H :    0.143396
  17 H :    0.141560
Sum of atomic charges:    0.0000000

LOEWDIN ATOMIC CHARGES
----------------------
   0 C :   -0.314137
   1 C :   -0.349876
   2 O :    0.179074
   3 C :   -0.308847
   4 C :   -0.482203
   5 O :    0.144957
   6 O :    0.220190
   7 C :   -0.310420
   8 H :    0.125757
   9 H :    0.125761
  10 H :    0.124414
  11 H :    0.116545
  12 H :    0.116544
  13 H :    0.134626
  14 H :    0.134627
  15 H :    0.114230
  16 H :    0.114520
  17 H :    0.114238

  Mayer bond orders larger than 0.1
B(  0-C ,  1-C ) :   0.9554 B(  0-C ,  8-H ) :   0.9359 B(  0-C ,  9-H ) :   0.9359
B(  0-C , 10-H ) :   0.9317 B(  1-C ,  2-O ) :   0.9162 B(  1-C , 11-H ) :   0.9248
B(  1-C , 12-H ) :   0.9248 B(  2-O ,  3-C ) :   0.9827 B(  3-C ,  4-C ) :   0.9427
B(  3-C , 13-H ) :   0.9083 B(  3-C , 14-H ) :   0.9083 B(  4-C ,  5-O ) :   1.9595
B(  4-C ,  6-O ) :   1.0944 B(  6-O ,  7-C ) :   0.8432 B(  7-C , 15-H ) :   0.9400
B(  7-C , 16-H ) :   0.9330 B(  7-C , 17-H ) :   0.9400

MP2 TOTAL ENERGY:     -421.428110733 Eh
FINAL SINGLE POINT ENERGY      -421.428110732792

DIPOLE MOMENT
-------------
                                X             Y             Z
Electronic contribution:      2.69640      -3.16562      -4.70641
Nuclear contribution   :     -3.00327       2.38610       5.26296
                        -----------------------------------------
Total Dipole Moment    :     -0.30687      -0.77952       0.55654
                        -----------------------------------------
Magnitude (a.u.)       :      1.00576
Magnitude (Debye)      :      2.55645

                             ****ORCA TERMINATED NORMALLY****
TOTAL RUN TIME: 0 days 0 hours 9 minutes 58 seconds 167 msec
