                         Program Version 3.0.3 - RELEASE   -
|  1> ! RI-MP2 RIJK def2-TZVP def2-TZVP/C def2-TZVP/JK TIGHTSCF
|  2> % maxcore 2000
|  3> % mp2 density relaxed end
|  4> *xyz 0 1
|  5>  C        0.1313487999     0.9725130800    -0.7517753598
|  6>  C       -0.0903969837    -0.0012701962     0.4146055920
|  7>  O        0.3025873649     0.5859506278     1.6275063295
|  8>  C       -1.5323552014    -0.4561033092     0.4865704858
|  9>  N       -2.2311639572    -0.2420552206     1.5145765040
| 10>  O       -1.9389385809    -1.0721070446    -0.6827863048
| 11>  C       -2.7673397325    -2.1608899281    -0.6148946152
| 12>  O       -3.2625809882    -2.6320655211    -1.5865280395
| 13>  H        1.1800041042     1.2781816611    -0.7555145868
| 14>  H       -0.1076535171     0.5061564087    -1.7103902388
| 15>  H       -0.4871406428     1.8649437274    -0.6200338917
| 16>  H        0.5112471296    -0.9070446009     0.2276175714
| 17>  H       -0.4728102707     0.5660311979     2.2079572743
| 18>  H       -3.2014621653    -0.5413138842     1.4475312655
| 19>  H       -2.8783982489    -2.5405358380     0.4143841640
| 20> *
| 21>
| 22>                          ****END OF INPUT****

CARTESIAN COORDINATES (ANGSTROEM)
---------------------------------
  C      0.131349    0.972513   -0.751775
  C     -0.090397   -0.001270    0.414606
  O      0.302587    0.585951    1.627506
  C     -1.532355   -0.456103    0.486570
  N     -2.231164   -0.242055    1.514577
  O     -1.938939   -1.072107   -0.682786
  C     -2.767340   -2.160890   -0.614895
  O     -3.262581   -2.632066   -1.586528
  H      1.180004    1.278182   -0.755515
  H     -0.107654    0.506156   -1.710390
  H     -0.487141    1.864944   -0.620034
  H      0.511247   -0.907045    0.227618
  H     -0.472810    0.566031    2.207957
  H     -3.201462   -0.541314    1.447531
  H     -2.878398   -2.540536    0.414384

 Total Charge           Charge          ....    0
 Multiplicity           Mult            ....    1
 Number of Electrons    NEL             ....   62
 Basis Dimension        Dim             ....  290

ORBITAL ENERGIES
----------------

  NO   OCC          E(Eh)            E(eV)
   0   2.0000     -20.653952      -562.0226
   1   2.0000     -20.588351      -560.2375
   2   2.0000     -20.560213      -559.4718
   3   2.0000     -15.586726      -424.1364
   4   2.0000     -11.418640      -310.7170
   5   2.0000     -11.382291      -309.7279
   6   2.0000     -11.311222      -307.7940
   7   2.0000     -11.230615      -305.6006
   8   2.0000      -1.509462       -41.0746
   9   2.0000      -1.420702       -38.6593
  10   2.0000      -1.378423       -37.5088
  11   2.0000      -1.241747       -33.7897
  12   2.0000      -1.052139       -28.6302
  13   2.0000      -0.946804       -25.7639
  14   2.0000      -0.875368       -23.8200
  15   2.0000      -0.822106       -22.3706
  16   2.0000      -0.784844       -21.3567
  17   2.0000      -0.726404       -19.7664
  18   2.0000      -0.703620       -19.1465
  19   2.0000      -0.666619       -18.1396
  20   2.0000      -0.658378       -17.9154
  21   2.0000      -0.630194       -17.1485
  22   2.0000      -0.592905       -16.1338
  23   2.0000      -0.570894       -15.5348
  24   2.0000      -0.550196       -14.9716
  25   2.0000      -0.538454       -14.6521
  26   2.0000      -0.517061       -14.0700
  27   2.0000      -0.496835       -13.5196
  28   2.0000      -0.476789       -12.9741
  29   2.0000      -0.467950       -12.7336
  30   2.0000      -0.447564       -12.1788
  31   0.0000       0.106744         2.9047
  32   0.0000       0.127728         3.4757
  33   0.0000       0.140664         3.8277
  34   0.0000       0.159054         4.3281
  35   0.0000       0.179081         4.8730

MULLIKEN ATOMIC CHARGES
-----------------------
   0 C :   -0.370407
   1 C :    0.143010
   2 O :   -0.477249
   3 C :    0.194718
   4 N :   -0.413476
   5 O :   -0.198276
   6 C :    0.164944
   7 O :   -0.231208
   8 H :    0.145897
   9 H :    0.140873
  10 H :    0.123864
  11 H :    0.095905
  12 H :    0.341340
  13 H :    0.230105
  14 H :    0.109961
Sum of atomic charges:    0.0000000

LOEWDIN ATOMIC CHARGES
----------------------
   0 C :   -0.281974
   1 C :   -0.351672
   2 O :   -0.002277
   3 C :   -0.365717
   4 N :   -0.033325
   5 O :    0.292211
   6 C :   -0.412880
   7 O :    0.155038
   8 H :    0.131028
   9 H :    0.128407
  10 H :    0.127545
  11 H :    0.151435
  12 H :    0.181589
  13 H :    0.168302
  14 H :    0.112290

  Mayer bond orders larger than 0.1
B(  0-C ,  1-C ) :   0.8859 B(  0-C ,  8-H ) :   0.9332 B(  0-C ,  9-H ) :   0.9222
B(  0-C , 10-H ) :   0.9285 B(  1-C ,  2-O ) :   1.0766 B(  1-C ,  3-C ) :   0.9207
B(  1-C , 11-H ) :   0.9203 B(  2-O , 12-H ) :   0.8038 B(  3-C ,  4-N ) :   1.9002
B(  3-C ,  5-O ) :   0.9936 B(  4-N , 13-H ) :   0.8598 B(  5-O ,  6-C ) :   0.9843
B(  6-C ,  7-O ) :   2.0599 B(  6-C , 14-H ) :   0.9217

MP2 TOTAL ENERGY:     -436.281867284 Eh
FINAL SINGLE POINT ENERGY      -436.281867284068

DIPOLE MOMENT
-------------
                                X             Y             Z
Electronic contribution:     -4.53008      -4.45103      -0.44739
Nuclear contribution   :      4.19232       4.27963       0.76388
                        -----------------------------------------
Total Dipole Moment    :     -0.33776      -0.17140       0.31649
                        -----------------------------------------
Magnitude (a.u.)       :      0.49358
Magnitude (Debye)      :      1.25458

                             ****ORCA TERMINATED NORMALLY****
TOTAL RUN TIME: 0 days 0 hours 9 minutes 41 seconds 167 msec
