                         Program Version 3.0.3 - RELEASE   -
|  1> ! RI-MP2 RIJK def2-TZVP def2-TZVP/C def2-TZVP/JK TIGHTSCF
|  2> % maxcore 2000
|  3> % mp2 density relaxed end
|  4> *xyz 0 1
|  5>  C        0.0253642340     1.5281478575     0.0812751043
|  6>  C       -0.0164551943     0.0303124300    -0.0208704109
|  7>  C        0.6577998400    -0.8095958509    -1.1566612909
|  8>  C        0.6013696364    -1.8165868585     0.0244432490
|  9>  O        0.8601024063    -0.6945502096     0.9243616257
| 10>  C       -0.9252442058    -2.0106941526     0.1944327034
| 11>  C       -1.6569180284    -3.2970076113     0.3682021866
| 12>  O       -3.0337618857    -3.1299229709     0.6507080783
| 13>  C       -1.3433379870    -0.7428866285     0.1614219967
| 14>  H        1.0459370122     1.8980284500    -0.0472829241
| 15>  H       -0.6084648834     1.9798488882    -0.6886428189
| 16>  H       -0.3393991229     1.8559205696     1.0599315509
| 17>  H        0.0869011091    -1.0225327200    -2.0630204632
| 18>  H        1.6754595491    -0.4761653958    -1.3767854647
| 19>  H        1.2785946827    -2.6622279968     0.1435512691
| 20>  H       -1.6110626473    -3.8907690581    -0.5550433505
| 21>  H       -1.1543134861    -3.9044951094     1.1417468079
| 22>  H       -3.0962725877    -2.5917228978     1.4472331770
| 23>  H       -2.3381180611    -0.3270215450     0.2259074542
| 24> *
| 25>
| 26>                          ****END OF INPUT****

CARTESIAN COORDINATES (ANGSTROEM)
---------------------------------
  C      0.025364    1.528148    0.081275
  C     -0.016455    0.030312   -0.020870
  C      0.657800   -0.809596   -1.156661
  C      0.601370   -1.816587    0.024443
  O      0.860102   -0.694550    0.924362
  C     -0.925244   -2.010694    0.194433
  C     -1.656918   -3.297008    0.368202
  O     -3.033762   -3.129923    0.650708
  C     -1.343338   -0.742887    0.161422
  H      1.045937    1.898028   -0.047283
  H     -0.608465    1.979849   -0.688643
  H     -0.339399    1.855921    1.059932
  H      0.086901   -1.022533   -2.063020
  H      1.675460   -0.476165   -1.376785
  H      1.278595   -2.662228    0.143551
  H     -1.611063   -3.890769   -0.555043
  H     -1.154313   -3.904495    1.141747
  H     -3.096273   -2.591723    1.447233
  H     -2.338118   -0.327022    0.225907

 Total Charge           Charge          ....    0
 Multiplicity           Mult            ....    1
 Number of Electrons    NEL             ....   68
 Basis Dimension        Dim             ....  339

ORBITAL ENERGIES
----------------

  NO   OCC          E(Eh)            E(eV)
   0   2.0000     -20.562343      -559.5298
   1   2.0000     -20.544892      -559.0549
   2   2.0000     -11.300497      -307.5022
   3   2.0000     -11.296365      -307.3897
   4   2.0000     -11.290643      -307.2340
   5   2.0000     -11.239399      -305.8396
   6   2.0000     -11.235589      -305.7359
   7   2.0000     -11.226590      -305.4910
   8   2.0000     -11.223871      -305.4171
   9   2.0000      -1.387973       -37.7687
  10   2.0000      -1.367587       -37.2139
  11   2.0000      -1.102792       -30.0085
  12   2.0000      -1.025920       -27.9167
  13   2.0000      -0.981256       -26.7013
  14   2.0000      -0.939740       -25.5716
  15   2.0000      -0.867859       -23.6156
  16   2.0000      -0.759232       -20.6598
  17   2.0000      -0.734826       -19.9956
  18   2.0000      -0.701255       -19.0821
  19   2.0000      -0.661742       -18.0069
  20   2.0000      -0.654716       -17.8157
  21   2.0000      -0.613934       -16.7060
  22   2.0000      -0.603278       -16.4160
  23   2.0000      -0.590565       -16.0701
  24   2.0000      -0.569786       -15.5047
  25   2.0000      -0.550564       -14.9816
  26   2.0000      -0.535974       -14.5846
  27   2.0000      -0.519977       -14.1493
  28   2.0000      -0.495361       -13.4795
  29   2.0000      -0.482103       -13.1187
  30   2.0000      -0.462718       -12.5912
  31   2.0000      -0.444356       -12.0916
  32   2.0000      -0.417151       -11.3513
  33   2.0000      -0.343699        -9.3525
  34   0.0000       0.135956         3.6996
  35   0.0000       0.138296         3.7632
  36   0.0000       0.148187         4.0324
  37   0.0000       0.156682         4.2635
  38   0.0000       0.179374         4.8810

MULLIKEN ATOMIC CHARGES
-----------------------
   0 C :   -0.433690
   1 C :    0.210698
   2 C :   -0.162066
   3 C :   -0.000854
   4 O :   -0.293195
   5 C :   -0.039019
   6 C :   -0.045852
   7 O :   -0.465038
   8 C :   -0.282902
   9 H :    0.144766
  10 H :    0.137872
  11 H :    0.144722
  12 H :    0.117779
  13 H :    0.118538
  14 H :    0.139485
  15 H :    0.124364
  16 H :    0.123625
  17 H :    0.319736
  18 H :    0.141032
Sum of atomic charges:    0.0000000

LOEWDIN ATOMIC CHARGES
----------------------
   0 C :   -0.269210
   1 C :   -0.295750
   2 C :   -0.167560
   3 C :   -0.215089
   4 O :    0.164984
   5 C :   -0.147082
   6 C :   -0.318192
   7 O :   -0.036306
   8 C :   -0.097143
   9 H :    0.132465
  10 H :    0.134273
  11 H :    0.134881
  12 H :    0.128545
  13 H :    0.134562
  14 H :    0.131725
  15 H :    0.140707
  16 H :    0.128590
  17 H :    0.177424
  18 H :    0.138176

  Mayer bond orders larger than 0.1
B(  0-C ,  1-C ) :   0.8433 B(  0-C ,  9-H ) :   0.9508 B(  0-C , 10-H ) :   0.9371
B(  0-C , 11-H ) :   0.9410 B(  1-C ,  2-C ) :   0.9171 B(  1-C ,  4-O ) :   0.9227
B(  1-C ,  8-C ) :   0.8949 B(  2-C ,  3-C ) :   0.9392 B(  2-C , 12-H ) :   0.9086
B(  2-C , 13-H ) :   0.9269 B(  3-C ,  4-O ) :   0.9389 B(  3-C ,  5-C ) :   0.9273
B(  3-C , 14-H ) :   0.8958 B(  5-C ,  6-C ) :   0.8872 B(  5-C ,  8-C ) :   1.7464
B(  6-C ,  7-O ) :   0.9528 B(  6-C , 15-H ) :   0.9044 B(  6-C , 16-H ) :   0.9680
B(  7-O , 17-H ) :   0.8402 B(  8-C , 18-H ) :   0.9309

MP2 TOTAL ENERGY:     -422.276196203 Eh
FINAL SINGLE POINT ENERGY      -422.276196202929

DIPOLE MOMENT
-------------
                                X             Y             Z
Electronic contribution:     -0.45479      -2.80265       1.85507
Nuclear contribution   :      0.57606       2.99781      -2.15981
                        -----------------------------------------
Total Dipole Moment    :      0.12127       0.19516      -0.30474
                        -----------------------------------------
Magnitude (a.u.)       :      0.38166
Magnitude (Debye)      :      0.97009

                             ****ORCA TERMINATED NORMALLY****
TOTAL RUN TIME: 0 days 0 hours 17 minutes 45 seconds 911 msec
