                         Program Version 3.0.3 - RELEASE   -
|  1> ! RI-MP2 RIJK def2-TZVP def2-TZVP/C def2-TZVP/JK TIGHTSCF
|  2> % maxcore 2000
|  3> % mp2 density relaxed end
|  4> *xyz 0 1
|  5>  C        0.1238602145     1.3112434709    -0.2931546551
|  6>  O       -0.0549232923    -0.0452667424     0.1158509561
|  7>  C       -1.3262660457    -0.4879447581     0.1883041719
|  8>  C       -1.3727696580    -1.9274217065     0.6352017051
|  9>  N       -2.2923236150     0.2838815781    -0.1036768803
| 10>  C       -3.6548020636    -0.2387477786    -0.0102080386
| 11>  C       -4.1604095671    -0.3025450413     1.3633177757
| 12>  C       -4.5631361713    -0.3552843507     2.4948879199
| 13>  H        1.2015153852     1.4806468553    -0.2846202990
| 14>  H       -0.2838168737     1.4722297364    -1.2949608722
| 15>  H       -0.3803974218     1.9939577925     0.3960455546
| 16>  H       -0.3698282410    -2.2867011713     0.8642276592
| 17>  H       -2.0100716639    -2.0265954571     1.5179859973
| 18>  H       -1.8013265508    -2.5570829090    -0.1519406292
| 19>  H       -4.3037237523     0.4262551405    -0.5914747744
| 20>  H       -3.7513476977    -1.2354588002    -0.4688728591
| 21>  H       -4.9257199554    -0.3940566587     3.4921196779
| 22> *
| 23>
| 24>                          ****END OF INPUT****

CARTESIAN COORDINATES (ANGSTROEM)
---------------------------------
  C      0.123860    1.311243   -0.293155
  O     -0.054923   -0.045267    0.115851
  C     -1.326266   -0.487945    0.188304
  C     -1.372770   -1.927422    0.635202
  N     -2.292324    0.283882   -0.103677
  C     -3.654802   -0.238748   -0.010208
  C     -4.160410   -0.302545    1.363318
  C     -4.563136   -0.355284    2.494888
  H      1.201515    1.480647   -0.284620
  H     -0.283817    1.472230   -1.294961
  H     -0.380397    1.993958    0.396046
  H     -0.369828   -2.286701    0.864228
  H     -2.010072   -2.026595    1.517986
  H     -1.801327   -2.557083   -0.151941
  H     -4.303724    0.426255   -0.591475
  H     -3.751348   -1.235459   -0.468873
  H     -4.925720   -0.394057    3.492120

 Total Charge           Charge          ....    0
 Multiplicity           Mult            ....    1
 Number of Electrons    NEL             ....   60
 Basis Dimension        Dim             ....  302

ORBITAL ENERGIES
----------------

  NO   OCC          E(Eh)            E(eV)
   0   2.0000     -20.588843      -560.2509
   1   2.0000     -15.537274      -422.7907
   2   2.0000     -11.339132      -308.5535
   3   2.0000     -11.280432      -306.9562
   4   2.0000     -11.272707      -306.7460
   5   2.0000     -11.236159      -305.7514
   6   2.0000     -11.233801      -305.6873
   7   2.0000     -11.221795      -305.3606
   8   2.0000      -1.424444       -38.7611
   9   2.0000      -1.219941       -33.1963
  10   2.0000      -1.049277       -28.5523
  11   2.0000      -1.014972       -27.6188
  12   2.0000      -0.946983       -25.7687
  13   2.0000      -0.933648       -25.4059
  14   2.0000      -0.761023       -20.7085
  15   2.0000      -0.722160       -19.6510
  16   2.0000      -0.681153       -18.5351
  17   2.0000      -0.672400       -18.2969
  18   2.0000      -0.664846       -18.0914
  19   2.0000      -0.631183       -17.1754
  20   2.0000      -0.591276       -16.0894
  21   2.0000      -0.580871       -15.8063
  22   2.0000      -0.575716       -15.6660
  23   2.0000      -0.548915       -14.9367
  24   2.0000      -0.513152       -13.9636
  25   2.0000      -0.495260       -13.4767
  26   2.0000      -0.425437       -11.5767
  27   2.0000      -0.398888       -10.8543
  28   2.0000      -0.382290       -10.4026
  29   2.0000      -0.379987       -10.3400
  30   0.0000       0.134715         3.6658
  31   0.0000       0.163849         4.4586
  32   0.0000       0.166461         4.5296
  33   0.0000       0.170742         4.6461
  34   0.0000       0.176495         4.8027

MULLIKEN ATOMIC CHARGES
-----------------------
   0 C :   -0.194889
   1 O :   -0.263407
   2 C :    0.241971
   3 C :   -0.416764
   4 N :   -0.286435
   5 C :   -0.191377
   6 C :   -0.069794
   7 C :   -0.171841
   8 H :    0.139149
   9 H :    0.128821
  10 H :    0.134004
  11 H :    0.157447
  12 H :    0.167043
  13 H :    0.145535
  14 H :    0.153145
  15 H :    0.138271
  16 H :    0.189121
Sum of atomic charges:    0.0000000

LOEWDIN ATOMIC CHARGES
----------------------
   0 C :   -0.320940
   1 O :    0.230162
   2 C :   -0.399587
   3 C :   -0.271664
   4 N :    0.087621
   5 C :   -0.281705
   6 C :   -0.113601
   7 C :   -0.104696
   8 H :    0.111716
   9 H :    0.110922
  10 H :    0.112391
  11 H :    0.136075
  12 H :    0.142828
  13 H :    0.137497
  14 H :    0.151243
  15 H :    0.145196
  16 H :    0.126542

  Mayer bond orders larger than 0.1
B(  0-C ,  1-O ) :   0.8470 B(  0-C ,  8-H ) :   0.9319 B(  0-C ,  9-H ) :   0.9360
B(  0-C , 10-H ) :   0.9364 B(  1-O ,  2-C ) :   1.1203 B(  2-C ,  3-C ) :   0.9126
B(  2-C ,  4-N ) :   1.7640 B(  3-C , 11-H ) :   0.9294 B(  3-C , 12-H ) :   0.9204
B(  3-C , 13-H ) :   0.9232 B(  4-N ,  5-C ) :   0.8920 B(  5-C ,  6-C ) :   1.0057
B(  5-C , 14-H ) :   0.9239 B(  5-C , 15-H ) :   0.9519 B(  6-C ,  7-C ) :   2.6380
B(  7-C , 16-H ) :   0.9119

MP2 TOTAL ENERGY:     -363.195034761 Eh
FINAL SINGLE POINT ENERGY      -363.195034760632

DIPOLE MOMENT
-------------
                                X             Y             Z
Electronic contribution:     -1.76955       0.79084       1.00634
Nuclear contribution   :      1.85534      -1.11026      -1.03771
                        -----------------------------------------
Total Dipole Moment    :      0.08579      -0.31943      -0.03137
                        -----------------------------------------
Magnitude (a.u.)       :      0.33223
Magnitude (Debye)      :      0.84447

                             ****ORCA TERMINATED NORMALLY****
TOTAL RUN TIME: 0 days 0 hours 11 minutes 20 seconds 727 msec
