                         Program Version 3.0.3 - RELEASE   -
|  1> ! RI-MP2 RIJK def2-TZVP def2-TZVP/C def2-TZVP/JK TIGHTSCF
|  2> % maxcore 2000
|  3> % mp2 density relaxed end
|  4> *xyz 0 1
|  5>  C        0.1702413192     1.5763680613    -0.0436101490
|  6>  C        0.2113821075     0.0468261585    -0.0695700711
|  7>  C        0.5391856668    -0.5663109975     1.3070649144
|  8>  C        0.5733907881    -2.0606567774     1.3255213992
|  9>  C       -0.2775018828    -2.9810377392     1.8939324688
| 10>  C        0.2175781569    -4.2868001429     1.6025659743
| 11>  C        1.3599715682    -4.1301880150     0.8509155409
| 12>  N        2.2493034621    -5.0382273478     0.2325824207
| 13>  N        1.5644867074    -2.7808414428     0.6873373335
| 14>  H        1.1326538844     1.9948673224     0.2724547845
| 15>  H       -0.0631535052     1.9870742338    -1.0308181431
| 16>  H       -0.5909121580     1.9389951292     0.6564137650
| 17>  H       -0.7513104766    -0.3511630261    -0.4112030281
| 18>  H        0.9542117551    -0.2887050543    -0.8050784913
| 19>  H        1.4983721143    -0.1561074642     1.6572365359
| 20>  H       -0.2124588233    -0.2362734887     2.0331272041
| 21>  H       -1.1559112524    -2.7392546382     2.4740662016
| 22>  H       -0.2016322706    -5.2289762852     1.9223283668
| 23>  H        3.0779123062    -5.2076601751     0.7970407109
| 24>  H        1.7961351697    -5.9328536141     0.0900656914
| 25>  H        2.2958340229    -2.3990748867     0.1120737505
| 26> *
| 27>
| 28>                          ****END OF INPUT****

CARTESIAN COORDINATES (ANGSTROEM)
---------------------------------
  C      0.170241    1.576368   -0.043610
  C      0.211382    0.046826   -0.069570
  C      0.539186   -0.566311    1.307065
  C      0.573391   -2.060657    1.325521
  C     -0.277502   -2.981038    1.893932
  C      0.217578   -4.286800    1.602566
  C      1.359972   -4.130188    0.850916
  N      2.249303   -5.038227    0.232582
  N      1.564487   -2.780841    0.687337
  H      1.132654    1.994867    0.272455
  H     -0.063154    1.987074   -1.030818
  H     -0.590912    1.938995    0.656414
  H     -0.751310   -0.351163   -0.411203
  H      0.954212   -0.288705   -0.805078
  H      1.498372   -0.156107    1.657237
  H     -0.212459   -0.236273    2.033127
  H     -1.155911   -2.739255    2.474066
  H     -0.201632   -5.228976    1.922328
  H      3.077912   -5.207660    0.797041
  H      1.796135   -5.932854    0.090066
  H      2.295834   -2.399075    0.112074

 Total Charge           Charge          ....    0
 Multiplicity           Mult            ....    1
 Number of Electrons    NEL             ....   68
 Basis Dimension        Dim             ....  351

ORBITAL ENERGIES
----------------

  NO   OCC          E(Eh)            E(eV)
   0   2.0000     -15.587027      -424.1446
   1   2.0000     -15.560206      -423.4147
   2   2.0000     -11.277524      -306.8770
   3   2.0000     -11.243229      -305.9438
   4   2.0000     -11.227303      -305.5105
   5   2.0000     -11.221368      -305.3490
   6   2.0000     -11.213742      -305.1414
   7   2.0000     -11.196531      -304.6731
   8   2.0000     -11.194270      -304.6116
   9   2.0000      -1.291506       -35.1437
  10   2.0000      -1.181244       -32.1433
  11   2.0000      -1.066734       -29.0273
  12   2.0000      -1.031775       -28.0760
  13   2.0000      -0.977706       -26.6047
  14   2.0000      -0.894003       -24.3271
  15   2.0000      -0.809261       -22.0211
  16   2.0000      -0.776176       -21.1208
  17   2.0000      -0.767775       -20.8922
  18   2.0000      -0.692468       -18.8430
  19   2.0000      -0.659906       -17.9569
  20   2.0000      -0.632204       -17.2032
  21   2.0000      -0.595439       -16.2027
  22   2.0000      -0.583288       -15.8721
  23   2.0000      -0.577334       -15.7101
  24   2.0000      -0.558771       -15.2049
  25   2.0000      -0.554340       -15.0843
  26   2.0000      -0.530714       -14.4415
  27   2.0000      -0.517759       -14.0889
  28   2.0000      -0.485350       -13.2071
  29   2.0000      -0.479665       -13.0524
  30   2.0000      -0.469810       -12.7842
  31   2.0000      -0.432354       -11.7650
  32   2.0000      -0.340505        -9.2656
  33   2.0000      -0.269906        -7.3445
  34   0.0000       0.128794         3.5046
  35   0.0000       0.139911         3.8072
  36   0.0000       0.162307         4.4166
  37   0.0000       0.174545         4.7496
  38   0.0000       0.177485         4.8296

MULLIKEN ATOMIC CHARGES
-----------------------
   0 C :   -0.388493
   1 C :   -0.174859
   2 C :   -0.332129
   3 C :    0.206917
   4 C :   -0.230861
   5 C :   -0.226070
   6 C :    0.162008
   7 N :   -0.549079
   8 N :   -0.284849
   9 H :    0.120237
  10 H :    0.133950
  11 H :    0.123268
  12 H :    0.119626
  13 H :    0.092144
  14 H :    0.122460
  15 H :    0.128557
  16 H :    0.118410
  17 H :    0.119009
  18 H :    0.250754
  19 H :    0.251796
  20 H :    0.237204
Sum of atomic charges:   -0.0000000

LOEWDIN ATOMIC CHARGES
----------------------
   0 C :   -0.322671
   1 C :   -0.290975
   2 C :   -0.242383
   3 C :   -0.233003
   4 C :   -0.181476
   5 C :   -0.200869
   6 C :   -0.337529
   7 N :   -0.123049
   8 N :    0.213234
   9 H :    0.119458
  10 H :    0.121011
  11 H :    0.120846
  12 H :    0.137784
  13 H :    0.129560
  14 H :    0.142423
  15 H :    0.150906
  16 H :    0.137613
  17 H :    0.135040
  18 H :    0.164437
  19 H :    0.168891
  20 H :    0.190752

  Mayer bond orders larger than 0.1
B(  0-C ,  1-C ) :   0.9125 B(  0-C ,  9-H ) :   0.9396 B(  0-C , 10-H ) :   0.9413
B(  0-C , 11-H ) :   0.9386 B(  1-C ,  2-C ) :   0.9178 B(  1-C , 12-H ) :   0.9335
B(  1-C , 13-H ) :   0.9347 B(  2-C ,  3-C ) :   0.8931 B(  2-C , 14-H ) :   0.9358
B(  2-C , 15-H ) :   0.9379 B(  3-C ,  4-C ) :   1.4768 B(  3-C ,  8-N ) :   1.0712
B(  4-C ,  5-C ) :   1.2371 B(  4-C , 16-H ) :   0.9393 B(  5-C ,  6-C ) :   1.4880
B(  5-C , 17-H ) :   0.9396 B(  6-C ,  7-N ) :   1.0335 B(  6-C ,  8-N ) :   1.1381
B(  7-N , 18-H ) :   0.8758 B(  7-N , 19-H ) :   0.8896 B(  8-N , 20-H ) :   0.8688

MP2 TOTAL ENERGY:     -382.633144193 Eh
FINAL SINGLE POINT ENERGY      -382.633144193456

DIPOLE MOMENT
-------------
                                X             Y             Z
Electronic contribution:      1.80585      -9.35441       2.01733
Nuclear contribution   :     -1.28482       9.34069      -2.07148
                        -----------------------------------------
Total Dipole Moment    :      0.52104      -0.01372      -0.05415
                        -----------------------------------------
Magnitude (a.u.)       :      0.52402
Magnitude (Debye)      :      1.33195

                             ****ORCA TERMINATED NORMALLY****
TOTAL RUN TIME: 0 days 0 hours 16 minutes 35 seconds 715 msec
