                         Program Version 3.0.3 - RELEASE   -
|  1> ! RI-MP2 RIJK def2-TZVP def2-TZVP/C def2-TZVP/JK TIGHTSCF
|  2> % maxcore 2000
|  3> % mp2 density relaxed end
|  4> *xyz 0 1
|  5>  O       -0.1154988122     1.3668677963    -0.1489726141
|  6>  C       -0.0528928757    -0.0120721997    -0.0200079740
|  7>  C       -0.3704823457    -0.6343032315     1.3501049227
|  8>  C       -1.3537166538    -0.7593613872     0.2515214380
|  9>  C       -2.7427281103    -0.1725403930     0.0612974831
| 10>  C       -3.0172147201    -1.5042753020    -0.6746323830
| 11>  O       -1.6877744153    -1.9994153693    -0.3579782155
| 12>  C        0.9785252877    -0.6488165204    -0.8567854137
| 13>  O        1.6775165365     0.0143600644    -1.5951861004
| 14>  H        0.5635475936     1.5765188927    -0.8121040630
| 15>  H        0.1904620880    -1.5191985876     1.6356903992
| 16>  H       -0.5734001917     0.0744738099     2.1462183870
| 17>  H       -3.3121190971    -0.0270719492     0.9809078677
| 18>  H       -2.7758577724     0.7351431615    -0.5413917748
| 19>  H       -3.7915991750    -2.1461702494    -0.2442795352
| 20>  H       -3.1677414279    -1.4216232014    -1.7562221332
| 21>  H        1.0711343712    -1.7479301843    -0.7843384506
| 22> *
| 23>
| 24>                          ****END OF INPUT****

CARTESIAN COORDINATES (ANGSTROEM)
---------------------------------
  O     -0.115499    1.366868   -0.148973
  C     -0.052893   -0.012072   -0.020008
  C     -0.370482   -0.634303    1.350105
  C     -1.353717   -0.759361    0.251521
  C     -2.742728   -0.172540    0.061297
  C     -3.017215   -1.504275   -0.674632
  O     -1.687774   -1.999415   -0.357978
  C      0.978525   -0.648817   -0.856785
  O      1.677517    0.014360   -1.595186
  H      0.563548    1.576519   -0.812104
  H      0.190462   -1.519199    1.635690
  H     -0.573400    0.074474    2.146218
  H     -3.312119   -0.027072    0.980908
  H     -2.775858    0.735143   -0.541392
  H     -3.791599   -2.146170   -0.244280
  H     -3.167741   -1.421623   -1.756222
  H      1.071134   -1.747930   -0.784338

 Total Charge           Charge          ....    0
 Multiplicity           Mult            ....    1
 Number of Electrons    NEL             ....   68
 Basis Dimension        Dim             ....  327

ORBITAL ENERGIES
----------------

  NO   OCC          E(Eh)            E(eV)
   0   2.0000     -20.570958      -559.7642
   1   2.0000     -20.570673      -559.7565
   2   2.0000     -20.566255      -559.6362
   3   2.0000     -11.343068      -308.6606
   4   2.0000     -11.313120      -307.8456
   5   2.0000     -11.304118      -307.6007
   6   2.0000     -11.295707      -307.3718
   7   2.0000     -11.250625      -306.1451
   8   2.0000     -11.246342      -306.0285
   9   2.0000      -1.419399       -38.6238
  10   2.0000      -1.403427       -38.1892
  11   2.0000      -1.373603       -37.3776
  12   2.0000      -1.146626       -31.2013
  13   2.0000      -1.026722       -27.9385
  14   2.0000      -0.926859       -25.2211
  15   2.0000      -0.886525       -24.1236
  16   2.0000      -0.803111       -21.8538
  17   2.0000      -0.751176       -20.4405
  18   2.0000      -0.737739       -20.0749
  19   2.0000      -0.703748       -19.1500
  20   2.0000      -0.681858       -18.5543
  21   2.0000      -0.656687       -17.8694
  22   2.0000      -0.635958       -17.3053
  23   2.0000      -0.605094       -16.4654
  24   2.0000      -0.589223       -16.0336
  25   2.0000      -0.563118       -15.3232
  26   2.0000      -0.552980       -15.0473
  27   2.0000      -0.541618       -14.7382
  28   2.0000      -0.524866       -14.2823
  29   2.0000      -0.505314       -13.7503
  30   2.0000      -0.486722       -13.2444
  31   2.0000      -0.453825       -12.3492
  32   2.0000      -0.417381       -11.3575
  33   2.0000      -0.373534       -10.1644
  34   0.0000       0.116147         3.1605
  35   0.0000       0.141393         3.8475
  36   0.0000       0.162435         4.4201
  37   0.0000       0.167024         4.5450
  38   0.0000       0.175593         4.7781

MULLIKEN ATOMIC CHARGES
-----------------------
   0 O :   -0.468013
   1 C :    0.199856
   2 C :   -0.294528
   3 C :    0.169769
   4 C :   -0.302490
   5 C :   -0.010680
   6 O :   -0.325069
   7 C :    0.094489
   8 O :   -0.317883
   9 H :    0.340106
  10 H :    0.148021
  11 H :    0.150163
  12 H :    0.129706
  13 H :    0.154519
  14 H :    0.110826
  15 H :    0.107066
  16 H :    0.114141
Sum of atomic charges:   -0.0000000

LOEWDIN ATOMIC CHARGES
----------------------
   0 O :    0.038908
   1 C :   -0.336341
   2 C :   -0.150690
   3 C :   -0.278264
   4 C :   -0.191479
   5 C :   -0.243438
   6 O :    0.167093
   7 C :   -0.259944
   8 O :    0.111677
   9 H :    0.193459
  10 H :    0.148481
  11 H :    0.150322
  12 H :    0.138044
  13 H :    0.142725
  14 H :    0.119316
  15 H :    0.119906
  16 H :    0.130223

  Mayer bond orders larger than 0.1
B(  0-O ,  1-C ) :   1.1248 B(  0-O ,  9-H ) :   0.7942 B(  1-C ,  2-C ) :   0.8320
B(  1-C ,  3-C ) :   0.7479 B(  1-C ,  7-C ) :   0.9210 B(  2-C ,  3-C ) :   0.8619
B(  2-C , 10-H ) :   0.8952 B(  2-C , 11-H ) :   0.9010 B(  3-C ,  4-C ) :   0.9093
B(  3-C ,  6-O ) :   0.9845 B(  4-C ,  5-C ) :   0.9875 B(  4-C , 12-H ) :   0.9199
B(  4-C , 13-H ) :   0.9193 B(  5-C ,  6-O ) :   0.9136 B(  5-C , 14-H ) :   0.9173
B(  5-C , 15-H ) :   0.9160 B(  7-C ,  8-O ) :   1.8635 B(  7-C , 16-H ) :   0.9294

MP2 TOTAL ENERGY:     -458.191749976 Eh
FINAL SINGLE POINT ENERGY      -458.191749976140

DIPOLE MOMENT
-------------
                                X             Y             Z
Electronic contribution:      4.72586       0.48938      -1.91722
Nuclear contribution   :     -5.60732      -0.71883       2.42052
                        -----------------------------------------
Total Dipole Moment    :     -0.88146      -0.22945       0.50330
                        -----------------------------------------
Magnitude (a.u.)       :      1.04064
Magnitude (Debye)      :      2.64510

                             ****ORCA TERMINATED NORMALLY****
TOTAL RUN TIME: 0 days 0 hours 14 minutes 57 seconds 933 msec
