                         Program Version 3.0.3 - RELEASE   -
|  1> ! RI-MP2 RIJK def2-TZVP def2-TZVP/C def2-TZVP/JK TIGHTSCF
|  2> % maxcore 2000
|  3> % mp2 density relaxed end
|  4> *xyz 0 1
|  5>  O       -0.0131589574     1.4538525884    -0.0639773131
|  6>  C        0.0450156637     0.0400759127    -0.0451861110
|  7>  C        0.7396129154    -0.5179617809     1.1907116429
|  8>  C       -0.0409032480    -1.3332451075     1.8982815230
|  9>  C       -1.3866666402    -1.4550501011     1.2588837981
| 10>  N       -2.1110775545    -0.1397966550     1.1741371925
| 11>  C       -1.3496542560    -0.6082521464     0.0213809909
| 12>  C       -2.1947950839    -2.6901126619     1.3060579363
| 13>  O       -1.8614945271    -3.7048585296     1.8652232057
| 14>  H       -0.5845295333     1.7006631018     0.6758153150
| 15>  H        0.5626803994    -0.2460314170    -0.9673926920
| 16>  H        1.7413418721    -0.2022417982     1.4574030655
| 17>  H        0.2077276287    -1.8428879031     2.8197933999
| 18>  H       -3.1063182829    -0.3055664612     1.0179934811
| 19>  H       -1.8731531722    -0.8895521721    -0.8862018442
| 20>  H       -3.1720837338    -2.6101925989     0.7711569394
| 21> *
| 22>
| 23>                          ****END OF INPUT****

CARTESIAN COORDINATES (ANGSTROEM)
---------------------------------
  O     -0.013159    1.453853   -0.063977
  C      0.045016    0.040076   -0.045186
  C      0.739613   -0.517962    1.190712
  C     -0.040903   -1.333245    1.898282
  C     -1.386667   -1.455050    1.258884
  N     -2.111078   -0.139797    1.174137
  C     -1.349654   -0.608252    0.021381
  C     -2.194795   -2.690113    1.306058
  O     -1.861495   -3.704859    1.865223
  H     -0.584530    1.700663    0.675815
  H      0.562680   -0.246031   -0.967393
  H      1.741342   -0.202242    1.457403
  H      0.207728   -1.842888    2.819793
  H     -3.106318   -0.305566    1.017993
  H     -1.873153   -0.889552   -0.886202
  H     -3.172084   -2.610193    0.771157

 Total Charge           Charge          ....    0
 Multiplicity           Mult            ....    1
 Number of Electrons    NEL             ....   66
 Basis Dimension        Dim             ....  321

ORBITAL ENERGIES
----------------

  NO   OCC          E(Eh)            E(eV)
   0   2.0000     -20.571654      -559.7832
   1   2.0000     -20.562581      -559.5363
   2   2.0000     -15.600497      -424.5111
   3   2.0000     -11.351676      -308.8948
   4   2.0000     -11.303400      -307.5811
   5   2.0000     -11.295912      -307.3774
   6   2.0000     -11.292196      -307.2763
   7   2.0000     -11.248955      -306.0996
   8   2.0000     -11.242244      -305.9170
   9   2.0000      -1.411194       -38.4005
  10   2.0000      -1.374879       -37.4123
  11   2.0000      -1.304278       -35.4912
  12   2.0000      -1.099455       -29.9177
  13   2.0000      -0.985755       -26.8238
  14   2.0000      -0.946573       -25.7576
  15   2.0000      -0.869891       -23.6709
  16   2.0000      -0.801085       -21.7986
  17   2.0000      -0.768095       -20.9009
  18   2.0000      -0.728779       -19.8311
  19   2.0000      -0.697698       -18.9853
  20   2.0000      -0.667832       -18.1726
  21   2.0000      -0.645409       -17.5625
  22   2.0000      -0.618910       -16.8414
  23   2.0000      -0.600661       -16.3448
  24   2.0000      -0.574226       -15.6255
  25   2.0000      -0.559170       -15.2158
  26   2.0000      -0.535812       -14.5802
  27   2.0000      -0.519820       -14.1450
  28   2.0000      -0.501875       -13.6567
  29   2.0000      -0.461503       -12.5581
  30   2.0000      -0.441733       -12.0202
  31   2.0000      -0.416811       -11.3420
  32   2.0000      -0.366822        -9.9817
  33   0.0000       0.102905         2.8002
  34   0.0000       0.122015         3.3202
  35   0.0000       0.131750         3.5851
  36   0.0000       0.162401         4.4191
  37   0.0000       0.170900         4.6504

MULLIKEN ATOMIC CHARGES
-----------------------
   0 O :   -0.462744
   1 C :    0.168086
   2 C :   -0.194364
   3 C :   -0.205966
   4 C :    0.265588
   5 N :   -0.398041
   6 C :   -0.154653
   7 C :    0.071251
   8 O :   -0.257639
   9 H :    0.330090
  10 H :    0.110369
  11 H :    0.138744
  12 H :    0.149985
  13 H :    0.224002
  14 H :    0.148116
  15 H :    0.067175
Sum of atomic charges:    0.0000000

LOEWDIN ATOMIC CHARGES
----------------------
   0 O :   -0.009890
   1 C :   -0.300567
   2 C :   -0.117198
   3 C :   -0.095231
   4 C :   -0.249040
   5 N :    0.046728
   6 C :   -0.193568
   7 C :   -0.278161
   8 O :    0.143663
   9 H :    0.181555
  10 H :    0.149646
  11 H :    0.142509
  12 H :    0.148879
  13 H :    0.173241
  14 H :    0.141152
  15 H :    0.116281

  Mayer bond orders larger than 0.1
B(  0-O ,  1-C ) :   0.9488 B(  0-O ,  9-H ) :   0.8238 B(  1-C ,  2-C ) :   0.9484
B(  1-C ,  6-C ) :   0.9045 B(  1-C , 10-H ) :   0.9327 B(  2-C ,  3-C ) :   1.7662
B(  2-C , 11-H ) :   0.9319 B(  3-C ,  4-C ) :   0.8942 B(  3-C , 12-H ) :   0.9212
B(  4-C ,  5-N ) :   0.7984 B(  4-C ,  6-C ) :   0.8443 B(  4-C ,  7-C ) :   0.8813
B(  4-C ,  8-O ) :  -0.1102 B(  5-N ,  6-C ) :   1.0123 B(  5-N , 13-H ) :   0.8635
B(  6-C , 14-H ) :   0.9084 B(  7-C ,  8-O ) :   2.0187 B(  7-C , 15-H ) :   0.9459

MP2 TOTAL ENERGY:     -437.147221488 Eh
FINAL SINGLE POINT ENERGY      -437.147221488319

DIPOLE MOMENT
-------------
                                X             Y             Z
Electronic contribution:     -0.74636      -2.05423       1.22011
Nuclear contribution   :      0.24879       2.23963      -1.59708
                        -----------------------------------------
Total Dipole Moment    :     -0.49757       0.18540      -0.37697
                        -----------------------------------------
Magnitude (a.u.)       :      0.65120
Magnitude (Debye)      :      1.65521

                             ****ORCA TERMINATED NORMALLY****
TOTAL RUN TIME: 0 days 0 hours 14 minutes 58 seconds 693 msec
