                         Program Version 3.0.3 - RELEASE   -
|  1> ! RI-MP2 RIJK def2-TZVP def2-TZVP/C def2-TZVP/JK TIGHTSCF
|  2> % maxcore 2000
|  3> % mp2 density relaxed end
|  4> *xyz 0 1
|  5>  O       -0.1126465671     1.4295923437    -0.0886554528
|  6>  C        0.0141684314     0.0160956539    -0.0378157054
|  7>  C       -1.3905908299    -0.5719216660    -0.0026993213
|  8>  C       -1.3949804406    -2.0917803023     0.0913405581
|  9>  C       -2.7999980686    -2.7270867574     0.0910365864
| 10>  O       -2.6271353724    -3.9192258018    -0.6585472121
| 11>  C       -1.6912124282    -3.5757386524    -1.6460208257
| 12>  O       -0.7645258943    -2.6865908876    -1.0537695747
| 13>  H        0.7671873609     1.8057571905    -0.1821329471
| 14>  H        0.5489728346    -0.3757672056    -0.9143796365
| 15>  H        0.5720442546    -0.3023541074     0.8588094049
| 16>  H       -1.9263322801    -0.1560096601     0.8603484877
| 17>  H       -1.9318345537    -0.2572743785    -0.9024487117
| 18>  H       -0.8340812870    -2.4129537175     0.9806440872
| 19>  H       -3.1627426029    -2.9921231471     1.0858642170
| 20>  H       -3.5303084570    -2.0590611225    -0.3928327254
| 21>  H       -1.1762502360    -4.4829907096    -1.9775982180
| 22>  H       -2.1871730038    -3.0872753822    -2.5050073705
| 23> *
| 24>
| 25>                          ****END OF INPUT****

CARTESIAN COORDINATES (ANGSTROEM)
---------------------------------
  O     -0.112647    1.429592   -0.088655
  C      0.014168    0.016096   -0.037816
  C     -1.390591   -0.571922   -0.002699
  C     -1.394980   -2.091780    0.091341
  C     -2.799998   -2.727087    0.091037
  O     -2.627135   -3.919226   -0.658547
  C     -1.691212   -3.575739   -1.646021
  O     -0.764526   -2.686591   -1.053770
  H      0.767187    1.805757   -0.182133
  H      0.548973   -0.375767   -0.914380
  H      0.572044   -0.302354    0.858809
  H     -1.926332   -0.156010    0.860348
  H     -1.931835   -0.257274   -0.902449
  H     -0.834081   -2.412954    0.980644
  H     -3.162743   -2.992123    1.085864
  H     -3.530308   -2.059061   -0.392833
  H     -1.176250   -4.482991   -1.977598
  H     -2.187173   -3.087275   -2.505007

 Total Charge           Charge          ....    0
 Multiplicity           Mult            ....    1
 Number of Electrons    NEL             ....   64
 Basis Dimension        Dim             ....  308

ORBITAL ENERGIES
----------------

  NO   OCC          E(Eh)            E(eV)
   0   2.0000     -20.569009      -559.7112
   1   2.0000     -20.561108      -559.4962
   2   2.0000     -20.556156      -559.3614
   3   2.0000     -11.328953      -308.2765
   4   2.0000     -11.288857      -307.1854
   5   2.0000     -11.285299      -307.0886
   6   2.0000     -11.275556      -306.8235
   7   2.0000     -11.226131      -305.4785
   8   2.0000      -1.440586       -39.2003
   9   2.0000      -1.360152       -37.0116
  10   2.0000      -1.334423       -36.3115
  11   2.0000      -1.074155       -29.2292
  12   2.0000      -0.987130       -26.8612
  13   2.0000      -0.878536       -23.9062
  14   2.0000      -0.859353       -23.3842
  15   2.0000      -0.800981       -21.7958
  16   2.0000      -0.720987       -19.6190
  17   2.0000      -0.712052       -19.3759
  18   2.0000      -0.680254       -18.5107
  19   2.0000      -0.655216       -17.8293
  20   2.0000      -0.634935       -17.2775
  21   2.0000      -0.594735       -16.1836
  22   2.0000      -0.582308       -15.8454
  23   2.0000      -0.567900       -15.4533
  24   2.0000      -0.566868       -15.4253
  25   2.0000      -0.517410       -14.0795
  26   2.0000      -0.514060       -13.9883
  27   2.0000      -0.509198       -13.8560
  28   2.0000      -0.469420       -12.7736
  29   2.0000      -0.445472       -12.1219
  30   2.0000      -0.443276       -12.0622
  31   2.0000      -0.422014       -11.4836
  32   0.0000       0.137617         3.7448
  33   0.0000       0.145227         3.9518
  34   0.0000       0.161767         4.4019
  35   0.0000       0.180247         4.9048
  36   0.0000       0.187759         5.1092

MULLIKEN ATOMIC CHARGES
-----------------------
   0 O :   -0.467228
   1 C :   -0.073798
   2 C :   -0.186589
   3 C :    0.047909
   4 C :   -0.054304
   5 O :   -0.315456
   6 C :    0.119882
   7 O :   -0.334564
   8 H :    0.316710
   9 H :    0.116669
  10 H :    0.087137
  11 H :    0.115843
  12 H :    0.109412
  13 H :    0.089820
  14 H :    0.127598
  15 H :    0.103395
  16 H :    0.119253
  17 H :    0.078310
Sum of atomic charges:    0.0000000

LOEWDIN ATOMIC CHARGES
----------------------
   0 O :   -0.053147
   1 C :   -0.349201
   2 C :   -0.255057
   3 C :   -0.306317
   4 C :   -0.287749
   5 O :    0.156048
   6 C :   -0.377153
   7 O :    0.156105
   8 H :    0.172352
   9 H :    0.120109
  10 H :    0.114628
  11 H :    0.146976
  12 H :    0.143834
  13 H :    0.140206
  14 H :    0.131027
  15 H :    0.124593
  16 H :    0.118286
  17 H :    0.104459

  Mayer bond orders larger than 0.1
B(  0-O ,  1-C ) :   1.0123 B(  0-O ,  8-H ) :   0.8491 B(  1-C ,  2-C ) :   0.9378
B(  1-C ,  9-H ) :   0.9336 B(  1-C , 10-H ) :   0.9292 B(  2-C ,  3-C ) :   0.9237
B(  2-C , 11-H ) :   0.9239 B(  2-C , 12-H ) :   0.9043 B(  3-C ,  4-C ) :   0.9253
B(  3-C ,  7-O ) :   0.8878 B(  3-C , 13-H ) :   0.9251 B(  4-C ,  5-O ) :   0.9276
B(  4-C , 14-H ) :   0.9195 B(  4-C , 15-H ) :   0.9368 B(  5-O ,  6-C ) :   0.9672
B(  6-C ,  7-O ) :   0.9680 B(  6-C , 16-H ) :   0.9256 B(  6-C , 17-H ) :   0.9224

MP2 TOTAL ENERGY:     -421.409704738 Eh
FINAL SINGLE POINT ENERGY      -421.409704737652

DIPOLE MOMENT
-------------
                                X             Y             Z
Electronic contribution:     -0.07230      -2.66832      -0.92414
Nuclear contribution   :      0.35123       2.82659       1.06474
                        -----------------------------------------
Total Dipole Moment    :      0.27893       0.15826       0.14060
                        -----------------------------------------
Magnitude (a.u.)       :      0.35017
Magnitude (Debye)      :      0.89005

                             ****ORCA TERMINATED NORMALLY****
TOTAL RUN TIME: 0 days 0 hours 10 minutes 20 seconds 299 msec
