                         Program Version 3.0.3 - RELEASE   -
|  1> ! RI-MP2 RIJK def2-TZVP def2-TZVP/C def2-TZVP/JK TIGHTSCF
|  2> % maxcore 2000
|  3> % mp2 density relaxed end
|  4> *xyz 0 1
|  5>  N       -0.0669731473     1.2368706408     0.0076225769
|  6>  C       -0.0276911291    -0.0153324276     0.0007296960
|  7>  C       -1.2584197204    -0.9527280982     0.0026323794
|  8>  C       -0.5527414530    -2.2615839084    -0.0083006127
|  9>  C        0.7810025954    -2.0805079046    -0.0148325825
| 10>  O        1.1661239757    -0.7618777600    -0.0099646325
| 11>  C        1.3293403676    -3.3789844481    -0.0248640284
| 12>  N        0.3563945760    -4.2737785514    -0.0240499691
| 13>  O       -0.8557503123    -3.5588684202    -0.0135292886
| 14>  H        0.8700243524     1.6419281495     0.0045205329
| 15>  H       -1.8718343053    -0.7690439034     0.8901942452
| 16>  H       -1.8817396487    -0.7596317851    -0.8759854873
| 17>  H        2.3532848389    -3.7199249332    -0.0324373593
| 18> *
| 19>
| 20>                          ****END OF INPUT****

CARTESIAN COORDINATES (ANGSTROEM)
---------------------------------
  N     -0.066973    1.236871    0.007623
  C     -0.027691   -0.015332    0.000730
  C     -1.258420   -0.952728    0.002632
  C     -0.552741   -2.261584   -0.008301
  C      0.781003   -2.080508   -0.014833
  O      1.166124   -0.761878   -0.009965
  C      1.329340   -3.378984   -0.024864
  N      0.356395   -4.273779   -0.024050
  O     -0.855750   -3.558868   -0.013529
  H      0.870024    1.641928    0.004521
  H     -1.871834   -0.769044    0.890194
  H     -1.881740   -0.759632   -0.875985
  H      2.353285   -3.719925   -0.032437

 Total Charge           Charge          ....    0
 Multiplicity           Mult            ....    1
 Number of Electrons    NEL             ....   64
 Basis Dimension        Dim             ....  303

ORBITAL ENERGIES
----------------

  NO   OCC          E(Eh)            E(eV)
   0   2.0000     -20.665070      -562.3252
   1   2.0000     -20.634033      -561.4806
   2   2.0000     -15.643070      -425.6696
   3   2.0000     -15.563058      -423.4923
   4   2.0000     -11.372634      -309.4651
   5   2.0000     -11.321029      -308.0609
   6   2.0000     -11.307094      -307.6817
   7   2.0000     -11.305873      -307.6484
   8   2.0000     -11.290171      -307.2212
   9   2.0000      -1.510408       -41.1003
  10   2.0000      -1.464935       -39.8629
  11   2.0000      -1.230833       -33.4927
  12   2.0000      -1.182959       -32.1900
  13   2.0000      -1.119834       -30.4722
  14   2.0000      -1.014631       -27.6095
  15   2.0000      -0.855322       -23.2745
  16   2.0000      -0.841277       -22.8923
  17   2.0000      -0.800405       -21.7801
  18   2.0000      -0.741917       -20.1886
  19   2.0000      -0.718760       -19.5585
  20   2.0000      -0.705701       -19.2031
  21   2.0000      -0.648001       -17.6330
  22   2.0000      -0.644269       -17.5315
  23   2.0000      -0.605422       -16.4744
  24   2.0000      -0.604904       -16.4603
  25   2.0000      -0.579627       -15.7725
  26   2.0000      -0.545571       -14.8457
  27   2.0000      -0.498674       -13.5696
  28   2.0000      -0.465773       -12.6743
  29   2.0000      -0.462580       -12.5874
  30   2.0000      -0.435952       -11.8629
  31   2.0000      -0.349061        -9.4984
  32   0.0000       0.094840         2.5807
  33   0.0000       0.127311         3.4643
  34   0.0000       0.153817         4.1856
  35   0.0000       0.163566         4.4509
  36   0.0000       0.170145         4.6299

MULLIKEN ATOMIC CHARGES
-----------------------
   0 N :   -0.336123
   1 C :    0.105289
   2 C :   -0.108311
   3 C :    0.043081
   4 C :    0.175518
   5 O :   -0.258529
   6 C :   -0.132607
   7 N :   -0.103515
   8 O :   -0.111245
   9 H :    0.239385
  10 H :    0.161478
  11 H :    0.161479
  12 H :    0.164100
Sum of atomic charges:    0.0000000

LOEWDIN ATOMIC CHARGES
----------------------
   0 N :   -0.027905
   1 C :   -0.325624
   2 C :   -0.163574
   3 C :   -0.276126
   4 C :   -0.257095
   5 O :    0.281977
   6 C :   -0.234304
   7 N :    0.047538
   8 O :    0.300349
   9 H :    0.177824
  10 H :    0.164639
  11 H :    0.164639
  12 H :    0.147662

  Mayer bond orders larger than 0.1
B(  0-N ,  1-C ) :   2.1084 B(  0-N ,  9-H ) :   0.8480 B(  1-C ,  2-C ) :   0.9023
B(  1-C ,  5-O ) :   0.9797 B(  2-C ,  3-C ) :   1.0063 B(  2-C , 10-H ) :   0.8909
B(  2-C , 11-H ) :   0.8909 B(  3-C ,  4-C ) :   1.4055 B(  3-C ,  7-N ) :   0.1145
B(  3-C ,  8-O ) :   1.1330 B(  4-C ,  5-O ) :   0.9864 B(  4-C ,  6-C ) :   1.2145
B(  6-C ,  7-N ) :   1.5508 B(  6-C , 12-H ) :   0.9251 B(  7-N ,  8-O ) :   0.8834

MP2 TOTAL ENERGY:     -451.979899780 Eh
FINAL SINGLE POINT ENERGY      -451.979899779584

DIPOLE MOMENT
-------------
                                X             Y             Z
Electronic contribution:      1.13252      -2.85266      -0.02155
Nuclear contribution   :     -0.85033       3.25016       0.02203
                        -----------------------------------------
Total Dipole Moment    :      0.28219       0.39750       0.00049
                        -----------------------------------------
Magnitude (a.u.)       :      0.48748
Magnitude (Debye)      :      1.23907

                             ****ORCA TERMINATED NORMALLY****
TOTAL RUN TIME: 0 days 0 hours 15 minutes 16 seconds 33 msec
