                         Program Version 3.0.3 - RELEASE   -
|  1> ! RI-MP2 RIJK def2-TZVP def2-TZVP/C def2-TZVP/JK TIGHTSCF
|  2> % maxcore 2000
|  3> % mp2 density relaxed end
|  4> *xyz 0 1
|  5>  C       -0.2673920715     1.2575022618    -0.0333643102
|  6>  O        0.1843767978    -0.0680181386     0.1287987626
|  7>  C        0.7230902155    -0.6179595317    -1.0463566431
|  8>  C        1.2569741328    -2.0288202004    -0.9512909968
|  9>  C        0.0856173741    -2.9872424203    -1.2215371416
| 10>  C       -1.1643786695    -2.1353385828    -1.4283068145
| 11>  C       -0.2301876489    -1.1411589443    -2.1662049720
| 12>  C        0.8082222718    -2.3262417560    -2.3712612739
| 13>  C        1.5401516940    -2.8439507084    -3.5646461996
| 14>  H        0.5438621718     1.9251255535    -0.3652890758
| 15>  H       -1.0893056022     1.3297772555    -0.7616021596
| 16>  H       -0.6299297588     1.6014379907     0.9383757279
| 17>  H        1.4785825487     0.0596601077    -1.4746023111
| 18>  H        2.1595229286    -2.3658569082    -0.4573819342
| 19>  H        0.1512676738    -4.0225894740    -0.9101042853
| 20>  H       -1.8647343933    -2.6148219634    -2.1177058244
| 21>  H       -1.6940880800    -1.7588287260    -0.5479132823
| 22>  H       -0.6058940714    -0.4756638718    -2.9412612261
| 23>  H        2.1808517679    -2.0754771664    -4.0130858966
| 24>  H        2.1819600005    -3.6874013489    -3.2870356647
| 25>  H        0.8508844983    -3.1948391479    -4.3416859589
| 26> *
| 27>
| 28>                          ****END OF INPUT****

CARTESIAN COORDINATES (ANGSTROEM)
---------------------------------
  C     -0.267392    1.257502   -0.033364
  O      0.184377   -0.068018    0.128799
  C      0.723090   -0.617960   -1.046357
  C      1.256974   -2.028820   -0.951291
  C      0.085617   -2.987242   -1.221537
  C     -1.164379   -2.135339   -1.428307
  C     -0.230188   -1.141159   -2.166205
  C      0.808222   -2.326242   -2.371261
  C      1.540152   -2.843951   -3.564646
  H      0.543862    1.925126   -0.365289
  H     -1.089306    1.329777   -0.761602
  H     -0.629930    1.601438    0.938376
  H      1.478583    0.059660   -1.474602
  H      2.159523   -2.365857   -0.457382
  H      0.151268   -4.022589   -0.910104
  H     -1.864734   -2.614822   -2.117706
  H     -1.694088   -1.758829   -0.547913
  H     -0.605894   -0.475664   -2.941261
  H      2.180852   -2.075477   -4.013086
  H      2.181960   -3.687401   -3.287036
  H      0.850884   -3.194839   -4.341686

 Total Charge           Charge          ....    0
 Multiplicity           Mult            ....    1
 Number of Electrons    NEL             ....   68
 Basis Dimension        Dim             ....  351

ORBITAL ENERGIES
----------------

  NO   OCC          E(Eh)            E(eV)
   0   2.0000     -20.547377      -559.1225
   1   2.0000     -11.275950      -306.8342
   2   2.0000     -11.266591      -306.5795
   3   2.0000     -11.235888      -305.7441
   4   2.0000     -11.230159      -305.5882
   5   2.0000     -11.226788      -305.4964
   6   2.0000     -11.223277      -305.4009
   7   2.0000     -11.222811      -305.3882
   8   2.0000     -11.216930      -305.2282
   9   2.0000      -1.371697       -37.3258
  10   2.0000      -1.224234       -33.3131
  11   2.0000      -0.993215       -27.0267
  12   2.0000      -0.976022       -26.5589
  13   2.0000      -0.944787       -25.7090
  14   2.0000      -0.909307       -24.7435
  15   2.0000      -0.810798       -22.0629
  16   2.0000      -0.744344       -20.2546
  17   2.0000      -0.701848       -19.0983
  18   2.0000      -0.690960       -18.8020
  19   2.0000      -0.649915       -17.6851
  20   2.0000      -0.633597       -17.2411
  21   2.0000      -0.617272       -16.7968
  22   2.0000      -0.587031       -15.9739
  23   2.0000      -0.573818       -15.6144
  24   2.0000      -0.560022       -15.2390
  25   2.0000      -0.539889       -14.6911
  26   2.0000      -0.525508       -14.2998
  27   2.0000      -0.506082       -13.7712
  28   2.0000      -0.468340       -12.7442
  29   2.0000      -0.458756       -12.4834
  30   2.0000      -0.440034       -11.9739
  31   2.0000      -0.405439       -11.0326
  32   2.0000      -0.382304       -10.4030
  33   2.0000      -0.357310        -9.7229
  34   0.0000       0.135854         3.6968
  35   0.0000       0.151264         4.1161
  36   0.0000       0.171270         4.6605
  37   0.0000       0.181325         4.9341
  38   0.0000       0.189872         5.1667

MULLIKEN ATOMIC CHARGES
-----------------------
   0 C :   -0.228034
   1 O :   -0.310042
   2 C :    0.071870
   3 C :   -0.142134
   4 C :   -0.177617
   5 C :   -0.197473
   6 C :   -0.103199
   7 C :    0.019601
   8 C :   -0.407051
   9 H :    0.110640
  10 H :    0.113749
  11 H :    0.141424
  12 H :    0.079190
  13 H :    0.134086
  14 H :    0.127565
  15 H :    0.114766
  16 H :    0.113535
  17 H :    0.133201
  18 H :    0.134617
  19 H :    0.135091
  20 H :    0.136216
Sum of atomic charges:    0.0000000

LOEWDIN ATOMIC CHARGES
----------------------
   0 C :   -0.358258
   1 O :    0.161244
   2 C :   -0.284371
   3 C :   -0.127235
   4 C :   -0.147113
   5 C :   -0.197396
   6 C :   -0.131568
   7 C :   -0.155505
   8 C :   -0.280260
   9 H :    0.101571
  10 H :    0.102168
  11 H :    0.113311
  12 H :    0.140674
  13 H :    0.139661
  14 H :    0.137758
  15 H :    0.137563
  16 H :    0.127607
  17 H :    0.129565
  18 H :    0.128746
  19 H :    0.132931
  20 H :    0.128905

  Mayer bond orders larger than 0.1
B(  0-C ,  1-O ) :   0.9110 B(  0-C ,  9-H ) :   0.9342 B(  0-C , 10-H ) :   0.9336
B(  0-C , 11-H ) :   0.9424 B(  1-O ,  2-C ) :   0.9920 B(  2-C ,  3-C ) :   0.9497
B(  2-C ,  6-C ) :   0.9715 B(  2-C , 12-H ) :   0.9427 B(  3-C ,  4-C ) :   0.8363
B(  3-C ,  7-C ) :   0.7983 B(  3-C , 13-H ) :   0.9223 B(  4-C ,  5-C ) :   0.9725
B(  4-C ,  7-C ) :   0.8471 B(  4-C , 14-H ) :   0.9319 B(  5-C ,  6-C ) :   0.9328
B(  5-C , 15-H ) :   0.9326 B(  5-C , 16-H ) :   0.9027 B(  6-C ,  7-C ) :   0.9170
B(  6-C , 17-H ) :   0.9110 B(  7-C ,  8-C ) :   0.8031 B(  8-C , 18-H ) :   0.9437
B(  8-C , 19-H ) :   0.9465 B(  8-C , 20-H ) :   0.9474

MP2 TOTAL ENERGY:     -386.357609015 Eh
FINAL SINGLE POINT ENERGY      -386.357609015272

DIPOLE MOMENT
-------------
                                X             Y             Z
Electronic contribution:      0.23295      -0.99481       2.87511
Nuclear contribution   :     -0.16436       1.14242      -3.41760
                        -----------------------------------------
Total Dipole Moment    :      0.06859       0.14760      -0.54249
                        -----------------------------------------
Magnitude (a.u.)       :      0.56638
Magnitude (Debye)      :      1.43963

                             ****ORCA TERMINATED NORMALLY****
TOTAL RUN TIME: 0 days 0 hours 19 minutes 17 seconds 326 msec
