                         Program Version 3.0.3 - RELEASE   -
|  1> ! RI-MP2 RIJK def2-TZVP def2-TZVP/C def2-TZVP/JK TIGHTSCF
|  2> % maxcore 2000
|  3> % mp2 density relaxed end
|  4> *xyz 0 1
|  5>  C       -0.0055904616     1.4749914163     0.2387848828
|  6>  C       -0.1931610255    -0.0122667383     0.4779117179
|  7>  O        1.0699138434    -0.5672718480     0.8340848060
|  8>  C        1.0256559659    -1.9240012490     1.0883814507
|  9>  C        2.0772407147    -2.4866559168     1.9855934733
| 10>  C        3.1435703620    -1.6011956193     2.5873007362
| 11>  C        0.6235510852    -2.4242969125     2.4847796581
| 12>  C        0.2409443273    -1.4980247239     3.5056638033
| 13>  C       -0.0958775177    -0.7357366000     4.3746391639
| 14>  H        0.7220830665     1.6494358815    -0.5589350917
| 15>  H       -0.9552293376     1.9353584909    -0.0497598979
| 16>  H        0.3558513875     1.9641457262     1.1475581784
| 17>  H       -0.9173415188    -0.1930171040     1.2834277742
| 18>  H       -0.5706514576    -0.5093742340    -0.4305311965
| 19>  H        0.6759869140    -2.5312364940     0.2507464668
| 20>  H        2.4078583478    -3.4906946193     1.7335371217
| 21>  H        2.7569779994    -0.6013054628     2.7868472543
| 22>  H        3.5120754633    -2.0232772391     3.5275196505
| 23>  H        3.9914637151    -1.5064645771     1.9010499554
| 24>  H        0.0906691043    -3.3709875199     2.5092323823
| 25>  H       -0.3899655174    -0.0624066770     5.1407063804
| 26> *
| 27>
| 28>                          ****END OF INPUT****

CARTESIAN COORDINATES (ANGSTROEM)
---------------------------------
  C     -0.005590    1.474991    0.238785
  C     -0.193161   -0.012267    0.477912
  O      1.069914   -0.567272    0.834085
  C      1.025656   -1.924001    1.088381
  C      2.077241   -2.486656    1.985593
  C      3.143570   -1.601196    2.587301
  C      0.623551   -2.424297    2.484780
  C      0.240944   -1.498025    3.505664
  C     -0.095878   -0.735737    4.374639
  H      0.722083    1.649436   -0.558935
  H     -0.955229    1.935358   -0.049760
  H      0.355851    1.964146    1.147558
  H     -0.917342   -0.193017    1.283428
  H     -0.570651   -0.509374   -0.430531
  H      0.675987   -2.531236    0.250746
  H      2.407858   -3.490695    1.733537
  H      2.756978   -0.601305    2.786847
  H      3.512075   -2.023277    3.527520
  H      3.991464   -1.506465    1.901050
  H      0.090669   -3.370988    2.509232
  H     -0.389966   -0.062407    5.140706

 Total Charge           Charge          ....    0
 Multiplicity           Mult            ....    1
 Number of Electrons    NEL             ....   68
 Basis Dimension        Dim             ....  351

ORBITAL ENERGIES
----------------

  NO   OCC          E(Eh)            E(eV)
   0   2.0000     -20.561005      -559.4934
   1   2.0000     -11.290997      -307.2437
   2   2.0000     -11.273714      -306.7733
   3   2.0000     -11.251137      -306.1590
   4   2.0000     -11.242639      -305.9278
   5   2.0000     -11.231721      -305.6307
   6   2.0000     -11.215345      -305.1851
   7   2.0000     -11.213333      -305.1303
   8   2.0000     -11.212535      -305.1086
   9   2.0000      -1.388391       -37.7800
  10   2.0000      -1.154091       -31.4044
  11   2.0000      -1.027075       -27.9481
  12   2.0000      -1.010020       -27.4840
  13   2.0000      -0.961992       -26.1771
  14   2.0000      -0.867438       -23.6042
  15   2.0000      -0.832973       -22.6664
  16   2.0000      -0.782450       -21.2916
  17   2.0000      -0.712164       -19.3790
  18   2.0000      -0.705115       -19.1872
  19   2.0000      -0.667854       -18.1732
  20   2.0000      -0.642324       -17.4785
  21   2.0000      -0.611883       -16.6502
  22   2.0000      -0.592914       -16.1340
  23   2.0000      -0.565103       -15.3772
  24   2.0000      -0.546417       -14.8688
  25   2.0000      -0.534431       -14.5426
  26   2.0000      -0.523272       -14.2389
  27   2.0000      -0.512043       -13.9334
  28   2.0000      -0.485390       -13.2081
  29   2.0000      -0.469479       -12.7752
  30   2.0000      -0.439424       -11.9573
  31   2.0000      -0.426809       -11.6141
  32   2.0000      -0.373453       -10.1622
  33   2.0000      -0.346712        -9.4345
  34   0.0000       0.138894         3.7795
  35   0.0000       0.144822         3.9408
  36   0.0000       0.162941         4.4339
  37   0.0000       0.171270         4.6605
  38   0.0000       0.176291         4.7971

MULLIKEN ATOMIC CHARGES
-----------------------
   0 C :   -0.369164
   1 C :   -0.053228
   2 O :   -0.297801
   3 C :    0.044318
   4 C :   -0.036817
   5 C :   -0.408097
   6 C :   -0.310717
   7 C :    0.005283
   8 C :   -0.148473
   9 H :    0.128725
  10 H :    0.122593
  11 H :    0.134306
  12 H :    0.117898
  13 H :    0.093504
  14 H :    0.108514
  15 H :    0.123710
  16 H :    0.156584
  17 H :    0.133421
  18 H :    0.133535
  19 H :    0.136941
  20 H :    0.184965
Sum of atomic charges:    0.0000000

LOEWDIN ATOMIC CHARGES
----------------------
   0 C :   -0.315985
   1 C :   -0.331661
   2 O :    0.206172
   3 C :   -0.275657
   4 C :   -0.195003
   5 C :   -0.283144
   6 C :   -0.182290
   7 C :   -0.098705
   8 C :   -0.105432
   9 H :    0.123796
  10 H :    0.124943
  11 H :    0.125354
  12 H :    0.125317
  13 H :    0.117226
  14 H :    0.134955
  15 H :    0.150484
  16 H :    0.135596
  17 H :    0.127952
  18 H :    0.128285
  19 H :    0.162402
  20 H :    0.125396

  Mayer bond orders larger than 0.1
B(  0-C ,  1-C ) :   0.9514 B(  0-C ,  9-H ) :   0.9350 B(  0-C , 10-H ) :   0.9320
B(  0-C , 11-H ) :   0.9379 B(  1-C ,  2-O ) :   0.8829 B(  1-C , 12-H ) :   0.9258
B(  1-C , 13-H ) :   0.9230 B(  2-O ,  3-C ) :   1.0190 B(  3-C ,  4-C ) :   0.8826
B(  3-C ,  6-C ) :   0.8505 B(  3-C , 14-H ) :   0.9349 B(  4-C ,  5-C ) :   0.9292
B(  4-C ,  6-C ) :   0.8274 B(  4-C , 15-H ) :   0.9206 B(  5-C , 16-H ) :   0.9285
B(  5-C , 17-H ) :   0.9370 B(  5-C , 18-H ) :   0.9358 B(  6-C ,  7-C ) :   1.1900
B(  6-C ,  8-C ) :  -0.1256 B(  6-C , 19-H ) :   0.9336 B(  7-C ,  8-C ) :   2.5471
B(  8-C , 20-H ) :   0.9071

MP2 TOTAL ENERGY:     -386.349734173 Eh
FINAL SINGLE POINT ENERGY      -386.349734173274

DIPOLE MOMENT
-------------
                                X             Y             Z
Electronic contribution:     -1.14211      -3.64379       2.88314
Nuclear contribution   :      0.91894       3.45446      -3.16309
                        -----------------------------------------
Total Dipole Moment    :     -0.22317      -0.18933      -0.27995
                        -----------------------------------------
Magnitude (a.u.)       :      0.40500
Magnitude (Debye)      :      1.02942

                             ****ORCA TERMINATED NORMALLY****
TOTAL RUN TIME: 0 days 0 hours 19 minutes 38 seconds 486 msec
