                         Program Version 3.0.3 - RELEASE   -
|  1> ! RI-MP2 RIJK def2-TZVP def2-TZVP/C def2-TZVP/JK TIGHTSCF
|  2> % maxcore 2000
|  3> % mp2 density relaxed end
|  4> *xyz 0 1
|  5>  C       -0.1208827972     1.6013712970     0.4364237769
|  6>  C       -0.0200480383     0.1363481624    -0.0587821181
|  7>  C        1.0858778050    -0.5161329380     0.7480388260
|  8>  O        0.9441265086    -1.2778739101     1.6734977274
|  9>  C       -1.3788607525    -0.5730242225    -0.0391478161
| 10>  C       -1.5191689734    -2.0588046221     0.0736837529
| 11>  N       -1.9439884202    -1.1958724776     1.1773460290
| 12>  C       -2.3632600341     0.1177696364    -0.8550735740
| 13>  N       -3.1086171816     0.6799581712    -1.5371091397
| 14>  H        0.8536483124     2.0968184962     0.3917919110
| 15>  H       -0.8171811919     2.1612671761    -0.1914954801
| 16>  H       -0.4784099719     1.6349048618     1.4694854426
| 17>  H        0.3301174368     0.1658585714    -1.0997197554
| 18>  H        2.1029211679    -0.1818788406     0.4456523258
| 19>  H       -2.3214071616    -2.5496571026    -0.4680873546
| 20>  H       -0.6085291501    -2.6367924988     0.1906709597
| 21>  H       -1.2123006578    -1.2105319001     1.8858447168
| 22> *
| 23>
| 24>                          ****END OF INPUT****

CARTESIAN COORDINATES (ANGSTROEM)
---------------------------------
  C     -0.120883    1.601371    0.436424
  C     -0.020048    0.136348   -0.058782
  C      1.085878   -0.516133    0.748039
  O      0.944127   -1.277874    1.673498
  C     -1.378861   -0.573024   -0.039148
  C     -1.519169   -2.058805    0.073684
  N     -1.943988   -1.195872    1.177346
  C     -2.363260    0.117770   -0.855074
  N     -3.108617    0.679958   -1.537109
  H      0.853648    2.096818    0.391792
  H     -0.817181    2.161267   -0.191495
  H     -0.478410    1.634905    1.469485
  H      0.330117    0.165859   -1.099720
  H      2.102921   -0.181879    0.445652
  H     -2.321407   -2.549657   -0.468087
  H     -0.608529   -2.636792    0.190671
  H     -1.212301   -1.210532    1.885845

 Total Charge           Charge          ....    0
 Multiplicity           Mult            ....    1
 Number of Electrons    NEL             ....   66
 Basis Dimension        Dim             ....  327

ORBITAL ENERGIES
----------------

  NO   OCC          E(Eh)            E(eV)
   0   2.0000     -20.590110      -560.2854
   1   2.0000     -15.586732      -424.1365
   2   2.0000     -15.575769      -423.8382
   3   2.0000     -11.366936      -309.3101
   4   2.0000     -11.327232      -308.2297
   5   2.0000     -11.289629      -307.2064
   6   2.0000     -11.286576      -307.1234
   7   2.0000     -11.277712      -306.8821
   8   2.0000     -11.255738      -306.2842
   9   2.0000      -1.431283       -38.9472
  10   2.0000      -1.303104       -35.4593
  11   2.0000      -1.219063       -33.1724
  12   2.0000      -1.110400       -30.2155
  13   2.0000      -0.963801       -26.2264
  14   2.0000      -0.924976       -25.1699
  15   2.0000      -0.897455       -24.4210
  16   2.0000      -0.820535       -22.3279
  17   2.0000      -0.727044       -19.7839
  18   2.0000      -0.704885       -19.1809
  19   2.0000      -0.686934       -18.6924
  20   2.0000      -0.662144       -18.0178
  21   2.0000      -0.635072       -17.2812
  22   2.0000      -0.588930       -16.0256
  23   2.0000      -0.579525       -15.7697
  24   2.0000      -0.566591       -15.4177
  25   2.0000      -0.556876       -15.1534
  26   2.0000      -0.545665       -14.8483
  27   2.0000      -0.519834       -14.1454
  28   2.0000      -0.513936       -13.9849
  29   2.0000      -0.472086       -12.8461
  30   2.0000      -0.461842       -12.5674
  31   2.0000      -0.446824       -12.1587
  32   2.0000      -0.410148       -11.1607
  33   0.0000       0.098905         2.6913
  34   0.0000       0.120696         3.2843
  35   0.0000       0.145930         3.9710
  36   0.0000       0.157638         4.2895
  37   0.0000       0.165992         4.5169

MULLIKEN ATOMIC CHARGES
-----------------------
   0 C :   -0.432365
   1 C :   -0.019460
   2 C :    0.094942
   3 O :   -0.290089
   4 C :    0.218564
   5 C :   -0.179044
   6 N :   -0.364998
   7 C :   -0.226995
   8 N :   -0.048130
   9 H :    0.144987
  10 H :    0.175086
  11 H :    0.150977
  12 H :    0.127902
  13 H :    0.111769
  14 H :    0.145117
  15 H :    0.147707
  16 H :    0.244029
Sum of atomic charges:    0.0000000

LOEWDIN ATOMIC CHARGES
----------------------
   0 C :   -0.262031
   1 C :   -0.234504
   2 C :   -0.260406
   3 O :    0.134631
   4 C :   -0.273534
   5 C :   -0.213368
   6 N :    0.040325
   7 C :   -0.145738
   8 N :    0.072555
   9 H :    0.130084
  10 H :    0.138931
  11 H :    0.133586
  12 H :    0.176186
  13 H :    0.123582
  14 H :    0.135063
  15 H :    0.130371
  16 H :    0.174267

  Mayer bond orders larger than 0.1
B(  0-C ,  1-C ) :   0.8880 B(  0-C ,  9-H ) :   0.9298 B(  0-C , 10-H ) :   0.9256
B(  0-C , 11-H ) :   0.9252 B(  1-C ,  2-C ) :   0.8620 B(  1-C ,  4-C ) :   0.8960
B(  1-C , 12-H ) :   0.9062 B(  2-C ,  3-O ) :   1.9174 B(  2-C , 13-H ) :   0.9434
B(  4-C ,  5-C ) :   0.9028 B(  4-C ,  6-N ) :   0.8583 B(  4-C ,  7-C ) :   0.8840
B(  5-C ,  6-N ) :   0.9425 B(  5-C , 14-H ) :   0.9122 B(  5-C , 15-H ) :   0.9124
B(  6-N , 16-H ) :   0.8615 B(  7-C ,  8-N ) :   2.8756

MP2 TOTAL ENERGY:     -417.291164659 Eh
FINAL SINGLE POINT ENERGY      -417.291164659343

DIPOLE MOMENT
-------------
                                X             Y             Z
Electronic contribution:     -2.95736      -2.22643      -0.78353
Nuclear contribution   :      4.62172       2.14265       0.78329
                        -----------------------------------------
Total Dipole Moment    :      1.66435      -0.08379      -0.00024
                        -----------------------------------------
Magnitude (a.u.)       :      1.66646
Magnitude (Debye)      :      4.23581

                             ****ORCA TERMINATED NORMALLY****
TOTAL RUN TIME: 0 days 0 hours 18 minutes 17 seconds 529 msec
