                         Program Version 3.0.3 - RELEASE   -
|  1> ! RI-MP2 RIJK def2-TZVP def2-TZVP/C def2-TZVP/JK TIGHTSCF
|  2> % maxcore 2000
|  3> % mp2 density relaxed end
|  4> *xyz 0 1
|  5>  C       -0.1473568028     1.4661017045     0.0472635768
|  6>  C       -0.1788916015    -0.0245550619    -0.0479157970
|  7>  C        0.5150239392    -0.9643492226    -0.9899500647
|  8>  C        1.1489541806    -0.9292129896     0.3669461720
|  9>  N        0.7295366793    -2.3013971600     0.7466807220
| 10>  C       -0.1636533100    -2.4868287928     1.9562545251
| 11>  C       -1.2658353973    -1.4370329014     1.7490856162
| 12>  C       -1.1483623303    -1.0648124993     0.4589647667
| 13>  C       -0.2919158298    -2.1082407689    -0.3262428858
| 14>  H        0.8420421066     1.8518070435    -0.2226940450
| 15>  H       -0.8761515958     1.9258237918    -0.6298778261
| 16>  H       -0.3760702808     1.8046418175     1.0641004469
| 17>  H        0.9257102582    -0.8521736670    -1.9842779232
| 18>  H        2.0474963967    -0.4439591372     0.7286398282
| 19>  H       -0.4588132791    -3.5431224053     1.9554645274
| 20>  H        0.3571117367    -2.2906048487     2.9002282644
| 21>  H       -1.5427713227    -0.7591679127     2.5511011884
| 22>  H       -0.7289183472    -2.9799003198    -0.8123839422
| 23> *
| 24>
| 25>                          ****END OF INPUT****

CARTESIAN COORDINATES (ANGSTROEM)
---------------------------------
  C     -0.147357    1.466102    0.047264
  C     -0.178892   -0.024555   -0.047916
  C      0.515024   -0.964349   -0.989950
  C      1.148954   -0.929213    0.366946
  N      0.729537   -2.301397    0.746681
  C     -0.163653   -2.486829    1.956255
  C     -1.265835   -1.437033    1.749086
  C     -1.148362   -1.064812    0.458965
  C     -0.291916   -2.108241   -0.326243
  H      0.842042    1.851807   -0.222694
  H     -0.876152    1.925824   -0.629878
  H     -0.376070    1.804642    1.064100
  H      0.925710   -0.852174   -1.984278
  H      2.047496   -0.443959    0.728640
  H     -0.458813   -3.543122    1.955465
  H      0.357112   -2.290605    2.900228
  H     -1.542771   -0.759168    2.551101
  H     -0.728918   -2.979900   -0.812384

 Total Charge           Charge          ....    0
 Multiplicity           Mult            ....    1
 Number of Electrons    NEL             ....   64
 Basis Dimension        Dim             ....  333

ORBITAL ENERGIES
----------------

  NO   OCC          E(Eh)            E(eV)
   0   2.0000     -15.559675      -423.4003
   1   2.0000     -11.268478      -306.6309
   2   2.0000     -11.267094      -306.5932
   3   2.0000     -11.262309      -306.4630
   4   2.0000     -11.260648      -306.4178
   5   2.0000     -11.240770      -305.8769
   6   2.0000     -11.232728      -305.6581
   7   2.0000     -11.229218      -305.5625
   8   2.0000     -11.227264      -305.5094
   9   2.0000      -1.306853       -35.5613
  10   2.0000      -1.115409       -30.3518
  11   2.0000      -1.050489       -28.5852
  12   2.0000      -0.985735       -26.8232
  13   2.0000      -0.912898       -24.8412
  14   2.0000      -0.868032       -23.6204
  15   2.0000      -0.809481       -22.0271
  16   2.0000      -0.727091       -19.7851
  17   2.0000      -0.691219       -18.8090
  18   2.0000      -0.672561       -18.3013
  19   2.0000      -0.656991       -17.8776
  20   2.0000      -0.602924       -16.4064
  21   2.0000      -0.583985       -15.8910
  22   2.0000      -0.574336       -15.6285
  23   2.0000      -0.559840       -15.2340
  24   2.0000      -0.539352       -14.6765
  25   2.0000      -0.497619       -13.5409
  26   2.0000      -0.477463       -12.9924
  27   2.0000      -0.463634       -12.6161
  28   2.0000      -0.453351       -12.3363
  29   2.0000      -0.404907       -11.0181
  30   2.0000      -0.343862        -9.3570
  31   2.0000      -0.295975        -8.0539
  32   0.0000       0.084100         2.2885
  33   0.0000       0.140351         3.8191
  34   0.0000       0.157371         4.2823
  35   0.0000       0.173187         4.7126
  36   0.0000       0.184175         5.0116

MULLIKEN ATOMIC CHARGES
-----------------------
   0 C :   -0.428205
   1 C :   -0.031341
   2 C :   -0.191116
   3 C :   -0.096065
   4 N :   -0.190976
   5 C :   -0.155327
   6 C :   -0.210682
   7 C :    0.010439
   8 C :    0.045628
   9 H :    0.134490
  10 H :    0.147442
  11 H :    0.138383
  12 H :    0.156269
  13 H :    0.137768
  14 H :    0.132116
  15 H :    0.129406
  16 H :    0.123768
  17 H :    0.148003
Sum of atomic charges:    0.0000000

LOEWDIN ATOMIC CHARGES
----------------------
   0 C :   -0.272746
   1 C :   -0.158782
   2 C :   -0.121569
   3 C :   -0.151548
   4 N :    0.136752
   5 C :   -0.245246
   6 C :   -0.140810
   7 C :   -0.113640
   8 C :   -0.139395
   9 H :    0.133299
  10 H :    0.131670
  11 H :    0.131890
  12 H :    0.135494
  13 H :    0.132655
  14 H :    0.136614
  15 H :    0.136395
  16 H :    0.132831
  17 H :    0.136135

  Mayer bond orders larger than 0.1
B(  0-C ,  1-C ) :   0.8798 B(  0-C ,  9-H ) :   0.9295 B(  0-C , 10-H ) :   0.9450
B(  0-C , 11-H ) :   0.9328 B(  1-C ,  2-C ) :   0.8692 B(  1-C ,  3-C ) :   0.7712
B(  1-C ,  7-C ) :   0.9402 B(  2-C ,  3-C ) :   0.8433 B(  2-C ,  8-C ) :   0.9141
B(  2-C , 12-H ) :   0.8851 B(  3-C ,  4-N ) :   0.9828 B(  3-C , 13-H ) :   0.9214
B(  4-N ,  5-C ) :   0.9212 B(  4-N ,  8-C ) :   0.9304 B(  5-C ,  6-C ) :   0.9523
B(  5-C , 14-H ) :   0.9149 B(  5-C , 15-H ) :   0.9161 B(  6-C ,  7-C ) :   1.7077
B(  6-C , 16-H ) :   0.9267 B(  7-C ,  8-C ) :   0.8901 B(  8-C , 17-H ) :   0.8924

MP2 TOTAL ENERGY:     -363.999186417 Eh
FINAL SINGLE POINT ENERGY      -363.999186417317

DIPOLE MOMENT
-------------
                                X             Y             Z
Electronic contribution:     -0.59274      -3.61139      -1.27936
Nuclear contribution   :      0.74854       4.11953       1.33569
                        -----------------------------------------
Total Dipole Moment    :      0.15580       0.50814       0.05633
                        -----------------------------------------
Magnitude (a.u.)       :      0.53446
Magnitude (Debye)      :      1.35850

                             ****ORCA TERMINATED NORMALLY****
TOTAL RUN TIME: 0 days 0 hours 21 minutes 47 seconds 183 msec
