                         Program Version 3.0.3 - RELEASE   -
|  1> ! RI-MP2 RIJK def2-TZVP def2-TZVP/C def2-TZVP/JK TIGHTSCF
|  2> % maxcore 2000
|  3> % mp2 density relaxed end
|  4> *xyz 0 1
|  5>  C        0.2081254676     1.3478524483    -0.0009594897
|  6>  O        0.2833407935    -0.0753128651     0.0667209738
|  7>  C        0.6758641184    -0.5963839889     1.3043138043
|  8>  C        0.7724666517    -2.1393542754     1.1457507957
|  9>  C        2.2176174151    -2.4600131149     1.5644757063
| 10>  C        2.9225003392    -1.1236362169     1.3297080275
| 11>  O        1.9502034473    -0.1410021357     1.7067862414
| 12>  C       -0.2784790410    -0.1830971338     2.3708379857
| 13>  N       -1.0472027367     0.1116961157     3.1808006994
| 14>  H        1.1694666801     1.8050422650     0.2525900510
| 15>  H       -0.0553169706     1.5875274413    -1.0320792913
| 16>  H       -0.5666642002     1.7362074198     0.6717463688
| 17>  H        0.0242392747    -2.6582008957     1.7452244611
| 18>  H        0.5884712866    -2.3629979539     0.0931690911
| 19>  H        2.2648203251    -2.7264054629     2.6241161805
| 20>  H        2.6527029880    -3.2778071760     0.9857645624
| 21>  H        3.8044250716    -0.9616400964     1.9523516130
| 22>  H        3.2031265497    -0.9958178044     0.2752768390
| 23> *
| 24>
| 25>                          ****END OF INPUT****

CARTESIAN COORDINATES (ANGSTROEM)
---------------------------------
  C      0.208125    1.347852   -0.000959
  O      0.283341   -0.075313    0.066721
  C      0.675864   -0.596384    1.304314
  C      0.772467   -2.139354    1.145751
  C      2.217617   -2.460013    1.564476
  C      2.922500   -1.123636    1.329708
  O      1.950203   -0.141002    1.706786
  C     -0.278479   -0.183097    2.370838
  N     -1.047203    0.111696    3.180801
  H      1.169467    1.805042    0.252590
  H     -0.055317    1.587527   -1.032079
  H     -0.566664    1.736207    0.671746
  H      0.024239   -2.658201    1.745224
  H      0.588471   -2.362998    0.093169
  H      2.264820   -2.726405    2.624116
  H      2.652703   -3.277807    0.985765
  H      3.804425   -0.961640    1.952352
  H      3.203127   -0.995818    0.275277

 Total Charge           Charge          ....    0
 Multiplicity           Mult            ....    1
 Number of Electrons    NEL             ....   68
 Basis Dimension        Dim             ....  333

ORBITAL ENERGIES
----------------

  NO   OCC          E(Eh)            E(eV)
   0   2.0000     -20.586437      -560.1854
   1   2.0000     -20.585753      -560.1668
   2   2.0000     -15.577065      -423.8735
   3   2.0000     -11.392928      -310.0173
   4   2.0000     -11.295791      -307.3741
   5   2.0000     -11.280535      -306.9590
   6   2.0000     -11.273398      -306.7647
   7   2.0000     -11.251750      -306.1757
   8   2.0000     -11.246785      -306.0406
   9   2.0000      -1.450036       -39.4575
  10   2.0000      -1.374816       -37.4106
  11   2.0000      -1.220729       -33.2177
  12   2.0000      -1.086038       -29.5526
  13   2.0000      -1.036247       -28.1977
  14   2.0000      -0.938240       -25.5308
  15   2.0000      -0.869257       -23.6537
  16   2.0000      -0.840434       -22.8694
  17   2.0000      -0.755470       -20.5574
  18   2.0000      -0.716055       -19.4849
  19   2.0000      -0.684983       -18.6393
  20   2.0000      -0.648379       -17.6433
  21   2.0000      -0.638636       -17.3782
  22   2.0000      -0.614027       -16.7085
  23   2.0000      -0.599304       -16.3079
  24   2.0000      -0.566051       -15.4030
  25   2.0000      -0.540331       -14.7031
  26   2.0000      -0.535216       -14.5640
  27   2.0000      -0.522105       -14.2072
  28   2.0000      -0.512555       -13.9473
  29   2.0000      -0.503857       -13.7106
  30   2.0000      -0.476354       -12.9622
  31   2.0000      -0.467225       -12.7138
  32   2.0000      -0.462455       -12.5840
  33   2.0000      -0.455268       -12.3885
  34   0.0000       0.128328         3.4920
  35   0.0000       0.156425         4.2566
  36   0.0000       0.161448         4.3932
  37   0.0000       0.170947         4.6517
  38   0.0000       0.172271         4.6877

MULLIKEN ATOMIC CHARGES
-----------------------
   0 C :   -0.243340
   1 O :   -0.298045
   2 C :    0.479226
   3 C :   -0.250269
   4 C :   -0.256463
   5 C :   -0.046082
   6 O :   -0.309944
   7 C :   -0.248197
   8 N :   -0.049813
   9 H :    0.142720
  10 H :    0.145018
  11 H :    0.136940
  12 H :    0.151828
  13 H :    0.147580
  14 H :    0.128305
  15 H :    0.130566
  16 H :    0.133916
  17 H :    0.106054
Sum of atomic charges:   -0.0000000

LOEWDIN ATOMIC CHARGES
----------------------
   0 C :   -0.328457
   1 O :    0.193257
   2 C :   -0.448410
   3 C :   -0.192773
   4 C :   -0.255584
   5 C :   -0.286831
   6 O :    0.211048
   7 C :   -0.142951
   8 N :    0.073882
   9 H :    0.110687
  10 H :    0.116131
  11 H :    0.113278
  12 H :    0.147476
  13 H :    0.151458
  14 H :    0.142062
  15 H :    0.140420
  16 H :    0.130229
  17 H :    0.125079

  Mayer bond orders larger than 0.1
B(  0-C ,  1-O ) :   0.8686 B(  0-C ,  9-H ) :   0.9365 B(  0-C , 10-H ) :   0.9365
B(  0-C , 11-H ) :   0.9279 B(  1-O ,  2-C ) :   1.0443 B(  2-C ,  3-C ) :   0.8621
B(  2-C ,  6-O ) :   1.0075 B(  2-C ,  7-C ) :   0.8728 B(  3-C ,  4-C ) :   0.9360
B(  3-C , 12-H ) :   0.9245 B(  3-C , 13-H ) :   0.9284 B(  4-C ,  5-C ) :   0.9626
B(  4-C , 14-H ) :   0.9204 B(  4-C , 15-H ) :   0.9254 B(  5-C ,  6-O ) :   0.8841
B(  5-C , 16-H ) :   0.9246 B(  5-C , 17-H ) :   0.9286 B(  7-C ,  8-N ) :   2.8669

MP2 TOTAL ENERGY:     -438.379095888 Eh
FINAL SINGLE POINT ENERGY      -438.379095888206

DIPOLE MOMENT
-------------
                                X             Y             Z
Electronic contribution:     -3.72201       1.94001       3.46600
Nuclear contribution   :      4.79836      -2.58801      -4.40675
                        -----------------------------------------
Total Dipole Moment    :      1.07635      -0.64800      -0.94074
                        -----------------------------------------
Magnitude (a.u.)       :      1.56954
Magnitude (Debye)      :      3.98944

                             ****ORCA TERMINATED NORMALLY****
TOTAL RUN TIME: 0 days 0 hours 17 minutes 34 seconds 650 msec
