                         Program Version 3.0.3 - RELEASE   -
|  1> ! RI-MP2 RIJK def2-TZVP def2-TZVP/C def2-TZVP/JK TIGHTSCF
|  2> % maxcore 2000
|  3> % mp2 density relaxed end
|  4> *xyz 0 1
|  5>  C        1.2732705570     1.0393194080    -0.4969345210
|  6>  C        0.1884600257     0.0914661018    -0.0637762700
|  7>  O        0.5850831753    -1.1315459176     0.5457044811
|  8>  C       -0.1333555055    -0.1871728283     1.3593442957
|  9>  C        0.5742232134     0.4383524298     2.4389337647
| 10>  C        1.1283744631     0.9720137927     3.3707121384
| 11>  C        1.7971924163     1.6072883722     4.4920931401
| 12>  C        3.2865527436     1.3502256023     4.5905387138
| 13>  O        1.1874006164     2.2917321008     5.2857217563
| 14>  H        2.0376691915     1.1396956068     0.2761242068
| 15>  H        1.7473356729     0.6719406547    -1.4126535123
| 16>  H        0.8519840362     2.0276856493    -0.7075341164
| 17>  H       -0.6465105960    -0.0163752941    -0.7591371777
| 18>  H       -1.1527169072    -0.4909089893     1.5957737423
| 19>  H        3.4772687620     0.2747970694     4.6733537768
| 20>  H        3.7894795150     1.6942173294     3.6802885866
| 21>  H        3.6894979803     1.8705527018     5.4605620247
| 22> *
| 23>
| 24>                          ****END OF INPUT****

CARTESIAN COORDINATES (ANGSTROEM)
---------------------------------
  C      1.273271    1.039319   -0.496935
  C      0.188460    0.091466   -0.063776
  O      0.585083   -1.131546    0.545704
  C     -0.133356   -0.187173    1.359344
  C      0.574223    0.438352    2.438934
  C      1.128374    0.972014    3.370712
  C      1.797192    1.607288    4.492093
  C      3.286553    1.350226    4.590539
  O      1.187401    2.291732    5.285722
  H      2.037669    1.139696    0.276124
  H      1.747336    0.671941   -1.412654
  H      0.851984    2.027686   -0.707534
  H     -0.646511   -0.016375   -0.759137
  H     -1.152717   -0.490909    1.595774
  H      3.477269    0.274797    4.673354
  H      3.789480    1.694217    3.680289
  H      3.689498    1.870553    5.460562

 Total Charge           Charge          ....    0
 Multiplicity           Mult            ....    1
 Number of Electrons    NEL             ....   66
 Basis Dimension        Dim             ....  327

ORBITAL ENERGIES
----------------

  NO   OCC          E(Eh)            E(eV)
   0   2.0000     -20.590086      -560.2847
   1   2.0000     -20.560340      -559.4753
   2   2.0000     -11.361801      -309.1703
   3   2.0000     -11.325378      -308.1792
   4   2.0000     -11.314282      -307.8773
   5   2.0000     -11.267569      -306.6061
   6   2.0000     -11.252008      -306.1827
   7   2.0000     -11.245259      -305.9990
   8   2.0000     -11.238519      -305.8157
   9   2.0000      -1.434783       -39.0424
  10   2.0000      -1.401859       -38.1465
  11   2.0000      -1.085147       -29.5284
  12   2.0000      -1.031532       -28.0694
  13   2.0000      -1.021984       -27.8096
  14   2.0000      -0.952831       -25.9279
  15   2.0000      -0.863427       -23.4951
  16   2.0000      -0.830330       -22.5944
  17   2.0000      -0.730729       -19.8842
  18   2.0000      -0.698183       -18.9985
  19   2.0000      -0.683802       -18.6072
  20   2.0000      -0.638550       -17.3758
  21   2.0000      -0.614277       -16.7153
  22   2.0000      -0.609702       -16.5908
  23   2.0000      -0.585178       -15.9235
  24   2.0000      -0.572998       -15.5921
  25   2.0000      -0.567322       -15.4376
  26   2.0000      -0.541926       -14.7465
  27   2.0000      -0.522220       -14.2103
  28   2.0000      -0.482377       -13.1261
  29   2.0000      -0.473372       -12.8811
  30   2.0000      -0.446811       -12.1583
  31   2.0000      -0.414760       -11.2862
  32   2.0000      -0.392371       -10.6769
  33   0.0000       0.083405         2.2696
  34   0.0000       0.129181         3.5152
  35   0.0000       0.141106         3.8397
  36   0.0000       0.158059         4.3010
  37   0.0000       0.164884         4.4867

MULLIKEN ATOMIC CHARGES
-----------------------
   0 C :   -0.386350
   1 C :    0.108630
   2 O :   -0.309702
   3 C :   -0.184299
   4 C :    0.043360
   5 C :    0.115093
   6 C :    0.128438
   7 C :   -0.390573
   8 O :   -0.267126
   9 H :    0.142941
  10 H :    0.144483
  11 H :    0.135087
  12 H :    0.117726
  13 H :    0.150410
  14 H :    0.151574
  15 H :    0.145677
  16 H :    0.154631
Sum of atomic charges:    0.0000000

LOEWDIN ATOMIC CHARGES
----------------------
   0 C :   -0.287393
   1 C :   -0.277245
   2 O :    0.181028
   3 C :   -0.252410
   4 C :   -0.017878
   5 C :   -0.011851
   6 C :   -0.353621
   7 C :   -0.263452
   8 O :    0.169478
   9 H :    0.134005
  10 H :    0.132672
  11 H :    0.133927
  12 H :    0.139147
  13 H :    0.156826
  14 H :    0.141925
  15 H :    0.140036
  16 H :    0.134806

  Mayer bond orders larger than 0.1
B(  0-C ,  1-C ) :   0.9069 B(  0-C ,  9-H ) :   0.9338 B(  0-C , 10-H ) :   0.9357
B(  0-C , 11-H ) :   0.9234 B(  1-C ,  2-O ) :   0.8936 B(  1-C ,  3-C ) :   0.9686
B(  1-C , 12-H ) :   0.9210 B(  2-O ,  3-C ) :   0.9633 B(  3-C ,  4-C ) :   1.0414
B(  3-C ,  5-C ) :  -0.1533 B(  3-C , 13-H ) :   0.9234 B(  4-C ,  5-C ) :   2.6625
B(  5-C ,  6-C ) :   0.8890 B(  5-C ,  7-C ) :  -0.1279 B(  6-C ,  7-C ) :   0.9973
B(  6-C ,  8-O ) :   2.0174 B(  7-C , 14-H ) :   0.9073 B(  7-C , 15-H ) :   0.9100
B(  7-C , 16-H ) :   0.9372

MP2 TOTAL ENERGY:     -421.071393393 Eh
FINAL SINGLE POINT ENERGY      -421.071393392824

DIPOLE MOMENT
-------------
                                X             Y             Z
Electronic contribution:     -4.21997      -1.30300       4.81692
Nuclear contribution   :      4.48620       1.30763      -5.78461
                        -----------------------------------------
Total Dipole Moment    :      0.26623       0.00463      -0.96769
                        -----------------------------------------
Magnitude (a.u.)       :      1.00365
Magnitude (Debye)      :      2.55108

                             ****ORCA TERMINATED NORMALLY****
TOTAL RUN TIME: 0 days 0 hours 13 minutes 11 seconds 600 msec
