                         Program Version 3.0.3 - RELEASE   -
|  1> ! RI-MP2 RIJK def2-TZVP def2-TZVP/C def2-TZVP/JK TIGHTSCF
|  2> % maxcore 2000
|  3> % mp2 density relaxed end
|  4> *xyz 0 1
|  5>  C       -0.0038454124     1.4998062128    -0.0505535106
|  6>  N        1.3564376589     2.0149758557     0.1146406378
|  7>  C        2.3486428868     1.2602856582     0.2629720673
|  8>  O        2.4033070478    -0.1313674429     0.3043905000
|  9>  C        1.1972636138    -0.7129498153     0.1610308458
| 10>  N        0.9788358389    -1.9935802377     0.1640173257
| 11>  O       -0.3836221828    -2.0918524587    -0.0116993631
| 12>  N       -0.9806902921    -0.8561897457    -0.1202000498
| 13>  C       -0.0124473543     0.0051686125    -0.0148438765
| 14>  H       -0.6317869348     1.9251794934     0.7406463404
| 15>  H       -0.4046519386     1.8823765491    -0.9961989344
| 16>  H        3.3551708488     1.6465051185     0.3850738976
| 17> *
| 18>
| 19>                          ****END OF INPUT****

CARTESIAN COORDINATES (ANGSTROEM)
---------------------------------
  C     -0.003845    1.499806   -0.050554
  N      1.356438    2.014976    0.114641
  C      2.348643    1.260286    0.262972
  O      2.403307   -0.131367    0.304391
  C      1.197264   -0.712950    0.161031
  N      0.978836   -1.993580    0.164017
  O     -0.383622   -2.091852   -0.011699
  N     -0.980690   -0.856190   -0.120200
  C     -0.012447    0.005169   -0.014844
  H     -0.631787    1.925179    0.740646
  H     -0.404652    1.882377   -0.996199
  H      3.355171    1.646505    0.385074

 Total Charge           Charge          ....    0
 Multiplicity           Mult            ....    1
 Number of Electrons    NEL             ....   64
 Basis Dimension        Dim             ....  297

ORBITAL ENERGIES
----------------

  NO   OCC          E(Eh)            E(eV)
   0   2.0000     -20.686962      -562.9209
   1   2.0000     -20.662438      -562.2535
   2   2.0000     -15.671376      -426.4398
   3   2.0000     -15.658977      -426.1024
   4   2.0000     -15.598064      -424.4449
   5   2.0000     -11.380615      -309.6823
   6   2.0000     -11.367862      -309.3352
   7   2.0000     -11.313746      -307.8627
   8   2.0000     -11.311743      -307.8082
   9   2.0000      -1.551383       -42.2153
  10   2.0000      -1.497534       -40.7500
  11   2.0000      -1.276014       -34.7221
  12   2.0000      -1.222190       -33.2575
  13   2.0000      -1.190517       -32.3956
  14   2.0000      -1.023196       -27.8426
  15   2.0000      -0.928231       -25.2585
  16   2.0000      -0.892060       -24.2742
  17   2.0000      -0.796188       -21.6654
  18   2.0000      -0.758897       -20.6506
  19   2.0000      -0.723988       -19.7007
  20   2.0000      -0.710616       -19.3369
  21   2.0000      -0.664864       -18.0919
  22   2.0000      -0.664565       -18.0837
  23   2.0000      -0.638281       -17.3685
  24   2.0000      -0.637556       -17.3488
  25   2.0000      -0.588447       -16.0124
  26   2.0000      -0.526268       -14.3205
  27   2.0000      -0.505234       -13.7481
  28   2.0000      -0.478950       -13.0329
  29   2.0000      -0.463870       -12.6225
  30   2.0000      -0.437734       -11.9114
  31   2.0000      -0.408804       -11.1241
  32   0.0000       0.076691         2.0869
  33   0.0000       0.127376         3.4661
  34   0.0000       0.128869         3.5067
  35   0.0000       0.167101         4.5470
  36   0.0000       0.183065         4.9815

MULLIKEN ATOMIC CHARGES
-----------------------
   0 C :   -0.093817
   1 N :   -0.235329
   2 C :    0.088911
   3 O :   -0.230070
   4 C :    0.202928
   5 N :   -0.079523
   6 O :   -0.004153
   7 N :   -0.078679
   8 C :   -0.057201
   9 H :    0.162718
  10 H :    0.162718
  11 H :    0.161498
Sum of atomic charges:   -0.0000000

LOEWDIN ATOMIC CHARGES
----------------------
   0 C :   -0.232221
   1 N :    0.105531
   2 C :   -0.294981
   3 O :    0.303214
   4 C :   -0.380104
   5 N :    0.058512
   6 O :    0.205523
   7 N :    0.060489
   8 C :   -0.278015
   9 H :    0.154521
  10 H :    0.154521
  11 H :    0.143010

  Mayer bond orders larger than 0.1
B(  0-C ,  1-N ) :   0.9160 B(  0-C ,  8-C ) :   0.9137 B(  0-C ,  9-H ) :   0.9198
B(  0-C , 10-H ) :   0.9198 B(  1-N ,  2-C ) :   1.8823 B(  2-C ,  3-O ) :   0.9488
B(  2-C , 11-H ) :   0.9242 B(  3-O ,  4-C ) :   1.0491 B(  4-C ,  5-N ) :   1.6001
B(  4-C ,  8-C ) :   1.2004 B(  5-N ,  6-O ) :   0.9208 B(  5-N ,  7-N ) :   0.1250
B(  6-O ,  7-N ) :   0.9320 B(  7-N ,  8-C ) :   1.5889

MP2 TOTAL ENERGY:     -468.001222836 Eh
FINAL SINGLE POINT ENERGY      -468.001222835847

DIPOLE MOMENT
-------------
                                X             Y             Z
Electronic contribution:      0.29717      -4.44885       0.14849
Nuclear contribution   :      0.01686       5.47078      -0.13262
                        -----------------------------------------
Total Dipole Moment    :      0.31403       1.02193       0.01587
                        -----------------------------------------
Magnitude (a.u.)       :      1.06921
Magnitude (Debye)      :      2.71772

                             ****ORCA TERMINATED NORMALLY****
TOTAL RUN TIME: 0 days 0 hours 14 minutes 4 seconds 990 msec
