                         Program Version 3.0.3 - RELEASE   -
|  1> ! RI-MP2 RIJK def2-TZVP def2-TZVP/C def2-TZVP/JK TIGHTSCF
|  2> % maxcore 2000
|  3> % mp2 density relaxed end
|  4> *xyz 0 1
|  5>  C        0.0802277042     1.6446238511    -0.4955213958
|  6>  C       -0.0744671880     0.2344124161     0.0658185740
|  7>  N       -1.4714241643    -0.1631632469     0.1698601987
|  8>  C       -1.9769640010    -0.8187712724     1.2555947798
|  9>  N       -1.2560995894    -1.1716383539     2.2531364971
| 10>  C       -3.4085832956    -1.0689739469     1.1731585468
| 11>  N       -4.5436430916    -1.2865562283     1.1408255065
| 12>  C        0.6929389458    -0.8113945445    -0.7496308460
| 13>  O        1.5436176460    -0.5485891400    -1.5571121655
| 14>  H        1.1393476656     1.8766894175    -0.6194157461
| 15>  H       -0.3877055924     1.7287310274    -1.4822078535
| 16>  H       -0.3753168146     2.3778815714     0.1735477098
| 17>  H        0.3274091729     0.1764059483     1.0859048040
| 18>  H       -2.0939927371     0.0569430476    -0.5900666529
| 19>  H       -1.8138891681    -1.6189471090     2.9749175902
| 20>  H        0.3884999176    -1.8586460574    -0.5323303771
| 21> *
| 22>
| 23>                          ****END OF INPUT****

CARTESIAN COORDINATES (ANGSTROEM)
---------------------------------
  C      0.080228    1.644624   -0.495521
  C     -0.074467    0.234412    0.065819
  N     -1.471424   -0.163163    0.169860
  C     -1.976964   -0.818771    1.255595
  N     -1.256100   -1.171638    2.253136
  C     -3.408583   -1.068974    1.173159
  N     -4.543643   -1.286556    1.140826
  C      0.692939   -0.811395   -0.749631
  O      1.543618   -0.548589   -1.557112
  H      1.139348    1.876689   -0.619416
  H     -0.387706    1.728731   -1.482208
  H     -0.375317    2.377882    0.173548
  H      0.327409    0.176406    1.085905
  H     -2.093993    0.056943   -0.590067
  H     -1.813889   -1.618947    2.974918
  H      0.388500   -1.858646   -0.532330

 Total Charge           Charge          ....    0
 Multiplicity           Mult            ....    1
 Number of Electrons    NEL             ....   66
 Basis Dimension        Dim             ....  321

ORBITAL ENERGIES
----------------

  NO   OCC          E(Eh)            E(eV)
   0   2.0000     -20.573125      -559.8232
   1   2.0000     -15.620884      -425.0659
   2   2.0000     -15.616523      -424.9472
   3   2.0000     -15.573379      -423.7732
   4   2.0000     -11.388495      -309.8967
   5   2.0000     -11.344039      -308.6870
   6   2.0000     -11.309479      -307.7466
   7   2.0000     -11.302091      -307.5455
   8   2.0000     -11.241695      -305.9021
   9   2.0000      -1.413249       -38.4565
  10   2.0000      -1.329039       -36.1650
  11   2.0000      -1.252422       -34.0801
  12   2.0000      -1.207293       -32.8521
  13   2.0000      -1.065710       -28.9994
  14   2.0000      -0.944364       -25.6975
  15   2.0000      -0.901209       -24.5231
  16   2.0000      -0.821763       -22.3613
  17   2.0000      -0.788683       -21.4612
  18   2.0000      -0.706527       -19.2256
  19   2.0000      -0.695310       -18.9203
  20   2.0000      -0.665971       -18.1220
  21   2.0000      -0.646692       -17.5974
  22   2.0000      -0.603137       -16.4122
  23   2.0000      -0.596756       -16.2386
  24   2.0000      -0.569411       -15.4945
  25   2.0000      -0.560340       -15.2476
  26   2.0000      -0.550626       -14.9833
  27   2.0000      -0.526114       -14.3163
  28   2.0000      -0.514098       -13.9893
  29   2.0000      -0.495478       -13.4826
  30   2.0000      -0.469164       -12.7666
  31   2.0000      -0.443071       -12.0566
  32   2.0000      -0.389533       -10.5997
  33   0.0000       0.082465         2.2440
  34   0.0000       0.101657         2.7662
  35   0.0000       0.125674         3.4198
  36   0.0000       0.142526         3.8783
  37   0.0000       0.147531         4.0145

MULLIKEN ATOMIC CHARGES
-----------------------
   0 C :   -0.394131
   1 C :    0.082527
   2 N :   -0.359866
   3 C :    0.334248
   4 N :   -0.409981
   5 C :   -0.210430
   6 N :   -0.041233
   7 C :    0.060170
   8 O :   -0.252377
   9 H :    0.158839
  10 H :    0.127599
  11 H :    0.149777
  12 H :    0.156035
  13 H :    0.256096
  14 H :    0.234894
  15 H :    0.107833
Sum of atomic charges:   -0.0000000

LOEWDIN ATOMIC CHARGES
----------------------
   0 C :   -0.283730
   1 C :   -0.299470
   2 N :    0.147736
   3 C :   -0.393846
   4 N :   -0.048634
   5 C :   -0.148668
   6 N :    0.090716
   7 C :   -0.272365
   8 O :    0.147579
   9 H :    0.138314
  10 H :    0.127640
  11 H :    0.128856
  12 H :    0.175300
  13 H :    0.197999
  14 H :    0.173339
  15 H :    0.119233

  Mayer bond orders larger than 0.1
B(  0-C ,  1-C ) :   0.9240 B(  0-C ,  9-H ) :   0.9286 B(  0-C , 10-H ) :   0.9219
B(  0-C , 11-H ) :   0.9387 B(  1-C ,  2-N ) :   0.7970 B(  1-C ,  7-C ) :   0.8448
B(  1-C , 12-H ) :   0.8895 B(  2-N ,  3-C ) :   1.1711 B(  2-N , 13-H ) :   0.8695
B(  3-C ,  4-N ) :   1.8585 B(  3-C ,  5-C ) :   0.8689 B(  4-N , 14-H ) :   0.8619
B(  5-C ,  6-N ) :   2.8190 B(  7-C ,  8-O ) :   2.0095 B(  7-C , 15-H ) :   0.9501

MP2 TOTAL ENERGY:     -433.360739925 Eh
FINAL SINGLE POINT ENERGY      -433.360739925229

DIPOLE MOMENT
-------------
                                X             Y             Z
Electronic contribution:     -4.47067      -4.80929       1.24778
Nuclear contribution   :      4.52783       5.32006      -1.21923
                        -----------------------------------------
Total Dipole Moment    :      0.05715       0.51077       0.02855
                        -----------------------------------------
Magnitude (a.u.)       :      0.51475
Magnitude (Debye)      :      1.30839

                             ****ORCA TERMINATED NORMALLY****
TOTAL RUN TIME: 0 days 0 hours 15 minutes 33 seconds 543 msec
