                         Program Version 3.0.3 - RELEASE   -
|  1> ! RI-MP2 RIJK def2-TZVP def2-TZVP/C def2-TZVP/JK TIGHTSCF
|  2> % maxcore 2000
|  3> % mp2 density relaxed end
|  4> *xyz 0 1
|  5>  N       -0.2176162868     1.3410279938     0.0273627676
|  6>  C        0.0118731044    -0.0495598492    -0.0360265820
|  7>  C        0.9515846323    -0.9019696048    -0.9054260689
|  8>  C        0.1237377758    -2.1081288956    -0.4079442548
|  9>  N        0.4801865820    -2.1446515882     1.0544844157
| 10>  C       -0.3234180210    -0.9147099738     1.1698930896
| 11>  C       -1.0967319264    -1.1247396169    -0.1249115612
| 12>  C       -2.4527647717    -1.0566635893    -0.4986654210
| 13>  N       -3.5668182227    -1.0218399277    -0.8192109998
| 14>  H        0.5103409059     1.8218898240     0.5450664390
| 15>  H       -0.2874828878     1.7590143102    -0.8939293418
| 16>  H        0.7906340820    -0.7031067934    -1.9682108386
| 17>  H        2.0185102050    -0.9200058170    -0.6649924146
| 18>  H        0.0800406366    -3.0514028280    -0.9450174900
| 19>  H       -0.0590846251    -2.8964135002     1.4833425107
| 20>  H       -0.6670139923    -0.4907098741     2.1039261800
| 21> *
| 22>
| 23>                          ****END OF INPUT****

CARTESIAN COORDINATES (ANGSTROEM)
---------------------------------
  N     -0.217616    1.341028    0.027363
  C      0.011873   -0.049560   -0.036027
  C      0.951585   -0.901970   -0.905426
  C      0.123738   -2.108129   -0.407944
  N      0.480187   -2.144652    1.054484
  C     -0.323418   -0.914710    1.169893
  C     -1.096732   -1.124740   -0.124912
  C     -2.452765   -1.056664   -0.498665
  N     -3.566818   -1.021840   -0.819211
  H      0.510341    1.821890    0.545066
  H     -0.287483    1.759014   -0.893929
  H      0.790634   -0.703107   -1.968211
  H      2.018510   -0.920006   -0.664992
  H      0.080041   -3.051403   -0.945017
  H     -0.059085   -2.896414    1.483343
  H     -0.667014   -0.490710    2.103926

 Total Charge           Charge          ....    0
 Multiplicity           Mult            ....    1
 Number of Electrons    NEL             ....   64
 Basis Dimension        Dim             ....  321

ORBITAL ENERGIES
----------------

  NO   OCC          E(Eh)            E(eV)
   0   2.0000     -15.572538      -423.7503
   1   2.0000     -15.571893      -423.7328
   2   2.0000     -15.565125      -423.5486
   3   2.0000     -11.304132      -307.6011
   4   2.0000     -11.300141      -307.4925
   5   2.0000     -11.297016      -307.4074
   6   2.0000     -11.278214      -306.8958
   7   2.0000     -11.273844      -306.7769
   8   2.0000     -11.248640      -306.0911
   9   2.0000      -1.322838       -35.9963
  10   2.0000      -1.211184       -32.9580
  11   2.0000      -1.208712       -32.8907
  12   2.0000      -1.092140       -29.7186
  13   2.0000      -1.007181       -27.4068
  14   2.0000      -0.926362       -25.2076
  15   2.0000      -0.829335       -22.5674
  16   2.0000      -0.778523       -21.1847
  17   2.0000      -0.741768       -20.1845
  18   2.0000      -0.696270       -18.9465
  19   2.0000      -0.663202       -18.0466
  20   2.0000      -0.635837       -17.3020
  21   2.0000      -0.612859       -16.6767
  22   2.0000      -0.576208       -15.6794
  23   2.0000      -0.557501       -15.1704
  24   2.0000      -0.543978       -14.8024
  25   2.0000      -0.527219       -14.3464
  26   2.0000      -0.498673       -13.5696
  27   2.0000      -0.488652       -13.2969
  28   2.0000      -0.435777       -11.8581
  29   2.0000      -0.425685       -11.5835
  30   2.0000      -0.410233       -11.1630
  31   2.0000      -0.357550        -9.7294
  32   0.0000       0.120758         3.2860
  33   0.0000       0.130247         3.5442
  34   0.0000       0.141859         3.8602
  35   0.0000       0.164495         4.4761
  36   0.0000       0.175210         4.7677

MULLIKEN ATOMIC CHARGES
-----------------------
   0 N :   -0.552936
   1 C :    0.106096
   2 C :   -0.206951
   3 C :    0.009983
   4 N :   -0.329393
   5 C :   -0.070612
   6 C :    0.069154
   7 C :   -0.269505
   8 N :   -0.034744
   9 H :    0.252041
  10 H :    0.249101
  11 H :    0.128336
  12 H :    0.123691
  13 H :    0.154353
  14 H :    0.215128
  15 H :    0.156257
Sum of atomic charges:   -0.0000000

LOEWDIN ATOMIC CHARGES
----------------------
   0 N :   -0.092021
   1 C :   -0.259460
   2 C :   -0.179925
   3 C :   -0.152779
   4 N :    0.011905
   5 C :   -0.154879
   6 C :   -0.129592
   7 C :   -0.176145
   8 N :    0.064958
   9 H :    0.169140
  10 H :    0.167899
  11 H :    0.143304
  12 H :    0.132596
  13 H :    0.135045
  14 H :    0.173816
  15 H :    0.146137

  Mayer bond orders larger than 0.1
B(  0-N ,  1-C ) :   1.0426 B(  0-N ,  9-H ) :   0.8736 B(  0-N , 10-H ) :   0.8796
B(  1-C ,  2-C ) :   0.9702 B(  1-C ,  5-C ) :   0.8737 B(  1-C ,  6-C ) :   0.7138
B(  2-C ,  3-C ) :   0.9278 B(  2-C , 11-H ) :   0.9215 B(  2-C , 12-H ) :   0.9163
B(  3-C ,  4-N ) :   0.9402 B(  3-C ,  6-C ) :   0.9187 B(  3-C , 13-H ) :   0.9086
B(  4-N ,  5-C ) :   0.9752 B(  4-N , 14-H ) :   0.8747 B(  5-C ,  6-C ) :   0.8601
B(  5-C , 15-H ) :   0.9256 B(  6-C ,  7-C ) :   0.8961 B(  7-C ,  8-N ) :   2.8770

MP2 TOTAL ENERGY:     -396.178905174 Eh
FINAL SINGLE POINT ENERGY      -396.178905174056

DIPOLE MOMENT
-------------
                                X             Y             Z
Electronic contribution:     -4.86843      -1.26360       0.05445
Nuclear contribution   :      6.42326       1.43955       0.02555
                        -----------------------------------------
Total Dipole Moment    :      1.55483       0.17595       0.08000
                        -----------------------------------------
Magnitude (a.u.)       :      1.56680
Magnitude (Debye)      :      3.98249

                             ****ORCA TERMINATED NORMALLY****
TOTAL RUN TIME: 0 days 0 hours 16 minutes 42 seconds 791 msec
