                         Program Version 3.0.3 - RELEASE   -
|  1> ! RI-MP2 RIJK def2-TZVP def2-TZVP/C def2-TZVP/JK TIGHTSCF
|  2> % maxcore 2000
|  3> % mp2 density relaxed end
|  4> *xyz 0 1
|  5>  C        0.3571822248     1.3633524740     0.1402104635
|  6>  O        0.5341749713    -0.0349064460     0.1080788762
|  7>  C        0.2580991341    -0.5745007525    -1.1682747498
|  8>  C        0.4677263512    -2.0158760420    -1.1597758160
|  9>  C        0.6417872042    -3.2064394125    -1.1907343258
| 10>  C        0.8456828244    -4.6577996330    -1.1776827945
| 11>  O        2.0348780308    -5.0711340953    -1.7917621416
| 12>  C        0.8115340448    -5.1217984199     0.2849255885
| 13>  O        1.7358507873    -5.7257607231     0.7637114156
| 14>  H        1.0293718976     1.8772025146    -0.5651292364
| 15>  H       -0.6785982754     1.6506243445    -0.1012819619
| 16>  H        0.5890702334     1.6935475199     1.1548489514
| 17>  H       -0.7814312621    -0.3511281839    -1.4666637858
| 18>  H        0.9083799901    -0.1159640670    -1.9338264702
| 19>  H       -0.0161212269    -5.1365821233    -1.6762533935
| 20>  H        2.5698774332    -5.4577468929    -1.0792764443
| 21>  H       -0.0961207627    -4.8579696516     0.8591118248
| 22> *
| 23>
| 24>                          ****END OF INPUT****

CARTESIAN COORDINATES (ANGSTROEM)
---------------------------------
  C      0.357182    1.363352    0.140210
  O      0.534175   -0.034906    0.108079
  C      0.258099   -0.574501   -1.168275
  C      0.467726   -2.015876   -1.159776
  C      0.641787   -3.206439   -1.190734
  C      0.845683   -4.657800   -1.177683
  O      2.034878   -5.071134   -1.791762
  C      0.811534   -5.121798    0.284926
  O      1.735851   -5.725761    0.763711
  H      1.029372    1.877203   -0.565129
  H     -0.678598    1.650624   -0.101282
  H      0.589070    1.693548    1.154849
  H     -0.781431   -0.351128   -1.466664
  H      0.908380   -0.115964   -1.933826
  H     -0.016121   -5.136582   -1.676253
  H      2.569877   -5.457747   -1.079276
  H     -0.096121   -4.857970    0.859112

 Total Charge           Charge          ....    0
 Multiplicity           Mult            ....    1
 Number of Electrons    NEL             ....   68
 Basis Dimension        Dim             ....  327

ORBITAL ENERGIES
----------------

  NO   OCC          E(Eh)            E(eV)
   0   2.0000     -20.585589      -560.1623
   1   2.0000     -20.573852      -559.8430
   2   2.0000     -20.569473      -559.7238
   3   2.0000     -11.357038      -309.0407
   4   2.0000     -11.331989      -308.3591
   5   2.0000     -11.316071      -307.9260
   6   2.0000     -11.283317      -307.0347
   7   2.0000     -11.246448      -306.0314
   8   2.0000     -11.241194      -305.8884
   9   2.0000      -1.433327       -39.0028
  10   2.0000      -1.394501       -37.9463
  11   2.0000      -1.376873       -37.4666
  12   2.0000      -1.085725       -29.5441
  13   2.0000      -1.027786       -27.9675
  14   2.0000      -0.960050       -26.1243
  15   2.0000      -0.900089       -24.4927
  16   2.0000      -0.829982       -22.5850
  17   2.0000      -0.740055       -20.1379
  18   2.0000      -0.723568       -19.6893
  19   2.0000      -0.691623       -18.8200
  20   2.0000      -0.686343       -18.6764
  21   2.0000      -0.683099       -18.5881
  22   2.0000      -0.668465       -18.1899
  23   2.0000      -0.633144       -17.2287
  24   2.0000      -0.579153       -15.7596
  25   2.0000      -0.573993       -15.6191
  26   2.0000      -0.559924       -15.2363
  27   2.0000      -0.547445       -14.8967
  28   2.0000      -0.505386       -13.7523
  29   2.0000      -0.486128       -13.2282
  30   2.0000      -0.462990       -12.5986
  31   2.0000      -0.449160       -12.2223
  32   2.0000      -0.396402       -10.7867
  33   2.0000      -0.393804       -10.7160
  34   0.0000       0.112305         3.0560
  35   0.0000       0.131417         3.5760
  36   0.0000       0.142314         3.8726
  37   0.0000       0.156179         4.2498
  38   0.0000       0.169511         4.6126

MULLIKEN ATOMIC CHARGES
-----------------------
   0 C :   -0.216853
   1 O :   -0.285272
   2 C :   -0.206388
   3 C :    0.043984
   4 C :    0.100063
   5 C :   -0.052993
   6 O :   -0.460669
   7 C :    0.144206
   8 O :   -0.280811
   9 H :    0.115319
  10 H :    0.113085
  11 H :    0.145932
  12 H :    0.126410
  13 H :    0.131543
  14 H :    0.134504
  15 H :    0.335568
  16 H :    0.112372
Sum of atomic charges:    0.0000000

LOEWDIN ATOMIC CHARGES
----------------------
   0 C :   -0.356533
   1 O :    0.140776
   2 C :   -0.314152
   3 C :   -0.048838
   4 C :   -0.045326
   5 C :   -0.356371
   6 O :    0.009208
   7 C :   -0.247963
   8 O :    0.140811
   9 H :    0.102943
  10 H :    0.102258
  11 H :    0.116464
  12 H :    0.137996
  13 H :    0.140477
  14 H :    0.167370
  15 H :    0.185073
  16 H :    0.125806

  Mayer bond orders larger than 0.1
B(  0-C ,  1-O ) :   0.9112 B(  0-C ,  9-H ) :   0.9365 B(  0-C , 10-H ) :   0.9362
B(  0-C , 11-H ) :   0.9380 B(  1-O ,  2-C ) :   1.0531 B(  2-C ,  3-C ) :   1.0113
B(  2-C , 12-H ) :   0.9362 B(  2-C , 13-H ) :   0.9343 B(  3-C ,  4-C ) :   2.7885
B(  4-C ,  5-C ) :   0.7878 B(  4-C ,  6-O ) :  -0.1075 B(  5-C ,  6-O ) :   1.2113
B(  5-C ,  7-C ) :   0.9243 B(  5-C , 14-H ) :   0.9777 B(  6-O , 15-H ) :   0.8032
B(  7-C ,  8-O ) :   1.9252 B(  7-C , 16-H ) :   0.9186

MP2 TOTAL ENERGY:     -458.168596170 Eh
FINAL SINGLE POINT ENERGY      -458.168596170321

DIPOLE MOMENT
-------------
                                X             Y             Z
Electronic contribution:      2.33225      -9.86215       0.25222
Nuclear contribution   :     -3.29107      10.70917      -0.34893
                        -----------------------------------------
Total Dipole Moment    :     -0.95881       0.84701      -0.09671
                        -----------------------------------------
Magnitude (a.u.)       :      1.28301
Magnitude (Debye)      :      3.26115

                             ****ORCA TERMINATED NORMALLY****
TOTAL RUN TIME: 0 days 0 hours 11 minutes 57 seconds 14 msec
