                         Program Version 3.0.3 - RELEASE   -
|  1> ! RI-MP2 RIJK def2-TZVP def2-TZVP/C def2-TZVP/JK TIGHTSCF
|  2> % maxcore 2000
|  3> % mp2 density relaxed end
|  4> *xyz 0 1
|  5>  C       -0.1222128546     1.4283282383     0.0118091992
|  6>  C       -0.0743911162    -0.0252266248     0.0027139518
|  7>  C       -0.0361851566    -1.2274235522    -0.0047337545
|  8>  C        0.0468438585    -2.6719701914    -0.0137773873
|  9>  O       -1.3074756724    -3.2191939177    -0.0033529358
| 10>  C       -1.3688340471    -4.5483150052    -0.0094308474
| 11>  O       -0.4446396641    -5.3152682718    -0.0223204281
| 12>  C       -2.7711685560    -4.9852584515     0.0020880506
| 13>  N       -3.8542888625    -5.3852896927     0.0106083807
| 14>  H        0.8884932554     1.8502671197     0.0075437124
| 15>  H       -0.6484294092     1.8126824704    -0.8681248872
| 16>  H       -0.6364331050     1.8019362271     0.9033882726
| 17>  H        0.5597409111    -3.0507588064    -0.9038198317
| 18>  H        0.5774512288    -3.0608551118     0.8613981947
| 19> *
| 20>
| 21>                          ****END OF INPUT****

CARTESIAN COORDINATES (ANGSTROEM)
---------------------------------
  C     -0.122213    1.428328    0.011809
  C     -0.074391   -0.025227    0.002714
  C     -0.036185   -1.227424   -0.004734
  C      0.046844   -2.671970   -0.013777
  O     -1.307476   -3.219194   -0.003353
  C     -1.368834   -4.548315   -0.009431
  O     -0.444640   -5.315268   -0.022320
  C     -2.771169   -4.985258    0.002088
  N     -3.854289   -5.385290    0.010608
  H      0.888493    1.850267    0.007544
  H     -0.648429    1.812682   -0.868125
  H     -0.636433    1.801936    0.903388
  H      0.559741   -3.050759   -0.903820
  H      0.577451   -3.060855    0.861398

 Total Charge           Charge          ....    0
 Multiplicity           Mult            ....    1
 Number of Electrons    NEL             ....   64
 Basis Dimension        Dim             ....  309

ORBITAL ENERGIES
----------------

  NO   OCC          E(Eh)            E(eV)
   0   2.0000     -20.650673      -561.9334
   1   2.0000     -20.598268      -560.5074
   2   2.0000     -15.616361      -424.9428
   3   2.0000     -11.452720      -311.6444
   4   2.0000     -11.345306      -308.7215
   5   2.0000     -11.306241      -307.6585
   6   2.0000     -11.263952      -306.5077
   7   2.0000     -11.255982      -306.2908
   8   2.0000     -11.241966      -305.9094
   9   2.0000      -1.512885       -41.1677
  10   2.0000      -1.414429       -38.4886
  11   2.0000      -1.251895       -34.0658
  12   2.0000      -1.100941       -29.9581
  13   2.0000      -1.047876       -28.5142
  14   2.0000      -0.970827       -26.4175
  15   2.0000      -0.913037       -24.8450
  16   2.0000      -0.800947       -21.7949
  17   2.0000      -0.731047       -19.8928
  18   2.0000      -0.722256       -19.6536
  19   2.0000      -0.697966       -18.9926
  20   2.0000      -0.642014       -17.4701
  21   2.0000      -0.618209       -16.8223
  22   2.0000      -0.607093       -16.5198
  23   2.0000      -0.603413       -16.4197
  24   2.0000      -0.601553       -16.3691
  25   2.0000      -0.586131       -15.9494
  26   2.0000      -0.528985       -14.3944
  27   2.0000      -0.514405       -13.9977
  28   2.0000      -0.497458       -13.5365
  29   2.0000      -0.497307       -13.5324
  30   2.0000      -0.404381       -11.0038
  31   2.0000      -0.394794       -10.7429
  32   0.0000       0.073131         1.9900
  33   0.0000       0.126028         3.4294
  34   0.0000       0.136047         3.7020
  35   0.0000       0.144590         3.9345
  36   0.0000       0.166630         4.5342

MULLIKEN ATOMIC CHARGES
-----------------------
   0 C :   -0.468799
   1 C :    0.109864
   2 C :   -0.019502
   3 C :   -0.243631
   4 O :   -0.195392
   5 C :    0.416112
   6 O :   -0.277708
   7 C :   -0.121276
   8 N :   -0.037796
   9 H :    0.167507
  10 H :    0.168715
  11 H :    0.168736
  12 H :    0.166569
  13 H :    0.166603
Sum of atomic charges:    0.0000000

LOEWDIN ATOMIC CHARGES
----------------------
   0 C :   -0.285815
   1 C :   -0.076662
   2 C :   -0.089414
   3 C :   -0.240679
   4 O :    0.289249
   5 C :   -0.494052
   6 O :    0.174558
   7 C :   -0.122550
   8 N :    0.106486
   9 H :    0.145543
  10 H :    0.144864
  11 H :    0.144880
  12 H :    0.151794
  13 H :    0.151798

  Mayer bond orders larger than 0.1
B(  0-C ,  1-C ) :   0.8696 B(  0-C ,  9-H ) :   0.9425 B(  0-C , 10-H ) :   0.9411
B(  0-C , 11-H ) :   0.9411 B(  1-C ,  2-C ) :   2.7050 B(  2-C ,  3-C ) :   1.0146
B(  3-C ,  4-O ) :   0.8407 B(  3-C , 12-H ) :   0.9423 B(  3-C , 13-H ) :   0.9424
B(  4-O ,  5-C ) :   1.1768 B(  5-C ,  6-O ) :   1.9133 B(  5-C ,  7-C ) :   0.9017
B(  7-C ,  8-N ) :   2.7992

MP2 TOTAL ENERGY:     -435.949926527 Eh
FINAL SINGLE POINT ENERGY      -435.949926526839

DIPOLE MOMENT
-------------
                                X             Y             Z
Electronic contribution:     -4.64731     -11.34064      -0.01757
Nuclear contribution   :      5.76235      12.94635       0.01531
                        -----------------------------------------
Total Dipole Moment    :      1.11504       1.60570      -0.00226
                        -----------------------------------------
Magnitude (a.u.)       :      1.95489
Magnitude (Debye)      :      4.96895

                             ****ORCA TERMINATED NORMALLY****
TOTAL RUN TIME: 0 days 0 hours 11 minutes 36 seconds 383 msec
