                         Program Version 3.0.3 - RELEASE   -
|  1> ! RI-MP2 RIJK def2-TZVP def2-TZVP/C def2-TZVP/JK TIGHTSCF
|  2> % maxcore 2000
|  3> % mp2 density relaxed end
|  4> *xyz 0 1
|  5>  N        0.0294537780     1.3205846594     0.0667607698
|  6>  C       -0.0616577567    -0.0196542008     0.0194542790
|  7>  N       -1.2197231298    -0.6052907717     0.0036709115
|  8>  O       -1.1359154782    -2.0315435113    -0.0139547744
|  9>  C        0.0498762657    -2.6328574634    -0.0141042033
| 10>  O       -0.0727494469    -3.9543599950    -0.0168344194
| 11>  N        1.2230453509    -2.1029916959    -0.0146627750
| 12>  C        1.2707727613    -0.7328148600    -0.0083834483
| 13>  O        2.2900937991    -0.0739623935    -0.0284173792
| 14>  H        0.9591964807     1.6995414682    -0.0257644082
| 15>  H       -0.7851096654     1.9030925562    -0.0162911791
| 16>  H       -1.0141190986    -4.1785115423    -0.0155124235
| 17> *
| 18>
| 19>                          ****END OF INPUT****

CARTESIAN COORDINATES (ANGSTROEM)
---------------------------------
  N      0.029454    1.320585    0.066761
  C     -0.061658   -0.019654    0.019454
  N     -1.219723   -0.605291    0.003671
  O     -1.135915   -2.031544   -0.013955
  C      0.049876   -2.632857   -0.014104
  O     -0.072749   -3.954360   -0.016834
  N      1.223045   -2.102992   -0.014663
  C      1.270773   -0.732815   -0.008383
  O      2.290094   -0.073962   -0.028417
  H      0.959196    1.699541   -0.025764
  H     -0.785110    1.903093   -0.016291
  H     -1.014119   -4.178512   -0.015512

 Total Charge           Charge          ....    0
 Multiplicity           Mult            ....    1
 Number of Electrons    NEL             ....   66
 Basis Dimension        Dim             ....  297

ORBITAL ENERGIES
----------------

  NO   OCC          E(Eh)            E(eV)
   0   2.0000     -20.676273      -562.6300
   1   2.0000     -20.648710      -561.8800
   2   2.0000     -20.560416      -559.4774
   3   2.0000     -15.647834      -425.7992
   4   2.0000     -15.606171      -424.6655
   5   2.0000     -15.578220      -423.9049
   6   2.0000     -11.455462      -311.7190
   7   2.0000     -11.386751      -309.8493
   8   2.0000     -11.363080      -309.2051
   9   2.0000      -1.546167       -42.0733
  10   2.0000      -1.452497       -39.5244
  11   2.0000      -1.418793       -38.6073
  12   2.0000      -1.292369       -35.1671
  13   2.0000      -1.264991       -34.4222
  14   2.0000      -1.165342       -31.7106
  15   2.0000      -0.945171       -25.7194
  16   2.0000      -0.924015       -25.1437
  17   2.0000      -0.834898       -22.7187
  18   2.0000      -0.785325       -21.3698
  19   2.0000      -0.760927       -20.7059
  20   2.0000      -0.724059       -19.7027
  21   2.0000      -0.704189       -19.1620
  22   2.0000      -0.665841       -18.1185
  23   2.0000      -0.657002       -17.8779
  24   2.0000      -0.619495       -16.8573
  25   2.0000      -0.616230       -16.7685
  26   2.0000      -0.592169       -16.1137
  27   2.0000      -0.540410       -14.7053
  28   2.0000      -0.536974       -14.6118
  29   2.0000      -0.499234       -13.5849
  30   2.0000      -0.440009       -11.9732
  31   2.0000      -0.434040       -11.8108
  32   2.0000      -0.392114       -10.6700
  33   0.0000       0.077460         2.1078
  34   0.0000       0.124306         3.3825
  35   0.0000       0.131646         3.5823
  36   0.0000       0.147469         4.0128
  37   0.0000       0.175876         4.7858

MULLIKEN ATOMIC CHARGES
-----------------------
   0 N :   -0.473433
   1 C :    0.142503
   2 N :   -0.144065
   3 O :   -0.154010
   4 C :    0.397232
   5 O :   -0.358705
   6 N :   -0.253574
   7 C :    0.248450
   8 O :   -0.320284
   9 H :    0.293498
  10 H :    0.266455
  11 H :    0.355933
Sum of atomic charges:    0.0000000

LOEWDIN ATOMIC CHARGES
----------------------
   0 N :    0.014210
   1 C :   -0.360905
   2 N :    0.040747
   3 O :    0.239080
   4 C :   -0.510278
   5 O :    0.141972
   6 N :    0.143890
   7 C :   -0.418555
   8 O :    0.129617
   9 H :    0.190488
  10 H :    0.178022
  11 H :    0.211712

  Mayer bond orders larger than 0.1
B(  0-N ,  1-C ) :   1.2017 B(  0-N ,  9-H ) :   0.8350 B(  0-N , 10-H ) :   0.8607
B(  1-C ,  2-N ) :   1.6814 B(  1-C ,  7-C ) :   0.9353 B(  2-N ,  3-O ) :   0.7696
B(  3-O ,  4-C ) :   1.1648 B(  4-C ,  5-O ) :   1.1910 B(  4-C ,  6-N ) :   1.5982
B(  5-O , 11-H ) :   0.8057 B(  6-N ,  7-C ) :   1.1864 B(  7-C ,  8-O ) :   1.8797

MP2 TOTAL ENERGY:     -505.170167128 Eh
FINAL SINGLE POINT ENERGY      -505.170167128083

DIPOLE MOMENT
-------------
                                X             Y             Z
Electronic contribution:      0.09414      -2.56356      -0.02238
Nuclear contribution   :     -1.48559       2.87402      -0.04877
                        -----------------------------------------
Total Dipole Moment    :     -1.39145       0.31046      -0.07115
                        -----------------------------------------
Magnitude (a.u.)       :      1.42744
Magnitude (Debye)      :      3.62827

                             ****ORCA TERMINATED NORMALLY****
TOTAL RUN TIME: 0 days 0 hours 12 minutes 43 seconds 336 msec
